<event>
 5    1  0.4046313E-006  0.2000285E+02  0.7818608E-02  0.1745271E+00
         -2   -1    0    0    0  501 -0.00000000000E+00  0.00000000000E+00  0.27282414549E+01  0.27282426938E+01  0.26000000000E-02 0. -1.
          2   -1    0    0  501    0  0.00000000000E+00 -0.00000000000E+00 -0.36664084017E+02  0.36664084109E+02  0.26000000000E-02 0.  1.
       1023    2    1    2    0    0  0.00000000000E+00  0.00000000000E+00 -0.33935842562E+02  0.39392326803E+02  0.20002849811E+02 0.  0.
        -11    1    3    3    0    0  0.85132524114E+01  0.52469877392E+01 -0.17261034422E+02  0.19948675558E+02  0.51100000000E-03 0. -1.
         11    1    3    3    0    0 -0.85132524114E+01 -0.52469877392E+01 -0.16674808140E+02  0.19443651245E+02  0.51100000000E-03 0.  1.
<mgrwt>
<rscale>  0 0.20002850E+02</rscale>
<asrwt>0</asrwt>
<pdfrwt beam="2">  1        2 0.56406281E-02 0.20002850E+02</pdfrwt>
<pdfrwt beam="1">  1       -2 0.41972958E-03 0.20002850E+02</pdfrwt>
<totfact> 0.44386447E+06</totfact>
</mgrwt>
</event>
<event>
 5    1  0.4046313E-006  0.2000196E+02  0.7818608E-02  0.1745289E+00
          2   -1    0    0  501    0  0.00000000000E+00  0.00000000000E+00  0.34770202653E+02  0.34770202750E+02  0.26000000000E-02 0.  1.
         -2   -1    0    0    0  501 -0.00000000000E+00 -0.00000000000E+00 -0.28765895942E+01  0.28765907692E+01  0.26000000000E-02 0. -1.
       1023    2    1    2    0    0  0.00000000000E+00  0.00000000000E+00  0.31893613059E+02  0.37646793520E+02  0.20001962612E+02 0.  0.
        -11    1    3    3    0    0 -0.95375627759E+01  0.30090679050E+01  0.15957694310E+02  0.18832620670E+02  0.51100000000E-03 0.  1.
         11    1    3    3    0    0  0.95375627759E+01 -0.30090679050E+01  0.15935918749E+02  0.18814172849E+02  0.51100000000E-03 0. -1.
<mgrwt>
<rscale>  0 0.20001963E+02</rscale>
<asrwt>0</asrwt>
<pdfrwt beam="1">  1        2 0.53492621E-02 0.20001963E+02</pdfrwt>
<pdfrwt beam="2">  1       -2 0.44255234E-03 0.20001963E+02</pdfrwt>
<totfact> 0.44104433E+06</totfact>
</mgrwt>
</event>
<event>
 5    1  0.4046313E-006  0.2000021E+02  0.7818608E-02  0.1745324E+00
         -2   -1    0    0    0  501 -0.00000000000E+00  0.00000000000E+00  0.11303327851E+02  0.11303328150E+02  0.26000000000E-02 0.  1.
          2   -1    0    0  501    0  0.00000000000E+00 -0.00000000000E+00 -0.88471337661E+01  0.88471341481E+01  0.26000000000E-02 0. -1.
       1023    2    1    2    0    0  0.00000000000E+00  0.00000000000E+00  0.24561940845E+01  0.20150462298E+02  0.20000206035E+02 0.  0.
        -11    1    3    3    0    0 -0.15759443350E+01  0.98751308368E+01  0.12121507653E+01  0.10073287414E+02  0.51100000000E-03 0. -1.
         11    1    3    3    0    0  0.15759443350E+01 -0.98751308368E+01  0.12440433192E+01  0.10077174883E+02  0.51100000000E-03 0.  1.
<mgrwt>
<rscale>  0 0.20000206E+02</rscale>
<asrwt>0</asrwt>
<pdfrwt beam="2">  1        2 0.13610976E-02 0.20000206E+02</pdfrwt>
<pdfrwt beam="1">  1       -2 0.17389736E-02 0.20000206E+02</pdfrwt>
<totfact> 0.39110143E+06</totfact>
</mgrwt>
</event>
<event>
 5    1  0.4046313E-006  0.2000048E+02  0.7818608E-02  0.1745318E+00
         -2   -1    0    0    0  501 -0.00000000000E+00  0.00000000000E+00  0.94199313364E+02  0.94199313400E+02  0.26000000000E-02 0. -1.
          2   -1    0    0  501    0  0.00000000000E+00 -0.00000000000E+00 -0.10616285700E+01  0.10616317538E+01  0.26000000000E-02 0.  1.
       1023    2    1    2    0    0  0.00000000000E+00  0.00000000000E+00  0.93137684794E+02  0.95260945153E+02  0.20000483564E+02 0.  0.
        -11    1    3    3    0    0  0.56004617860E+01  0.82849010986E+01  0.46527046226E+02  0.47589607995E+02  0.51100000000E-03 0.  1.
         11    1    3    3    0    0 -0.56004617860E+01 -0.82849010986E+01  0.46610638568E+02  0.47671337158E+02  0.51100000000E-03 0. -1.
<mgrwt>
<rscale>  0 0.20000484E+02</rscale>
<asrwt>0</asrwt>
<pdfrwt beam="2">  1        2 0.16332769E-03 0.20000484E+02</pdfrwt>
<pdfrwt beam="1">  1       -2 0.14492205E-01 0.20000484E+02</pdfrwt>
<totfact> 0.30156578E+06</totfact>
</mgrwt>
</event>
<event>
 5    1  0.4046313E-006  0.2000047E+02  0.7818608E-02  0.1745319E+00
          2   -1    0    0  501    0  0.00000000000E+00  0.00000000000E+00  0.36425203217E+01  0.36425212496E+01  0.26000000000E-02 0. -1.
         -2   -1    0    0    0  501 -0.00000000000E+00 -0.00000000000E+00 -0.27454801648E+02  0.27454801771E+02  0.26000000000E-02 0.  1.
       1023    2    1    2    0    0  0.00000000000E+00  0.00000000000E+00 -0.23812281327E+02  0.31097323021E+02  0.20000468922E+02 0.  0.
        -11    1    3    3    0    0  0.99996043006E+01  0.11225583627E+00 -0.11904254608E+02  0.15547217294E+02  0.51100000000E-03 0. -1.
         11    1    3    3    0    0 -0.99996043006E+01 -0.11225583627E+00 -0.11908026718E+02  0.15550105727E+02  0.51100000000E-03 0.  1.
<mgrwt>
<rscale>  0 0.20000469E+02</rscale>
<asrwt>0</asrwt>
<pdfrwt beam="1">  1        2 0.56038784E-03 0.20000469E+02</pdfrwt>
<pdfrwt beam="2">  1       -2 0.42238156E-02 0.20000469E+02</pdfrwt>
<totfact> 0.36382847E+06</totfact>
</mgrwt>
</event>
<event>
 5    1  0.4151672E-006  0.2000147E+02  0.7818608E-02  0.1745299E+00
         -2   -1    0    0    0  501 -0.00000000000E+00  0.00000000000E+00  0.11221774347E+01  0.11221804467E+01  0.26000000000E-02 0.  1.
          2   -1    0    0  501    0  0.00000000000E+00 -0.00000000000E+00 -0.89125456388E+02  0.89125456426E+02  0.26000000000E-02 0. -1.
       1023    2    1    2    0    0  0.00000000000E+00  0.00000000000E+00 -0.88003278953E+02  0.90247636873E+02  0.20001471310E+02 0.  0.
        -11    1    3    3    0    0  0.61866761767E+01 -0.78567805101E+01 -0.43533792324E+02  0.44667606120E+02  0.51100000000E-03 0. -1.
         11    1    3    3    0    0 -0.61866761767E+01  0.78567805101E+01 -0.44469486629E+02  0.45580030753E+02  0.51100000000E-03 0.  1.
<mgrwt>
<rscale>  0 0.20001471E+02</rscale>
<asrwt>0</asrwt>
<pdfrwt beam="2">  1        2 0.13711603E-01 0.20001471E+02</pdfrwt>
<pdfrwt beam="1">  1       -2 0.17264299E-03 0.20001471E+02</pdfrwt>
<totfact> 0.51428719E+06</totfact>
</mgrwt>
</event>
<event>
 5    1  0.4046313E-006  0.2000222E+02  0.7818608E-02  0.1745284E+00
          2   -1    0    0  501    0  0.00000000000E+00  0.00000000000E+00  0.18871203147E+01  0.18871221058E+01  0.26000000000E-02 0. -1.
         -2   -1    0    0    0  501 -0.00000000000E+00 -0.00000000000E+00 -0.53002509132E+02  0.53002509196E+02  0.26000000000E-02 0.  1.
       1023    2    1    2    0    0  0.00000000000E+00  0.00000000000E+00 -0.51115388818E+02  0.54889631302E+02  0.20002216139E+02 0.  0.
        -11    1    3    3    0    0  0.66978215544E+00  0.99777807059E+01 -0.25920158671E+02  0.27782356663E+02  0.51100000000E-03 0.  1.
         11    1    3    3    0    0 -0.66978215544E+00 -0.99777807059E+01 -0.25195230147E+02  0.27107274639E+02  0.51100000000E-03 0. -1.
<mgrwt>
<rscale>  0 0.20002216E+02</rscale>
<asrwt>0</asrwt>
<pdfrwt beam="1">  1        2 0.29032639E-03 0.20002216E+02</pdfrwt>
<pdfrwt beam="2">  1       -2 0.81542312E-02 0.20002216E+02</pdfrwt>
<totfact> 0.33601195E+06</totfact>
</mgrwt>
</event>
<event>
 4    1  0.4046313E-006  0.2001316E+02  0.7818608E-02  0.1745066E+00
          2   -1    0    0  501    0  0.00000000000E+00  0.00000000000E+00  0.66331812939E+02  0.66331812990E+02  0.26000000000E-02 0.  1.
         -2   -1    0    0    0  501 -0.00000000000E+00 -0.00000000000E+00 -0.15095557941E+01  0.15095580332E+01  0.26000000000E-02 0. -1.
        -11    1    1    2    0    0 -0.97300137214E+01 -0.23109743359E+01  0.33574986739E+02  0.35032749024E+02  0.51100000000E-03 0. -1.
         11    1    1    2    0    0  0.97300137214E+01  0.23109743359E+01  0.31247270407E+02  0.32808622000E+02  0.51100000000E-03 0.  1.
<mgrwt>
<rscale>  0 0.20013161E+02</rscale>
<asrwt>0</asrwt>
<pdfrwt beam="1">  1        2 0.10204895E-01 0.20013161E+02</pdfrwt>
<pdfrwt beam="2">  1       -2 0.23223952E-03 0.20013161E+02</pdfrwt>
<totfact> 0.48469195E+06</totfact>
</mgrwt>
</event>
<event>
 5    1  0.4046313E-006  0.2000078E+02  0.7818608E-02  0.1745313E+00
         -2   -1    0    0    0  501 -0.00000000000E+00  0.00000000000E+00  0.27083240361E+01  0.27083252841E+01  0.26000000000E-02 0.  1.
          2   -1    0    0  501    0  0.00000000000E+00 -0.00000000000E+00 -0.36926086178E+02  0.36926086270E+02  0.26000000000E-02 0. -1.
       1023    2    1    2    0    0  0.00000000000E+00  0.00000000000E+00 -0.34217762142E+02  0.39634411554E+02  0.20000783315E+02 0.  0.
        -11    1    3    3    0    0  0.34448867274E+01 -0.93883202597E+01 -0.17097816514E+02  0.19807653361E+02  0.51100000000E-03 0.  1.
         11    1    3    3    0    0 -0.34448867274E+01  0.93883202597E+01 -0.17119945628E+02  0.19826758193E+02  0.51100000000E-03 0. -1.
<mgrwt>
<rscale>  0 0.20000783E+02</rscale>
<asrwt>0</asrwt>
<pdfrwt beam="2">  1        2 0.56809360E-02 0.20000783E+02</pdfrwt>
<pdfrwt beam="1">  1       -2 0.41666537E-03 0.20000783E+02</pdfrwt>
<totfact> 0.44436027E+06</totfact>
</mgrwt>
</event>
<event>
 4    1  0.4046313E-006  0.2001894E+02  0.7818608E-02  0.1744952E+00
         -2   -1    0    0    0  501 -0.00000000000E+00  0.00000000000E+00  0.17595595880E+02  0.17595596072E+02  0.26000000000E-02 0. -1.
          2   -1    0    0  501    0  0.00000000000E+00 -0.00000000000E+00 -0.56940116083E+01  0.56940122019E+01  0.26000000000E-02 0.  1.
        -11    1    1    2    0    0 -0.83901751179E+01 -0.54566493717E+01  0.61131457958E+01  0.11727771001E+02  0.51100000000E-03 0. -1.
         11    1    1    2    0    0  0.83901751179E+01  0.54566493717E+01  0.57884384762E+01  0.11561837273E+02  0.51100000000E-03 0.  1.
<mgrwt>
<rscale>  0 0.20018945E+02</rscale>
<asrwt>0</asrwt>
<pdfrwt beam="2">  1        2 0.87600186E-03 0.20018945E+02</pdfrwt>
<pdfrwt beam="1">  1       -2 0.27070148E-02 0.20018945E+02</pdfrwt>
<totfact> 0.37748550E+06</totfact>
</mgrwt>
</event>
<event>
 5    1  0.4046313E-006  0.2000138E+02  0.7818608E-02  0.1745301E+00
          2   -1    0    0  501    0  0.00000000000E+00  0.00000000000E+00  0.38127189526E+02  0.38127189615E+02  0.26000000000E-02 0. -1.
         -2   -1    0    0    0  501 -0.00000000000E+00 -0.00000000000E+00 -0.26231603784E+01  0.26231616670E+01  0.26000000000E-02 0.  1.
       1023    2    1    2    0    0  0.00000000000E+00  0.00000000000E+00  0.35504029148E+02  0.40750351282E+02  0.20001376049E+02 0.  0.
        -11    1    3    3    0    0 -0.72258527797E+01 -0.69135474507E+01  0.17628522638E+02  0.20267582427E+02  0.51100000000E-03 0. -1.
         11    1    3    3    0    0  0.72258527797E+01  0.69135474507E+01  0.17875506509E+02  0.20482768855E+02  0.51100000000E-03 0.  1.
<mgrwt>
<rscale>  0 0.20001376E+02</rscale>
<asrwt>0</asrwt>
<pdfrwt beam="1">  1        2 0.58657216E-02 0.20001376E+02</pdfrwt>
<pdfrwt beam="2">  1       -2 0.40356324E-03 0.20001376E+02</pdfrwt>
<totfact> 0.44612465E+06</totfact>
</mgrwt>
</event>
<event>
 5    1  0.4046313E-006  0.2000580E+02  0.7818608E-02  0.1745213E+00
          2   -1    0    0  501    0  0.00000000000E+00  0.00000000000E+00  0.90140755539E+02  0.90140755577E+02  0.26000000000E-02 0. -1.
         -2   -1    0    0    0  501 -0.00000000000E+00 -0.00000000000E+00 -0.11100176971E+01  0.11100207421E+01  0.26000000000E-02 0.  1.
       1023    2    1    2    0    0  0.00000000000E+00  0.00000000000E+00  0.89030737842E+02  0.91250776319E+02  0.20005796612E+02 0.  0.
        -11    1    3    3    0    0  0.62682601110E+01 -0.77924889423E+01  0.43558539986E+02  0.44691837898E+02  0.51100000000E-03 0. -1.
         11    1    3    3    0    0 -0.62682601110E+01  0.77924889423E+01  0.45472197856E+02  0.46558938420E+02  0.51100000000E-03 0.  1.
<mgrwt>
<rscale>  0 0.20005797E+02</rscale>
<asrwt>0</asrwt>
<pdfrwt beam="1">  1        2 0.13867812E-01 0.20005797E+02</pdfrwt>
<pdfrwt beam="2">  1       -2 0.17077215E-03 0.20005797E+02</pdfrwt>
<totfact> 0.51529016E+06</totfact>
</mgrwt>
</event>
<event>
 5    1  0.4046313E-006  0.2000036E+02  0.7818608E-02  0.1745321E+00
          2   -1    0    0  501    0  0.00000000000E+00  0.00000000000E+00  0.81479875838E+01  0.81479879986E+01  0.26000000000E-02 0.  1.
         -2   -1    0    0    0  501 -0.00000000000E+00 -0.00000000000E+00 -0.12273406345E+02  0.12273406621E+02  0.26000000000E-02 0. -1.
       1023    2    1    2    0    0  0.00000000000E+00  0.00000000000E+00 -0.41254187617E+01  0.20421394619E+02  0.20000356953E+02 0.  0.
        -11    1    3    3    0    0 -0.62569430058E+01 -0.78009101588E+01 -0.20567368041E+01  0.10209490762E+02  0.51100000000E-03 0.  1.
         11    1    3    3    0    0  0.62569430058E+01  0.78009101588E+01 -0.20686819577E+01  0.10211903857E+02  0.51100000000E-03 0. -1.
<mgrwt>
<rscale>  0 0.20000357E+02</rscale>
<asrwt>0</asrwt>
<pdfrwt beam="1">  1        2 0.12535366E-02 0.20000357E+02</pdfrwt>
<pdfrwt beam="2">  1       -2 0.18882164E-02 0.20000357E+02</pdfrwt>
<totfact> 0.38873912E+06</totfact>
</mgrwt>
</event>
<event>
 4    1  0.4046313E-006  0.2001820E+02  0.7818608E-02  0.1744966E+00
          2   -1    0    0  501    0  0.00000000000E+00  0.00000000000E+00  0.20358084894E+02  0.20358085060E+02  0.26000000000E-02 0. -1.
         -2   -1    0    0    0  501 -0.00000000000E+00 -0.00000000000E+00 -0.49209991352E+01  0.49209998220E+01  0.26000000000E-02 0.  1.
        -11    1    1    2    0    0  0.26144234179E+01  0.96615063673E+01  0.76591295149E+01  0.12603260700E+02  0.51100000000E-03 0. -1.
         11    1    1    2    0    0 -0.26144234179E+01 -0.96615063673E+01  0.77779562439E+01  0.12675824182E+02  0.51100000000E-03 0.  1.
<mgrwt>
<rscale>  0 0.20018205E+02</rscale>
<asrwt>0</asrwt>
<pdfrwt beam="1">  1        2 0.31320132E-02 0.20018205E+02</pdfrwt>
<pdfrwt beam="2">  1       -2 0.75707684E-03 0.20018205E+02</pdfrwt>
<totfact> 0.41658215E+06</totfact>
</mgrwt>
</event>
<event>
 5    1  0.4046313E-006  0.2000083E+02  0.7818608E-02  0.1745312E+00
         -2   -1    0    0    0  501 -0.00000000000E+00  0.00000000000E+00  0.16984532634E+02  0.16984532833E+02  0.26000000000E-02 0. -1.
          2   -1    0    0  501    0  0.00000000000E+00 -0.00000000000E+00 -0.58881989877E+01  0.58881995617E+01  0.26000000000E-02 0.  1.
       1023    2    1    2    0    0  0.00000000000E+00  0.00000000000E+00  0.11096333647E+02  0.22872732395E+02  0.20000831653E+02 0.  0.
        -11    1    3    3    0    0 -0.57200635812E+01 -0.82028754916E+01  0.54967340521E+01  0.11411414426E+02  0.51100000000E-03 0.  1.
         11    1    3    3    0    0  0.57200635812E+01  0.82028754916E+01  0.55995995945E+01  0.11461317969E+02  0.51100000000E-03 0. -1.
<mgrwt>
<rscale>  0 0.20000832E+02</rscale>
<asrwt>0</asrwt>
<pdfrwt beam="2">  1        2 0.90587682E-03 0.20000832E+02</pdfrwt>
<pdfrwt beam="1">  1       -2 0.26130051E-02 0.20000832E+02</pdfrwt>
<totfact> 0.37928439E+06</totfact>
</mgrwt>
</event>
<event>
 5    1  0.4080144E-006  0.2000031E+02  0.7818608E-02  0.1745322E+00
         -2   -1    0    0    0  501 -0.00000000000E+00  0.00000000000E+00  0.10448154377E+01  0.10448186727E+01  0.26000000000E-02 0. -1.
          2   -1    0    0  501    0  0.00000000000E+00 -0.00000000000E+00 -0.95713522253E+02  0.95713522288E+02  0.26000000000E-02 0.  1.
       1023    2    1    2    0    0  0.00000000000E+00  0.00000000000E+00 -0.94668706815E+02  0.96758340961E+02  0.20000312384E+02 0.  0.
        -11    1    3    3    0    0  0.31130768714E+01 -0.95032010513E+01 -0.47490801654E+02  0.48532240004E+02  0.51100000000E-03 0.  1.
         11    1    3    3    0    0 -0.31130768714E+01  0.95032010513E+01 -0.47177905161E+02  0.48226100957E+02  0.51100000000E-03 0. -1.
<mgrwt>
<rscale>  0 0.20000312E+02</rscale>
<asrwt>0</asrwt>
<pdfrwt beam="2">  1        2 0.14725151E-01 0.20000312E+02</pdfrwt>
<pdfrwt beam="1">  1       -2 0.16074116E-03 0.20000312E+02</pdfrwt>
<totfact> 0.52239989E+06</totfact>
</mgrwt>
</event>
<event>
 5    1  0.4175071E-006  0.2000072E+02  0.7818608E-02  0.1745314E+00
          2   -1    0    0  501    0  0.00000000000E+00  0.00000000000E+00  0.82484623599E+02  0.82484623640E+02  0.26000000000E-02 0. -1.
         -2   -1    0    0    0  501 -0.00000000000E+00 -0.00000000000E+00 -0.12124327245E+01  0.12124355123E+01  0.26000000000E-02 0.  1.
       1023    2    1    2    0    0  0.00000000000E+00  0.00000000000E+00  0.81272190874E+02  0.83697059152E+02  0.20000717517E+02 0.  0.
        -11    1    3    3    0    0  0.15027667086E+01  0.98868026209E+01  0.40631519497E+02  0.41844086210E+02  0.51100000000E-03 0.  1.
         11    1    3    3    0    0 -0.15027667086E+01 -0.98868026209E+01  0.40640671377E+02  0.41852972942E+02  0.51100000000E-03 0. -1.
<mgrwt>
<rscale>  0 0.20000718E+02</rscale>
<asrwt>0</asrwt>
<pdfrwt beam="1">  1        2 0.12689941E-01 0.20000718E+02</pdfrwt>
<pdfrwt beam="2">  1       -2 0.18652835E-03 0.20000718E+02</pdfrwt>
<totfact> 0.50607750E+06</totfact>
</mgrwt>
</event>
<event>
 4    1  0.4046313E-006  0.2005829E+02  0.7818608E-02  0.1744171E+00
          2   -1    0    0  501    0  0.00000000000E+00  0.00000000000E+00  0.10990187413E+03  0.10990187417E+03  0.26000000000E-02 0. -1.
         -2   -1    0    0    0  501 -0.00000000000E+00 -0.00000000000E+00 -0.91521235646E+00  0.91521604959E+00  0.26000000000E-02 0.  1.
        -11    1    1    2    0    0 -0.60393347986E+01 -0.79957937055E+01  0.56820802825E+02  0.57697572876E+02  0.51100000000E-03 0. -1.
         11    1    1    2    0    0  0.60393347986E+01  0.79957937055E+01  0.52165858953E+02  0.53119517340E+02  0.51100000000E-03 0.  1.
<mgrwt>
<rscale>  0 0.20058291E+02</rscale>
<asrwt>0</asrwt>
<pdfrwt beam="1">  1        2 0.16907979E-01 0.20058291E+02</pdfrwt>
<pdfrwt beam="2">  1       -2 0.14080220E-03 0.20058291E+02</pdfrwt>
<totfact> 0.53583297E+06</totfact>
</mgrwt>
</event>
<event>
 5    1  0.4046313E-006  0.2000039E+02  0.7818608E-02  0.1745320E+00
          2   -1    0    0  501    0  0.00000000000E+00  0.00000000000E+00  0.11403204671E+02  0.11403204967E+02  0.26000000000E-02 0. -1.
         -2   -1    0    0    0  501 -0.00000000000E+00 -0.00000000000E+00 -0.87698022533E+01  0.87698026387E+01  0.26000000000E-02 0.  1.
       1023    2    1    2    0    0  0.00000000000E+00  0.00000000000E+00  0.26334024175E+01  0.20173007606E+02  0.20000385686E+02 0.  0.
        -11    1    3    3    0    0  0.69060444891E+01  0.72325359946E+01  0.12876562390E+01  0.10082712247E+02  0.51100000000E-03 0.  1.
         11    1    3    3    0    0 -0.69060444891E+01 -0.72325359946E+01  0.13457461785E+01  0.10090295359E+02  0.51100000000E-03 0. -1.
<mgrwt>
<rscale>  0 0.20000386E+02</rscale>
<asrwt>0</asrwt>
<pdfrwt beam="1">  1        2 0.17543392E-02 0.20000386E+02</pdfrwt>
<pdfrwt beam="2">  1       -2 0.13492004E-02 0.20000386E+02</pdfrwt>
<totfact> 0.39845176E+06</totfact>
</mgrwt>
</event>
<event>
 5    1  0.4046313E-006  0.2000044E+02  0.7818608E-02  0.1745319E+00
         -2   -1    0    0    0  501 -0.00000000000E+00  0.00000000000E+00  0.24057842437E+02  0.24057842578E+02  0.26000000000E-02 0.  1.
          2   -1    0    0  501    0  0.00000000000E+00 -0.00000000000E+00 -0.41568330126E+01  0.41568338257E+01  0.26000000000E-02 0. -1.
       1023    2    1    2    0    0  0.00000000000E+00  0.00000000000E+00  0.19901009425E+02  0.28214676403E+02  0.20000444706E+02 0.  0.
        -11    1    3    3    0    0  0.17086995840E+01  0.98530501033E+01  0.98843934767E+01  0.14060707140E+02  0.51100000000E-03 0. -1.
         11    1    3    3    0    0 -0.17086995840E+01 -0.98530501033E+01  0.10016615948E+02  0.14153969264E+02  0.51100000000E-03 0.  1.
<mgrwt>
<rscale>  0 0.20000445E+02</rscale>
<asrwt>0</asrwt>
<pdfrwt beam="2">  1        2 0.63951284E-03 0.20000445E+02</pdfrwt>
<pdfrwt beam="1">  1       -2 0.37012066E-02 0.20000445E+02</pdfrwt>
<totfact> 0.36836431E+06</totfact>
</mgrwt>
</event>
<event>
 5    1  0.4046313E-006  0.2000645E+02  0.7818608E-02  0.1745200E+00
         -2   -1    0    0    0  501 -0.00000000000E+00  0.00000000000E+00  0.13226906141E+01  0.13226931695E+01  0.26000000000E-02 0.  1.
          2   -1    0    0  501    0  0.00000000000E+00 -0.00000000000E+00 -0.75652161808E+02  0.75652161852E+02  0.26000000000E-02 0. -1.
       1023    2    1    2    0    0  0.00000000000E+00  0.00000000000E+00 -0.74329471194E+02  0.76974855022E+02  0.20006449403E+02 0.  0.
        -11    1    3    3    0    0  0.95940417942E+01  0.28230713529E+01 -0.38017583291E+02  0.39310965511E+02  0.51100000000E-03 0. -1.
         11    1    3    3    0    0 -0.95940417942E+01 -0.28230713529E+01 -0.36311887902E+02  0.37663889511E+02  0.51100000000E-03 0.  1.
<mgrwt>
<rscale>  0 0.20006449E+02</rscale>
<asrwt>0</asrwt>
<pdfrwt beam="2">  1        2 0.11638791E-01 0.20006449E+02</pdfrwt>
<pdfrwt beam="1">  1       -2 0.20349112E-03 0.20006449E+02</pdfrwt>
<totfact> 0.49712423E+06</totfact>
</mgrwt>
</event>
<event>
 5    1  0.4046313E-006  0.2000036E+02  0.7818608E-02  0.1745321E+00
          2   -1    0    0  501    0  0.00000000000E+00  0.00000000000E+00  0.60101862638E+02  0.60101862694E+02  0.26000000000E-02 0.  1.
         -2   -1    0    0    0  501 -0.00000000000E+00 -0.00000000000E+00 -0.16639015118E+01  0.16639035432E+01  0.26000000000E-02 0. -1.
       1023    2    1    2    0    0  0.00000000000E+00  0.00000000000E+00  0.58437961126E+02  0.61765766237E+02  0.20000364454E+02 0.  0.
        -11    1    3    3    0    0  0.48411503365E+01  0.87500869911E+01  0.29384867286E+02  0.31039832226E+02  0.51100000000E-03 0.  1.
         11    1    3    3    0    0 -0.48411503365E+01 -0.87500869911E+01  0.29053093840E+02  0.30725934011E+02  0.51100000000E-03 0. -1.
<mgrwt>
<rscale>  0 0.20000364E+02</rscale>
<asrwt>0</asrwt>
<pdfrwt beam="1">  1        2 0.92464398E-02 0.20000364E+02</pdfrwt>
<pdfrwt beam="2">  1       -2 0.25598503E-03 0.20000364E+02</pdfrwt>
<totfact> 0.47709497E+06</totfact>
</mgrwt>
</event>
<event>
 5    1  0.4046313E-006  0.2000083E+02  0.7818608E-02  0.1745312E+00
         -2   -1    0    0    0  501 -0.00000000000E+00  0.00000000000E+00  0.76451351050E+01  0.76451355471E+01  0.26000000000E-02 0. -1.
          2   -1    0    0  501    0  0.00000000000E+00 -0.00000000000E+00 -0.13081298562E+02  0.13081298820E+02  0.26000000000E-02 0.  1.
       1023    2    1    2    0    0  0.00000000000E+00  0.00000000000E+00 -0.54361634567E+01  0.20726434367E+02  0.20000830194E+02 0.  0.
        -11    1    3    3    0    0  0.66786253775E+01 -0.74433230737E+01 -0.27540771697E+01  0.10372658127E+02  0.51100000000E-03 0. -1.
         11    1    3    3    0    0 -0.66786253775E+01  0.74433230737E+01 -0.26820862871E+01  0.10353776240E+02  0.51100000000E-03 0.  1.
<mgrwt>
<rscale>  0 0.20000830E+02</rscale>
<asrwt>0</asrwt>
<pdfrwt beam="2">  1        2 0.20125075E-02 0.20000830E+02</pdfrwt>
<pdfrwt beam="1">  1       -2 0.11761747E-02 0.20000830E+02</pdfrwt>
<totfact> 0.40256385E+06</totfact>
</mgrwt>
</event>
<event>
 5    1  0.4046313E-006  0.2000655E+02  0.7818608E-02  0.1745198E+00
          2   -1    0    0  501    0  0.00000000000E+00  0.00000000000E+00  0.94552278024E+00  0.94552635497E+00  0.26000000000E-02 0. -1.
         -2   -1    0    0    0  501 -0.00000000000E+00 -0.00000000000E+00 -0.10583063992E+03  0.10583063995E+03  0.26000000000E-02 0.  1.
       1023    2    1    2    0    0  0.00000000000E+00  0.00000000000E+00 -0.10488511714E+03  0.10677616631E+03  0.20006546273E+02 0.  0.
        -11    1    3    3    0    0 -0.53636038607E+01 -0.84417066329E+01 -0.53438402388E+02  0.54366290174E+02  0.51100000000E-03 0.  1.
         11    1    3    3    0    0  0.53636038607E+01  0.84417066329E+01 -0.51446714754E+02  0.52409876135E+02  0.51100000000E-03 0. -1.
<mgrwt>
<rscale>  0 0.20006546E+02</rscale>
<asrwt>0</asrwt>
<pdfrwt beam="1">  1        2 0.14546540E-03 0.20006546E+02</pdfrwt>
<pdfrwt beam="2">  1       -2 0.16281628E-01 0.20006546E+02</pdfrwt>
<totfact> 0.29291767E+06</totfact>
</mgrwt>
</event>
<event>
 5    1  0.4046313E-006  0.2000024E+02  0.7818608E-02  0.1745323E+00
          2   -1    0    0  501    0  0.00000000000E+00  0.00000000000E+00  0.14513248005E+01  0.14513271294E+01  0.26000000000E-02 0.  1.
         -2   -1    0    0    0  501 -0.00000000000E+00 -0.00000000000E+00 -0.68904173030E+02  0.68904173079E+02  0.26000000000E-02 0. -1.
       1023    2    1    2    0    0  0.00000000000E+00  0.00000000000E+00 -0.67452848229E+02  0.70355500208E+02  0.20000241881E+02 0.  0.
        -11    1    3    3    0    0  0.49127018915E+01  0.87101864839E+01 -0.33799378230E+02  0.35247694357E+02  0.51100000000E-03 0. -1.
         11    1    3    3    0    0 -0.49127018915E+01 -0.87101864839E+01 -0.33653469999E+02  0.35107805851E+02  0.51100000000E-03 0.  1.
<mgrwt>
<rscale>  0 0.20000242E+02</rscale>
<asrwt>0</asrwt>
<pdfrwt beam="1">  1        2 0.22328098E-03 0.20000242E+02</pdfrwt>
<pdfrwt beam="2">  1       -2 0.10600640E-01 0.20000242E+02</pdfrwt>
<totfact> 0.32175756E+06</totfact>
</mgrwt>
</event>
<event>
 4    1  0.4046313E-006  0.2001532E+02  0.7818608E-02  0.1745024E+00
         -2   -1    0    0    0  501 -0.00000000000E+00  0.00000000000E+00  0.26557726828E+02  0.26557726955E+02  0.26000000000E-02 0. -1.
          2   -1    0    0  501    0  0.00000000000E+00 -0.00000000000E+00 -0.37711533245E+01  0.37711542207E+01  0.26000000000E-02 0.  1.
        -11    1    1    2    0    0 -0.59433920458E+01  0.80480612499E+01  0.11758454875E+02  0.15438797240E+02  0.51100000000E-03 0. -1.
         11    1    1    2    0    0  0.59433920458E+01 -0.80480612499E+01  0.11028118628E+02  0.14890083936E+02  0.51100000000E-03 0.  1.
<mgrwt>
<rscale>  0 0.20015322E+02</rscale>
<asrwt>0</asrwt>
<pdfrwt beam="2">  1        2 0.58017751E-03 0.20015322E+02</pdfrwt>
<pdfrwt beam="1">  1       -2 0.40858043E-02 0.20015322E+02</pdfrwt>
<totfact> 0.36440432E+06</totfact>
</mgrwt>
</event>
<event>
 5    1  0.4060951E-006  0.2000098E+02  0.7818608E-02  0.1745309E+00
         -2   -1    0    0    0  501 -0.00000000000E+00  0.00000000000E+00  0.50917315047E+01  0.50917321685E+01  0.26000000000E-02 0. -1.
          2   -1    0    0  501    0  0.00000000000E+00 -0.00000000000E+00 -0.19641606587E+02  0.19641606759E+02  0.26000000000E-02 0.  1.
       1023    2    1    2    0    0  0.00000000000E+00  0.00000000000E+00 -0.14549875082E+02  0.24733338927E+02  0.20000979716E+02 0.  0.
        -11    1    3    3    0    0  0.73448087289E+01 -0.67866948048E+01 -0.73565488571E+01  0.12414678932E+02  0.51100000000E-03 0. -1.
         11    1    3    3    0    0 -0.73448087289E+01  0.67866948048E+01 -0.71933262249E+01  0.12318659995E+02  0.51100000000E-03 0.  1.
<mgrwt>
<rscale>  0 0.20000980E+02</rscale>
<asrwt>0</asrwt>
<pdfrwt beam="2">  1        2 0.30217857E-02 0.20000980E+02</pdfrwt>
<pdfrwt beam="1">  1       -2 0.78334338E-03 0.20000980E+02</pdfrwt>
<totfact> 0.41607078E+06</totfact>
</mgrwt>
</event>
<event>
 5    1  0.4046313E-006  0.2000049E+02  0.7818608E-02  0.1745318E+00
          2   -1    0    0  501    0  0.00000000000E+00  0.00000000000E+00  0.18259046711E+02  0.18259046896E+02  0.26000000000E-02 0.  1.
         -2   -1    0    0    0  501 -0.00000000000E+00 -0.00000000000E+00 -0.54770029056E+01  0.54770035227E+01  0.26000000000E-02 0. -1.
       1023    2    1    2    0    0  0.00000000000E+00  0.00000000000E+00  0.12782043806E+02  0.23736050419E+02  0.20000486135E+02 0.  0.
        -11    1    3    3    0    0 -0.99909394363E+01  0.42942818789E+00  0.64382215252E+01  0.11893442565E+02  0.51100000000E-03 0. -1.
         11    1    3    3    0    0  0.99909394363E+01 -0.42942818789E+00  0.63438222806E+01  0.11842607854E+02  0.51100000000E-03 0.  1.
<mgrwt>
<rscale>  0 0.20000486E+02</rscale>
<asrwt>0</asrwt>
<pdfrwt beam="1">  1        2 0.28090842E-02 0.20000486E+02</pdfrwt>
<pdfrwt beam="2">  1       -2 0.84261588E-03 0.20000486E+02</pdfrwt>
<totfact> 0.41347904E+06</totfact>
</mgrwt>
</event>
<event>
 5    1  0.4046313E-006  0.2000495E+02  0.7818608E-02  0.1745230E+00
          2   -1    0    0  501    0  0.00000000000E+00  0.00000000000E+00  0.25771376463E+01  0.25771389579E+01  0.26000000000E-02 0. -1.
         -2   -1    0    0    0  501 -0.00000000000E+00 -0.00000000000E+00 -0.38821953752E+02  0.38821953839E+02  0.26000000000E-02 0.  1.
       1023    2    1    2    0    0  0.00000000000E+00  0.00000000000E+00 -0.36244816106E+02  0.41399092797E+02  0.20004954133E+02 0.  0.
        -11    1    3    3    0    0  0.98087244863E+01 -0.19591805752E+01 -0.18103596081E+02  0.20683076558E+02  0.51100000000E-03 0.  1.
         11    1    3    3    0    0 -0.98087244863E+01  0.19591805752E+01 -0.18141220025E+02  0.20716016239E+02  0.51100000000E-03 0. -1.
<mgrwt>
<rscale>  0 0.20004954E+02</rscale>
<asrwt>0</asrwt>
<pdfrwt beam="1">  1        2 0.39648285E-03 0.20004954E+02</pdfrwt>
<pdfrwt beam="2">  1       -2 0.59726079E-02 0.20004954E+02</pdfrwt>
<totfact> 0.35028771E+06</totfact>
</mgrwt>
</event>
<event>
 4    1  0.4046313E-006  0.2001834E+02  0.7818608E-02  0.1744964E+00
         -2   -1    0    0    0  501 -0.00000000000E+00  0.00000000000E+00  0.63319896759E+01  0.63319902097E+01  0.26000000000E-02 0.  1.
          2   -1    0    0  501    0  0.00000000000E+00 -0.00000000000E+00 -0.15821806269E+02  0.15821806482E+02  0.26000000000E-02 0. -1.
        -11    1    1    2    0    0 -0.26075292897E+01 -0.96613574116E+01 -0.45167991969E+01  0.10979185365E+02  0.51100000000E-03 0.  1.
         11    1    1    2    0    0  0.26075292897E+01  0.96613574116E+01 -0.49730173958E+01  0.11174611327E+02  0.51100000000E-03 0. -1.
<mgrwt>
<rscale>  0 0.20018344E+02</rscale>
<asrwt>0</asrwt>
<pdfrwt beam="2">  1        2 0.24341241E-02 0.20018344E+02</pdfrwt>
<pdfrwt beam="1">  1       -2 0.97415232E-03 0.20018344E+02</pdfrwt>
<totfact> 0.40778435E+06</totfact>
</mgrwt>
</event>
<event>
 5    1  0.4263461E-006  0.2000090E+02  0.7818608E-02  0.1745310E+00
          2   -1    0    0  501    0  0.00000000000E+00  0.00000000000E+00  0.93541533963E+02  0.93541533999E+02  0.26000000000E-02 0.  1.
         -2   -1    0    0    0  501 -0.00000000000E+00 -0.00000000000E+00 -0.10691380291E+01  0.10691411905E+01  0.26000000000E-02 0. -1.
       1023    2    1    2    0    0  0.00000000000E+00  0.00000000000E+00  0.92472395934E+02  0.94610675190E+02  0.20000896232E+02 0.  0.
        -11    1    3    3    0    0  0.92879127239E+01  0.37069375814E+01  0.46011656614E+02  0.47085871062E+02  0.51100000000E-03 0.  1.
         11    1    3    3    0    0 -0.92879127239E+01 -0.37069375814E+01  0.46460739320E+02  0.47524804128E+02  0.51100000000E-03 0. -1.
<mgrwt>
<rscale>  0 0.20000896E+02</rscale>
<asrwt>0</asrwt>
<pdfrwt beam="1">  1        2 0.14391007E-01 0.20000896E+02</pdfrwt>
<pdfrwt beam="2">  1       -2 0.16448301E-03 0.20000896E+02</pdfrwt>
<totfact> 0.51972901E+06</totfact>
</mgrwt>
</event>
<event>
 5    1  0.4046313E-006  0.2000196E+02  0.7818608E-02  0.1745289E+00
          2   -1    0    0  501    0  0.00000000000E+00  0.00000000000E+00  0.58686634163E+02  0.58686634221E+02  0.26000000000E-02 0.  1.
         -2   -1    0    0    0  501 -0.00000000000E+00 -0.00000000000E+00 -0.17042990136E+01  0.17043009968E+01  0.26000000000E-02 0. -1.
       1023    2    1    2    0    0  0.00000000000E+00  0.00000000000E+00  0.56982335149E+02  0.60390935217E+02  0.20001963338E+02 0.  0.
        -11    1    3    3    0    0  0.89688058778E+01 -0.44247639487E+01  0.28369675038E+02  0.30080832383E+02  0.51100000000E-03 0. -1.
         11    1    3    3    0    0 -0.89688058778E+01  0.44247639487E+01  0.28612660112E+02  0.30310102834E+02  0.51100000000E-03 0.  1.
<mgrwt>
<rscale>  0 0.20001963E+02</rscale>
<asrwt>0</asrwt>
<pdfrwt beam="1">  1        2 0.90287127E-02 0.20001963E+02</pdfrwt>
<pdfrwt beam="2">  1       -2 0.26220002E-03 0.20001963E+02</pdfrwt>
<totfact> 0.47510296E+06</totfact>
</mgrwt>
</event>
<event>
 5    1  0.4046313E-006  0.2000026E+02  0.7818608E-02  0.1745323E+00
          2   -1    0    0  501    0  0.00000000000E+00  0.00000000000E+00  0.19659127069E+01  0.19659144262E+01  0.26000000000E-02 0.  1.
         -2   -1    0    0    0  501 -0.00000000000E+00 -0.00000000000E+00 -0.50868232951E+02  0.50868233017E+02  0.26000000000E-02 0. -1.
       1023    2    1    2    0    0  0.00000000000E+00  0.00000000000E+00 -0.48902320244E+02  0.52834147444E+02  0.20000255269E+02 0.  0.
        -11    1    3    3    0    0 -0.72953978451E+01 -0.68394299302E+01 -0.24566941392E+02  0.26524238747E+02  0.51100000000E-03 0.  1.
         11    1    3    3    0    0  0.72953978451E+01  0.68394299302E+01 -0.24335378852E+02  0.26309908697E+02  0.51100000000E-03 0. -1.
<mgrwt>
<rscale>  0 0.20000255E+02</rscale>
<asrwt>0</asrwt>
<pdfrwt beam="1">  1        2 0.30244828E-03 0.20000255E+02</pdfrwt>
<pdfrwt beam="2">  1       -2 0.78258811E-02 0.20000255E+02</pdfrwt>
<totfact> 0.33813329E+06</totfact>
</mgrwt>
</event>
<event>
 5    1  0.4046313E-006  0.2000031E+02  0.7818608E-02  0.1745322E+00
         -2   -1    0    0    0  501 -0.00000000000E+00  0.00000000000E+00  0.25129402973E+01  0.25129416424E+01  0.26000000000E-02 0.  1.
          2   -1    0    0  501    0  0.00000000000E+00 -0.00000000000E+00 -0.39795233481E+02  0.39795233566E+02  0.26000000000E-02 0. -1.
       1023    2    1    2    0    0  0.00000000000E+00  0.00000000000E+00 -0.37282293183E+02  0.42308175208E+02  0.20000307608E+02 0.  0.
        -11    1    3    3    0    0  0.90056543665E+01 -0.43474343502E+01 -0.18710659945E+02  0.21215343312E+02  0.51100000000E-03 0. -1.
         11    1    3    3    0    0 -0.90056543665E+01  0.43474343502E+01 -0.18571633238E+02  0.21092831896E+02  0.51100000000E-03 0.  1.
<mgrwt>
<rscale>  0 0.20000308E+02</rscale>
<asrwt>0</asrwt>
<pdfrwt beam="2">  1        2 0.61223432E-02 0.20000308E+02</pdfrwt>
<pdfrwt beam="1">  1       -2 0.38660634E-03 0.20000308E+02</pdfrwt>
<totfact> 0.44864641E+06</totfact>
</mgrwt>
</event>
<event>
 5    1  0.4046313E-006  0.2000005E+02  0.7818608E-02  0.1745327E+00
          2   -1    0    0  501    0  0.00000000000E+00  0.00000000000E+00  0.11403837154E+03  0.11403837157E+03  0.26000000000E-02 0.  1.
         -2   -1    0    0    0  501 -0.00000000000E+00 -0.00000000000E+00 -0.87690012451E+00  0.87690397898E+00  0.26000000000E-02 0. -1.
       1023    2    1    2    0    0  0.00000000000E+00  0.00000000000E+00  0.11316147141E+03  0.11491527555E+03  0.20000048537E+02 0.  0.
        -11    1    3    3    0    0  0.99629716052E+01 -0.85993851984E+00  0.56502027748E+02  0.57380131033E+02  0.51100000000E-03 0.  1.
         11    1    3    3    0    0 -0.99629716052E+01  0.85993851984E+00  0.56659443666E+02  0.57535144514E+02  0.51100000000E-03 0. -1.
<mgrwt>
<rscale>  0 0.20000049E+02</rscale>
<asrwt>0</asrwt>
<pdfrwt beam="1">  1        2 0.17544349E-01 0.20000049E+02</pdfrwt>
<pdfrwt beam="2">  1       -2 0.13490813E-03 0.20000049E+02</pdfrwt>
<totfact> 0.54408074E+06</totfact>
</mgrwt>
</event>
<event>
 5    1  0.4046313E-006  0.2000092E+02  0.7818608E-02  0.1745310E+00
         -2   -1    0    0    0  501 -0.00000000000E+00  0.00000000000E+00  0.72419796035E+01  0.72419800702E+01  0.26000000000E-02 0.  1.
          2   -1    0    0  501    0  0.00000000000E+00 -0.00000000000E+00 -0.13809642035E+02  0.13809642280E+02  0.26000000000E-02 0. -1.
       1023    2    1    2    0    0  0.00000000000E+00  0.00000000000E+00 -0.65676624314E+01  0.21051622350E+02  0.20000915323E+02 0.  0.
        -11    1    3    3    0    0  0.23894209450E+01  0.97104579836E+01 -0.31968683395E+01  0.10498680591E+02  0.51100000000E-03 0. -1.
         11    1    3    3    0    0 -0.23894209450E+01 -0.97104579836E+01 -0.33707940919E+01  0.10552941759E+02  0.51100000000E-03 0.  1.
<mgrwt>
<rscale>  0 0.20000915E+02</rscale>
<asrwt>0</asrwt>
<pdfrwt beam="2">  1        2 0.21245604E-02 0.20000915E+02</pdfrwt>
<pdfrwt beam="1">  1       -2 0.11141508E-02 0.20000915E+02</pdfrwt>
<totfact> 0.40423490E+06</totfact>
</mgrwt>
</event>
<event>
 5    1  0.4217084E-006  0.2000099E+02  0.7818608E-02  0.1745308E+00
          2   -1    0    0  501    0  0.00000000000E+00  0.00000000000E+00  0.60957641599E+02  0.60957641655E+02  0.26000000000E-02 0.  1.
         -2   -1    0    0    0  501 -0.00000000000E+00 -0.00000000000E+00 -0.16406453893E+01  0.16406474495E+01  0.26000000000E-02 0. -1.
       1023    2    1    2    0    0  0.00000000000E+00  0.00000000000E+00  0.59316996210E+02  0.62598289104E+02  0.20000993960E+02 0.  0.
        -11    1    3    3    0    0  0.64028543781E+01 -0.76814088482E+01  0.29961188181E+02  0.31585968144E+02  0.51100000000E-03 0. -1.
         11    1    3    3    0    0 -0.64028543781E+01  0.76814088482E+01  0.29355808029E+02  0.31012320961E+02  0.51100000000E-03 0.  1.
<mgrwt>
<rscale>  0 0.20000994E+02</rscale>
<asrwt>0</asrwt>
<pdfrwt beam="1">  1        2 0.93780989E-02 0.20000994E+02</pdfrwt>
<pdfrwt beam="2">  1       -2 0.25240714E-03 0.20000994E+02</pdfrwt>
<totfact> 0.47821034E+06</totfact>
</mgrwt>
</event>
<event>
 5    1  0.4046313E-006  0.2000024E+02  0.7818608E-02  0.1745323E+00
          2   -1    0    0  501    0  0.00000000000E+00  0.00000000000E+00  0.15106541993E+02  0.15106542217E+02  0.26000000000E-02 0.  1.
         -2   -1    0    0    0  501 -0.00000000000E+00 -0.00000000000E+00 -0.66198053201E+01  0.66198058307E+01  0.26000000000E-02 0. -1.
       1023    2    1    2    0    0  0.00000000000E+00  0.00000000000E+00  0.84867366731E+01  0.21726348048E+02  0.20000237502E+02 0.  0.
        -11    1    3    3    0    0  0.83582084780E+01  0.54900517455E+01  0.41940922253E+01  0.10843925811E+02  0.51100000000E-03 0.  1.
         11    1    3    3    0    0 -0.83582084780E+01 -0.54900517455E+01  0.42926444478E+01  0.10882422237E+02  0.51100000000E-03 0. -1.
<mgrwt>
<rscale>  0 0.20000238E+02</rscale>
<asrwt>0</asrwt>
<pdfrwt beam="1">  1        2 0.23240834E-02 0.20000238E+02</pdfrwt>
<pdfrwt beam="2">  1       -2 0.10184316E-02 0.20000238E+02</pdfrwt>
<totfact> 0.40711292E+06</totfact>
</mgrwt>
</event>
<event>
 4    1  0.5132903E-006  0.2166512E+02  0.7818608E-02  0.1714109E+00
         -2   -1    0    0    0  501 -0.00000000000E+00  0.00000000000E+00  0.11990542053E+01  0.11990570242E+01  0.26000000000E-02 0.  1.
          2   -1    0    0  501    0  0.00000000000E+00 -0.00000000000E+00 -0.97864022240E+02  0.97864022275E+02  0.26000000000E-02 0. -1.
        -11    1    1    2    0    0  0.71609743284E+01 -0.79069193206E+01 -0.56942189002E+02  0.57932821571E+02  0.51100000000E-03 0.  1.
         11    1    1    2    0    0 -0.71609743284E+01  0.79069193206E+01 -0.39722779032E+02  0.41130257728E+02  0.51100000000E-03 0. -1.
<mgrwt>
<rscale>  0 0.21665125E+02</rscale>
<asrwt>0</asrwt>
<pdfrwt beam="2">  1        2 0.15055997E-01 0.21665125E+02</pdfrwt>
<pdfrwt beam="1">  1       -2 0.18447017E-03 0.21665125E+02</pdfrwt>
<totfact> 0.43950061E+06</totfact>
</mgrwt>
</event>
<event>
 5    1  0.4046313E-006  0.2000037E+02  0.7818608E-02  0.1745321E+00
         -2   -1    0    0    0  501 -0.00000000000E+00  0.00000000000E+00  0.52597331524E+01  0.52597337950E+01  0.26000000000E-02 0.  1.
          2   -1    0    0  501    0  0.00000000000E+00 -0.00000000000E+00 -0.19013074763E+02  0.19013074941E+02  0.26000000000E-02 0. -1.
       1023    2    1    2    0    0  0.00000000000E+00  0.00000000000E+00 -0.13753341611E+02  0.24272808736E+02  0.20000370958E+02 0.  0.
        -11    1    3    3    0    0 -0.60883154078E+01 -0.79330212912E+01 -0.68069744296E+01  0.12096913344E+02  0.51100000000E-03 0. -1.
         11    1    3    3    0    0  0.60883154078E+01  0.79330212912E+01 -0.69463671811E+01  0.12175895392E+02  0.51100000000E-03 0.  1.
<mgrwt>
<rscale>  0 0.20000371E+02</rscale>
<asrwt>0</asrwt>
<pdfrwt beam="2">  1        2 0.29250885E-02 0.20000371E+02</pdfrwt>
<pdfrwt beam="1">  1       -2 0.80918979E-03 0.20000371E+02</pdfrwt>
<totfact> 0.41492283E+06</totfact>
</mgrwt>
</event>
<event>
 4    1  0.4046313E-006  0.2014810E+02  0.7818608E-02  0.1742399E+00
          2   -1    0    0  501    0  0.00000000000E+00  0.00000000000E+00  0.17740841964E+01  0.17740861016E+01  0.26000000000E-02 0. -1.
         -2   -1    0    0    0  501 -0.00000000000E+00 -0.00000000000E+00 -0.57204968723E+02  0.57204968782E+02  0.26000000000E-02 0.  1.
        -11    1    1    2    0    0 -0.85275772082E-01 -0.10015643166E+02 -0.24554378851E+02  0.26518633091E+02  0.51100000000E-03 0.  1.
         11    1    1    2    0    0  0.85275772082E-01  0.10015643166E+02 -0.30876505675E+02  0.32460421792E+02  0.51100000000E-03 0. -1.
<mgrwt>
<rscale>  0 0.20148101E+02</rscale>
<asrwt>0</asrwt>
<pdfrwt beam="1">  1        2 0.27293623E-03 0.20148101E+02</pdfrwt>
<pdfrwt beam="2">  1       -2 0.88007632E-02 0.20148101E+02</pdfrwt>
<totfact> 0.32684205E+06</totfact>
</mgrwt>
</event>
<event>
 5    1  0.4046313E-006  0.2000125E+02  0.7818608E-02  0.1745303E+00
         -2   -1    0    0    0  501 -0.00000000000E+00  0.00000000000E+00  0.25210715287E+02  0.25210715421E+02  0.26000000000E-02 0. -1.
          2   -1    0    0  501    0  0.00000000000E+00 -0.00000000000E+00 -0.39670634250E+01  0.39670642770E+01  0.26000000000E-02 0.  1.
       1023    2    1    2    0    0  0.00000000000E+00  0.00000000000E+00  0.21243651862E+02  0.29177779698E+02  0.20001252053E+02 0.  0.
        -11    1    3    3    0    0  0.99854316861E+01  0.55045856301E+00  0.10584063886E+02  0.14561396197E+02  0.51100000000E-03 0.  1.
         11    1    3    3    0    0 -0.99854316861E+01 -0.55045856301E+00  0.10659587976E+02  0.14616383501E+02  0.51100000000E-03 0. -1.
<mgrwt>
<rscale>  0 0.20001252E+02</rscale>
<asrwt>0</asrwt>
<pdfrwt beam="2">  1        2 0.61031753E-03 0.20001252E+02</pdfrwt>
<pdfrwt beam="1">  1       -2 0.38785716E-02 0.20001252E+02</pdfrwt>
<totfact> 0.36675436E+06</totfact>
</mgrwt>
</event>
<event>
 5    1  0.4046313E-006  0.2000041E+02  0.7818608E-02  0.1745320E+00
          2   -1    0    0  501    0  0.00000000000E+00  0.00000000000E+00  0.13038935470E+02  0.13038935730E+02  0.26000000000E-02 0.  1.
         -2   -1    0    0    0  501 -0.00000000000E+00 -0.00000000000E+00 -0.76696482934E+01  0.76696487341E+01  0.26000000000E-02 0. -1.
       1023    2    1    2    0    0  0.00000000000E+00  0.00000000000E+00  0.53692871770E+01  0.20708584464E+02  0.20000405638E+02 0.  0.
        -11    1    3    3    0    0 -0.36868201416E+01  0.92957288015E+01  0.26546443187E+01  0.10346514071E+02  0.51100000000E-03 0. -1.
         11    1    3    3    0    0  0.36868201416E+01 -0.92957288015E+01  0.27146428583E+01  0.10362070392E+02  0.51100000000E-03 0.  1.
<mgrwt>
<rscale>  0 0.20000406E+02</rscale>
<asrwt>0</asrwt>
<pdfrwt beam="1">  1        2 0.20059901E-02 0.20000406E+02</pdfrwt>
<pdfrwt beam="2">  1       -2 0.11799460E-02 0.20000406E+02</pdfrwt>
<totfact> 0.40248383E+06</totfact>
</mgrwt>
</event>
<event>
 5    1  0.4298362E-006  0.2000134E+02  0.7818608E-02  0.1745301E+00
         -2   -1    0    0    0  501 -0.00000000000E+00  0.00000000000E+00  0.10637733052E+01  0.10637764826E+01  0.26000000000E-02 0. -1.
          2   -1    0    0  501    0  0.00000000000E+00 -0.00000000000E+00 -0.94017427625E+02  0.94017427661E+02  0.26000000000E-02 0.  1.
       1023    2    1    2    0    0  0.00000000000E+00  0.00000000000E+00 -0.92953654320E+02  0.95081204144E+02  0.20001338205E+02 0.  0.
        -11    1    3    3    0    0 -0.95353856275E+01  0.30145633557E+01 -0.46700351413E+02  0.47759124716E+02  0.51100000000E-03 0.  1.
         11    1    3    3    0    0  0.95353856275E+01 -0.30145633557E+01 -0.46253302907E+02  0.47322079427E+02  0.51100000000E-03 0. -1.
<mgrwt>
<rscale>  0 0.20001338E+02</rscale>
<asrwt>0</asrwt>
<pdfrwt beam="2">  1        2 0.14464213E-01 0.20001338E+02</pdfrwt>
<pdfrwt beam="1">  1       -2 0.16365775E-03 0.20001338E+02</pdfrwt>
<totfact> 0.52028268E+06</totfact>
</mgrwt>
</event>
<event>
 5    1  0.4046313E-006  0.2000288E+02  0.7818608E-02  0.1745271E+00
         -2   -1    0    0    0  501 -0.00000000000E+00  0.00000000000E+00  0.50561414138E+01  0.50561420823E+01  0.26000000000E-02 0.  1.
          2   -1    0    0  501    0  0.00000000000E+00 -0.00000000000E+00 -0.19783620495E+02  0.19783620666E+02  0.26000000000E-02 0. -1.
       1023    2    1    2    0    0  0.00000000000E+00  0.00000000000E+00 -0.14727479081E+02  0.24839762748E+02  0.20002879125E+02 0.  0.
        -11    1    3    3    0    0 -0.85310824025E+01  0.52188853955E+01 -0.72240079293E+01  0.12337034593E+02  0.51100000000E-03 0. -1.
         11    1    3    3    0    0  0.85310824025E+01 -0.52188853955E+01 -0.75034711522E+01  0.12502728155E+02  0.51100000000E-03 0.  1.
<mgrwt>
<rscale>  0 0.20002879E+02</rscale>
<asrwt>0</asrwt>
<pdfrwt beam="2">  1        2 0.30436339E-02 0.20002879E+02</pdfrwt>
<pdfrwt beam="1">  1       -2 0.77786799E-03 0.20002879E+02</pdfrwt>
<totfact> 0.41624506E+06</totfact>
</mgrwt>
</event>
<event>
 5    1  0.4046313E-006  0.2000256E+02  0.7818608E-02  0.1745277E+00
          2   -1    0    0  501    0  0.00000000000E+00  0.00000000000E+00  0.57732713655E+01  0.57732719510E+01  0.26000000000E-02 0.  1.
         -2   -1    0    0    0  501 -0.00000000000E+00 -0.00000000000E+00 -0.17325641995E+02  0.17325642190E+02  0.26000000000E-02 0. -1.
       1023    2    1    2    0    0  0.00000000000E+00  0.00000000000E+00 -0.11552370629E+02  0.23098914141E+02  0.20002564019E+02 0.  0.
        -11    1    3    3    0    0 -0.15898997773E+01 -0.98740789016E+01 -0.58000232905E+01  0.11561379065E+02  0.51100000000E-03 0. -1.
         11    1    3    3    0    0  0.15898997773E+01  0.98740789016E+01 -0.57523473388E+01  0.11537535076E+02  0.51100000000E-03 0.  1.
<mgrwt>
<rscale>  0 0.20002564E+02</rscale>
<asrwt>0</asrwt>
<pdfrwt beam="1">  1        2 0.88819566E-03 0.20002564E+02</pdfrwt>
<pdfrwt beam="2">  1       -2 0.26654834E-02 0.20002564E+02</pdfrwt>
<totfact> 0.37861916E+06</totfact>
</mgrwt>
</event>
<event>
 5    1  0.4046313E-006  0.2000223E+02  0.7818608E-02  0.1745284E+00
         -2   -1    0    0    0  501 -0.00000000000E+00  0.00000000000E+00  0.23330666699E+02  0.23330666844E+02  0.26000000000E-02 0. -1.
          2   -1    0    0  501    0  0.00000000000E+00 -0.00000000000E+00 -0.42871574763E+01  0.42871582647E+01  0.26000000000E-02 0.  1.
       1023    2    1    2    0    0  0.00000000000E+00  0.00000000000E+00  0.19043509223E+02  0.27617825109E+02  0.20002225382E+02 0.  0.
        -11    1    3    3    0    0 -0.98857726366E+01 -0.15082222759E+01  0.93313342388E+01  0.13677610683E+02  0.51100000000E-03 0.  1.
         11    1    3    3    0    0  0.98857726366E+01  0.15082222759E+01  0.97121749843E+01  0.13940214426E+02  0.51100000000E-03 0. -1.
<mgrwt>
<rscale>  0 0.20002225E+02</rscale>
<asrwt>0</asrwt>
<pdfrwt beam="2">  1        2 0.65956276E-03 0.20002225E+02</pdfrwt>
<pdfrwt beam="1">  1       -2 0.35893334E-02 0.20002225E+02</pdfrwt>
<totfact> 0.36931114E+06</totfact>
</mgrwt>
</event>
<event>
 5    1  0.4046313E-006  0.2000343E+02  0.7818608E-02  0.1745260E+00
         -2   -1    0    0    0  501 -0.00000000000E+00  0.00000000000E+00  0.34155865598E+02  0.34155865697E+02  0.26000000000E-02 0.  1.
          2   -1    0    0  501    0  0.00000000000E+00 -0.00000000000E+00 -0.29287596973E+01  0.29287608514E+01  0.26000000000E-02 0. -1.
       1023    2    1    2    0    0  0.00000000000E+00  0.00000000000E+00  0.31227105901E+02  0.37084626549E+02  0.20003434288E+02 0.  0.
        -11    1    3    3    0    0  0.60679848800E+00 -0.99831066232E+01  0.15500429186E+02  0.18447057420E+02  0.51100000000E-03 0.  1.
         11    1    3    3    0    0 -0.60679848800E+00  0.99831066232E+01  0.15726676715E+02  0.18637569128E+02  0.51100000000E-03 0. -1.
<mgrwt>
<rscale>  0 0.20003434E+02</rscale>
<asrwt>0</asrwt>
<pdfrwt beam="2">  1        2 0.45057850E-03 0.20003434E+02</pdfrwt>
<pdfrwt beam="1">  1       -2 0.52547488E-02 0.20003434E+02</pdfrwt>
<totfact> 0.35556388E+06</totfact>
</mgrwt>
</event>
<event>
 5    1  0.4046313E-006  0.2000077E+02  0.7818608E-02  0.1745313E+00
         -2   -1    0    0    0  501 -0.00000000000E+00  0.00000000000E+00  0.11162201311E+03  0.11162201314E+03  0.26000000000E-02 0.  1.
          2   -1    0    0  501    0  0.00000000000E+00 -0.00000000000E+00 -0.89594731252E+00  0.89595108506E+00  0.26000000000E-02 0. -1.
       1023    2    1    2    0    0  0.00000000000E+00  0.00000000000E+00  0.11072606580E+03  0.11251796423E+03  0.20000765646E+02 0.  0.
        -11    1    3    3    0    0 -0.98965830938E+01 -0.14344844689E+01  0.54874092640E+02  0.55777828444E+02  0.51100000000E-03 0. -1.
         11    1    3    3    0    0  0.98965830938E+01  0.14344844689E+01  0.55851973160E+02  0.56740135783E+02  0.51100000000E-03 0.  1.
<mgrwt>
<rscale>  0 0.20000766E+02</rscale>
<asrwt>0</asrwt>
<pdfrwt beam="2">  1        2 0.13783843E-03 0.20000766E+02</pdfrwt>
<pdfrwt beam="1">  1       -2 0.17172607E-01 0.20000766E+02</pdfrwt>
<totfact> 0.28905726E+06</totfact>
</mgrwt>
</event>
<event>
 5    1  0.4046313E-006  0.2000381E+02  0.7818608E-02  0.1745252E+00
          2   -1    0    0  501    0  0.00000000000E+00  0.00000000000E+00  0.16935549852E+01  0.16935569810E+01  0.26000000000E-02 0. -1.
         -2   -1    0    0    0  501 -0.00000000000E+00 -0.00000000000E+00 -0.59069871211E+02  0.59069871268E+02  0.26000000000E-02 0.  1.
       1023    2    1    2    0    0  0.00000000000E+00  0.00000000000E+00 -0.57376316226E+02  0.60763428249E+02  0.20003813361E+02 0.  0.
        -11    1    3    3    0    0 -0.11061114808E+01 -0.99390803651E+01 -0.29208428300E+02  0.30872983094E+02  0.51100000000E-03 0. -1.
         11    1    3    3    0    0  0.11061114808E+01  0.99390803651E+01 -0.28167887926E+02  0.29890445155E+02  0.51100000000E-03 0.  1.
<mgrwt>
<rscale>  0 0.20003813E+02</rscale>
<asrwt>0</asrwt>
<pdfrwt beam="1">  1        2 0.26054712E-03 0.20003813E+02</pdfrwt>
<pdfrwt beam="2">  1       -2 0.90876711E-02 0.20003813E+02</pdfrwt>
<totfact> 0.33030769E+06</totfact>
</mgrwt>
</event>
<event>
 5    1  0.4046313E-006  0.2000029E+02  0.7818608E-02  0.1745322E+00
         -2   -1    0    0    0  501 -0.00000000000E+00  0.00000000000E+00  0.41319558995E+02  0.41319559077E+02  0.26000000000E-02 0.  1.
          2   -1    0    0  501    0  0.00000000000E+00 -0.00000000000E+00 -0.24202305221E+01  0.24202319187E+01  0.26000000000E-02 0. -1.
       1023    2    1    2    0    0  0.00000000000E+00  0.00000000000E+00  0.38899328473E+02  0.43739790996E+02  0.20000289015E+02 0.  0.
        -11    1    3    3    0    0 -0.99750151234E+01 -0.70724099078E+00  0.19541760373E+02  0.21951799818E+02  0.51100000000E-03 0. -1.
         11    1    3    3    0    0  0.99750151234E+01  0.70724099078E+00  0.19357568100E+02  0.21787991177E+02  0.51100000000E-03 0.  1.
<mgrwt>
<rscale>  0 0.20000289E+02</rscale>
<asrwt>0</asrwt>
<pdfrwt beam="2">  1        2 0.37234330E-03 0.20000289E+02</pdfrwt>
<pdfrwt beam="1">  1       -2 0.63568548E-02 0.20000289E+02</pdfrwt>
<totfact> 0.34778695E+06</totfact>
</mgrwt>
</event>
<event>
 5    1  0.4046313E-006  0.2000197E+02  0.7818608E-02  0.1745289E+00
         -2   -1    0    0    0  501 -0.00000000000E+00  0.00000000000E+00  0.21737175220E+02  0.21737175376E+02  0.26000000000E-02 0.  1.
          2   -1    0    0  501    0  0.00000000000E+00 -0.00000000000E+00 -0.46013180287E+01  0.46013187633E+01  0.26000000000E-02 0. -1.
       1023    2    1    2    0    0  0.00000000000E+00  0.00000000000E+00  0.17135857192E+02  0.26338494139E+02  0.20001966699E+02 0.  0.
        -11    1    3    3    0    0  0.70331849131E+01  0.71101105259E+01  0.85909624348E+01  0.13184232914E+02  0.51100000000E-03 0. -1.
         11    1    3    3    0    0 -0.70331849131E+01 -0.71101105259E+01  0.85448947568E+01  0.13154261225E+02  0.51100000000E-03 0.  1.
<mgrwt>
<rscale>  0 0.20001967E+02</rscale>
<asrwt>0</asrwt>
<pdfrwt beam="2">  1        2 0.70789515E-03 0.20001967E+02</pdfrwt>
<pdfrwt beam="1">  1       -2 0.33441809E-02 0.20001967E+02</pdfrwt>
<totfact> 0.37162300E+06</totfact>
</mgrwt>
</event>
<event>
 5    1  0.4046313E-006  0.2000074E+02  0.7818608E-02  0.1745313E+00
         -2   -1    0    0    0  501 -0.00000000000E+00  0.00000000000E+00  0.29890761983E+01  0.29890773291E+01  0.26000000000E-02 0.  1.
          2   -1    0    0  501    0  0.00000000000E+00 -0.00000000000E+00 -0.33457623829E+02  0.33457623930E+02  0.26000000000E-02 0. -1.
       1023    2    1    2    0    0  0.00000000000E+00  0.00000000000E+00 -0.30468547631E+02  0.36446701259E+02  0.20000740935E+02 0.  0.
        -11    1    3    3    0    0  0.97111244155E+01 -0.23875272687E+01 -0.15297012612E+02  0.18275798724E+02  0.51100000000E-03 0.  1.
         11    1    3    3    0    0 -0.97111244155E+01  0.23875272687E+01 -0.15171535019E+02  0.18170902536E+02  0.51100000000E-03 0. -1.
<mgrwt>
<rscale>  0 0.20000741E+02</rscale>
<asrwt>0</asrwt>
<pdfrwt beam="2">  1        2 0.51473266E-02 0.20000741E+02</pdfrwt>
<pdfrwt beam="1">  1       -2 0.45985800E-03 0.20000741E+02</pdfrwt>
<totfact> 0.43909551E+06</totfact>
</mgrwt>
</event>
<event>
 5    1  0.4046313E-006  0.2000120E+02  0.7818608E-02  0.1745304E+00
         -2   -1    0    0    0  501 -0.00000000000E+00  0.00000000000E+00  0.36604216770E+02  0.36604216862E+02  0.26000000000E-02 0. -1.
          2   -1    0    0  501    0  0.00000000000E+00 -0.00000000000E+00 -0.27322527419E+01  0.27322539790E+01  0.26000000000E-02 0.  1.
       1023    2    1    2    0    0  0.00000000000E+00  0.00000000000E+00  0.33871964028E+02  0.39336470841E+02  0.20001199742E+02 0.  0.
        -11    1    3    3    0    0  0.74076654171E+01  0.67177760158E+01  0.17132416342E+02  0.19837381670E+02  0.51100000000E-03 0. -1.
         11    1    3    3    0    0 -0.74076654171E+01 -0.67177760158E+01  0.16739547686E+02  0.19499089172E+02  0.51100000000E-03 0.  1.
<mgrwt>
<rscale>  0 0.20001200E+02</rscale>
<asrwt>0</asrwt>
<pdfrwt beam="2">  1        2 0.42034671E-03 0.20001200E+02</pdfrwt>
<pdfrwt beam="1">  1       -2 0.56314176E-02 0.20001200E+02</pdfrwt>
<totfact> 0.35287344E+06</totfact>
</mgrwt>
</event>
<event>
 5    1  0.4046313E-006  0.2000067E+02  0.7818608E-02  0.1745315E+00
          2   -1    0    0  501    0  0.00000000000E+00  0.00000000000E+00  0.26812887058E+01  0.26812899664E+01  0.26000000000E-02 0.  1.
         -2   -1    0    0    0  501 -0.00000000000E+00 -0.00000000000E+00 -0.37298005531E+02  0.37298005622E+02  0.26000000000E-02 0. -1.
       1023    2    1    2    0    0  0.00000000000E+00  0.00000000000E+00 -0.34616716825E+02  0.39979295588E+02  0.20000674788E+02 0.  0.
        -11    1    3    3    0    0  0.56864852340E+01  0.82262160453E+01 -0.17311814370E+02  0.19992640191E+02  0.51100000000E-03 0.  1.
         11    1    3    3    0    0 -0.56864852340E+01 -0.82262160453E+01 -0.17304902455E+02  0.19986655397E+02  0.51100000000E-03 0. -1.
<mgrwt>
<rscale>  0 0.20000675E+02</rscale>
<asrwt>0</asrwt>
<pdfrwt beam="1">  1        2 0.41250609E-03 0.20000675E+02</pdfrwt>
<pdfrwt beam="2">  1       -2 0.57381544E-02 0.20000675E+02</pdfrwt>
<totfact> 0.35212254E+06</totfact>
</mgrwt>
</event>
<event>
 5    1  0.4162548E-006  0.2000296E+02  0.7818608E-02  0.1745269E+00
         -2   -1    0    0    0  501 -0.00000000000E+00  0.00000000000E+00  0.10067520744E+01  0.10067554317E+01  0.26000000000E-02 0.  1.
          2   -1    0    0  501    0  0.00000000000E+00 -0.00000000000E+00 -0.99358532213E+02  0.99358532247E+02  0.26000000000E-02 0. -1.
       1023    2    1    2    0    0  0.00000000000E+00  0.00000000000E+00 -0.98351780139E+02  0.10036528768E+03  0.20002957642E+02 0.  0.
        -11    1    3    3    0    0  0.62431339056E+01  0.78135684910E+01 -0.49016840535E+02  0.50026785123E+02  0.51100000000E-03 0. -1.
         11    1    3    3    0    0 -0.62431339056E+01 -0.78135684910E+01 -0.49334939604E+02  0.50338502556E+02  0.51100000000E-03 0.  1.
<mgrwt>
<rscale>  0 0.20002958E+02</rscale>
<asrwt>0</asrwt>
<pdfrwt beam="2">  1        2 0.15285921E-01 0.20002958E+02</pdfrwt>
<pdfrwt beam="1">  1       -2 0.15488527E-03 0.20002958E+02</pdfrwt>
<totfact> 0.52663882E+06</totfact>
</mgrwt>
</event>
<event>
 5    1  0.4046313E-006  0.2000053E+02  0.7818608E-02  0.1745318E+00
          2   -1    0    0  501    0  0.00000000000E+00  0.00000000000E+00  0.35639144077E+01  0.35639153561E+01  0.26000000000E-02 0. -1.
         -2   -1    0    0    0  501 -0.00000000000E+00 -0.00000000000E+00 -0.28060504187E+02  0.28060504308E+02  0.26000000000E-02 0.  1.
       1023    2    1    2    0    0  0.00000000000E+00  0.00000000000E+00 -0.24496589780E+02  0.31624419664E+02  0.20000525199E+02 0.  0.
        -11    1    3    3    0    0  0.76134266211E+01  0.64839019103E+01 -0.12245600790E+02  0.15810122955E+02  0.51100000000E-03 0.  1.
         11    1    3    3    0    0 -0.76134266211E+01 -0.64839019103E+01 -0.12250988990E+02  0.15814296709E+02  0.51100000000E-03 0. -1.
<mgrwt>
<rscale>  0 0.20000525E+02</rscale>
<asrwt>0</asrwt>
<pdfrwt beam="1">  1        2 0.54829462E-03 0.20000525E+02</pdfrwt>
<pdfrwt beam="2">  1       -2 0.43170006E-02 0.20000525E+02</pdfrwt>
<totfact> 0.36305014E+06</totfact>
</mgrwt>
</event>
<event>
 5    1  0.4046313E-006  0.2000022E+02  0.7818608E-02  0.1745324E+00
          2   -1    0    0  501    0  0.00000000000E+00  0.00000000000E+00  0.95307851528E+02  0.95307851564E+02  0.26000000000E-02 0. -1.
         -2   -1    0    0    0  501 -0.00000000000E+00 -0.00000000000E+00 -0.10492532993E+01  0.10492565206E+01  0.26000000000E-02 0.  1.
       1023    2    1    2    0    0  0.00000000000E+00  0.00000000000E+00  0.94258598229E+02  0.96357108084E+02  0.20000223456E+02 0.  0.
        -11    1    3    3    0    0  0.68131432165E+01  0.73199350146E+01  0.47337370415E+02  0.48382093869E+02  0.51100000000E-03 0. -1.
         11    1    3    3    0    0 -0.68131432165E+01 -0.73199350146E+01  0.46921227814E+02  0.47975014215E+02  0.51100000000E-03 0.  1.
<mgrwt>
<rscale>  0 0.20000223E+02</rscale>
<asrwt>0</asrwt>
<pdfrwt beam="1">  1        2 0.14662748E-01 0.20000223E+02</pdfrwt>
<pdfrwt beam="2">  1       -2 0.16142382E-03 0.20000223E+02</pdfrwt>
<totfact> 0.52191362E+06</totfact>
</mgrwt>
</event>
<event>
 5    1  0.4046313E-006  0.2000032E+02  0.7818608E-02  0.1745322E+00
          2   -1    0    0  501    0  0.00000000000E+00  0.00000000000E+00  0.18427838816E+01  0.18427857157E+01  0.26000000000E-02 0. -1.
         -2   -1    0    0    0  501 -0.00000000000E+00 -0.00000000000E+00 -0.54267423396E+02  0.54267423458E+02  0.26000000000E-02 0.  1.
       1023    2    1    2    0    0  0.00000000000E+00  0.00000000000E+00 -0.52424639514E+02  0.56110209174E+02  0.20000318631E+02 0.  0.
        -11    1    3    3    0    0  0.45828043273E+01 -0.88882557604E+01 -0.26211400812E+02  0.28054246002E+02  0.51100000000E-03 0.  1.
         11    1    3    3    0    0 -0.45828043273E+01  0.88882557604E+01 -0.26213238702E+02  0.28055963171E+02  0.51100000000E-03 0. -1.
<mgrwt>
<rscale>  0 0.20000319E+02</rscale>
<asrwt>0</asrwt>
<pdfrwt beam="1">  1        2 0.28350540E-03 0.20000319E+02</pdfrwt>
<pdfrwt beam="2">  1       -2 0.83488333E-02 0.20000319E+02</pdfrwt>
<totfact> 0.33488332E+06</totfact>
</mgrwt>
</event>
<event>
 5    1  0.4046313E-006  0.2000023E+02  0.7818608E-02  0.1745323E+00
          2   -1    0    0  501    0  0.00000000000E+00  0.00000000000E+00  0.14471339725E+01  0.14471363081E+01  0.26000000000E-02 0.  1.
         -2   -1    0    0    0  501 -0.00000000000E+00 -0.00000000000E+00 -0.69103660459E+02  0.69103660507E+02  0.26000000000E-02 0. -1.
       1023    2    1    2    0    0  0.00000000000E+00  0.00000000000E+00 -0.67656526486E+02  0.70550796816E+02  0.20000233877E+02 0.  0.
        -11    1    3    3    0    0  0.99265236820E+01 -0.12107581831E+01 -0.33909528928E+02  0.35353330256E+02  0.51100000000E-03 0. -1.
         11    1    3    3    0    0 -0.99265236820E+01  0.12107581831E+01 -0.33746997558E+02  0.35197466560E+02  0.51100000000E-03 0.  1.
<mgrwt>
<rscale>  0 0.20000234E+02</rscale>
<asrwt>0</asrwt>
<pdfrwt beam="1">  1        2 0.22263623E-03 0.20000234E+02</pdfrwt>
<pdfrwt beam="2">  1       -2 0.10631330E-01 0.20000234E+02</pdfrwt>
<totfact> 0.32158739E+06</totfact>
</mgrwt>
</event>
<event>
 5    1  0.4149494E-006  0.2000057E+02  0.7818608E-02  0.1745317E+00
          2   -1    0    0  501    0  0.00000000000E+00  0.00000000000E+00  0.87496856106E+02  0.87496856144E+02  0.26000000000E-02 0. -1.
         -2   -1    0    0    0  501 -0.00000000000E+00 -0.00000000000E+00 -0.11429615211E+01  0.11429644783E+01  0.26000000000E-02 0.  1.
       1023    2    1    2    0    0  0.00000000000E+00  0.00000000000E+00  0.86353894584E+02  0.88639820622E+02  0.20000567244E+02 0.  0.
        -11    1    3    3    0    0  0.94679505631E+01  0.32184006627E+01  0.42848822558E+02  0.44000247563E+02  0.51100000000E-03 0. -1.
         11    1    3    3    0    0 -0.94679505631E+01 -0.32184006627E+01  0.43505072026E+02  0.44639573060E+02  0.51100000000E-03 0.  1.
<mgrwt>
<rscale>  0 0.20000567E+02</rscale>
<asrwt>0</asrwt>
<pdfrwt beam="1">  1        2 0.13461056E-01 0.20000567E+02</pdfrwt>
<pdfrwt beam="2">  1       -2 0.17584046E-03 0.20000567E+02</pdfrwt>
<totfact> 0.51232754E+06</totfact>
</mgrwt>
</event>
<event>
 5    1  0.4046313E-006  0.2000033E+02  0.7818608E-02  0.1745321E+00
          2   -1    0    0  501    0  0.00000000000E+00  0.00000000000E+00  0.38603815153E+01  0.38603823908E+01  0.26000000000E-02 0. -1.
         -2   -1    0    0    0  501 -0.00000000000E+00 -0.00000000000E+00 -0.25905029500E+02  0.25905029631E+02  0.26000000000E-02 0.  1.
       1023    2    1    2    0    0  0.00000000000E+00  0.00000000000E+00 -0.22044647985E+02  0.29765412021E+02  0.20000331198E+02 0.  0.
        -11    1    3    3    0    0 -0.65161949814E+01  0.75855075853E+01 -0.10946593127E+02  0.14826618755E+02  0.51100000000E-03 0. -1.
         11    1    3    3    0    0  0.65161949814E+01 -0.75855075853E+01 -0.11098054858E+02  0.14938793266E+02  0.51100000000E-03 0.  1.
<mgrwt>
<rscale>  0 0.20000331E+02</rscale>
<asrwt>0</asrwt>
<pdfrwt beam="1">  1        2 0.59390494E-03 0.20000331E+02</pdfrwt>
<pdfrwt beam="2">  1       -2 0.39853891E-02 0.20000331E+02</pdfrwt>
<totfact> 0.36586096E+06</totfact>
</mgrwt>
</event>
<event>
 5    1  0.4046313E-006  0.2000058E+02  0.7818608E-02  0.1745317E+00
         -2   -1    0    0    0  501 -0.00000000000E+00  0.00000000000E+00  0.14323987020E+01  0.14324010617E+01  0.26000000000E-02 0. -1.
          2   -1    0    0  501    0  0.00000000000E+00 -0.00000000000E+00 -0.69816920042E+02  0.69816920090E+02  0.26000000000E-02 0.  1.
       1023    2    1    2    0    0  0.00000000000E+00  0.00000000000E+00 -0.68384521340E+02  0.71249321152E+02  0.20000575135E+02 0.  0.
        -11    1    3    3    0    0 -0.56946122273E+01  0.82202956853E+01 -0.33970316515E+02  0.35411640374E+02  0.51100000000E-03 0. -1.
         11    1    3    3    0    0  0.56946122273E+01 -0.82202956853E+01 -0.34414204825E+02  0.35837680778E+02  0.51100000000E-03 0.  1.
<mgrwt>
<rscale>  0 0.20000575E+02</rscale>
<asrwt>0</asrwt>
<pdfrwt beam="2">  1        2 0.10741062E-01 0.20000575E+02</pdfrwt>
<pdfrwt beam="1">  1       -2 0.22036927E-03 0.20000575E+02</pdfrwt>
<totfact> 0.48992882E+06</totfact>
</mgrwt>
</event>
<event>
 5    1  0.4046313E-006  0.2000019E+02  0.7818608E-02  0.1745324E+00
         -2   -1    0    0    0  501 -0.00000000000E+00  0.00000000000E+00  0.34169803288E+01  0.34169813180E+01  0.26000000000E-02 0. -1.
          2   -1    0    0  501    0  0.00000000000E+00 -0.00000000000E+00 -0.29266152884E+02  0.29266153000E+02  0.26000000000E-02 0.  1.
       1023    2    1    2    0    0  0.00000000000E+00  0.00000000000E+00 -0.25849172555E+02  0.32683134318E+02  0.20000188675E+02 0.  0.
        -11    1    3    3    0    0 -0.14141436561E+01  0.98995936495E+01 -0.12905969126E+02  0.16326842807E+02  0.51100000000E-03 0.  1.
         11    1    3    3    0    0  0.14141436561E+01 -0.98995936495E+01 -0.12943203430E+02  0.16356291511E+02  0.51100000000E-03 0. -1.
<mgrwt>
<rscale>  0 0.20000189E+02</rscale>
<asrwt>0</asrwt>
<pdfrwt beam="2">  1        2 0.45024850E-02 0.20000189E+02</pdfrwt>
<pdfrwt beam="1">  1       -2 0.52568939E-03 0.20000189E+02</pdfrwt>
<totfact> 0.43255430E+06</totfact>
</mgrwt>
</event>
<event>
 5    1  0.4046313E-006  0.2000100E+02  0.7818608E-02  0.1745308E+00
         -2   -1    0    0    0  501 -0.00000000000E+00  0.00000000000E+00  0.11068747680E+03  0.11068747683E+03  0.26000000000E-02 0.  1.
          2   -1    0    0  501    0  0.00000000000E+00 -0.00000000000E+00 -0.90353283475E+00  0.90353657562E+00  0.26000000000E-02 0. -1.
       1023    2    1    2    0    0  0.00000000000E+00  0.00000000000E+00  0.10978394396E+03  0.11159101340E+03  0.20000997986E+02 0.  0.
        -11    1    3    3    0    0  0.58872804356E+01  0.80835384935E+01  0.55335316811E+02  0.56231672146E+02  0.51100000000E-03 0.  1.
         11    1    3    3    0    0 -0.58872804356E+01 -0.80835384935E+01  0.54448627151E+02  0.55359341256E+02  0.51100000000E-03 0. -1.
<mgrwt>
<rscale>  0 0.20000998E+02</rscale>
<asrwt>0</asrwt>
<pdfrwt beam="2">  1        2 0.13900525E-03 0.20000998E+02</pdfrwt>
<pdfrwt beam="1">  1       -2 0.17028854E-01 0.20000998E+02</pdfrwt>
<totfact> 0.28969539E+06</totfact>
</mgrwt>
</event>
<event>
 5    1  0.4046313E-006  0.2000030E+02  0.7818608E-02  0.1745322E+00
         -2   -1    0    0    0  501 -0.00000000000E+00  0.00000000000E+00  0.10586683179E+01  0.10586715106E+01  0.26000000000E-02 0.  1.
          2   -1    0    0  501    0  0.00000000000E+00 -0.00000000000E+00 -0.94461023969E+02  0.94461024005E+02  0.26000000000E-02 0. -1.
       1023    2    1    2    0    0  0.00000000000E+00  0.00000000000E+00 -0.93402355651E+02  0.95519695515E+02  0.20000304752E+02 0.  0.
        -11    1    3    3    0    0  0.55946106273E+01 -0.82885910638E+01 -0.46946447445E+02  0.47999680602E+02  0.51100000000E-03 0. -1.
         11    1    3    3    0    0 -0.55946106273E+01  0.82885910638E+01 -0.46455908205E+02  0.47520014913E+02  0.51100000000E-03 0.  1.
<mgrwt>
<rscale>  0 0.20000305E+02</rscale>
<asrwt>0</asrwt>
<pdfrwt beam="2">  1        2 0.14532459E-01 0.20000305E+02</pdfrwt>
<pdfrwt beam="1">  1       -2 0.16287237E-03 0.20000305E+02</pdfrwt>
<totfact> 0.52088126E+06</totfact>
</mgrwt>
</event>
<event>
 5    1  0.4046313E-006  0.2000091E+02  0.7818608E-02  0.1745310E+00
         -2   -1    0    0    0  501 -0.00000000000E+00  0.00000000000E+00  0.21854653763E+01  0.21854669229E+01  0.26000000000E-02 0. -1.
          2   -1    0    0  501    0  0.00000000000E+00 -0.00000000000E+00 -0.45760972087E+02  0.45760972161E+02  0.26000000000E-02 0.  1.
       1023    2    1    2    0    0  0.00000000000E+00  0.00000000000E+00 -0.43575506710E+02  0.47946439083E+02  0.20000905872E+02 0.  0.
        -11    1    3    3    0    0 -0.76225727146E+01  0.64731293446E+01 -0.21635377169E+02  0.23834734398E+02  0.51100000000E-03 0.  1.
         11    1    3    3    0    0  0.76225727146E+01 -0.64731293446E+01 -0.21940129541E+02  0.24111704686E+02  0.51100000000E-03 0. -1.
<mgrwt>
<rscale>  0 0.20000906E+02</rscale>
<asrwt>0</asrwt>
<pdfrwt beam="2">  1        2 0.70401490E-02 0.20000906E+02</pdfrwt>
<pdfrwt beam="1">  1       -2 0.33622560E-03 0.20000906E+02</pdfrwt>
<totfact> 0.45725361E+06</totfact>
</mgrwt>
</event>
<event>
 5    1  0.4046313E-006  0.2000064E+02  0.7818608E-02  0.1745315E+00
          2   -1    0    0  501    0  0.00000000000E+00  0.00000000000E+00  0.87146756700E+00  0.87147144550E+00  0.26000000000E-02 0. -1.
         -2   -1    0    0    0  501 -0.00000000000E+00 -0.00000000000E+00 -0.11475606126E+03  0.11475606129E+03  0.26000000000E-02 0.  1.
       1023    2    1    2    0    0  0.00000000000E+00  0.00000000000E+00 -0.11388459369E+03  0.11562753273E+03  0.20000641133E+02 0.  0.
        -11    1    3    3    0    0  0.70893015318E+00 -0.99751085338E+01 -0.56755953192E+02  0.57630231608E+02  0.51100000000E-03 0.  1.
         11    1    3    3    0    0 -0.70893015318E+00  0.99751085338E+01 -0.57128640497E+02  0.57997301123E+02  0.51100000000E-03 0. -1.
<mgrwt>
<rscale>  0 0.20000641E+02</rscale>
<asrwt>0</asrwt>
<pdfrwt beam="1">  1        2 0.13407233E-03 0.20000641E+02</pdfrwt>
<pdfrwt beam="2">  1       -2 0.17654767E-01 0.20000641E+02</pdfrwt>
<totfact> 0.28691574E+06</totfact>
</mgrwt>
</event>
<event>
 4    1  0.4046313E-006  0.2009298E+02  0.7818608E-02  0.1743485E+00
         -2   -1    0    0    0  501 -0.00000000000E+00  0.00000000000E+00  0.98928328583E+01  0.98928332000E+01  0.26000000000E-02 0.  1.
          2   -1    0    0  501    0  0.00000000000E+00 -0.00000000000E+00 -0.10202535111E+02  0.10202535443E+02  0.26000000000E-02 0. -1.
        -11    1    1    2    0    0  0.87207574360E+01  0.49201433523E+01 -0.97504622782E+00  0.10060324859E+02  0.51100000000E-03 0. -1.
         11    1    1    2    0    0 -0.87207574360E+01 -0.49201433523E+01  0.66534397491E+00  0.10035043783E+02  0.51100000000E-03 0.  1.
<mgrwt>
<rscale>  0 0.20092982E+02</rscale>
<asrwt>0</asrwt>
<pdfrwt beam="2">  1        2 0.15696209E-02 0.20092982E+02</pdfrwt>
<pdfrwt beam="1">  1       -2 0.15219743E-02 0.20092982E+02</pdfrwt>
<totfact> 0.39104759E+06</totfact>
</mgrwt>
</event>
<event>
 5    1  0.4046313E-006  0.2000221E+02  0.7818608E-02  0.1745284E+00
          2   -1    0    0  501    0  0.00000000000E+00  0.00000000000E+00  0.15519852690E+02  0.15519852908E+02  0.26000000000E-02 0.  1.
         -2   -1    0    0    0  501 -0.00000000000E+00 -0.00000000000E+00 -0.64447853380E+01  0.64447858625E+01  0.26000000000E-02 0. -1.
       1023    2    1    2    0    0  0.00000000000E+00  0.00000000000E+00  0.90750673519E+01  0.21964638770E+02  0.20002212599E+02 0.  0.
        -11    1    3    3    0    0  0.25605869658E+00 -0.99974902273E+01  0.46277530162E+01  0.11019595053E+02  0.51100000000E-03 0. -1.
         11    1    3    3    0    0 -0.25605869658E+00  0.99974902273E+01  0.44473143357E+01  0.10945043717E+02  0.51100000000E-03 0.  1.
<mgrwt>
<rscale>  0 0.20002213E+02</rscale>
<asrwt>0</asrwt>
<pdfrwt beam="1">  1        2 0.23876696E-02 0.20002213E+02</pdfrwt>
<pdfrwt beam="2">  1       -2 0.99150552E-03 0.20002213E+02</pdfrwt>
<totfact> 0.40789761E+06</totfact>
</mgrwt>
</event>
<event>
 4    1  0.4046313E-006  0.2037528E+02  0.7818608E-02  0.1737966E+00
         -2   -1    0    0    0  501 -0.00000000000E+00  0.00000000000E+00  0.46515390340E+01  0.46515397607E+01  0.26000000000E-02 0.  1.
          2   -1    0    0  501    0  0.00000000000E+00 -0.00000000000E+00 -0.22312620054E+02  0.22312620206E+02  0.26000000000E-02 0. -1.
        -11    1    1    2    0    0 -0.22323357914E+01  0.99400470699E+01 -0.88129901645E+01  0.13470584796E+02  0.51100000000E-03 0. -1.
         11    1    1    2    0    0  0.22323357914E+01 -0.99400470699E+01 -0.88480908558E+01  0.13493575171E+02  0.51100000000E-03 0.  1.
<mgrwt>
<rscale>  0 0.20375283E+02</rscale>
<asrwt>0</asrwt>
<pdfrwt beam="2">  1        2 0.34327108E-02 0.20375283E+02</pdfrwt>
<pdfrwt beam="1">  1       -2 0.71562147E-03 0.20375283E+02</pdfrwt>
<totfact> 0.40365413E+06</totfact>
</mgrwt>
</event>
<event>
 5    1  0.4046313E-006  0.2000076E+02  0.7818608E-02  0.1745313E+00
         -2   -1    0    0    0  501 -0.00000000000E+00  0.00000000000E+00  0.10716052508E+02  0.10716052823E+02  0.26000000000E-02 0.  1.
          2   -1    0    0  501    0  0.00000000000E+00 -0.00000000000E+00 -0.93325041971E+01  0.93325045592E+01  0.26000000000E-02 0. -1.
       1023    2    1    2    0    0  0.00000000000E+00  0.00000000000E+00  0.13835483110E+01  0.20048557383E+02  0.20000761165E+02 0.  0.
        -11    1    3    3    0    0 -0.84475563551E+01  0.53522284635E+01  0.69911565221E+00  0.10024785327E+02  0.51100000000E-03 0.  1.
         11    1    3    3    0    0  0.84475563551E+01 -0.53522284635E+01  0.68443265881E+00  0.10023772056E+02  0.51100000000E-03 0. -1.
<mgrwt>
<rscale>  0 0.20000761E+02</rscale>
<asrwt>0</asrwt>
<pdfrwt beam="2">  1        2 0.14357699E-02 0.20000761E+02</pdfrwt>
<pdfrwt beam="1">  1       -2 0.16486235E-02 0.20000761E+02</pdfrwt>
<totfact> 0.39260750E+06</totfact>
</mgrwt>
</event>
<event>
 5    1  0.4046313E-006  0.2000179E+02  0.7818608E-02  0.1745293E+00
         -2   -1    0    0    0  501 -0.00000000000E+00  0.00000000000E+00  0.12733266241E+02  0.12733266506E+02  0.26000000000E-02 0.  1.
          2   -1    0    0  501    0  0.00000000000E+00 -0.00000000000E+00 -0.78548469275E+01  0.78548473578E+01  0.26000000000E-02 0. -1.
       1023    2    1    2    0    0  0.00000000000E+00  0.00000000000E+00  0.48784193133E+01  0.20588113864E+02  0.20001786357E+02 0.  0.
        -11    1    3    3    0    0  0.93327646635E+01 -0.35936772502E+01  0.23842432847E+01  0.10281032475E+02  0.51100000000E-03 0.  1.
         11    1    3    3    0    0 -0.93327646635E+01  0.35936772502E+01  0.24941760286E+01  0.10307081389E+02  0.51100000000E-03 0. -1.
<mgrwt>
<rscale>  0 0.20001786E+02</rscale>
<asrwt>0</asrwt>
<pdfrwt beam="2">  1        2 0.12084380E-02 0.20001786E+02</pdfrwt>
<pdfrwt beam="1">  1       -2 0.19589641E-02 0.20001786E+02</pdfrwt>
<totfact> 0.38762685E+06</totfact>
</mgrwt>
</event>
<event>
 5    1  0.4046313E-006  0.2000520E+02  0.7818608E-02  0.1745225E+00
          2   -1    0    0  501    0  0.00000000000E+00  0.00000000000E+00  0.58413351989E+02  0.58413352046E+02  0.26000000000E-02 0. -1.
         -2   -1    0    0    0  501 -0.00000000000E+00 -0.00000000000E+00 -0.17128258157E+01  0.17128277891E+01  0.26000000000E-02 0.  1.
       1023    2    1    2    0    0  0.00000000000E+00  0.00000000000E+00  0.56700526173E+02  0.60126179836E+02  0.20005195159E+02 0.  0.
        -11    1    3    3    0    0  0.78763924675E+01 -0.61655708890E+01  0.28385233688E+02  0.30096068090E+02  0.51100000000E-03 0.  1.
         11    1    3    3    0    0 -0.78763924675E+01  0.61655708890E+01  0.28315292485E+02  0.30030111746E+02  0.51100000000E-03 0. -1.
<mgrwt>
<rscale>  0 0.20005195E+02</rscale>
<asrwt>0</asrwt>
<pdfrwt beam="1">  1        2 0.89866693E-02 0.20005195E+02</pdfrwt>
<pdfrwt beam="2">  1       -2 0.26351183E-03 0.20005195E+02</pdfrwt>
<totfact> 0.47456307E+06</totfact>
</mgrwt>
</event>
<event>
 5    1  0.4046313E-006  0.2000314E+02  0.7818608E-02  0.1745266E+00
          2   -1    0    0  501    0  0.00000000000E+00  0.00000000000E+00  0.89687296933E+00  0.89687673798E+00  0.26000000000E-02 0.  1.
         -2   -1    0    0    0  501 -0.00000000000E+00 -0.00000000000E+00 -0.11153323604E+03  0.11153323607E+03  0.26000000000E-02 0. -1.
       1023    2    1    2    0    0  0.00000000000E+00  0.00000000000E+00 -0.11063636307E+03  0.11243011281E+03  0.20003135569E+02 0.  0.
        -11    1    3    3    0    0 -0.34350067653E+00  0.99943243730E+01 -0.56239098085E+02  0.57121280326E+02  0.51100000000E-03 0.  1.
         11    1    3    3    0    0  0.34350067653E+00 -0.99943243730E+01 -0.54397264985E+02  0.55308832481E+02  0.51100000000E-03 0. -1.
<mgrwt>
<rscale>  0 0.20003136E+02</rscale>
<asrwt>0</asrwt>
<pdfrwt beam="1">  1        2 0.13798084E-03 0.20003136E+02</pdfrwt>
<pdfrwt beam="2">  1       -2 0.17158949E-01 0.20003136E+02</pdfrwt>
<totfact> 0.28904380E+06</totfact>
</mgrwt>
</event>
<event>
 4    1  0.4046313E-006  0.2001576E+02  0.7818608E-02  0.1745015E+00
          2   -1    0    0  501    0  0.00000000000E+00  0.00000000000E+00  0.26226965530E+01  0.26226978418E+01  0.26000000000E-02 0. -1.
         -2   -1    0    0    0  501 -0.00000000000E+00 -0.00000000000E+00 -0.38188786685E+02  0.38188786774E+02  0.26000000000E-02 0.  1.
        -11    1    1    2    0    0  0.82789046239E+01 -0.56220303034E+01 -0.17988369669E+02  0.20584677071E+02  0.51100000000E-03 0.  1.
         11    1    1    2    0    0 -0.82789046239E+01  0.56220303034E+01 -0.17577720463E+02  0.20226807544E+02  0.51100000000E-03 0. -1.
<mgrwt>
<rscale>  0 0.20015757E+02</rscale>
<asrwt>0</asrwt>
<pdfrwt beam="1">  1        2 0.40349191E-03 0.20015757E+02</pdfrwt>
<pdfrwt beam="2">  1       -2 0.58751976E-02 0.20015757E+02</pdfrwt>
<totfact> 0.35056463E+06</totfact>
</mgrwt>
</event>
<event>
 5    1  0.4046313E-006  0.2000065E+02  0.7818608E-02  0.1745315E+00
         -2   -1    0    0    0  501 -0.00000000000E+00  0.00000000000E+00  0.55002606513E+02  0.55002606574E+02  0.26000000000E-02 0. -1.
          2   -1    0    0  501    0  0.00000000000E+00 -0.00000000000E+00 -0.18182119958E+01  0.18182138548E+01  0.26000000000E-02 0.  1.
       1023    2    1    2    0    0  0.00000000000E+00  0.00000000000E+00  0.53184394517E+02  0.56820820429E+02  0.20000645342E+02 0.  0.
        -11    1    3    3    0    0  0.81375713580E+01  0.58124679645E+01  0.26705899717E+02  0.28516835929E+02  0.51100000000E-03 0. -1.
         11    1    3    3    0    0 -0.81375713580E+01 -0.58124679645E+01  0.26478494800E+02  0.28303984500E+02  0.51100000000E-03 0.  1.
<mgrwt>
<rscale>  0 0.20000645E+02</rscale>
<asrwt>0</asrwt>
<pdfrwt beam="2">  1        2 0.27972508E-03 0.20000645E+02</pdfrwt>
<pdfrwt beam="1">  1       -2 0.84619393E-02 0.20000645E+02</pdfrwt>
<totfact> 0.33418029E+06</totfact>
</mgrwt>
</event>
<event>
 4    1  0.4046313E-006  0.2044226E+02  0.7818608E-02  0.1736674E+00
         -2   -1    0    0    0  501 -0.00000000000E+00  0.00000000000E+00  0.45865677500E+02  0.45865677574E+02  0.26000000000E-02 0. -1.
          2   -1    0    0  501    0  0.00000000000E+00 -0.00000000000E+00 -0.22777702134E+01  0.22777716973E+01  0.26000000000E-02 0.  1.
        -11    1    1    2    0    0 -0.72399761006E+01 -0.72142983348E+01  0.22006654777E+02  0.24264299065E+02  0.51100000000E-03 0.  1.
         11    1    1    2    0    0  0.72399761006E+01  0.72142983348E+01  0.21581252510E+02  0.23879150206E+02  0.51100000000E-03 0. -1.
<mgrwt>
<rscale>  0 0.20442261E+02</rscale>
<asrwt>0</asrwt>
<pdfrwt beam="2">  1        2 0.35042631E-03 0.20442261E+02</pdfrwt>
<pdfrwt beam="1">  1       -2 0.70562581E-02 0.20442261E+02</pdfrwt>
<totfact> 0.32704998E+06</totfact>
</mgrwt>
</event>
<event>
 5    1  0.4046313E-006  0.2000024E+02  0.7818608E-02  0.1745323E+00
         -2   -1    0    0    0  501 -0.00000000000E+00  0.00000000000E+00  0.47617934626E+01  0.47617941724E+01  0.26000000000E-02 0.  1.
          2   -1    0    0  501    0  0.00000000000E+00 -0.00000000000E+00 -0.21000994268E+02  0.21000994429E+02  0.26000000000E-02 0. -1.
       1023    2    1    2    0    0  0.00000000000E+00  0.00000000000E+00 -0.16239200805E+02  0.25762788601E+02  0.20000240842E+02 0.  0.
        -11    1    3    3    0    0  0.19345550191E+01 -0.98111781568E+01 -0.80858077621E+01  0.12860093599E+02  0.51100000000E-03 0.  1.
         11    1    3    3    0    0 -0.19345550191E+01  0.98111781568E+01 -0.81533930432E+01  0.12902695002E+02  0.51100000000E-03 0. -1.
<mgrwt>
<rscale>  0 0.20000241E+02</rscale>
<asrwt>0</asrwt>
<pdfrwt beam="2">  1        2 0.32309222E-02 0.20000241E+02</pdfrwt>
<pdfrwt beam="1">  1       -2 0.73258369E-03 0.20000241E+02</pdfrwt>
<totfact> 0.41859326E+06</totfact>
</mgrwt>
</event>
<event>
 5    1  0.4046313E-006  0.2000209E+02  0.7818608E-02  0.1745287E+00
          2   -1    0    0  501    0  0.00000000000E+00  0.00000000000E+00  0.21418625215E+02  0.21418625373E+02  0.26000000000E-02 0.  1.
         -2   -1    0    0    0  501 -0.00000000000E+00 -0.00000000000E+00 -0.46698081886E+01  0.46698089124E+01  0.26000000000E-02 0. -1.
       1023    2    1    2    0    0  0.00000000000E+00  0.00000000000E+00  0.16748817027E+02  0.26088434286E+02  0.20002088183E+02 0.  0.
        -11    1    3    3    0    0 -0.28229320112E+01 -0.95935433487E+01  0.85386839614E+01  0.13149682246E+02  0.51100000000E-03 0. -1.
         11    1    3    3    0    0  0.28229320112E+01  0.95935433487E+01  0.82101330653E+01  0.12938752039E+02  0.51100000000E-03 0.  1.
<mgrwt>
<rscale>  0 0.20002088E+02</rscale>
<asrwt>0</asrwt>
<pdfrwt beam="1">  1        2 0.32951731E-02 0.20002088E+02</pdfrwt>
<pdfrwt beam="2">  1       -2 0.71843211E-03 0.20002088E+02</pdfrwt>
<totfact> 0.41925629E+06</totfact>
</mgrwt>
</event>
<event>
 4    1  0.4963818E-006  0.2043368E+02  0.7818608E-02  0.1736839E+00
          2   -1    0    0  501    0  0.00000000000E+00  0.00000000000E+00  0.17045332562E+02  0.17045332760E+02  0.26000000000E-02 0. -1.
         -2   -1    0    0    0  501 -0.00000000000E+00 -0.00000000000E+00 -0.61238926228E+01  0.61238931747E+01  0.26000000000E-02 0.  1.
        -11    1    1    2    0    0  0.93702949142E+01 -0.37684588000E+01  0.72100080447E+01  0.12409187112E+02  0.51100000000E-03 0. -1.
         11    1    1    2    0    0 -0.93702949142E+01  0.37684588000E+01  0.37114318943E+01  0.10760038823E+02  0.51100000000E-03 0.  1.
<mgrwt>
<rscale>  0 0.20433678E+02</rscale>
<asrwt>0</asrwt>
<pdfrwt beam="1">  1        2 0.26223589E-02 0.20433678E+02</pdfrwt>
<pdfrwt beam="2">  1       -2 0.94213741E-03 0.20433678E+02</pdfrwt>
<totfact> 0.39161363E+06</totfact>
</mgrwt>
</event>
<event>
 5    1  0.4046313E-006  0.2000375E+02  0.7818608E-02  0.1745253E+00
          2   -1    0    0  501    0  0.00000000000E+00  0.00000000000E+00  0.20482917202E+01  0.20482933704E+01  0.26000000000E-02 0.  1.
         -2   -1    0    0    0  501 -0.00000000000E+00 -0.00000000000E+00 -0.48839464181E+02  0.48839464250E+02  0.26000000000E-02 0. -1.
       1023    2    1    2    0    0  0.00000000000E+00  0.00000000000E+00 -0.46791172460E+02  0.50887757620E+02  0.20003751033E+02 0.  0.
        -11    1    3    3    0    0  0.94540711286E+01  0.32642987061E+01 -0.23520384199E+02  0.25558630246E+02  0.51100000000E-03 0. -1.
         11    1    3    3    0    0 -0.94540711286E+01 -0.32642987061E+01 -0.23270788261E+02  0.25329127374E+02  0.51100000000E-03 0.  1.
<mgrwt>
<rscale>  0 0.20003751E+02</rscale>
<asrwt>0</asrwt>
<pdfrwt beam="1">  1        2 0.31512197E-03 0.20003751E+02</pdfrwt>
<pdfrwt beam="2">  1       -2 0.75137630E-02 0.20003751E+02</pdfrwt>
<totfact> 0.33998528E+06</totfact>
</mgrwt>
</event>
<event>
 5    1  0.4191048E-006  0.2000263E+02  0.7818608E-02  0.1745276E+00
          2   -1    0    0  501    0  0.00000000000E+00  0.00000000000E+00  0.10259891083E+03  0.10259891086E+03  0.26000000000E-02 0. -1.
         -2   -1    0    0    0  501 -0.00000000000E+00 -0.00000000000E+00 -0.97492406516E+00  0.97492753209E+00  0.26000000000E-02 0.  1.
       1023    2    1    2    0    0  0.00000000000E+00  0.00000000000E+00  0.10162398676E+03  0.10357383839E+03  0.20002632674E+02 0.  0.
        -11    1    3    3    0    0  0.99135377495E+01 -0.13158244117E+01  0.50142774480E+02  0.51130298820E+02  0.51100000000E-03 0.  1.
         11    1    3    3    0    0 -0.99135377495E+01  0.13158244117E+01  0.51481212282E+02  0.52443539573E+02  0.51100000000E-03 0. -1.
<mgrwt>
<rscale>  0 0.20002633E+02</rscale>
<asrwt>0</asrwt>
<pdfrwt beam="1">  1        2 0.15784448E-01 0.20002633E+02</pdfrwt>
<pdfrwt beam="2">  1       -2 0.14998859E-03 0.20002633E+02</pdfrwt>
<totfact> 0.53052737E+06</totfact>
</mgrwt>
</event>
<event>
 5    1  0.4046313E-006  0.2000138E+02  0.7818608E-02  0.1745301E+00
         -2   -1    0    0    0  501 -0.00000000000E+00  0.00000000000E+00  0.42905832276E+02  0.42905832355E+02  0.26000000000E-02 0. -1.
          2   -1    0    0  501    0  0.00000000000E+00 -0.00000000000E+00 -0.23310069181E+01  0.23310083681E+01  0.26000000000E-02 0.  1.
       1023    2    1    2    0    0  0.00000000000E+00  0.00000000000E+00  0.40574825358E+02  0.45236840723E+02  0.20001382597E+02 0.  0.
        -11    1    3    3    0    0  0.53561482364E+01 -0.84448503476E+01  0.20061189185E+02  0.22415510993E+02  0.51100000000E-03 0. -1.
         11    1    3    3    0    0 -0.53561482364E+01  0.84448503476E+01  0.20513636173E+02  0.22821329730E+02  0.51100000000E-03 0.  1.
<mgrwt>
<rscale>  0 0.20001383E+02</rscale>
<asrwt>0</asrwt>
<pdfrwt beam="2">  1        2 0.35861659E-03 0.20001383E+02</pdfrwt>
<pdfrwt beam="1">  1       -2 0.66008970E-02 0.20001383E+02</pdfrwt>
<totfact> 0.34607984E+06</totfact>
</mgrwt>
</event>
<event>
 5    1  0.4046313E-006  0.2000062E+02  0.7818608E-02  0.1745316E+00
         -2   -1    0    0    0  501 -0.00000000000E+00  0.00000000000E+00  0.84037233333E+00  0.84037635535E+00  0.26000000000E-02 0.  1.
          2   -1    0    0  501    0  0.00000000000E+00 -0.00000000000E+00 -0.11900190861E+03  0.11900190864E+03  0.26000000000E-02 0. -1.
       1023    2    1    2    0    0  0.00000000000E+00  0.00000000000E+00 -0.11816153628E+03  0.11984228499E+03  0.20000615422E+02 0.  0.
        -11    1    3    3    0    0 -0.92448589121E+01  0.38127539163E+01 -0.59323816291E+02  0.60160781979E+02  0.51100000000E-03 0.  1.
         11    1    3    3    0    0  0.92448589121E+01 -0.38127539163E+01 -0.58837719986E+02  0.59681503015E+02  0.51100000000E-03 0. -1.
<mgrwt>
<rscale>  0 0.20000615E+02</rscale>
<asrwt>0</asrwt>
<pdfrwt beam="2">  1        2 0.18307973E-01 0.20000615E+02</pdfrwt>
<pdfrwt beam="1">  1       -2 0.12928846E-03 0.20000615E+02</pdfrwt>
<totfact> 0.54974710E+06</totfact>
</mgrwt>
</event>
<event>
 5    1  0.4046313E-006  0.2000011E+02  0.7818608E-02  0.1745326E+00
         -2   -1    0    0    0  501 -0.00000000000E+00  0.00000000000E+00  0.52545122841E+01  0.52545129273E+01  0.26000000000E-02 0. -1.
          2   -1    0    0  501    0  0.00000000000E+00 -0.00000000000E+00 -0.19031461503E+02  0.19031461680E+02  0.26000000000E-02 0.  1.
       1023    2    1    2    0    0  0.00000000000E+00  0.00000000000E+00 -0.13776949219E+02  0.24285974608E+02  0.20000105822E+02 0.  0.
        -11    1    3    3    0    0  0.60479761336E+01 -0.79638423580E+01 -0.68689874883E+01  0.12131932649E+02  0.51100000000E-03 0.  1.
         11    1    3    3    0    0 -0.60479761336E+01  0.79638423580E+01 -0.69079617304E+01  0.12154041959E+02  0.51100000000E-03 0. -1.
<mgrwt>
<rscale>  0 0.20000106E+02</rscale>
<asrwt>0</asrwt>
<pdfrwt beam="2">  1        2 0.29279172E-02 0.20000106E+02</pdfrwt>
<pdfrwt beam="1">  1       -2 0.80838658E-03 0.20000106E+02</pdfrwt>
<totfact> 0.41496992E+06</totfact>
</mgrwt>
</event>
<event>
 5    1  0.4046313E-006  0.2000034E+02  0.7818608E-02  0.1745321E+00
         -2   -1    0    0    0  501 -0.00000000000E+00  0.00000000000E+00  0.13695089051E+01  0.13695113731E+01  0.26000000000E-02 0. -1.
          2   -1    0    0  501    0  0.00000000000E+00 -0.00000000000E+00 -0.73021296193E+02  0.73021296239E+02  0.26000000000E-02 0.  1.
       1023    2    1    2    0    0  0.00000000000E+00  0.00000000000E+00 -0.71651787288E+02  0.74390807612E+02  0.20000340889E+02 0.  0.
        -11    1    3    3    0    0  0.69986771254E+01 -0.71428601700E+01 -0.35683008438E+02  0.37057779539E+02  0.51100000000E-03 0. -1.
         11    1    3    3    0    0 -0.69986771254E+01  0.71428601700E+01 -0.35968778849E+02  0.37333028073E+02  0.51100000000E-03 0.  1.
<mgrwt>
<rscale>  0 0.20000341E+02</rscale>
<asrwt>0</asrwt>
<pdfrwt beam="2">  1        2 0.11234043E-01 0.20000341E+02</pdfrwt>
<pdfrwt beam="1">  1       -2 0.21069393E-03 0.20000341E+02</pdfrwt>
<totfact> 0.49408798E+06</totfact>
</mgrwt>
</event>
<event>
 5    1  0.4046313E-006  0.2000091E+02  0.7818608E-02  0.1745310E+00
          2   -1    0    0  501    0  0.00000000000E+00  0.00000000000E+00  0.63920459728E+01  0.63920465016E+01  0.26000000000E-02 0. -1.
         -2   -1    0    0    0  501 -0.00000000000E+00 -0.00000000000E+00 -0.15645870839E+02  0.15645871055E+02  0.26000000000E-02 0.  1.
       1023    2    1    2    0    0  0.00000000000E+00  0.00000000000E+00 -0.92538248663E+01  0.22037917557E+02  0.20000913369E+02 0.  0.
        -11    1    3    3    0    0  0.41761852033E+01 -0.90864132213E+01 -0.47101404682E+01  0.11053906620E+02  0.51100000000E-03 0.  1.
         11    1    3    3    0    0 -0.41761852033E+01  0.90864132213E+01 -0.45436843980E+01  0.10984010936E+02  0.51100000000E-03 0. -1.
<mgrwt>
<rscale>  0 0.20000913E+02</rscale>
<asrwt>0</asrwt>
<pdfrwt beam="1">  1        2 0.98339175E-03 0.20000913E+02</pdfrwt>
<pdfrwt beam="2">  1       -2 0.24070571E-02 0.20000913E+02</pdfrwt>
<totfact> 0.38170733E+06</totfact>
</mgrwt>
</event>
<event>
 5    1  0.4046313E-006  0.2000095E+02  0.7818608E-02  0.1745309E+00
         -2   -1    0    0    0  501 -0.00000000000E+00  0.00000000000E+00  0.48337186542E+01  0.48337193535E+01  0.26000000000E-02 0. -1.
          2   -1    0    0  501    0  0.00000000000E+00 -0.00000000000E+00 -0.20689973370E+02  0.20689973533E+02  0.26000000000E-02 0.  1.
       1023    2    1    2    0    0  0.00000000000E+00  0.00000000000E+00 -0.15856254715E+02  0.25523692886E+02  0.20000952101E+02 0.  0.
        -11    1    3    3    0    0  0.60905852275E+01  0.79317054053E+01 -0.78663712683E+01  0.12723481294E+02  0.51100000000E-03 0.  1.
         11    1    3    3    0    0 -0.60905852275E+01 -0.79317054053E+01 -0.79898834471E+01  0.12800211592E+02  0.51100000000E-03 0. -1.
<mgrwt>
<rscale>  0 0.20000952E+02</rscale>
<asrwt>0</asrwt>
<pdfrwt beam="2">  1        2 0.31830728E-02 0.20000952E+02</pdfrwt>
<pdfrwt beam="1">  1       -2 0.74364910E-03 0.20000952E+02</pdfrwt>
<totfact> 0.41799694E+06</totfact>
</mgrwt>
</event>
<event>
 5    1  0.4046313E-006  0.2000037E+02  0.7818608E-02  0.1745321E+00
          2   -1    0    0  501    0  0.00000000000E+00  0.00000000000E+00  0.79184642278E+01  0.79184646546E+01  0.26000000000E-02 0.  1.
         -2   -1    0    0    0  501 -0.00000000000E+00 -0.00000000000E+00 -0.12629182499E+02  0.12629182767E+02  0.26000000000E-02 0. -1.
       1023    2    1    2    0    0  0.00000000000E+00  0.00000000000E+00 -0.47107182717E+01  0.20547647422E+02  0.20000373695E+02 0.  0.
        -11    1    3    3    0    0 -0.95355708100E+01 -0.30126934732E+01 -0.23374439065E+01  0.10269716496E+02  0.51100000000E-03 0. -1.
         11    1    3    3    0    0  0.95355708100E+01  0.30126934732E+01 -0.23732743652E+01  0.10277930926E+02  0.51100000000E-03 0.  1.
<mgrwt>
<rscale>  0 0.20000374E+02</rscale>
<asrwt>0</asrwt>
<pdfrwt beam="1">  1        2 0.12182253E-02 0.20000374E+02</pdfrwt>
<pdfrwt beam="2">  1       -2 0.19429512E-02 0.20000374E+02</pdfrwt>
<totfact> 0.38792074E+06</totfact>
</mgrwt>
</event>
<event>
 5    1  0.4046313E-006  0.2000056E+02  0.7818608E-02  0.1745317E+00
          2   -1    0    0  501    0  0.00000000000E+00  0.00000000000E+00  0.10728098399E+01  0.10728129905E+01  0.26000000000E-02 0. -1.
         -2   -1    0    0    0  501 -0.00000000000E+00 -0.00000000000E+00 -0.93218220165E+02  0.93218220201E+02  0.26000000000E-02 0.  1.
       1023    2    1    2    0    0  0.00000000000E+00  0.00000000000E+00 -0.92145410325E+02  0.94291033191E+02  0.20000557402E+02 0.  0.
        -11    1    3    3    0    0  0.89867393926E+01  0.43867531751E+01 -0.46176583837E+02  0.47247031477E+02  0.51100000000E-03 0. -1.
         11    1    3    3    0    0 -0.89867393926E+01 -0.43867531751E+01 -0.45968826488E+02  0.47044001714E+02  0.51100000000E-03 0.  1.
<mgrwt>
<rscale>  0 0.20000557E+02</rscale>
<asrwt>0</asrwt>
<pdfrwt beam="1">  1        2 0.16504799E-03 0.20000557E+02</pdfrwt>
<pdfrwt beam="2">  1       -2 0.14341258E-01 0.20000557E+02</pdfrwt>
<totfact> 0.30229833E+06</totfact>
</mgrwt>
</event>
<event>
 5    1  0.4046313E-006  0.2000098E+02  0.7818608E-02  0.1745309E+00
         -2   -1    0    0    0  501 -0.00000000000E+00  0.00000000000E+00  0.10439145292E+03  0.10439145295E+03  0.26000000000E-02 0.  1.
          2   -1    0    0  501    0  0.00000000000E+00 -0.00000000000E+00 -0.95802495390E+00  0.95802848198E+00  0.26000000000E-02 0. -1.
       1023    2    1    2    0    0  0.00000000000E+00  0.00000000000E+00  0.10343342797E+03  0.10534948143E+03  0.20000980418E+02 0.  0.
        -11    1    3    3    0    0 -0.28392369704E+01 -0.95889548659E+01  0.51832372544E+02  0.52788295727E+02  0.51100000000E-03 0. -1.
         11    1    3    3    0    0  0.28392369704E+01  0.95889548659E+01  0.51601055423E+02  0.52561185708E+02  0.51100000000E-03 0.  1.
<mgrwt>
<rscale>  0 0.20000980E+02</rscale>
<asrwt>0</asrwt>
<pdfrwt beam="2">  1        2 0.14738871E-03 0.20000980E+02</pdfrwt>
<pdfrwt beam="1">  1       -2 0.16060226E-01 0.20000980E+02</pdfrwt>
<totfact> 0.29411734E+06</totfact>
</mgrwt>
</event>
<event>
 5    1  0.4046313E-006  0.2000019E+02  0.7818608E-02  0.1745324E+00
         -2   -1    0    0    0  501 -0.00000000000E+00  0.00000000000E+00  0.10407297330E+02  0.10407297655E+02  0.26000000000E-02 0. -1.
          2   -1    0    0  501    0  0.00000000000E+00 -0.00000000000E+00 -0.96088211683E+01  0.96088215201E+01  0.26000000000E-02 0.  1.
       1023    2    1    2    0    0  0.00000000000E+00  0.00000000000E+00  0.79847616213E+00  0.20016119175E+02  0.20000186566E+02 0.  0.
        -11    1    3    3    0    0  0.97813759045E+01 -0.20800346308E+01  0.40183880706E+00  0.10008163335E+02  0.51100000000E-03 0. -1.
         11    1    3    3    0    0 -0.97813759045E+01  0.20800346308E+01  0.39663735507E+00  0.10007955840E+02  0.51100000000E-03 0.  1.
<mgrwt>
<rscale>  0 0.20000187E+02</rscale>
<asrwt>0</asrwt>
<pdfrwt beam="2">  1        2 0.14782802E-02 0.20000187E+02</pdfrwt>
<pdfrwt beam="1">  1       -2 0.16011227E-02 0.20000187E+02</pdfrwt>
<totfact> 0.39347203E+06</totfact>
</mgrwt>
</event>
<event>
 5    1  0.4046313E-006  0.2000022E+02  0.7818608E-02  0.1745324E+00
         -2   -1    0    0    0  501 -0.00000000000E+00  0.00000000000E+00  0.21945639274E+02  0.21945639428E+02  0.26000000000E-02 0.  1.
          2   -1    0    0  501    0  0.00000000000E+00 -0.00000000000E+00 -0.45568117898E+01  0.45568125316E+01  0.26000000000E-02 0. -1.
       1023    2    1    2    0    0  0.00000000000E+00  0.00000000000E+00  0.17388827484E+02  0.26502451960E+02  0.20000215964E+02 0.  0.
        -11    1    3    3    0    0 -0.44594346715E+01  0.89506263464E+01  0.87520187269E+01  0.13289021847E+02  0.51100000000E-03 0. -1.
         11    1    3    3    0    0  0.44594346715E+01 -0.89506263464E+01  0.86368087575E+01  0.13213430113E+02  0.51100000000E-03 0.  1.
<mgrwt>
<rscale>  0 0.20000216E+02</rscale>
<asrwt>0</asrwt>
<pdfrwt beam="2">  1        2 0.70104803E-03 0.20000216E+02</pdfrwt>
<pdfrwt beam="1">  1       -2 0.33762523E-02 0.20000216E+02</pdfrwt>
<totfact> 0.37138664E+06</totfact>
</mgrwt>
</event>
<event>
 4    1  0.4046313E-006  0.2007619E+02  0.7818608E-02  0.1743817E+00
          2   -1    0    0  501    0  0.00000000000E+00  0.00000000000E+00  0.16517376019E+02  0.16517376224E+02  0.26000000000E-02 0.  1.
         -2   -1    0    0    0  501 -0.00000000000E+00 -0.00000000000E+00 -0.61004444912E+01  0.61004450453E+01  0.26000000000E-02 0. -1.
        -11    1    1    2    0    0 -0.14987290649E+00 -0.10035418628E+02  0.54076380200E+01  0.11400642005E+02  0.51100000000E-03 0. -1.
         11    1    1    2    0    0  0.14987290649E+00  0.10035418628E+02  0.50092935077E+01  0.11217179263E+02  0.51100000000E-03 0.  1.
<mgrwt>
<rscale>  0 0.20076189E+02</rscale>
<asrwt>0</asrwt>
<pdfrwt beam="1">  1        2 0.25411348E-02 0.20076189E+02</pdfrwt>
<pdfrwt beam="2">  1       -2 0.93852998E-03 0.20076189E+02</pdfrwt>
<totfact> 0.40654896E+06</totfact>
</mgrwt>
</event>
<event>
 4    1  0.4046313E-006  0.2001593E+02  0.7818608E-02  0.1745011E+00
          2   -1    0    0  501    0  0.00000000000E+00  0.00000000000E+00  0.23915511787E+02  0.23915511928E+02  0.26000000000E-02 0.  1.
         -2   -1    0    0    0  501 -0.00000000000E+00 -0.00000000000E+00 -0.41880497725E+01  0.41880505795E+01  0.26000000000E-02 0. -1.
        -11    1    1    2    0    0  0.49007690400E+01  0.87259120077E+01  0.98398532292E+01  0.14035020106E+02  0.51100000000E-03 0. -1.
         11    1    1    2    0    0 -0.49007690400E+01 -0.87259120077E+01  0.98876087851E+01  0.14068542401E+02  0.51100000000E-03 0.  1.
<mgrwt>
<rscale>  0 0.20015930E+02</rscale>
<asrwt>0</asrwt>
<pdfrwt beam="1">  1        2 0.36793096E-02 0.20015930E+02</pdfrwt>
<pdfrwt beam="2">  1       -2 0.64431541E-03 0.20015930E+02</pdfrwt>
<totfact> 0.42296541E+06</totfact>
</mgrwt>
</event>
<event>
 4    1  0.4046313E-006  0.2006284E+02  0.7818608E-02  0.1744081E+00
         -2   -1    0    0    0  501 -0.00000000000E+00  0.00000000000E+00  0.36887915536E+02  0.36887915628E+02  0.26000000000E-02 0. -1.
          2   -1    0    0  501    0  0.00000000000E+00 -0.00000000000E+00 -0.27279758031E+01  0.27279770421E+01  0.26000000000E-02 0.  1.
        -11    1    1    2    0    0  0.58695178046E+01 -0.81323734291E+01  0.17487665498E+02  0.20159493587E+02  0.51100000000E-03 0. -1.
         11    1    1    2    0    0 -0.58695178046E+01  0.81323734291E+01  0.16672274235E+02  0.19456399083E+02  0.51100000000E-03 0.  1.
<mgrwt>
<rscale>  0 0.20062838E+02</rscale>
<asrwt>0</asrwt>
<pdfrwt beam="2">  1        2 0.41968869E-03 0.20062838E+02</pdfrwt>
<pdfrwt beam="1">  1       -2 0.56750640E-02 0.20062838E+02</pdfrwt>
<totfact> 0.35019684E+06</totfact>
</mgrwt>
</event>
<event>
 5    1  0.4046313E-006  0.2000333E+02  0.7818608E-02  0.1745262E+00
         -2   -1    0    0    0  501 -0.00000000000E+00  0.00000000000E+00  0.95004551442E+02  0.95004551478E+02  0.26000000000E-02 0.  1.
          2   -1    0    0  501    0  0.00000000000E+00 -0.00000000000E+00 -0.10529299574E+01  0.10529331675E+01  0.26000000000E-02 0. -1.
       1023    2    1    2    0    0  0.00000000000E+00  0.00000000000E+00  0.93951621485E+02  0.96057484646E+02  0.20003329142E+02 0.  0.
        -11    1    3    3    0    0  0.75316017648E+01  0.65807351690E+01  0.47200710821E+02  0.48248711928E+02  0.51100000000E-03 0. -1.
         11    1    3    3    0    0 -0.75316017648E+01 -0.65807351690E+01  0.46750910665E+02  0.47808772717E+02  0.51100000000E-03 0.  1.
<mgrwt>
<rscale>  0 0.20003329E+02</rscale>
<asrwt>0</asrwt>
<pdfrwt beam="2">  1        2 0.16198955E-03 0.20003329E+02</pdfrwt>
<pdfrwt beam="1">  1       -2 0.14616079E-01 0.20003329E+02</pdfrwt>
<totfact> 0.30087187E+06</totfact>
</mgrwt>
</event>
<event>
 5    1  0.4046313E-006  0.2000121E+02  0.7818608E-02  0.1745304E+00
         -2   -1    0    0    0  501 -0.00000000000E+00  0.00000000000E+00  0.11637542381E+02  0.11637542671E+02  0.26000000000E-02 0. -1.
          2   -1    0    0  501    0  0.00000000000E+00 -0.00000000000E+00 -0.85939218118E+01  0.85939222051E+01  0.26000000000E-02 0.  1.
       1023    2    1    2    0    0  0.00000000000E+00  0.00000000000E+00  0.30436205688E+01  0.20231464876E+02  0.20001213585E+02 0.  0.
        -11    1    3    3    0    0 -0.94147021909E+01 -0.33710044144E+01  0.14117094083E+01  0.10099168868E+02  0.51100000000E-03 0. -1.
         11    1    3    3    0    0  0.94147021909E+01  0.33710044144E+01  0.16319111605E+01  0.10132296008E+02  0.51100000000E-03 0.  1.
<mgrwt>
<rscale>  0 0.20001214E+02</rscale>
<asrwt>0</asrwt>
<pdfrwt beam="2">  1        2 0.13221419E-02 0.20001214E+02</pdfrwt>
<pdfrwt beam="1">  1       -2 0.17903912E-02 0.20001214E+02</pdfrwt>
<totfact> 0.39022504E+06</totfact>
</mgrwt>
</event>
<event>
 5    1  0.4046313E-006  0.2000024E+02  0.7818608E-02  0.1745323E+00
         -2   -1    0    0    0  501 -0.00000000000E+00  0.00000000000E+00  0.12911016375E+02  0.12911016636E+02  0.26000000000E-02 0. -1.
          2   -1    0    0  501    0  0.00000000000E+00 -0.00000000000E+00 -0.77455061131E+01  0.77455065495E+01  0.26000000000E-02 0.  1.
       1023    2    1    2    0    0  0.00000000000E+00  0.00000000000E+00  0.51655102614E+01  0.20656523186E+02  0.20000236345E+02 0.  0.
        -11    1    3    3    0    0  0.96656816743E+01 -0.25644387469E+01  0.25571444800E+01  0.10321857220E+02  0.51100000000E-03 0. -1.
         11    1    3    3    0    0 -0.96656816743E+01  0.25644387469E+01  0.26083657814E+01  0.10334665966E+02  0.51100000000E-03 0.  1.
<mgrwt>
<rscale>  0 0.20000236E+02</rscale>
<asrwt>0</asrwt>
<pdfrwt beam="2">  1        2 0.11916164E-02 0.20000236E+02</pdfrwt>
<pdfrwt beam="1">  1       -2 0.19863103E-02 0.20000236E+02</pdfrwt>
<totfact> 0.38729440E+06</totfact>
</mgrwt>
</event>
<event>
 5    1  0.4046313E-006  0.2000022E+02  0.7818608E-02  0.1745324E+00
          2   -1    0    0  501    0  0.00000000000E+00  0.00000000000E+00  0.22786624885E+01  0.22786639719E+01  0.26000000000E-02 0. -1.
         -2   -1    0    0    0  501 -0.00000000000E+00 -0.00000000000E+00 -0.43886362707E+02  0.43886362784E+02  0.26000000000E-02 0.  1.
       1023    2    1    2    0    0  0.00000000000E+00  0.00000000000E+00 -0.41607700219E+02  0.46165026756E+02  0.20000224446E+02 0.  0.
        -11    1    3    3    0    0  0.47909426451E+01 -0.87777623150E+01 -0.20806702571E+02  0.23085084249E+02  0.51100000000E-03 0. -1.
         11    1    3    3    0    0 -0.47909426451E+01  0.87777623150E+01 -0.20800997648E+02  0.23079942506E+02  0.51100000000E-03 0.  1.
<mgrwt>
<rscale>  0 0.20000224E+02</rscale>
<asrwt>0</asrwt>
<pdfrwt beam="1">  1        2 0.35056361E-03 0.20000224E+02</pdfrwt>
<pdfrwt beam="2">  1       -2 0.67517476E-02 0.20000224E+02</pdfrwt>
<totfact> 0.34510734E+06</totfact>
</mgrwt>
</event>
<event>
 5    1  0.4046313E-006  0.2000059E+02  0.7818608E-02  0.1745316E+00
          2   -1    0    0  501    0  0.00000000000E+00  0.00000000000E+00  0.69461218769E+01  0.69461223635E+01  0.26000000000E-02 0. -1.
         -2   -1    0    0    0  501 -0.00000000000E+00 -0.00000000000E+00 -0.14397364156E+02  0.14397364391E+02  0.26000000000E-02 0.  1.
       1023    2    1    2    0    0  0.00000000000E+00  0.00000000000E+00 -0.74512422796E+01  0.21343486755E+02  0.20000585375E+02 0.  0.
        -11    1    3    3    0    0 -0.12319584580E+01 -0.99239256138E+01 -0.37916836130E+01  0.10694806502E+02  0.51100000000E-03 0.  1.
         11    1    3    3    0    0  0.12319584580E+01  0.99239256138E+01 -0.36595586666E+01  0.10648680253E+02  0.51100000000E-03 0. -1.
<mgrwt>
<rscale>  0 0.20000585E+02</rscale>
<asrwt>0</asrwt>
<pdfrwt beam="1">  1        2 0.10686342E-02 0.20000585E+02</pdfrwt>
<pdfrwt beam="2">  1       -2 0.22149791E-02 0.20000585E+02</pdfrwt>
<totfact> 0.38414246E+06</totfact>
</mgrwt>
</event>
<event>
 5    1  0.4046313E-006  0.2000540E+02  0.7818608E-02  0.1745221E+00
         -2   -1    0    0    0  501 -0.00000000000E+00  0.00000000000E+00  0.17395909250E+01  0.17395928680E+01  0.26000000000E-02 0.  1.
          2   -1    0    0  501    0  0.00000000000E+00 -0.00000000000E+00 -0.57515807852E+02  0.57515807911E+02  0.26000000000E-02 0. -1.
       1023    2    1    2    0    0  0.00000000000E+00  0.00000000000E+00 -0.55776216927E+02  0.59255400779E+02  0.20005402939E+02 0.  0.
        -11    1    3    3    0    0  0.96735154023E+01  0.25419278725E+01 -0.27516515444E+02  0.29277925473E+02  0.51100000000E-03 0. -1.
         11    1    3    3    0    0 -0.96735154023E+01 -0.25419278725E+01 -0.28259701483E+02  0.29977475306E+02  0.51100000000E-03 0.  1.
<mgrwt>
<rscale>  0 0.20005403E+02</rscale>
<asrwt>0</asrwt>
<pdfrwt beam="2">  1        2 0.88485845E-02 0.20005403E+02</pdfrwt>
<pdfrwt beam="1">  1       -2 0.26762957E-03 0.20005403E+02</pdfrwt>
<totfact> 0.47333716E+06</totfact>
</mgrwt>
</event>
<event>
 5    1  0.4046313E-006  0.2000008E+02  0.7818608E-02  0.1745326E+00
         -2   -1    0    0    0  501 -0.00000000000E+00  0.00000000000E+00  0.25609006652E+02  0.25609006784E+02  0.26000000000E-02 0. -1.
          2   -1    0    0  501    0  0.00000000000E+00 -0.00000000000E+00 -0.39049081597E+01  0.39049090253E+01  0.26000000000E-02 0.  1.
       1023    2    1    2    0    0  0.00000000000E+00  0.00000000000E+00  0.21704098492E+02  0.29513915809E+02  0.20000083376E+02 0.  0.
        -11    1    3    3    0    0  0.95625209284E+01 -0.29254403637E+01  0.10894452402E+02  0.14788140560E+02  0.51100000000E-03 0.  1.
         11    1    3    3    0    0 -0.95625209284E+01  0.29254403637E+01  0.10809646090E+02  0.14725775249E+02  0.51100000000E-03 0. -1.
<mgrwt>
<rscale>  0 0.20000083E+02</rscale>
<asrwt>0</asrwt>
<pdfrwt beam="2">  1        2 0.60075519E-03 0.20000083E+02</pdfrwt>
<pdfrwt beam="1">  1       -2 0.39398471E-02 0.20000083E+02</pdfrwt>
<totfact> 0.36626565E+06</totfact>
</mgrwt>
</event>
<event>
 5    1  0.4108663E-006  0.2000060E+02  0.7818608E-02  0.1745316E+00
          2   -1    0    0  501    0  0.00000000000E+00  0.00000000000E+00  0.64455757081E+02  0.64455757134E+02  0.26000000000E-02 0. -1.
         -2   -1    0    0    0  501 -0.00000000000E+00 -0.00000000000E+00 -0.15515444247E+01  0.15515466031E+01  0.26000000000E-02 0.  1.
       1023    2    1    2    0    0  0.00000000000E+00  0.00000000000E+00  0.62904212657E+02  0.66007303737E+02  0.20000604407E+02 0.  0.
        -11    1    3    3    0    0  0.99982671907E+01 -0.20129236723E+00  0.31496195374E+02  0.33045668229E+02  0.51100000000E-03 0.  1.
         11    1    3    3    0    0 -0.99982671907E+01  0.20129236723E+00  0.31408017283E+02  0.32961635507E+02  0.51100000000E-03 0. -1.
<mgrwt>
<rscale>  0 0.20000604E+02</rscale>
<asrwt>0</asrwt>
<pdfrwt beam="1">  1        2 0.99162713E-02 0.20000604E+02</pdfrwt>
<pdfrwt beam="2">  1       -2 0.23869930E-03 0.20000604E+02</pdfrwt>
<totfact> 0.48289110E+06</totfact>
</mgrwt>
</event>
<event>
 5    1  0.4046313E-006  0.2000440E+02  0.7818608E-02  0.1745241E+00
          2   -1    0    0  501    0  0.00000000000E+00  0.00000000000E+00  0.45593600960E+02  0.45593601034E+02  0.26000000000E-02 0. -1.
         -2   -1    0    0    0  501 -0.00000000000E+00 -0.00000000000E+00 -0.21942545211E+01  0.21942560614E+01  0.26000000000E-02 0.  1.
       1023    2    1    2    0    0  0.00000000000E+00  0.00000000000E+00  0.43399346438E+02  0.47787857095E+02  0.20004399877E+02 0.  0.
        -11    1    3    3    0    0 -0.90851734647E+01  0.41833264943E+01  0.21560258475E+02  0.23767316702E+02  0.51100000000E-03 0. -1.
         11    1    3    3    0    0  0.90851734647E+01 -0.41833264943E+01  0.21839087963E+02  0.24020540393E+02  0.51100000000E-03 0.  1.
<mgrwt>
<rscale>  0 0.20004400E+02</rscale>
<asrwt>0</asrwt>
<pdfrwt beam="1">  1        2 0.70144004E-02 0.20004400E+02</pdfrwt>
<pdfrwt beam="2">  1       -2 0.33757774E-03 0.20004400E+02</pdfrwt>
<totfact> 0.45683702E+06</totfact>
</mgrwt>
</event>
<event>
 5    1  0.4046313E-006  0.2000017E+02  0.7818608E-02  0.1745325E+00
          2   -1    0    0  501    0  0.00000000000E+00  0.00000000000E+00  0.22924486702E+01  0.22924501446E+01  0.26000000000E-02 0.  1.
         -2   -1    0    0    0  501 -0.00000000000E+00 -0.00000000000E+00 -0.43622224104E+02  0.43622224181E+02  0.26000000000E-02 0. -1.
       1023    2    1    2    0    0  0.00000000000E+00  0.00000000000E+00 -0.41329775433E+02  0.45914674326E+02  0.20000174526E+02 0.  0.
        -11    1    3    3    0    0  0.82437700201E+01 -0.56604646568E+01 -0.20742424733E+02  0.23027131570E+02  0.51100000000E-03 0. -1.
         11    1    3    3    0    0 -0.82437700201E+01  0.56604646568E+01 -0.20587350700E+02  0.22887542755E+02  0.51100000000E-03 0.  1.
<mgrwt>
<rscale>  0 0.20000175E+02</rscale>
<asrwt>0</asrwt>
<pdfrwt beam="1">  1        2 0.35268456E-03 0.20000175E+02</pdfrwt>
<pdfrwt beam="2">  1       -2 0.67111109E-02 0.20000175E+02</pdfrwt>
<totfact> 0.34538201E+06</totfact>
</mgrwt>
</event>
<event>
 4    1  0.4046313E-006  0.2002018E+02  0.7818608E-02  0.1744927E+00
         -2   -1    0    0    0  501 -0.00000000000E+00  0.00000000000E+00  0.12210302741E+01  0.12210330423E+01  0.26000000000E-02 0. -1.
          2   -1    0    0  501    0  0.00000000000E+00 -0.00000000000E+00 -0.82063297102E+02  0.82063297143E+02  0.26000000000E-02 0.  1.
        -11    1    1    2    0    0 -0.98293004737E+01 -0.18675311845E+01 -0.39111775313E+02  0.40371199994E+02  0.51100000000E-03 0.  1.
         11    1    1    2    0    0  0.98293004737E+01  0.18675311845E+01 -0.41730491514E+02  0.42913130191E+02  0.51100000000E-03 0. -1.
<mgrwt>
<rscale>  0 0.20020179E+02</rscale>
<asrwt>0</asrwt>
<pdfrwt beam="2">  1        2 0.12625119E-01 0.20020179E+02</pdfrwt>
<pdfrwt beam="1">  1       -2 0.18785109E-03 0.20020179E+02</pdfrwt>
<totfact> 0.50446297E+06</totfact>
</mgrwt>
</event>
<event>
 5    1  0.4046313E-006  0.2000057E+02  0.7818608E-02  0.1745317E+00
         -2   -1    0    0    0  501 -0.00000000000E+00  0.00000000000E+00  0.12357435158E+01  0.12357462510E+01  0.26000000000E-02 0.  1.
          2   -1    0    0  501    0  0.00000000000E+00 -0.00000000000E+00 -0.80927454368E+02  0.80927454410E+02  0.26000000000E-02 0. -1.
       1023    2    1    2    0    0  0.00000000000E+00  0.00000000000E+00 -0.79691710853E+02  0.82163200661E+02  0.20000569099E+02 0.  0.
        -11    1    3    3    0    0  0.82464992587E+01 -0.56567558218E+01 -0.39659658405E+02  0.40901004163E+02  0.51100000000E-03 0. -1.
         11    1    3    3    0    0 -0.82464992587E+01  0.56567558218E+01 -0.40032052448E+02  0.41262196498E+02  0.51100000000E-03 0.  1.
<mgrwt>
<rscale>  0 0.20000569E+02</rscale>
<asrwt>0</asrwt>
<pdfrwt beam="2">  1        2 0.12450374E-01 0.20000569E+02</pdfrwt>
<pdfrwt beam="1">  1       -2 0.19011466E-03 0.20000569E+02</pdfrwt>
<totfact> 0.50413198E+06</totfact>
</mgrwt>
</event>
<event>
 5    1  0.4046313E-006  0.2000050E+02  0.7818608E-02  0.1745318E+00
          2   -1    0    0  501    0  0.00000000000E+00  0.00000000000E+00  0.11221263695E+01  0.11221293817E+01  0.26000000000E-02 0.  1.
         -2   -1    0    0    0  501 -0.00000000000E+00 -0.00000000000E+00 -0.89120894653E+02  0.89120894691E+02  0.26000000000E-02 0. -1.
       1023    2    1    2    0    0  0.00000000000E+00  0.00000000000E+00 -0.87998768283E+02  0.90243024072E+02  0.20000504353E+02 0.  0.
        -11    1    3    3    0    0 -0.96253765904E+01 -0.27123795882E+01 -0.43941286972E+02  0.45064859686E+02  0.51100000000E-03 0. -1.
         11    1    3    3    0    0  0.96253765904E+01  0.27123795882E+01 -0.44057481312E+02  0.45178164386E+02  0.51100000000E-03 0.  1.
<mgrwt>
<rscale>  0 0.20000504E+02</rscale>
<asrwt>0</asrwt>
<pdfrwt beam="1">  1        2 0.17263513E-03 0.20000504E+02</pdfrwt>
<pdfrwt beam="2">  1       -2 0.13710901E-01 0.20000504E+02</pdfrwt>
<totfact> 0.30540865E+06</totfact>
</mgrwt>
</event>
<event>
 5    1  0.4046313E-006  0.2000086E+02  0.7818608E-02  0.1745311E+00
          2   -1    0    0  501    0  0.00000000000E+00  0.00000000000E+00  0.45774395474E+01  0.45774402858E+01  0.26000000000E-02 0. -1.
         -2   -1    0    0    0  501 -0.00000000000E+00 -0.00000000000E+00 -0.21848156967E+02  0.21848157122E+02  0.26000000000E-02 0.  1.
       1023    2    1    2    0    0  0.00000000000E+00  0.00000000000E+00 -0.17270717420E+02  0.26425597408E+02  0.20000862935E+02 0.  0.
        -11    1    3    3    0    0 -0.22562323944E+01  0.97421838356E+01 -0.87527824590E+01  0.13289542187E+02  0.51100000000E-03 0. -1.
         11    1    3    3    0    0  0.22562323944E+01 -0.97421838356E+01 -0.85179349609E+01  0.13136055221E+02  0.51100000000E-03 0.  1.
<mgrwt>
<rscale>  0 0.20000863E+02</rscale>
<asrwt>0</asrwt>
<pdfrwt beam="1">  1        2 0.70422155E-03 0.20000863E+02</pdfrwt>
<pdfrwt beam="2">  1       -2 0.33612549E-02 0.20000863E+02</pdfrwt>
<totfact> 0.37150387E+06</totfact>
</mgrwt>
</event>
<event>
 5    1  0.4046313E-006  0.2000024E+02  0.7818608E-02  0.1745323E+00
          2   -1    0    0  501    0  0.00000000000E+00  0.00000000000E+00  0.87832667017E+02  0.87832667056E+02  0.26000000000E-02 0. -1.
         -2   -1    0    0    0  501 -0.00000000000E+00 -0.00000000000E+00 -0.11385543658E+01  0.11385573345E+01  0.26000000000E-02 0.  1.
       1023    2    1    2    0    0  0.00000000000E+00  0.00000000000E+00  0.86694112651E+02  0.88971224390E+02  0.20000240025E+02 0.  0.
        -11    1    3    3    0    0 -0.50756139207E+01  0.86162088895E+01  0.43175473705E+02  0.44318421026E+02  0.51100000000E-03 0. -1.
         11    1    3    3    0    0  0.50756139207E+01 -0.86162088895E+01  0.43518638946E+02  0.44652803364E+02  0.51100000000E-03 0.  1.
<mgrwt>
<rscale>  0 0.20000240E+02</rscale>
<asrwt>0</asrwt>
<pdfrwt beam="1">  1        2 0.13512718E-01 0.20000240E+02</pdfrwt>
<pdfrwt beam="2">  1       -2 0.17516245E-03 0.20000240E+02</pdfrwt>
<totfact> 0.51276148E+06</totfact>
</mgrwt>
</event>
<event>
 5    1  0.4046313E-006  0.2000351E+02  0.7818608E-02  0.1745258E+00
         -2   -1    0    0    0  501 -0.00000000000E+00  0.00000000000E+00  0.49111142282E+01  0.49111149165E+01  0.26000000000E-02 0.  1.
          2   -1    0    0  501    0  0.00000000000E+00 -0.00000000000E+00 -0.20369121597E+02  0.20369121763E+02  0.26000000000E-02 0. -1.
       1023    2    1    2    0    0  0.00000000000E+00  0.00000000000E+00 -0.15458007369E+02  0.25280236680E+02  0.20003509061E+02 0.  0.
        -11    1    3    3    0    0 -0.65769023769E+01  0.75349312720E+01 -0.78114826131E+01  0.12690551407E+02  0.51100000000E-03 0. -1.
         11    1    3    3    0    0  0.65769023769E+01 -0.75349312720E+01 -0.76465247558E+01  0.12589685272E+02  0.51100000000E-03 0.  1.
<mgrwt>
<rscale>  0 0.20003509E+02</rscale>
<asrwt>0</asrwt>
<pdfrwt beam="2">  1        2 0.31337110E-02 0.20003509E+02</pdfrwt>
<pdfrwt beam="1">  1       -2 0.75555611E-03 0.20003509E+02</pdfrwt>
<totfact> 0.41729230E+06</totfact>
</mgrwt>
</event>
<event>
 5    1  0.4046313E-006  0.2000070E+02  0.7818608E-02  0.1745314E+00
         -2   -1    0    0    0  501 -0.00000000000E+00  0.00000000000E+00  0.28651085652E+02  0.28651085770E+02  0.26000000000E-02 0.  1.
          2   -1    0    0  501    0  0.00000000000E+00 -0.00000000000E+00 -0.34905145165E+01  0.34905154849E+01  0.26000000000E-02 0. -1.
       1023    2    1    2    0    0  0.00000000000E+00  0.00000000000E+00  0.25160571135E+02  0.32141601255E+02  0.20000704772E+02 0.  0.
        -11    1    3    3    0    0  0.76865702017E+01 -0.63966206886E+01  0.12714063679E+02  0.16175522656E+02  0.51100000000E-03 0. -1.
         11    1    3    3    0    0 -0.76865702017E+01  0.63966206886E+01  0.12446507456E+02  0.15966078599E+02  0.51100000000E-03 0.  1.
<mgrwt>
<rscale>  0 0.20000705E+02</rscale>
<asrwt>0</asrwt>
<pdfrwt beam="2">  1        2 0.53700231E-03 0.20000705E+02</pdfrwt>
<pdfrwt beam="1">  1       -2 0.44078595E-02 0.20000705E+02</pdfrwt>
<totfact> 0.36229483E+06</totfact>
</mgrwt>
</event>
<event>
 4    1  0.4046313E-006  0.2001711E+02  0.7818608E-02  0.1744988E+00
          2   -1    0    0  501    0  0.00000000000E+00  0.00000000000E+00  0.42686052847E+02  0.42686052927E+02  0.26000000000E-02 0. -1.
         -2   -1    0    0    0  501 -0.00000000000E+00 -0.00000000000E+00 -0.23466941153E+01  0.23466955557E+01  0.26000000000E-02 0.  1.
        -11    1    1    2    0    0 -0.28974936046E+01 -0.95742348938E+01  0.19424552145E+02  0.21848905448E+02  0.51100000000E-03 0.  1.
         11    1    1    2    0    0  0.28974936046E+01  0.95742348938E+01  0.20914806587E+02  0.23183843034E+02  0.51100000000E-03 0. -1.
<mgrwt>
<rscale>  0 0.20017107E+02</rscale>
<asrwt>0</asrwt>
<pdfrwt beam="1">  1        2 0.65670852E-02 0.20017107E+02</pdfrwt>
<pdfrwt beam="2">  1       -2 0.36102998E-03 0.20017107E+02</pdfrwt>
<totfact> 0.45201929E+06</totfact>
</mgrwt>
</event>
<event>
 4    1  0.4046313E-006  0.2007094E+02  0.7818608E-02  0.1743921E+00
         -2   -1    0    0    0  501 -0.00000000000E+00  0.00000000000E+00  0.21934425600E+02  0.21934425754E+02  0.26000000000E-02 0. -1.
          2   -1    0    0  501    0  0.00000000000E+00 -0.00000000000E+00 -0.45914437360E+01  0.45914444722E+01  0.26000000000E-02 0.  1.
        -11    1    1    2    0    0 -0.61680004840E+01 -0.78801900674E+01  0.76745174816E+01  0.12611100043E+02  0.51100000000E-03 0. -1.
         11    1    1    2    0    0  0.61680004840E+01  0.78801900674E+01  0.96684643825E+01  0.13914770183E+02  0.51100000000E-03 0.  1.
<mgrwt>
<rscale>  0 0.20070943E+02</rscale>
<asrwt>0</asrwt>
<pdfrwt beam="2">  1        2 0.70637604E-03 0.20070943E+02</pdfrwt>
<pdfrwt beam="1">  1       -2 0.33745270E-02 0.20070943E+02</pdfrwt>
<totfact> 0.36856495E+06</totfact>
</mgrwt>
</event>
<event>
 4    1  0.4911697E-006  0.2031234E+02  0.7818608E-02  0.1739187E+00
          2   -1    0    0  501    0  0.00000000000E+00  0.00000000000E+00  0.29935243497E+02  0.29935243610E+02  0.26000000000E-02 0. -1.
         -2   -1    0    0    0  501 -0.00000000000E+00 -0.00000000000E+00 -0.34456954669E+01  0.34456964478E+01  0.26000000000E-02 0.  1.
        -11    1    1    2    0    0  0.96126785208E+01  0.27650578330E+01  0.16137602469E+02  0.18986082978E+02  0.51100000000E-03 0. -1.
         11    1    1    2    0    0 -0.96126785208E+01 -0.27650578330E+01  0.10351945561E+02  0.14394857079E+02  0.51100000000E-03 0.  1.
<mgrwt>
<rscale>  0 0.20312336E+02</rscale>
<asrwt>0</asrwt>
<pdfrwt beam="1">  1        2 0.46054221E-02 0.20312336E+02</pdfrwt>
<pdfrwt beam="2">  1       -2 0.53010709E-03 0.20312336E+02</pdfrwt>
<totfact> 0.41880023E+06</totfact>
</mgrwt>
</event>
<event>
 5    1  0.4046313E-006  0.2000061E+02  0.7818608E-02  0.1745316E+00
          2   -1    0    0  501    0  0.00000000000E+00  0.00000000000E+00  0.26445741864E+02  0.26445741992E+02  0.26000000000E-02 0. -1.
         -2   -1    0    0    0  501 -0.00000000000E+00 -0.00000000000E+00 -0.37815586288E+01  0.37815595226E+01  0.26000000000E-02 0.  1.
       1023    2    1    2    0    0  0.00000000000E+00  0.00000000000E+00  0.22664183235E+02  0.30227301514E+02  0.20000613869E+02 0.  0.
        -11    1    3    3    0    0 -0.50048173730E+01  0.86577664267E+01  0.11380408549E+02  0.15149878396E+02  0.51100000000E-03 0. -1.
         11    1    3    3    0    0  0.50048173730E+01 -0.86577664267E+01  0.11283774687E+02  0.15077423118E+02  0.51100000000E-03 0.  1.
<mgrwt>
<rscale>  0 0.20000614E+02</rscale>
<asrwt>0</asrwt>
<pdfrwt beam="1">  1        2 0.40685757E-02 0.20000614E+02</pdfrwt>
<pdfrwt beam="2">  1       -2 0.58177834E-03 0.20000614E+02</pdfrwt>
<totfact> 0.42795087E+06</totfact>
</mgrwt>
</event>
<event>
 5    1  0.4046313E-006  0.2000109E+02  0.7818608E-02  0.1745306E+00
          2   -1    0    0  501    0  0.00000000000E+00  0.00000000000E+00  0.11647205120E+02  0.11647205410E+02  0.26000000000E-02 0.  1.
         -2   -1    0    0    0  501 -0.00000000000E+00 -0.00000000000E+00 -0.85866882768E+01  0.85866886704E+01  0.26000000000E-02 0. -1.
       1023    2    1    2    0    0  0.00000000000E+00  0.00000000000E+00  0.30605168430E+01  0.20233894080E+02  0.20001092628E+02 0.  0.
        -11    1    3    3    0    0  0.97416516419E+01  0.22606947271E+01  0.15098004090E+01  0.10113852624E+02  0.51100000000E-03 0.  1.
         11    1    3    3    0    0 -0.97416516419E+01 -0.22606947271E+01  0.15507164340E+01  0.10120041457E+02  0.51100000000E-03 0. -1.
<mgrwt>
<rscale>  0 0.20001093E+02</rscale>
<asrwt>0</asrwt>
<pdfrwt beam="1">  1        2 0.17918778E-02 0.20001093E+02</pdfrwt>
<pdfrwt beam="2">  1       -2 0.13210290E-02 0.20001093E+02</pdfrwt>
<totfact> 0.39904742E+06</totfact>
</mgrwt>
</event>
<event>
 5    1  0.4046313E-006  0.2000013E+02  0.7818608E-02  0.1745325E+00
         -2   -1    0    0    0  501 -0.00000000000E+00  0.00000000000E+00  0.10303173530E+01  0.10303206335E+01  0.26000000000E-02 0.  1.
          2   -1    0    0  501    0  0.00000000000E+00 -0.00000000000E+00 -0.97058603232E+02  0.97058603266E+02  0.26000000000E-02 0. -1.
       1023    2    1    2    0    0  0.00000000000E+00  0.00000000000E+00 -0.96028285879E+02  0.98088923900E+02  0.20000132576E+02 0.  0.
        -11    1    3    3    0    0 -0.98077823004E+01  0.19514875068E+01 -0.47912636595E+02  0.48945088037E+02  0.51100000000E-03 0. -1.
         11    1    3    3    0    0  0.98077823004E+01 -0.19514875068E+01 -0.48115649283E+02  0.49143835863E+02  0.51100000000E-03 0.  1.
<mgrwt>
<rscale>  0 0.20000133E+02</rscale>
<asrwt>0</asrwt>
<pdfrwt beam="2">  1        2 0.14932086E-01 0.20000133E+02</pdfrwt>
<pdfrwt beam="1">  1       -2 0.15851069E-03 0.20000133E+02</pdfrwt>
<totfact> 0.52403612E+06</totfact>
</mgrwt>
</event>
<event>
 5    1  0.4046313E-006  0.2000293E+02  0.7818608E-02  0.1745270E+00
         -2   -1    0    0    0  501 -0.00000000000E+00  0.00000000000E+00  0.32270245327E+01  0.32270255801E+01  0.26000000000E-02 0.  1.
          2   -1    0    0  501    0  0.00000000000E+00 -0.00000000000E+00 -0.30997377856E+02  0.30997377966E+02  0.26000000000E-02 0. -1.
       1023    2    1    2    0    0  0.00000000000E+00  0.00000000000E+00 -0.27770353324E+02  0.34224403546E+02  0.20002931643E+02 0.  0.
        -11    1    3    3    0    0  0.23939013198E+01 -0.97093569477E+01 -0.14166017846E+02  0.17340081826E+02  0.51100000000E-03 0.  1.
         11    1    3    3    0    0 -0.23939013198E+01  0.97093569477E+01 -0.13604335478E+02  0.16884321719E+02  0.51100000000E-03 0. -1.
<mgrwt>
<rscale>  0 0.20002932E+02</rscale>
<asrwt>0</asrwt>
<pdfrwt beam="2">  1        2 0.47688272E-02 0.20002932E+02</pdfrwt>
<pdfrwt beam="1">  1       -2 0.49646542E-03 0.20002932E+02</pdfrwt>
<totfact> 0.43516439E+06</totfact>
</mgrwt>
</event>
<event>
 5    1  0.4046313E-006  0.2000047E+02  0.7818608E-02  0.1745319E+00
          2   -1    0    0  501    0  0.00000000000E+00  0.00000000000E+00  0.31638426437E+01  0.31638437121E+01  0.26000000000E-02 0.  1.
         -2   -1    0    0    0  501 -0.00000000000E+00 -0.00000000000E+00 -0.31608601344E+02  0.31608601451E+02  0.26000000000E-02 0. -1.
       1023    2    1    2    0    0  0.00000000000E+00  0.00000000000E+00 -0.28444758700E+02  0.34772445163E+02  0.20000466122E+02 0.  0.
        -11    1    3    3    0    0  0.52686122148E+01  0.84997562936E+01 -0.14182380940E+02  0.17353502848E+02  0.51100000000E-03 0. -1.
         11    1    3    3    0    0 -0.52686122148E+01 -0.84997562936E+01 -0.14262377760E+02  0.17418942315E+02  0.51100000000E-03 0.  1.
<mgrwt>
<rscale>  0 0.20000466E+02</rscale>
<asrwt>0</asrwt>
<pdfrwt beam="1">  1        2 0.48674513E-03 0.20000466E+02</pdfrwt>
<pdfrwt beam="2">  1       -2 0.48628616E-02 0.20000466E+02</pdfrwt>
<totfact> 0.35867253E+06</totfact>
</mgrwt>
</event>
<event>
 4    1  0.4046313E-006  0.2002974E+02  0.7818608E-02  0.1744737E+00
         -2   -1    0    0    0  501 -0.00000000000E+00  0.00000000000E+00  0.34998734338E+01  0.34998743996E+01  0.26000000000E-02 0. -1.
          2   -1    0    0  501    0  0.00000000000E+00 -0.00000000000E+00 -0.28657494333E+02  0.28657494451E+02  0.26000000000E-02 0.  1.
        -11    1    1    2    0    0  0.21085646900E+01 -0.97892689297E+01 -0.12341823662E+02  0.15893282946E+02  0.51100000000E-03 0. -1.
         11    1    1    2    0    0 -0.21085646900E+01  0.97892689297E+01 -0.12815797237E+02  0.16264085905E+02  0.51100000000E-03 0.  1.
<mgrwt>
<rscale>  0 0.20029740E+02</rscale>
<asrwt>0</asrwt>
<pdfrwt beam="2">  1        2 0.44088452E-02 0.20029740E+02</pdfrwt>
<pdfrwt beam="1">  1       -2 0.53844217E-03 0.20029740E+02</pdfrwt>
<totfact> 0.43015113E+06</totfact>
</mgrwt>
</event>
<event>
 5    1  0.4046313E-006  0.2000421E+02  0.7818608E-02  0.1745244E+00
          2   -1    0    0  501    0  0.00000000000E+00  0.00000000000E+00  0.10209830360E+03  0.10209830363E+03  0.26000000000E-02 0. -1.
         -2   -1    0    0    0  501 -0.00000000000E+00 -0.00000000000E+00 -0.97985921020E+00  0.97986265966E+00  0.26000000000E-02 0.  1.
       1023    2    1    2    0    0  0.00000000000E+00  0.00000000000E+00  0.10111844439E+03  0.10307816629E+03  0.20004213818E+02 0.  0.
        -11    1    3    3    0    0  0.99004459391E+01  0.14138523776E+01  0.49755414643E+02  0.50750557582E+02  0.51100000000E-03 0. -1.
         11    1    3    3    0    0 -0.99004459391E+01 -0.14138523776E+01  0.51363029745E+02  0.52327608709E+02  0.51100000000E-03 0.  1.
<mgrwt>
<rscale>  0 0.20004214E+02</rscale>
<asrwt>0</asrwt>
<pdfrwt beam="1">  1        2 0.15707435E-01 0.20004214E+02</pdfrwt>
<pdfrwt beam="2">  1       -2 0.15074781E-03 0.20004214E+02</pdfrwt>
<totfact> 0.52983926E+06</totfact>
</mgrwt>
</event>
<event>
 5    1  0.4046313E-006  0.2000044E+02  0.7818608E-02  0.1745319E+00
          2   -1    0    0  501    0  0.00000000000E+00  0.00000000000E+00  0.15336596697E+02  0.15336596917E+02  0.26000000000E-02 0. -1.
         -2   -1    0    0    0  501 -0.00000000000E+00 -0.00000000000E+00 -0.65206395176E+01  0.65206400359E+01  0.26000000000E-02 0.  1.
       1023    2    1    2    0    0  0.00000000000E+00  0.00000000000E+00  0.88159571791E+01  0.21857236953E+02  0.20000442651E+02 0.  0.
        -11    1    3    3    0    0 -0.83429993551E+01 -0.55134846734E+01  0.43898620261E+01  0.10921311293E+02  0.51100000000E-03 0. -1.
         11    1    3    3    0    0  0.83429993551E+01  0.55134846734E+01  0.44260951530E+01  0.10935925660E+02  0.51100000000E-03 0.  1.
<mgrwt>
<rscale>  0 0.20000443E+02</rscale>
<asrwt>0</asrwt>
<pdfrwt beam="1">  1        2 0.23594764E-02 0.20000443E+02</pdfrwt>
<pdfrwt beam="2">  1       -2 0.10031754E-02 0.20000443E+02</pdfrwt>
<totfact> 0.40759268E+06</totfact>
</mgrwt>
</event>
<event>
 4    1  0.5699763E-006  0.2041820E+02  0.7818608E-02  0.1737137E+00
          2   -1    0    0  501    0  0.00000000000E+00  0.00000000000E+00  0.94645199923E+02  0.94645199958E+02  0.26000000000E-02 0. -1.
         -2   -1    0    0    0  501 -0.00000000000E+00 -0.00000000000E+00 -0.11012235699E+01  0.11012266392E+01  0.26000000000E-02 0.  1.
        -11    1    1    2    0    0 -0.49999073758E+01 -0.87731086172E+01  0.39723772681E+02  0.40987127551E+02  0.51100000000E-03 0. -1.
         11    1    1    2    0    0  0.49999073758E+01  0.87731086172E+01  0.53820203672E+02  0.54759299047E+02  0.51100000000E-03 0.  1.
<mgrwt>
<rscale>  0 0.20418195E+02</rscale>
<asrwt>0</asrwt>
<pdfrwt beam="1">  1        2 0.14560807E-01 0.20418195E+02</pdfrwt>
<pdfrwt beam="2">  1       -2 0.16941917E-03 0.20418195E+02</pdfrwt>
<totfact> 0.49780162E+06</totfact>
</mgrwt>
</event>
<event>
 5    1  0.4155284E-006  0.2000089E+02  0.7818608E-02  0.1745310E+00
          2   -1    0    0  501    0  0.00000000000E+00  0.00000000000E+00  0.82243418372E+02  0.82243418413E+02  0.26000000000E-02 0. -1.
         -2   -1    0    0    0  501 -0.00000000000E+00 -0.00000000000E+00 -0.12160101530E+01  0.12160129326E+01  0.26000000000E-02 0.  1.
       1023    2    1    2    0    0  0.00000000000E+00  0.00000000000E+00  0.81027408219E+02  0.83459431345E+02  0.20000894926E+02 0.  0.
        -11    1    3    3    0    0  0.61959532432E+01 -0.78496219660E+01  0.40724320364E+02  0.41934194531E+02  0.51100000000E-03 0. -1.
         11    1    3    3    0    0 -0.61959532432E+01  0.78496219660E+01  0.40303087855E+02  0.41525236815E+02  0.51100000000E-03 0.  1.
<mgrwt>
<rscale>  0 0.20000895E+02</rscale>
<asrwt>0</asrwt>
<pdfrwt beam="1">  1        2 0.12652835E-01 0.20000895E+02</pdfrwt>
<pdfrwt beam="2">  1       -2 0.18707869E-03 0.20000895E+02</pdfrwt>
<totfact> 0.50576551E+06</totfact>
</mgrwt>
</event>
<event>
 5    1  0.4046313E-006  0.2000022E+02  0.7818608E-02  0.1745324E+00
          2   -1    0    0  501    0  0.00000000000E+00  0.00000000000E+00  0.15797811317E+02  0.15797811531E+02  0.26000000000E-02 0.  1.
         -2   -1    0    0    0  501 -0.00000000000E+00 -0.00000000000E+00 -0.63301319683E+01  0.63301325022E+01  0.26000000000E-02 0. -1.
       1023    2    1    2    0    0  0.00000000000E+00  0.00000000000E+00  0.94676793490E+01  0.22127944033E+02  0.20000223871E+02 0.  0.
        -11    1    3    3    0    0  0.99241383181E+01  0.12299991280E+01  0.47655072417E+01  0.11077521327E+02  0.51100000000E-03 0. -1.
         11    1    3    3    0    0 -0.99241383181E+01 -0.12299991280E+01  0.47021721073E+01  0.11050422707E+02  0.51100000000E-03 0.  1.
<mgrwt>
<rscale>  0 0.20000224E+02</rscale>
<asrwt>0</asrwt>
<pdfrwt beam="1">  1        2 0.24304326E-02 0.20000224E+02</pdfrwt>
<pdfrwt beam="2">  1       -2 0.97386652E-03 0.20000224E+02</pdfrwt>
<totfact> 0.40857084E+06</totfact>
</mgrwt>
</event>
<event>
 5    1  0.4046313E-006  0.2000092E+02  0.7818608E-02  0.1745310E+00
          2   -1    0    0  501    0  0.00000000000E+00  0.00000000000E+00  0.10027647458E+02  0.10027647795E+02  0.26000000000E-02 0. -1.
         -2   -1    0    0    0  501 -0.00000000000E+00 -0.00000000000E+00 -0.99733463389E+01  0.99733466778E+01  0.26000000000E-02 0.  1.
       1023    2    1    2    0    0  0.00000000000E+00  0.00000000000E+00  0.54301119138E-01  0.20000994473E+02  0.20000920761E+02 0.  0.
        -11    1    3    3    0    0 -0.99315333752E+01  0.11718917558E+01  0.43011448943E-02  0.10000435202E+02  0.51100000000E-03 0. -1.
         11    1    3    3    0    0  0.99315333752E+01 -0.11718917558E+01  0.49999974244E-01  0.10000559271E+02  0.51100000000E-03 0.  1.
<mgrwt>
<rscale>  0 0.20000921E+02</rscale>
<asrwt>0</asrwt>
<pdfrwt beam="1">  1        2 0.15427150E-02 0.20000921E+02</pdfrwt>
<pdfrwt beam="2">  1       -2 0.15343610E-02 0.20000921E+02</pdfrwt>
<totfact> 0.39467000E+06</totfact>
</mgrwt>
</event>
<event>
 5    1  0.4046313E-006  0.2000023E+02  0.7818608E-02  0.1745323E+00
         -2   -1    0    0    0  501 -0.00000000000E+00  0.00000000000E+00  0.15263873588E+01  0.15263895732E+01  0.26000000000E-02 0. -1.
          2   -1    0    0  501    0  0.00000000000E+00 -0.00000000000E+00 -0.65515652715E+02  0.65515652767E+02  0.26000000000E-02 0.  1.
       1023    2    1    2    0    0  0.00000000000E+00  0.00000000000E+00 -0.63989265356E+02  0.67042042340E+02  0.20000234006E+02 0.  0.
        -11    1    3    3    0    0 -0.86183711444E+01 -0.50720781080E+01 -0.31972833357E+02  0.33500214487E+02  0.51100000000E-03 0.  1.
         11    1    3    3    0    0  0.86183711444E+01  0.50720781080E+01 -0.32016431999E+02  0.33541827853E+02  0.51100000000E-03 0. -1.
<mgrwt>
<rscale>  0 0.20000234E+02</rscale>
<asrwt>0</asrwt>
<pdfrwt beam="2">  1        2 0.10079329E-01 0.20000234E+02</pdfrwt>
<pdfrwt beam="1">  1       -2 0.23482905E-03 0.20000234E+02</pdfrwt>
<totfact> 0.48431194E+06</totfact>
</mgrwt>
</event>
<event>
 5    1  0.4046313E-006  0.2000371E+02  0.7818608E-02  0.1745254E+00
          2   -1    0    0  501    0  0.00000000000E+00  0.00000000000E+00  0.69135760575E+01  0.69135765464E+01  0.26000000000E-02 0.  1.
         -2   -1    0    0    0  501 -0.00000000000E+00 -0.00000000000E+00 -0.14469662359E+02  0.14469662592E+02  0.26000000000E-02 0. -1.
       1023    2    1    2    0    0  0.00000000000E+00  0.00000000000E+00 -0.75560863011E+01  0.21383239139E+02  0.20003711552E+02 0.  0.
        -11    1    3    3    0    0 -0.37713194485E+01  0.92619873262E+01 -0.39627577465E+01  0.10756891225E+02  0.51100000000E-03 0.  1.
         11    1    3    3    0    0  0.37713194485E+01 -0.92619873262E+01 -0.35933285546E+01  0.10626347913E+02  0.51100000000E-03 0. -1.
<mgrwt>
<rscale>  0 0.20003712E+02</rscale>
<asrwt>0</asrwt>
<pdfrwt beam="1">  1        2 0.10636271E-02 0.20003712E+02</pdfrwt>
<pdfrwt beam="2">  1       -2 0.22261020E-02 0.20003712E+02</pdfrwt>
<totfact> 0.38386794E+06</totfact>
</mgrwt>
</event>
<event>
 5    1  0.4046313E-006  0.2000773E+02  0.7818608E-02  0.1745174E+00
          2   -1    0    0  501    0  0.00000000000E+00  0.00000000000E+00  0.10889544905E+03  0.10889544908E+03  0.26000000000E-02 0. -1.
         -2   -1    0    0    0  501 -0.00000000000E+00 -0.00000000000E+00 -0.91901984745E+00  0.91902352528E+00  0.26000000000E-02 0.  1.
       1023    2    1    2    0    0  0.00000000000E+00  0.00000000000E+00  0.10797642920E+03  0.10981447260E+03  0.20007726769E+02 0.  0.
        -11    1    3    3    0    0  0.35992201498E+01  0.93317703403E+01  0.55099015973E+02  0.55999445397E+02  0.51100000000E-03 0. -1.
         11    1    3    3    0    0 -0.35992201498E+01 -0.93317703403E+01  0.52877413225E+02  0.53815027204E+02  0.51100000000E-03 0.  1.
<mgrwt>
<rscale>  0 0.20007727E+02</rscale>
<asrwt>0</asrwt>
<pdfrwt beam="1">  1        2 0.16753151E-01 0.20007727E+02</pdfrwt>
<pdfrwt beam="2">  1       -2 0.14138792E-03 0.20007727E+02</pdfrwt>
<totfact> 0.53764767E+06</totfact>
</mgrwt>
</event>
<event>
 5    1  0.4046313E-006  0.2000176E+02  0.7818608E-02  0.1745293E+00
          2   -1    0    0  501    0  0.00000000000E+00  0.00000000000E+00  0.17993643271E+01  0.17993662056E+01  0.26000000000E-02 0.  1.
         -2   -1    0    0    0  501 -0.00000000000E+00 -0.00000000000E+00 -0.55584931554E+02  0.55584931615E+02  0.26000000000E-02 0. -1.
       1023    2    1    2    0    0  0.00000000000E+00  0.00000000000E+00 -0.53785567227E+02  0.57384297820E+02  0.20001759783E+02 0.  0.
        -11    1    3    3    0    0 -0.41982562343E+01  0.90768332146E+01 -0.27058631721E+02  0.28847596217E+02  0.51100000000E-03 0.  1.
         11    1    3    3    0    0  0.41982562343E+01 -0.90768332146E+01 -0.26726935506E+02  0.28536701603E+02  0.51100000000E-03 0. -1.
<mgrwt>
<rscale>  0 0.20001760E+02</rscale>
<asrwt>0</asrwt>
<pdfrwt beam="1">  1        2 0.27682547E-03 0.20001760E+02</pdfrwt>
<pdfrwt beam="2">  1       -2 0.85515268E-02 0.20001760E+02</pdfrwt>
<totfact> 0.33359502E+06</totfact>
</mgrwt>
</event>
<event>
 5    1  0.4046313E-006  0.2000041E+02  0.7818608E-02  0.1745320E+00
         -2   -1    0    0    0  501 -0.00000000000E+00  0.00000000000E+00  0.41861057186E+02  0.41861057267E+02  0.26000000000E-02 0.  1.
          2   -1    0    0  501    0  0.00000000000E+00 -0.00000000000E+00 -0.23889533691E+01  0.23889547840E+01  0.26000000000E-02 0. -1.
       1023    2    1    2    0    0  0.00000000000E+00  0.00000000000E+00  0.39472103817E+02  0.44250012051E+02  0.20000414665E+02 0.  0.
        -11    1    3    3    0    0 -0.97752333295E+01 -0.21087458095E+01  0.19633443255E+02  0.22033476572E+02  0.51100000000E-03 0.  1.
         11    1    3    3    0    0  0.97752333295E+01  0.21087458095E+01  0.19838660562E+02  0.22216535479E+02  0.51100000000E-03 0. -1.
<mgrwt>
<rscale>  0 0.20000415E+02</rscale>
<asrwt>0</asrwt>
<pdfrwt beam="2">  1        2 0.36753141E-03 0.20000415E+02</pdfrwt>
<pdfrwt beam="1">  1       -2 0.64401626E-02 0.20000415E+02</pdfrwt>
<totfact> 0.34721045E+06</totfact>
</mgrwt>
</event>
<event>
 5    1  0.4046313E-006  0.2001204E+02  0.7818608E-02  0.1745089E+00
          2   -1    0    0  501    0  0.00000000000E+00  0.00000000000E+00  0.51319876632E+01  0.51319883218E+01  0.26000000000E-02 0. -1.
         -2   -1    0    0    0  501 -0.00000000000E+00 -0.00000000000E+00 -0.19509098794E+02  0.19509098968E+02  0.26000000000E-02 0.  1.
       1023    2    1    2    0    0  0.00000000000E+00  0.00000000000E+00 -0.14377111131E+02  0.24641087289E+02  0.20012042832E+02 0.  0.
        -11    1    3    3    0    0 -0.99589070208E+01  0.96241004609E+00 -0.73363242712E+01  0.12406760908E+02  0.51100000000E-03 0.  1.
         11    1    3    3    0    0  0.99589070208E+01 -0.96241004609E+00 -0.70407868599E+01  0.12234326382E+02  0.51100000000E-03 0. -1.
<mgrwt>
<rscale>  0 0.20012043E+02</rscale>
<asrwt>0</asrwt>
<pdfrwt beam="1">  1        2 0.78953663E-03 0.20012043E+02</pdfrwt>
<pdfrwt beam="2">  1       -2 0.30013999E-02 0.20012043E+02</pdfrwt>
<totfact> 0.37462242E+06</totfact>
</mgrwt>
</event>
<event>
 5    1  0.4146635E-006  0.2000086E+02  0.7818608E-02  0.1745311E+00
          2   -1    0    0  501    0  0.00000000000E+00  0.00000000000E+00  0.69456294829E+02  0.69456294877E+02  0.26000000000E-02 0.  1.
         -2   -1    0    0    0  501 -0.00000000000E+00 -0.00000000000E+00 -0.14398764111E+01  0.14398787585E+01  0.26000000000E-02 0. -1.
       1023    2    1    2    0    0  0.00000000000E+00  0.00000000000E+00  0.68016418418E+02  0.70896173636E+02  0.20000856528E+02 0.  0.
        -11    1    3    3    0    0 -0.90499417332E+00 -0.99593907128E+01  0.34041343540E+02  0.35479875255E+02  0.51100000000E-03 0.  1.
         11    1    3    3    0    0  0.90499417332E+00  0.99593907128E+01  0.33975074877E+02  0.35416298381E+02  0.51100000000E-03 0. -1.
<mgrwt>
<rscale>  0 0.20000857E+02</rscale>
<asrwt>0</asrwt>
<pdfrwt beam="1">  1        2 0.10685583E-01 0.20000857E+02</pdfrwt>
<pdfrwt beam="2">  1       -2 0.22151966E-03 0.20000857E+02</pdfrwt>
<totfact> 0.48944411E+06</totfact>
</mgrwt>
</event>
<event>
 5    1  0.4046313E-006  0.2000077E+02  0.7818608E-02  0.1745313E+00
          2   -1    0    0  501    0  0.00000000000E+00  0.00000000000E+00  0.19935335013E+01  0.19935351968E+01  0.26000000000E-02 0.  1.
         -2   -1    0    0    0  501 -0.00000000000E+00 -0.00000000000E+00 -0.50166005222E+02  0.50166005289E+02  0.26000000000E-02 0. -1.
       1023    2    1    2    0    0  0.00000000000E+00  0.00000000000E+00 -0.48172471720E+02  0.52159540486E+02  0.20000765786E+02 0.  0.
        -11    1    3    3    0    0 -0.30431171909E+01  0.95257253755E+01 -0.23858116195E+02  0.25869088017E+02  0.51100000000E-03 0. -1.
         11    1    3    3    0    0  0.30431171909E+01 -0.95257253755E+01 -0.24314355525E+02  0.26290452469E+02  0.51100000000E-03 0.  1.
<mgrwt>
<rscale>  0 0.20000766E+02</rscale>
<asrwt>0</asrwt>
<pdfrwt beam="1">  1        2 0.30669764E-03 0.20000766E+02</pdfrwt>
<pdfrwt beam="2">  1       -2 0.77178461E-02 0.20000766E+02</pdfrwt>
<totfact> 0.33879655E+06</totfact>
</mgrwt>
</event>
<event>
 5    1  0.4046313E-006  0.2000116E+02  0.7818608E-02  0.1745305E+00
         -2   -1    0    0    0  501 -0.00000000000E+00  0.00000000000E+00  0.20595468628E+02  0.20595468792E+02  0.26000000000E-02 0. -1.
          2   -1    0    0  501    0  0.00000000000E+00 -0.00000000000E+00 -0.48560000169E+01  0.48560007129E+01  0.26000000000E-02 0.  1.
       1023    2    1    2    0    0  0.00000000000E+00  0.00000000000E+00  0.15739468611E+02  0.25451469505E+02  0.20001160662E+02 0.  0.
        -11    1    3    3    0    0 -0.36288940119E+01  0.93183247728E+01  0.77329280529E+01  0.12641132262E+02  0.51100000000E-03 0. -1.
         11    1    3    3    0    0  0.36288940119E+01 -0.93183247728E+01  0.80065405584E+01  0.12810337244E+02  0.51100000000E-03 0.  1.
<mgrwt>
<rscale>  0 0.20001161E+02</rscale>
<asrwt>0</asrwt>
<pdfrwt beam="2">  1        2 0.74707699E-03 0.20001161E+02</pdfrwt>
<pdfrwt beam="1">  1       -2 0.31685337E-02 0.20001161E+02</pdfrwt>
<totfact> 0.37337171E+06</totfact>
</mgrwt>
</event>
<event>
 5    1  0.4046313E-006  0.2000027E+02  0.7818608E-02  0.1745323E+00
         -2   -1    0    0    0  501 -0.00000000000E+00  0.00000000000E+00  0.11503176454E+03  0.11503176457E+03  0.26000000000E-02 0. -1.
          2   -1    0    0  501    0  0.00000000000E+00 -0.00000000000E+00 -0.86934699304E+00  0.86935088100E+00  0.26000000000E-02 0.  1.
       1023    2    1    2    0    0  0.00000000000E+00  0.00000000000E+00  0.11416241755E+03  0.11590111545E+03  0.20000274560E+02 0.  0.
        -11    1    3    3    0    0  0.95140692127E+01  0.30798103967E+01  0.57084356066E+02  0.57953657804E+02  0.51100000000E-03 0.  1.
         11    1    3    3    0    0 -0.95140692127E+01 -0.30798103967E+01  0.57078061481E+02  0.57947457647E+02  0.51100000000E-03 0. -1.
<mgrwt>
<rscale>  0 0.20000275E+02</rscale>
<asrwt>0</asrwt>
<pdfrwt beam="2">  1        2 0.13374592E-03 0.20000275E+02</pdfrwt>
<pdfrwt beam="1">  1       -2 0.17697204E-01 0.20000275E+02</pdfrwt>
<totfact> 0.28673979E+06</totfact>
</mgrwt>
</event>
<event>
 4    1  0.4046313E-006  0.2003804E+02  0.7818608E-02  0.1744573E+00
          2   -1    0    0  501    0  0.00000000000E+00  0.00000000000E+00  0.26002602827E+02  0.26002602957E+02  0.26000000000E-02 0. -1.
         -2   -1    0    0    0  501 -0.00000000000E+00 -0.00000000000E+00 -0.38604129592E+01  0.38604138347E+01  0.26000000000E-02 0.  1.
        -11    1    1    2    0    0 -0.20684445672E+01  0.97852292391E+01  0.10187367105E+02  0.14276260819E+02  0.51100000000E-03 0. -1.
         11    1    1    2    0    0  0.20684445672E+01 -0.97852292391E+01  0.11954822762E+02  0.15586755972E+02  0.51100000000E-03 0.  1.
<mgrwt>
<rscale>  0 0.20038044E+02</rscale>
<asrwt>0</asrwt>
<pdfrwt beam="1">  1        2 0.40004006E-02 0.20038044E+02</pdfrwt>
<pdfrwt beam="2">  1       -2 0.59390974E-03 0.20038044E+02</pdfrwt>
<totfact> 0.42542573E+06</totfact>
</mgrwt>
</event>
<event>
 5    1  0.4046313E-006  0.2000076E+02  0.7818608E-02  0.1745313E+00
          2   -1    0    0  501    0  0.00000000000E+00  0.00000000000E+00  0.11526628461E+03  0.11526628464E+03  0.26000000000E-02 0. -1.
         -2   -1    0    0    0  501 -0.00000000000E+00 -0.00000000000E+00 -0.86762007535E+00  0.86762397105E+00  0.26000000000E-02 0.  1.
       1023    2    1    2    0    0  0.00000000000E+00  0.00000000000E+00  0.11439866453E+03  0.11613390861E+03  0.20000757031E+02 0.  0.
        -11    1    3    3    0    0 -0.98778009001E+01  0.15603787228E+01  0.57448254055E+02  0.58312156765E+02  0.51100000000E-03 0.  1.
         11    1    3    3    0    0  0.98778009001E+01 -0.15603787228E+01  0.56950410478E+02  0.57821751843E+02  0.51100000000E-03 0. -1.
<mgrwt>
<rscale>  0 0.20000757E+02</rscale>
<asrwt>0</asrwt>
<pdfrwt beam="1">  1        2 0.17733284E-01 0.20000757E+02</pdfrwt>
<pdfrwt beam="2">  1       -2 0.13348024E-03 0.20000757E+02</pdfrwt>
<totfact> 0.54545485E+06</totfact>
</mgrwt>
</event>
<event>
 5    1  0.4046313E-006  0.2000365E+02  0.7818608E-02  0.1745255E+00
          2   -1    0    0  501    0  0.00000000000E+00  0.00000000000E+00  0.96480832802E+01  0.96480836305E+01  0.26000000000E-02 0. -1.
         -2   -1    0    0    0  501 -0.00000000000E+00 -0.00000000000E+00 -0.10368539208E+02  0.10368539534E+02  0.26000000000E-02 0.  1.
       1023    2    1    2    0    0  0.00000000000E+00  0.00000000000E+00 -0.72045592753E+00  0.20016623164E+02  0.20003653320E+02 0.  0.
        -11    1    3    3    0    0  0.90036509090E+01  0.43538855080E+01 -0.23978560292E+00  0.10003976515E+02  0.51100000000E-03 0. -1.
         11    1    3    3    0    0 -0.90036509090E+01 -0.43538855080E+01 -0.48067032460E+00  0.10012646650E+02  0.51100000000E-03 0.  1.
<mgrwt>
<rscale>  0 0.20003653E+02</rscale>
<asrwt>0</asrwt>
<pdfrwt beam="1">  1        2 0.14843206E-02 0.20003653E+02</pdfrwt>
<pdfrwt beam="2">  1       -2 0.15951599E-02 0.20003653E+02</pdfrwt>
<totfact> 0.39343351E+06</totfact>
</mgrwt>
</event>
<event>
 5    1  0.4046313E-006  0.2000104E+02  0.7818608E-02  0.1745307E+00
         -2   -1    0    0    0  501 -0.00000000000E+00  0.00000000000E+00  0.66817939043E+01  0.66817944101E+01  0.26000000000E-02 0.  1.
          2   -1    0    0  501    0  0.00000000000E+00 -0.00000000000E+00 -0.14967595067E+02  0.14967595293E+02  0.26000000000E-02 0. -1.
       1023    2    1    2    0    0  0.00000000000E+00  0.00000000000E+00 -0.82858011627E+01  0.21649389703E+02  0.20001039313E+02 0.  0.
        -11    1    3    3    0    0 -0.21417960027E+01 -0.97683786278E+01 -0.41898579330E+01  0.10842666687E+02  0.51100000000E-03 0. -1.
         11    1    3    3    0    0  0.21417960027E+01  0.97683786278E+01 -0.40959432296E+01  0.10806723016E+02  0.51100000000E-03 0.  1.
<mgrwt>
<rscale>  0 0.20001039E+02</rscale>
<asrwt>0</asrwt>
<pdfrwt beam="2">  1        2 0.23027070E-02 0.20001039E+02</pdfrwt>
<pdfrwt beam="1">  1       -2 0.10279684E-02 0.20001039E+02</pdfrwt>
<totfact> 0.40677835E+06</totfact>
</mgrwt>
</event>
<event>
 5    1  0.4046313E-006  0.2000020E+02  0.7818608E-02  0.1745324E+00
          2   -1    0    0  501    0  0.00000000000E+00  0.00000000000E+00  0.10308605797E+01  0.10308638585E+01  0.26000000000E-02 0.  1.
         -2   -1    0    0    0  501 -0.00000000000E+00 -0.00000000000E+00 -0.97008131792E+02  0.97008131827E+02  0.26000000000E-02 0. -1.
       1023    2    1    2    0    0  0.00000000000E+00  0.00000000000E+00 -0.95977271212E+02  0.98038995685E+02  0.20000202140E+02 0.  0.
        -11    1    3    3    0    0 -0.52306481419E+01  0.85229529848E+01 -0.48185542120E+02  0.49212263484E+02  0.51100000000E-03 0. -1.
         11    1    3    3    0    0  0.52306481419E+01 -0.85229529848E+01 -0.47791729093E+02  0.48826732202E+02  0.51100000000E-03 0.  1.
<mgrwt>
<rscale>  0 0.20000202E+02</rscale>
<asrwt>0</asrwt>
<pdfrwt beam="1">  1        2 0.15859427E-03 0.20000202E+02</pdfrwt>
<pdfrwt beam="2">  1       -2 0.14924321E-01 0.20000202E+02</pdfrwt>
<totfact> 0.29949043E+06</totfact>
</mgrwt>
</event>
<event>
 5    1  0.4046313E-006  0.2000256E+02  0.7818608E-02  0.1745277E+00
          2   -1    0    0  501    0  0.00000000000E+00  0.00000000000E+00  0.50497424814E+02  0.50497424881E+02  0.26000000000E-02 0.  1.
         -2   -1    0    0    0  501 -0.00000000000E+00 -0.00000000000E+00 -0.19808045908E+01  0.19808062972E+01  0.26000000000E-02 0. -1.
       1023    2    1    2    0    0  0.00000000000E+00  0.00000000000E+00  0.48516620224E+02  0.52478231179E+02  0.20002557579E+02 0.  0.
        -11    1    3    3    0    0  0.64071547996E+01 -0.76794471154E+01  0.24242450367E+02  0.26224453105E+02  0.51100000000E-03 0.  1.
         11    1    3    3    0    0 -0.64071547996E+01  0.76794471154E+01  0.24274169857E+02  0.26253778073E+02  0.51100000000E-03 0. -1.
<mgrwt>
<rscale>  0 0.20002558E+02</rscale>
<asrwt>0</asrwt>
<pdfrwt beam="1">  1        2 0.77688346E-02 0.20002558E+02</pdfrwt>
<pdfrwt beam="2">  1       -2 0.30473931E-03 0.20002558E+02</pdfrwt>
<totfact> 0.46384335E+06</totfact>
</mgrwt>
</event>
<event>
 5    1  0.4046313E-006  0.2000195E+02  0.7818608E-02  0.1745289E+00
         -2   -1    0    0    0  501 -0.00000000000E+00  0.00000000000E+00  0.47758277971E+01  0.47758285048E+01  0.26000000000E-02 0. -1.
          2   -1    0    0  501    0  0.00000000000E+00 -0.00000000000E+00 -0.20942858242E+02  0.20942858403E+02  0.26000000000E-02 0.  1.
       1023    2    1    2    0    0  0.00000000000E+00  0.00000000000E+00 -0.16167030445E+02  0.25718686908E+02  0.20001949477E+02 0.  0.
        -11    1    3    3    0    0 -0.91935503770E+01 -0.39361174192E+01 -0.81753996128E+01  0.12917102924E+02  0.51100000000E-03 0. -1.
         11    1    3    3    0    0  0.91935503770E+01  0.39361174192E+01 -0.79916308319E+01  0.12801583984E+02  0.51100000000E-03 0.  1.
<mgrwt>
<rscale>  0 0.20001949E+02</rscale>
<asrwt>0</asrwt>
<pdfrwt beam="2">  1        2 0.32219782E-02 0.20001949E+02</pdfrwt>
<pdfrwt beam="1">  1       -2 0.73474281E-03 0.20001949E+02</pdfrwt>
<totfact> 0.41840781E+06</totfact>
</mgrwt>
</event>
<event>
 5    1  0.4046313E-006  0.2000202E+02  0.7818608E-02  0.1745288E+00
          2   -1    0    0  501    0  0.00000000000E+00  0.00000000000E+00  0.58470023517E+01  0.58470029298E+01  0.26000000000E-02 0.  1.
         -2   -1    0    0    0  501 -0.00000000000E+00 -0.00000000000E+00 -0.17106230281E+02  0.17106230479E+02  0.26000000000E-02 0. -1.
       1023    2    1    2    0    0  0.00000000000E+00  0.00000000000E+00 -0.11259227929E+02  0.22953233408E+02  0.20002017657E+02 0.  0.
        -11    1    3    3    0    0  0.74869546425E+00  0.99729199017E+01 -0.56553010443E+01  0.11489216963E+02  0.51100000000E-03 0.  1.
         11    1    3    3    0    0 -0.74869546425E+00 -0.99729199017E+01 -0.56039268850E+01  0.11464016445E+02  0.51100000000E-03 0. -1.
<mgrwt>
<rscale>  0 0.20002018E+02</rscale>
<asrwt>0</asrwt>
<pdfrwt beam="1">  1        2 0.89953889E-03 0.20002018E+02</pdfrwt>
<pdfrwt beam="2">  1       -2 0.26317278E-02 0.20002018E+02</pdfrwt>
<totfact> 0.37902270E+06</totfact>
</mgrwt>
</event>
<event>
 5    1  0.4046313E-006  0.2000756E+02  0.7818608E-02  0.1745178E+00
         -2   -1    0    0    0  501 -0.00000000000E+00  0.00000000000E+00  0.29243701788E+01  0.29243713346E+01  0.26000000000E-02 0.  1.
          2   -1    0    0  501    0  0.00000000000E+00 -0.00000000000E+00 -0.34221242805E+02  0.34221242904E+02  0.26000000000E-02 0. -1.
       1023    2    1    2    0    0  0.00000000000E+00  0.00000000000E+00 -0.31296872626E+02  0.37145614239E+02  0.20007559096E+02 0.  0.
        -11    1    3    3    0    0 -0.53317054935E+01  0.84636137408E+01 -0.15415334269E+02  0.18376408026E+02  0.51100000000E-03 0.  1.
         11    1    3    3    0    0  0.53317054935E+01 -0.84636137408E+01 -0.15881538357E+02  0.18769206213E+02  0.51100000000E-03 0. -1.
<mgrwt>
<rscale>  0 0.20007559E+02</rscale>
<asrwt>0</asrwt>
<pdfrwt beam="2">  1        2 0.52648064E-02 0.20007559E+02</pdfrwt>
<pdfrwt beam="1">  1       -2 0.44990323E-03 0.20007559E+02</pdfrwt>
<totfact> 0.43993105E+06</totfact>
</mgrwt>
</event>
<event>
 5    1  0.4046313E-006  0.2000067E+02  0.7818608E-02  0.1745315E+00
         -2   -1    0    0    0  501 -0.00000000000E+00  0.00000000000E+00  0.20681663109E+01  0.20681679452E+01  0.26000000000E-02 0.  1.
          2   -1    0    0  501    0  0.00000000000E+00 -0.00000000000E+00 -0.48355250771E+02  0.48355250841E+02  0.26000000000E-02 0. -1.
       1023    2    1    2    0    0  0.00000000000E+00  0.00000000000E+00 -0.46287084460E+02  0.50423418786E+02  0.20000674345E+02 0.  0.
        -11    1    3    3    0    0  0.98016175868E+01  0.19834922519E+01 -0.23072481965E+02  0.25146478345E+02  0.51100000000E-03 0. -1.
         11    1    3    3    0    0 -0.98016175868E+01 -0.19834922519E+01 -0.23214602495E+02  0.25276940441E+02  0.51100000000E-03 0.  1.
<mgrwt>
<rscale>  0 0.20000674E+02</rscale>
<asrwt>0</asrwt>
<pdfrwt beam="2">  1        2 0.74392687E-02 0.20000674E+02</pdfrwt>
<pdfrwt beam="1">  1       -2 0.31817960E-03 0.20000674E+02</pdfrwt>
<totfact> 0.46093966E+06</totfact>
</mgrwt>
</event>
<event>
 5    1  0.4046313E-006  0.2000128E+02  0.7818608E-02  0.1745303E+00
         -2   -1    0    0    0  501 -0.00000000000E+00  0.00000000000E+00  0.60119728447E+02  0.60119728504E+02  0.26000000000E-02 0.  1.
          2   -1    0    0  501    0  0.00000000000E+00 -0.00000000000E+00 -0.16635590625E+01  0.16635610942E+01  0.26000000000E-02 0. -1.
       1023    2    1    2    0    0  0.00000000000E+00  0.00000000000E+00  0.58456169385E+02  0.61783289598E+02  0.20001278318E+02 0.  0.
        -11    1    3    3    0    0 -0.15107851545E+01 -0.98852577751E+01  0.29566326834E+02  0.31211672108E+02  0.51100000000E-03 0. -1.
         11    1    3    3    0    0  0.15107851545E+01  0.98852577751E+01  0.28889842551E+02  0.30571617490E+02  0.51100000000E-03 0.  1.
<mgrwt>
<rscale>  0 0.20001278E+02</rscale>
<asrwt>0</asrwt>
<pdfrwt beam="2">  1        2 0.25593227E-03 0.20001278E+02</pdfrwt>
<pdfrwt beam="1">  1       -2 0.92491909E-02 0.20001278E+02</pdfrwt>
<totfact> 0.32944531E+06</totfact>
</mgrwt>
</event>
<event>
 5    1  0.4069653E-006  0.2000366E+02  0.7818608E-02  0.1745255E+00
          2   -1    0    0  501    0  0.00000000000E+00  0.00000000000E+00  0.80018371092E+02  0.80018371134E+02  0.26000000000E-02 0.  1.
         -2   -1    0    0    0  501 -0.00000000000E+00 -0.00000000000E+00 -0.12501695254E+01  0.12501722290E+01  0.26000000000E-02 0. -1.
       1023    2    1    2    0    0  0.00000000000E+00  0.00000000000E+00  0.78768201566E+02  0.81268543363E+02  0.20003663723E+02 0.  0.
        -11    1    3    3    0    0 -0.31562421469E+01 -0.94888802821E+01  0.40154156888E+02  0.41380635920E+02  0.51100000000E-03 0.  1.
         11    1    3    3    0    0  0.31562421469E+01  0.94888802821E+01  0.38614044679E+02  0.39887907443E+02  0.51100000000E-03 0. -1.
<mgrwt>
<rscale>  0 0.20003664E+02</rscale>
<asrwt>0</asrwt>
<pdfrwt beam="1">  1        2 0.12310519E-01 0.20003664E+02</pdfrwt>
<pdfrwt beam="2">  1       -2 0.19233397E-03 0.20003664E+02</pdfrwt>
<totfact> 0.50281521E+06</totfact>
</mgrwt>
</event>
<event>
 5    1  0.4046313E-006  0.2000514E+02  0.7818608E-02  0.1745226E+00
          2   -1    0    0  501    0  0.00000000000E+00  0.00000000000E+00  0.36721543689E+01  0.36721552893E+01  0.26000000000E-02 0. -1.
         -2   -1    0    0    0  501 -0.00000000000E+00 -0.00000000000E+00 -0.27245978069E+02  0.27245978193E+02  0.26000000000E-02 0.  1.
       1023    2    1    2    0    0  0.00000000000E+00  0.00000000000E+00 -0.23573823700E+02  0.30918133483E+02  0.20005144693E+02 0.  0.
        -11    1    3    3    0    0 -0.10001389247E+02  0.18474249167E-01 -0.11550873010E+02  0.15279096692E+02  0.51100000000E-03 0. -1.
         11    1    3    3    0    0  0.10001389247E+02 -0.18474249167E-01 -0.12022950690E+02  0.15639036790E+02  0.51100000000E-03 0.  1.
<mgrwt>
<rscale>  0 0.20005145E+02</rscale>
<asrwt>0</asrwt>
<pdfrwt beam="1">  1        2 0.56494692E-03 0.20005145E+02</pdfrwt>
<pdfrwt beam="2">  1       -2 0.41916889E-02 0.20005145E+02</pdfrwt>
<totfact> 0.36391255E+06</totfact>
</mgrwt>
</event>
<event>
 4    1  0.4046313E-006  0.2001243E+02  0.7818608E-02  0.1745081E+00
          2   -1    0    0  501    0  0.00000000000E+00  0.00000000000E+00  0.43097651036E+02  0.43097651115E+02  0.26000000000E-02 0. -1.
         -2   -1    0    0    0  501 -0.00000000000E+00 -0.00000000000E+00 -0.23231968710E+01  0.23231983259E+01  0.26000000000E-02 0.  1.
        -11    1    1    2    0    0  0.64823280006E+01  0.76224857763E+01  0.20299416066E+02  0.22631596466E+02  0.51100000000E-03 0.  1.
         11    1    1    2    0    0 -0.64823280006E+01 -0.76224857763E+01  0.20475038099E+02  0.22789252974E+02  0.51100000000E-03 0. -1.
<mgrwt>
<rscale>  0 0.20012432E+02</rscale>
<asrwt>0</asrwt>
<pdfrwt beam="1">  1        2 0.66304080E-02 0.20012432E+02</pdfrwt>
<pdfrwt beam="2">  1       -2 0.35741502E-03 0.20012432E+02</pdfrwt>
<totfact> 0.45284964E+06</totfact>
</mgrwt>
</event>
<event>
 5    1  0.4046313E-006  0.2000170E+02  0.7818608E-02  0.1745294E+00
         -2   -1    0    0    0  501 -0.00000000000E+00  0.00000000000E+00  0.23804013258E+01  0.23804027457E+01  0.26000000000E-02 0.  1.
          2   -1    0    0  501    0  0.00000000000E+00 -0.00000000000E+00 -0.42016859855E+02  0.42016859935E+02  0.26000000000E-02 0. -1.
       1023    2    1    2    0    0  0.00000000000E+00  0.00000000000E+00 -0.39636458529E+02  0.44397262681E+02  0.20001702148E+02 0.  0.
        -11    1    3    3    0    0  0.71843482337E+01 -0.69570217857E+01 -0.19718707663E+02  0.22109781633E+02  0.51100000000E-03 0.  1.
         11    1    3    3    0    0 -0.71843482337E+01  0.69570217857E+01 -0.19917750866E+02  0.22287481048E+02  0.51100000000E-03 0. -1.
<mgrwt>
<rscale>  0 0.20001702E+02</rscale>
<asrwt>0</asrwt>
<pdfrwt beam="2">  1        2 0.64641319E-02 0.20001702E+02</pdfrwt>
<pdfrwt beam="1">  1       -2 0.36621573E-03 0.20001702E+02</pdfrwt>
<totfact> 0.45182589E+06</totfact>
</mgrwt>
</event>
<event>
 5    1  0.4341446E-006  0.2000304E+02  0.7818608E-02  0.1745268E+00
          2   -1    0    0  501    0  0.00000000000E+00  0.00000000000E+00  0.10322488431E+03  0.10322488435E+03  0.26000000000E-02 0.  1.
         -2   -1    0    0    0  501 -0.00000000000E+00 -0.00000000000E+00 -0.96905164466E+00  0.96905513260E+00  0.26000000000E-02 0. -1.
       1023    2    1    2    0    0  0.00000000000E+00  0.00000000000E+00  0.10225583267E+03  0.10419393948E+03  0.20003042502E+02 0.  0.
        -11    1    3    3    0    0 -0.74283129105E+01  0.66970400658E+01  0.51045765837E+02  0.52016347320E+02  0.51100000000E-03 0. -1.
         11    1    3    3    0    0  0.74283129105E+01 -0.66970400658E+01  0.51210066831E+02  0.52177592158E+02  0.51100000000E-03 0.  1.
<mgrwt>
<rscale>  0 0.20003043E+02</rscale>
<asrwt>0</asrwt>
<pdfrwt beam="1">  1        2 0.15880747E-01 0.20003043E+02</pdfrwt>
<pdfrwt beam="2">  1       -2 0.14908518E-03 0.20003043E+02</pdfrwt>
<totfact> 0.53124717E+06</totfact>
</mgrwt>
</event>
<event>
 5    1  0.4046313E-006  0.2000081E+02  0.7818608E-02  0.1745312E+00
          2   -1    0    0  501    0  0.00000000000E+00  0.00000000000E+00  0.18130306096E+01  0.18130324739E+01  0.26000000000E-02 0. -1.
         -2   -1    0    0    0  501 -0.00000000000E+00 -0.00000000000E+00 -0.55160693080E+02  0.55160693142E+02  0.26000000000E-02 0.  1.
       1023    2    1    2    0    0  0.00000000000E+00  0.00000000000E+00 -0.53347662471E+02  0.56973725616E+02  0.20000807969E+02 0.  0.
        -11    1    3    3    0    0 -0.66210022337E+01  0.74945532550E+01 -0.26803762446E+02  0.28608524614E+02  0.51100000000E-03 0.  1.
         11    1    3    3    0    0  0.66210022337E+01 -0.74945532550E+01 -0.26543900025E+02  0.28365201001E+02  0.51100000000E-03 0. -1.
<mgrwt>
<rscale>  0 0.20000808E+02</rscale>
<asrwt>0</asrwt>
<pdfrwt beam="1">  1        2 0.27892798E-03 0.20000808E+02</pdfrwt>
<pdfrwt beam="2">  1       -2 0.84862593E-02 0.20000808E+02</pdfrwt>
<totfact> 0.33402626E+06</totfact>
</mgrwt>
</event>
<event>
 5    1  0.4122318E-006  0.2000072E+02  0.7818608E-02  0.1745314E+00
         -2   -1    0    0    0  501 -0.00000000000E+00  0.00000000000E+00  0.11659228684E+01  0.11659257674E+01  0.26000000000E-02 0. -1.
          2   -1    0    0  501    0  0.00000000000E+00 -0.00000000000E+00 -0.85775018944E+02  0.85775018983E+02  0.26000000000E-02 0.  1.
       1023    2    1    2    0    0  0.00000000000E+00  0.00000000000E+00 -0.84609096075E+02  0.86940944750E+02  0.20000718373E+02 0.  0.
        -11    1    3    3    0    0 -0.91116375951E+01  0.41212835211E+01 -0.42233642938E+02  0.43401469025E+02  0.51100000000E-03 0. -1.
         11    1    3    3    0    0  0.91116375951E+01 -0.41212835211E+01 -0.42375453138E+02  0.43539475725E+02  0.51100000000E-03 0.  1.
<mgrwt>
<rscale>  0 0.20000718E+02</rscale>
<asrwt>0</asrwt>
<pdfrwt beam="2">  1        2 0.13196152E-01 0.20000718E+02</pdfrwt>
<pdfrwt beam="1">  1       -2 0.17937304E-03 0.20000718E+02</pdfrwt>
<totfact> 0.51018310E+06</totfact>
</mgrwt>
</event>
<event>
 5    1  0.4046313E-006  0.2000003E+02  0.7818608E-02  0.1745327E+00
          2   -1    0    0  501    0  0.00000000000E+00  0.00000000000E+00  0.33946491094E+01  0.33946501051E+01  0.26000000000E-02 0. -1.
         -2   -1    0    0    0  501 -0.00000000000E+00 -0.00000000000E+00 -0.29458213694E+02  0.29458213809E+02  0.26000000000E-02 0.  1.
       1023    2    1    2    0    0  0.00000000000E+00  0.00000000000E+00 -0.26063564585E+02  0.32852863914E+02  0.20000031712E+02 0.  0.
        -11    1    3    3    0    0  0.56939295451E+01 -0.82206614239E+01 -0.13008037820E+02  0.16407594464E+02  0.51100000000E-03 0. -1.
         11    1    3    3    0    0 -0.56939295451E+01  0.82206614239E+01 -0.13055526764E+02  0.16445269450E+02  0.51100000000E-03 0.  1.
<mgrwt>
<rscale>  0 0.20000032E+02</rscale>
<asrwt>0</asrwt>
<pdfrwt beam="1">  1        2 0.52225381E-03 0.20000032E+02</pdfrwt>
<pdfrwt beam="2">  1       -2 0.45320328E-02 0.20000032E+02</pdfrwt>
<totfact> 0.36131180E+06</totfact>
</mgrwt>
</event>
<event>
 5    1  0.4046313E-006  0.2000020E+02  0.7818608E-02  0.1745324E+00
          2   -1    0    0  501    0  0.00000000000E+00  0.00000000000E+00  0.20281110653E+02  0.20281110820E+02  0.26000000000E-02 0.  1.
         -2   -1    0    0    0  501 -0.00000000000E+00 -0.00000000000E+00 -0.49307930139E+01  0.49307936994E+01  0.26000000000E-02 0. -1.
       1023    2    1    2    0    0  0.00000000000E+00  0.00000000000E+00  0.15350317640E+02  0.25211904520E+02  0.20000196946E+02 0.  0.
        -11    1    3    3    0    0  0.99328992440E+01 -0.11572893201E+01  0.76912649499E+01  0.12615758509E+02  0.51100000000E-03 0.  1.
         11    1    3    3    0    0 -0.99328992440E+01  0.11572893201E+01  0.76590526896E+01  0.12596146011E+02  0.51100000000E-03 0. -1.
<mgrwt>
<rscale>  0 0.20000197E+02</rscale>
<asrwt>0</asrwt>
<pdfrwt beam="1">  1        2 0.31201709E-02 0.20000197E+02</pdfrwt>
<pdfrwt beam="2">  1       -2 0.75858360E-03 0.20000197E+02</pdfrwt>
<totfact> 0.41728701E+06</totfact>
</mgrwt>
</event>
<event>
 5    1  0.4046313E-006  0.2000135E+02  0.7818608E-02  0.1745301E+00
         -2   -1    0    0    0  501 -0.00000000000E+00  0.00000000000E+00  0.30999762459E+02  0.30999762568E+02  0.26000000000E-02 0.  1.
          2   -1    0    0  501    0  0.00000000000E+00 -0.00000000000E+00 -0.32262662865E+01  0.32262673341E+01  0.26000000000E-02 0. -1.
       1023    2    1    2    0    0  0.00000000000E+00  0.00000000000E+00  0.27773496172E+02  0.34226029902E+02  0.20001350785E+02 0.  0.
        -11    1    3    3    0    0 -0.39407541699E+01 -0.91910378635E+01  0.14047158471E+02  0.17243183633E+02  0.51100000000E-03 0. -1.
         11    1    3    3    0    0  0.39407541699E+01  0.91910378635E+01  0.13726337701E+02  0.16982846268E+02  0.51100000000E-03 0.  1.
<mgrwt>
<rscale>  0 0.20001351E+02</rscale>
<asrwt>0</asrwt>
<pdfrwt beam="2">  1        2 0.49634878E-03 0.20001351E+02</pdfrwt>
<pdfrwt beam="1">  1       -2 0.47691940E-02 0.20001351E+02</pdfrwt>
<totfact> 0.35937085E+06</totfact>
</mgrwt>
</event>
<event>
 5    1  0.4046313E-006  0.2000398E+02  0.7818608E-02  0.1745249E+00
         -2   -1    0    0    0  501 -0.00000000000E+00  0.00000000000E+00  0.78858672745E+02  0.78858672788E+02  0.26000000000E-02 0.  1.
          2   -1    0    0  501    0  0.00000000000E+00 -0.00000000000E+00 -0.12685945895E+01  0.12685972539E+01  0.26000000000E-02 0. -1.
       1023    2    1    2    0    0  0.00000000000E+00  0.00000000000E+00  0.77590078155E+02  0.80127270042E+02  0.20003979009E+02 0.  0.
        -11    1    3    3    0    0 -0.58316689095E+01 -0.81237945471E+01  0.39548614548E+02  0.40793348882E+02  0.51100000000E-03 0. -1.
         11    1    3    3    0    0  0.58316689095E+01  0.81237945471E+01  0.38041463608E+02  0.39333921160E+02  0.51100000000E-03 0.  1.
<mgrwt>
<rscale>  0 0.20003979E+02</rscale>
<asrwt>0</asrwt>
<pdfrwt beam="2">  1        2 0.19516863E-03 0.20003979E+02</pdfrwt>
<pdfrwt beam="1">  1       -2 0.12132102E-01 0.20003979E+02</pdfrwt>
<totfact> 0.31336076E+06</totfact>
</mgrwt>
</event>
<event>
 4    1  0.4046313E-006  0.2004243E+02  0.7818608E-02  0.1744486E+00
          2   -1    0    0  501    0  0.00000000000E+00  0.00000000000E+00  0.37128648746E+01  0.37128657849E+01  0.26000000000E-02 0.  1.
         -2   -1    0    0    0  501 -0.00000000000E+00 -0.00000000000E+00 -0.27047766344E+02  0.27047766469E+02  0.26000000000E-02 0. -1.
        -11    1    1    2    0    0 -0.95320934335E+01  0.30431598040E+01 -0.10822500619E+02  0.14739340105E+02  0.51100000000E-03 0.  1.
         11    1    1    2    0    0  0.95320934335E+01 -0.30431598040E+01 -0.12512400851E+02  0.16021292149E+02  0.51100000000E-03 0. -1.
<mgrwt>
<rscale>  0 0.20042427E+02</rscale>
<asrwt>0</asrwt>
<pdfrwt beam="1">  1        2 0.57121008E-03 0.20042427E+02</pdfrwt>
<pdfrwt beam="2">  1       -2 0.41611948E-02 0.20042427E+02</pdfrwt>
<totfact> 0.36269534E+06</totfact>
</mgrwt>
</event>
<event>
 5    1  0.4046313E-006  0.2000046E+02  0.7818608E-02  0.1745319E+00
         -2   -1    0    0    0  501 -0.00000000000E+00  0.00000000000E+00  0.34859264846E+02  0.34859264943E+02  0.26000000000E-02 0.  1.
          2   -1    0    0  501    0  0.00000000000E+00 -0.00000000000E+00 -0.28688082777E+01  0.28688094559E+01  0.26000000000E-02 0. -1.
       1023    2    1    2    0    0  0.00000000000E+00  0.00000000000E+00  0.31990456568E+02  0.37728074399E+02  0.20000457155E+02 0.  0.
        -11    1    3    3    0    0 -0.61122153604E+01 -0.79148406224E+01  0.15945582683E+02  0.18821941612E+02  0.51100000000E-03 0. -1.
         11    1    3    3    0    0  0.61122153604E+01  0.79148406224E+01  0.16044873885E+02  0.18906132786E+02  0.51100000000E-03 0.  1.
<mgrwt>
<rscale>  0 0.20000457E+02</rscale>
<asrwt>0</asrwt>
<pdfrwt beam="2">  1        2 0.44135523E-03 0.20000457E+02</pdfrwt>
<pdfrwt beam="1">  1       -2 0.53629638E-02 0.20000457E+02</pdfrwt>
<totfact> 0.35487211E+06</totfact>
</mgrwt>
</event>
<event>
 4    1  0.4046313E-006  0.2002095E+02  0.7818608E-02  0.1744912E+00
         -2   -1    0    0    0  501 -0.00000000000E+00  0.00000000000E+00  0.91801677998E+00  0.91802046182E+00  0.26000000000E-02 0. -1.
          2   -1    0    0  501    0  0.00000000000E+00 -0.00000000000E+00 -0.10915852524E+03  0.10915852527E+03  0.26000000000E-02 0.  1.
        -11    1    1    2    0    0  0.98968220734E+01  0.14818404887E+01 -0.52701118029E+02  0.53642807348E+02  0.51100000000E-03 0.  1.
         11    1    1    2    0    0 -0.98968220734E+01 -0.14818404887E+01 -0.55539390428E+02  0.56433738382E+02  0.51100000000E-03 0. -1.
<mgrwt>
<rscale>  0 0.20020945E+02</rscale>
<asrwt>0</asrwt>
<pdfrwt beam="2">  1        2 0.16793609E-01 0.20020945E+02</pdfrwt>
<pdfrwt beam="1">  1       -2 0.14123372E-03 0.20020945E+02</pdfrwt>
<totfact> 0.53717241E+06</totfact>
</mgrwt>
</event>
<event>
 5    1  0.4046313E-006  0.2000028E+02  0.7818608E-02  0.1745323E+00
          2   -1    0    0  501    0  0.00000000000E+00  0.00000000000E+00  0.33949245210E+02  0.33949245309E+02  0.26000000000E-02 0. -1.
         -2   -1    0    0    0  501 -0.00000000000E+00 -0.00000000000E+00 -0.29456544206E+01  0.29456555680E+01  0.26000000000E-02 0.  1.
       1023    2    1    2    0    0  0.00000000000E+00  0.00000000000E+00  0.31003590789E+02  0.36894900877E+02  0.20000276721E+02 0.  0.
        -11    1    3    3    0    0 -0.40942399098E+01  0.91235677505E+01  0.15461462497E+02  0.18413557824E+02  0.51100000000E-03 0.  1.
         11    1    3    3    0    0  0.40942399098E+01 -0.91235677505E+01  0.15542128293E+02  0.18481343053E+02  0.51100000000E-03 0. -1.
<mgrwt>
<rscale>  0 0.20000277E+02</rscale>
<asrwt>0</asrwt>
<pdfrwt beam="1">  1        2 0.52229606E-02 0.20000277E+02</pdfrwt>
<pdfrwt beam="2">  1       -2 0.45317773E-03 0.20000277E+02</pdfrwt>
<totfact> 0.43987313E+06</totfact>
</mgrwt>
</event>
<event>
 4    1  0.4046313E-006  0.2001388E+02  0.7818608E-02  0.1745052E+00
          2   -1    0    0  501    0  0.00000000000E+00  0.00000000000E+00  0.37160741895E+01  0.37160750990E+01  0.26000000000E-02 0.  1.
         -2   -1    0    0    0  501 -0.00000000000E+00 -0.00000000000E+00 -0.26947469941E+02  0.26947470066E+02  0.26000000000E-02 0. -1.
        -11    1    1    2    0    0  0.55765354070E+01 -0.83090296784E+01 -0.11666322256E+02  0.15370126759E+02  0.51100000000E-03 0. -1.
         11    1    1    2    0    0 -0.55765354070E+01  0.83090296784E+01 -0.11565073495E+02  0.15293418406E+02  0.51100000000E-03 0.  1.
<mgrwt>
<rscale>  0 0.20013877E+02</rscale>
<asrwt>0</asrwt>
<pdfrwt beam="1">  1        2 0.57170382E-03 0.20013877E+02</pdfrwt>
<pdfrwt beam="2">  1       -2 0.41457646E-02 0.20013877E+02</pdfrwt>
<totfact> 0.36395338E+06</totfact>
</mgrwt>
</event>
<event>
 5    1  0.4046313E-006  0.2000498E+02  0.7818608E-02  0.1745229E+00
          2   -1    0    0  501    0  0.00000000000E+00  0.00000000000E+00  0.85203950804E+02  0.85203950843E+02  0.26000000000E-02 0. -1.
         -2   -1    0    0    0  501 -0.00000000000E+00 -0.00000000000E+00 -0.11742377500E+01  0.11742406285E+01  0.26000000000E-02 0.  1.
       1023    2    1    2    0    0  0.00000000000E+00  0.00000000000E+00  0.84029713054E+02  0.86378191472E+02  0.20004981531E+02 0.  0.
        -11    1    3    3    0    0  0.51740421968E+01 -0.85602163572E+01  0.42198276484E+02  0.43367528811E+02  0.51100000000E-03 0. -1.
         11    1    3    3    0    0 -0.51740421968E+01  0.85602163572E+01  0.41831436570E+02  0.43010662661E+02  0.51100000000E-03 0.  1.
<mgrwt>
<rscale>  0 0.20004982E+02</rscale>
<asrwt>0</asrwt>
<pdfrwt beam="1">  1        2 0.13108301E-01 0.20004982E+02</pdfrwt>
<pdfrwt beam="2">  1       -2 0.18065218E-03 0.20004982E+02</pdfrwt>
<totfact> 0.50923249E+06</totfact>
</mgrwt>
</event>
<event>
 5    1  0.4046313E-006  0.2000586E+02  0.7818608E-02  0.1745212E+00
          2   -1    0    0  501    0  0.00000000000E+00  0.00000000000E+00  0.88589565773E+00  0.88589947307E+00  0.26000000000E-02 0. -1.
         -2   -1    0    0    0  501 -0.00000000000E+00 -0.00000000000E+00 -0.11294604733E+03  0.11294604736E+03  0.26000000000E-02 0.  1.
       1023    2    1    2    0    0  0.00000000000E+00  0.00000000000E+00 -0.11206015167E+03  0.11383194684E+03  0.20005862315E+02 0.  0.
        -11    1    3    3    0    0 -0.64375054291E+01 -0.76559842815E+01 -0.56344828046E+02  0.57225826506E+02  0.51100000000E-03 0. -1.
         11    1    3    3    0    0  0.64375054291E+01  0.76559842815E+01 -0.55715323629E+02  0.56606120330E+02  0.51100000000E-03 0.  1.
<mgrwt>
<rscale>  0 0.20005862E+02</rscale>
<asrwt>0</asrwt>
<pdfrwt beam="1">  1        2 0.13629202E-03 0.20005862E+02</pdfrwt>
<pdfrwt beam="2">  1       -2 0.17376304E-01 0.20005862E+02</pdfrwt>
<totfact> 0.28798724E+06</totfact>
</mgrwt>
</event>
<event>
 5    1  0.4046313E-006  0.2000138E+02  0.7818608E-02  0.1745301E+00
          2   -1    0    0  501    0  0.00000000000E+00  0.00000000000E+00  0.38837345987E+02  0.38837346074E+02  0.26000000000E-02 0. -1.
         -2   -1    0    0    0  501 -0.00000000000E+00 -0.00000000000E+00 -0.25751952496E+01  0.25751965621E+01  0.26000000000E-02 0.  1.
       1023    2    1    2    0    0  0.00000000000E+00  0.00000000000E+00  0.36262150738E+02  0.41412542636E+02  0.20001377740E+02 0.  0.
        -11    1    3    3    0    0  0.59126416296E+01  0.80650775585E+01  0.17934973636E+02  0.20534558350E+02  0.51100000000E-03 0. -1.
         11    1    3    3    0    0 -0.59126416296E+01 -0.80650775585E+01  0.18327177102E+02  0.20877984286E+02  0.51100000000E-03 0.  1.
<mgrwt>
<rscale>  0 0.20001378E+02</rscale>
<asrwt>0</asrwt>
<pdfrwt beam="1">  1        2 0.59749762E-02 0.20001378E+02</pdfrwt>
<pdfrwt beam="2">  1       -2 0.39618400E-03 0.20001378E+02</pdfrwt>
<totfact> 0.44717856E+06</totfact>
</mgrwt>
</event>
<event>
 5    1  0.4046313E-006  0.2000600E+02  0.7818608E-02  0.1745209E+00
         -2   -1    0    0    0  501 -0.00000000000E+00  0.00000000000E+00  0.10892068192E+01  0.10892099224E+01  0.26000000000E-02 0. -1.
          2   -1    0    0  501    0  0.00000000000E+00 -0.00000000000E+00 -0.91864862325E+02  0.91864862362E+02  0.26000000000E-02 0.  1.
       1023    2    1    2    0    0  0.00000000000E+00  0.00000000000E+00 -0.90775655506E+02  0.92954072285E+02  0.20005997144E+02 0.  0.
        -11    1    3    3    0    0 -0.72110747829E+00  0.99747060732E+01 -0.44399758155E+02  0.45512122360E+02  0.51100000000E-03 0.  1.
         11    1    3    3    0    0  0.72110747829E+00 -0.99747060732E+01 -0.46375897352E+02  0.47441949925E+02  0.51100000000E-03 0. -1.
<mgrwt>
<rscale>  0 0.20005997E+02</rscale>
<asrwt>0</asrwt>
<pdfrwt beam="2">  1        2 0.14133050E-01 0.20005997E+02</pdfrwt>
<pdfrwt beam="1">  1       -2 0.16757059E-03 0.20005997E+02</pdfrwt>
<totfact> 0.51739118E+06</totfact>
</mgrwt>
</event>
<event>
 5    1  0.4208202E-006  0.2000079E+02  0.7818608E-02  0.1745312E+00
         -2   -1    0    0    0  501 -0.00000000000E+00  0.00000000000E+00  0.11442956136E+01  0.11442985674E+01  0.26000000000E-02 0.  1.
          2   -1    0    0  501    0  0.00000000000E+00 -0.00000000000E+00 -0.87396795822E+02  0.87396795861E+02  0.26000000000E-02 0. -1.
       1023    2    1    2    0    0  0.00000000000E+00  0.00000000000E+00 -0.86252500209E+02  0.88541094429E+02  0.20000790242E+02 0.  0.
        -11    1    3    3    0    0 -0.96547184412E+01 -0.26061427520E+01 -0.43340123679E+02  0.44478892623E+02  0.51100000000E-03 0.  1.
         11    1    3    3    0    0  0.96547184412E+01  0.26061427520E+01 -0.42912376530E+02  0.44062201805E+02  0.51100000000E-03 0. -1.
<mgrwt>
<rscale>  0 0.20000790E+02</rscale>
<asrwt>0</asrwt>
<pdfrwt beam="2">  1        2 0.13445656E-01 0.20000790E+02</pdfrwt>
<pdfrwt beam="1">  1       -2 0.17604578E-03 0.20000790E+02</pdfrwt>
<totfact> 0.51219102E+06</totfact>
</mgrwt>
</event>
<event>
 5    1  0.4046313E-006  0.2000046E+02  0.7818608E-02  0.1745319E+00
         -2   -1    0    0    0  501 -0.00000000000E+00  0.00000000000E+00  0.87660365734E+02  0.87660365773E+02  0.26000000000E-02 0. -1.
          2   -1    0    0  501    0  0.00000000000E+00 -0.00000000000E+00 -0.11408172078E+01  0.11408201705E+01  0.26000000000E-02 0.  1.
       1023    2    1    2    0    0  0.00000000000E+00  0.00000000000E+00  0.86519548526E+02  0.88801185943E+02  0.20000458688E+02 0.  0.
        -11    1    3    3    0    0  0.57996298451E+01 -0.81465189913E+01  0.43507325345E+02  0.44641783532E+02  0.51100000000E-03 0. -1.
         11    1    3    3    0    0 -0.57996298451E+01  0.81465189913E+01  0.43012223182E+02  0.44159402411E+02  0.51100000000E-03 0.  1.
<mgrwt>
<rscale>  0 0.20000459E+02</rscale>
<asrwt>0</asrwt>
<pdfrwt beam="2">  1        2 0.17551056E-03 0.20000459E+02</pdfrwt>
<pdfrwt beam="1">  1       -2 0.13486211E-01 0.20000459E+02</pdfrwt>
<totfact> 0.30653393E+06</totfact>
</mgrwt>
</event>
<event>
 5    1  0.4046313E-006  0.2000419E+02  0.7818608E-02  0.1745245E+00
          2   -1    0    0  501    0  0.00000000000E+00  0.00000000000E+00  0.10471337485E+02  0.10471337807E+02  0.26000000000E-02 0. -1.
         -2   -1    0    0    0  501 -0.00000000000E+00 -0.00000000000E+00 -0.95538774670E+01  0.95538778208E+01  0.26000000000E-02 0.  1.
       1023    2    1    2    0    0  0.00000000000E+00  0.00000000000E+00  0.91746001766E+00  0.20025215628E+02  0.20004187763E+02 0.  0.
        -11    1    3    3    0    0 -0.27324639208E+01  0.96213289200E+01  0.53332338513E+00  0.10016025327E+02  0.51100000000E-03 0. -1.
         11    1    3    3    0    0  0.27324639208E+01 -0.96213289200E+01  0.38413663253E+00  0.10009190301E+02  0.51100000000E-03 0.  1.
<mgrwt>
<rscale>  0 0.20004188E+02</rscale>
<asrwt>0</asrwt>
<pdfrwt beam="1">  1        2 0.16109750E-02 0.20004188E+02</pdfrwt>
<pdfrwt beam="2">  1       -2 0.14698274E-02 0.20004188E+02</pdfrwt>
<totfact> 0.39577886E+06</totfact>
</mgrwt>
</event>
<event>
 5    1  0.4298077E-006  0.2000096E+02  0.7818608E-02  0.1745309E+00
          2   -1    0    0  501    0  0.00000000000E+00  0.00000000000E+00  0.10014433916E+03  0.10014433920E+03  0.26000000000E-02 0.  1.
         -2   -1    0    0    0  501 -0.00000000000E+00 -0.00000000000E+00 -0.99865254918E+00  0.99865593374E+00  0.26000000000E-02 0. -1.
       1023    2    1    2    0    0  0.00000000000E+00  0.00000000000E+00  0.99145686613E+02  0.10114299513E+03  0.20000957223E+02 0.  0.
        -11    1    3    3    0    0 -0.84837283670E+01 -0.52945577177E+01  0.49270113683E+02  0.50274746056E+02  0.51100000000E-03 0. -1.
         11    1    3    3    0    0  0.84837283670E+01  0.52945577177E+01  0.49875572930E+02  0.50868249074E+02  0.51100000000E-03 0.  1.
<mgrwt>
<rscale>  0 0.20000957E+02</rscale>
<asrwt>0</asrwt>
<pdfrwt beam="1">  1        2 0.15406819E-01 0.20000957E+02</pdfrwt>
<pdfrwt beam="2">  1       -2 0.15363914E-03 0.20000957E+02</pdfrwt>
<totfact> 0.52769663E+06</totfact>
</mgrwt>
</event>
<event>
 5    1  0.4242742E-006  0.2000064E+02  0.7818608E-02  0.1745315E+00
         -2   -1    0    0    0  501 -0.00000000000E+00  0.00000000000E+00  0.10846220049E+01  0.10846251211E+01  0.26000000000E-02 0. -1.
          2   -1    0    0  501    0  0.00000000000E+00 -0.00000000000E+00 -0.92203789894E+02  0.92203789931E+02  0.26000000000E-02 0.  1.
       1023    2    1    2    0    0  0.00000000000E+00  0.00000000000E+00 -0.91119167889E+02  0.93288415052E+02  0.20000640641E+02 0.  0.
        -11    1    3    3    0    0 -0.78242833010E+01  0.62278950473E+01 -0.45643067990E+02  0.46725750307E+02  0.51100000000E-03 0.  1.
         11    1    3    3    0    0  0.78242833010E+01 -0.62278950473E+01 -0.45476099899E+02  0.46562664745E+02  0.51100000000E-03 0. -1.
<mgrwt>
<rscale>  0 0.20000641E+02</rscale>
<asrwt>0</asrwt>
<pdfrwt beam="2">  1        2 0.14185193E-01 0.20000641E+02</pdfrwt>
<pdfrwt beam="1">  1       -2 0.16686524E-03 0.20000641E+02</pdfrwt>
<totfact> 0.51811173E+06</totfact>
</mgrwt>
</event>
<event>
 5    1  0.4046313E-006  0.2000047E+02  0.7818608E-02  0.1745319E+00
          2   -1    0    0  501    0  0.00000000000E+00  0.00000000000E+00  0.59524735681E+02  0.59524735738E+02  0.26000000000E-02 0.  1.
         -2   -1    0    0    0  501 -0.00000000000E+00 -0.00000000000E+00 -0.16800509391E+01  0.16800529509E+01  0.26000000000E-02 0. -1.
       1023    2    1    2    0    0  0.00000000000E+00  0.00000000000E+00  0.57844684742E+02  0.61204788689E+02  0.20000465133E+02 0.  0.
        -11    1    3    3    0    0  0.64442219920E+01 -0.76469788331E+01  0.28981107753E+02  0.30657933545E+02  0.51100000000E-03 0.  1.
         11    1    3    3    0    0 -0.64442219920E+01  0.76469788331E+01  0.28863576989E+02  0.30546855144E+02  0.51100000000E-03 0. -1.
<mgrwt>
<rscale>  0 0.20000465E+02</rscale>
<asrwt>0</asrwt>
<pdfrwt beam="1">  1        2 0.91576519E-02 0.20000465E+02</pdfrwt>
<pdfrwt beam="2">  1       -2 0.25846953E-03 0.20000465E+02</pdfrwt>
<totfact> 0.47631292E+06</totfact>
</mgrwt>
</event>
<event>
 5    1  0.4046313E-006  0.2000065E+02  0.7818608E-02  0.1745315E+00
         -2   -1    0    0    0  501 -0.00000000000E+00  0.00000000000E+00  0.90302161200E+02  0.90302161237E+02  0.26000000000E-02 0. -1.
          2   -1    0    0  501    0  0.00000000000E+00 -0.00000000000E+00 -0.11074635030E+01  0.11074665550E+01  0.26000000000E-02 0.  1.
       1023    2    1    2    0    0  0.00000000000E+00  0.00000000000E+00  0.89194697697E+02  0.91409627792E+02  0.20000648887E+02 0.  0.
        -11    1    3    3    0    0  0.98412544917E+01  0.17755844832E+01  0.44867674800E+02  0.45968589629E+02  0.51100000000E-03 0.  1.
         11    1    3    3    0    0 -0.98412544917E+01 -0.17755844832E+01  0.44327022897E+02  0.45441038163E+02  0.51100000000E-03 0. -1.
<mgrwt>
<rscale>  0 0.20000649E+02</rscale>
<asrwt>0</asrwt>
<pdfrwt beam="2">  1        2 0.17037924E-03 0.20000649E+02</pdfrwt>
<pdfrwt beam="1">  1       -2 0.13892640E-01 0.20000649E+02</pdfrwt>
<totfact> 0.30450101E+06</totfact>
</mgrwt>
</event>
<event>
 5    1  0.4046313E-006  0.2000188E+02  0.7818608E-02  0.1745291E+00
          2   -1    0    0  501    0  0.00000000000E+00  0.00000000000E+00  0.39263444845E+02  0.39263444931E+02  0.26000000000E-02 0.  1.
         -2   -1    0    0    0  501 -0.00000000000E+00 -0.00000000000E+00 -0.25473768339E+01  0.25473781608E+01  0.26000000000E-02 0. -1.
       1023    2    1    2    0    0  0.00000000000E+00  0.00000000000E+00  0.36716068011E+02  0.41810823092E+02  0.20001881847E+02 0.  0.
        -11    1    3    3    0    0 -0.97773072119E+01 -0.21030977647E+01  0.18374568951E+02  0.20919931667E+02  0.51100000000E-03 0. -1.
         11    1    3    3    0    0  0.97773072119E+01  0.21030977647E+01  0.18341499059E+02  0.20890891425E+02  0.51100000000E-03 0.  1.
<mgrwt>
<rscale>  0 0.20001882E+02</rscale>
<asrwt>0</asrwt>
<pdfrwt beam="1">  1        2 0.60405300E-02 0.20001882E+02</pdfrwt>
<pdfrwt beam="2">  1       -2 0.39190424E-03 0.20001882E+02</pdfrwt>
<totfact> 0.44778348E+06</totfact>
</mgrwt>
</event>
<event>
 4    1  0.4046313E-006  0.2001353E+02  0.7818608E-02  0.1745059E+00
          2   -1    0    0  501    0  0.00000000000E+00  0.00000000000E+00  0.14693850821E+01  0.14693873824E+01  0.26000000000E-02 0.  1.
         -2   -1    0    0    0  501 -0.00000000000E+00 -0.00000000000E+00 -0.68147735890E+02  0.68147735940E+02  0.26000000000E-02 0. -1.
        -11    1    1    2    0    0 -0.50794322835E+01 -0.86168482114E+01 -0.32327160524E+02  0.33839267327E+02  0.51100000000E-03 0. -1.
         11    1    1    2    0    0  0.50794322835E+01  0.86168482114E+01 -0.34351190284E+02  0.35777855995E+02  0.51100000000E-03 0.  1.
<mgrwt>
<rscale>  0 0.20013530E+02</rscale>
<asrwt>0</asrwt>
<pdfrwt beam="1">  1        2 0.22605948E-03 0.20013530E+02</pdfrwt>
<pdfrwt beam="2">  1       -2 0.10484265E-01 0.20013530E+02</pdfrwt>
<totfact> 0.32193835E+06</totfact>
</mgrwt>
</event>
<event>
 5    1  0.4046313E-006  0.2000141E+02  0.7818608E-02  0.1745300E+00
         -2   -1    0    0    0  501 -0.00000000000E+00  0.00000000000E+00  0.15517203696E+02  0.15517203914E+02  0.26000000000E-02 0.  1.
          2   -1    0    0  501    0  0.00000000000E+00 -0.00000000000E+00 -0.64453655758E+01  0.64453661003E+01  0.26000000000E-02 0. -1.
       1023    2    1    2    0    0  0.00000000000E+00  0.00000000000E+00  0.90718381203E+01  0.21962570014E+02  0.20001405819E+02 0.  0.
        -11    1    3    3    0    0  0.43566808540E+01  0.90017882831E+01  0.44979120709E+01  0.10965585877E+02  0.51100000000E-03 0.  1.
         11    1    3    3    0    0 -0.43566808540E+01 -0.90017882831E+01  0.45739260494E+01  0.10996984138E+02  0.51100000000E-03 0. -1.
<mgrwt>
<rscale>  0 0.20001406E+02</rscale>
<asrwt>0</asrwt>
<pdfrwt beam="2">  1        2 0.99159477E-03 0.20001406E+02</pdfrwt>
<pdfrwt beam="1">  1       -2 0.23872621E-02 0.20001406E+02</pdfrwt>
<totfact> 0.38192887E+06</totfact>
</mgrwt>
</event>
<event>
 4    1  0.4724530E-006  0.2198762E+02  0.7818608E-02  0.1708466E+00
          2   -1    0    0  501    0  0.00000000000E+00  0.00000000000E+00  0.55043745886E+01  0.55043752027E+01  0.26000000000E-02 0.  1.
         -2   -1    0    0    0  501 -0.00000000000E+00 -0.00000000000E+00 -0.21957775828E+02  0.21957775982E+02  0.26000000000E-02 0. -1.
        -11    1    1    2    0    0  0.10330962529E+02  0.33753660767E+01 -0.61585308245E+01  0.12491972827E+02  0.51100000000E-03 0. -1.
         11    1    1    2    0    0 -0.10330962529E+02 -0.33753660767E+01 -0.10294870415E+02  0.14970178358E+02  0.51100000000E-03 0.  1.
<mgrwt>
<rscale>  0 0.21987618E+02</rscale>
<asrwt>0</asrwt>
<pdfrwt beam="1">  1        2 0.84682693E-03 0.21987618E+02</pdfrwt>
<pdfrwt beam="2">  1       -2 0.33781194E-02 0.21987618E+02</pdfrwt>
<totfact> 0.30180431E+06</totfact>
</mgrwt>
</event>
<event>
 4    1  0.4046313E-006  0.2002637E+02  0.7818608E-02  0.1744804E+00
         -2   -1    0    0    0  501 -0.00000000000E+00  0.00000000000E+00  0.42945127043E+01  0.42945134913E+01  0.26000000000E-02 0.  1.
          2   -1    0    0  501    0  0.00000000000E+00 -0.00000000000E+00 -0.23346959126E+02  0.23346959271E+02  0.26000000000E-02 0. -1.
        -11    1    1    2    0    0  0.16791698506E+01 -0.98712410095E+01 -0.94529950997E+01  0.13770262418E+02  0.51100000000E-03 0.  1.
         11    1    1    2    0    0 -0.16791698506E+01  0.98712410095E+01 -0.95994513223E+01  0.13871210344E+02  0.51100000000E-03 0. -1.
<mgrwt>
<rscale>  0 0.20026365E+02</rscale>
<asrwt>0</asrwt>
<pdfrwt beam="2">  1        2 0.35918399E-02 0.20026365E+02</pdfrwt>
<pdfrwt beam="1">  1       -2 0.66069434E-03 0.20026365E+02</pdfrwt>
<totfact> 0.42149389E+06</totfact>
</mgrwt>
</event>
<event>
 4    1  0.4046313E-006  0.2003209E+02  0.7818608E-02  0.1744691E+00
          2   -1    0    0  501    0  0.00000000000E+00  0.00000000000E+00  0.17115004518E+01  0.17115024267E+01  0.26000000000E-02 0. -1.
         -2   -1    0    0    0  501 -0.00000000000E+00 -0.00000000000E+00 -0.58615852409E+02  0.58615852467E+02  0.26000000000E-02 0.  1.
        -11    1    1    2    0    0  0.89652639091E+01  0.44653405986E+01 -0.28683404470E+02  0.30381785923E+02  0.51100000000E-03 0.  1.
         11    1    1    2    0    0 -0.89652639091E+01 -0.44653405986E+01 -0.28220947488E+02  0.29945568971E+02  0.51100000000E-03 0. -1.
<mgrwt>
<rscale>  0 0.20032086E+02</rscale>
<asrwt>0</asrwt>
<pdfrwt beam="1">  1        2 0.26330796E-03 0.20032086E+02</pdfrwt>
<pdfrwt beam="2">  1       -2 0.90178220E-02 0.20032086E+02</pdfrwt>
<totfact> 0.32970316E+06</totfact>
</mgrwt>
</event>
<event>
 4    1  0.1467763E-005  0.2120033E+02  0.7818608E-02  0.1722460E+00
         -2   -1    0    0    0  501 -0.00000000000E+00  0.00000000000E+00  0.15990003278E+01  0.15990024417E+01  0.26000000000E-02 0. -1.
          2   -1    0    0  501    0  0.00000000000E+00 -0.00000000000E+00 -0.70271049238E+02  0.70271049286E+02  0.26000000000E-02 0.  1.
        -11    1    1    2    0    0 -0.10435602313E+02  0.42564114621E+00 -0.28195886502E+02  0.30068105726E+02  0.51100000000E-03 0. -1.
         11    1    1    2    0    0  0.10435602313E+02 -0.42564114621E+00 -0.40476162408E+02  0.41801946002E+02  0.51100000000E-03 0.  1.
<mgrwt>
<rscale>  0 0.21200331E+02</rscale>
<asrwt>0</asrwt>
<pdfrwt beam="2">  1        2 0.10810928E-01 0.21200331E+02</pdfrwt>
<pdfrwt beam="1">  1       -2 0.24600027E-03 0.21200331E+02</pdfrwt>
<totfact> 0.43076420E+06</totfact>
</mgrwt>
</event>
<event>
 5    1  0.4046313E-006  0.2000091E+02  0.7818608E-02  0.1745310E+00
          2   -1    0    0  501    0  0.00000000000E+00  0.00000000000E+00  0.30520619438E+02  0.30520619549E+02  0.26000000000E-02 0. -1.
         -2   -1    0    0    0  501 -0.00000000000E+00 -0.00000000000E+00 -0.32767724532E+01  0.32767734847E+01  0.26000000000E-02 0.  1.
       1023    2    1    2    0    0  0.00000000000E+00  0.00000000000E+00  0.27243846985E+02  0.33797393033E+02  0.20000914412E+02 0.  0.
        -11    1    3    3    0    0  0.12147877462E+01  0.99263962212E+01  0.13638207121E+02  0.16911822638E+02  0.51100000000E-03 0. -1.
         11    1    3    3    0    0 -0.12147877462E+01 -0.99263962212E+01  0.13605639864E+02  0.16885570395E+02  0.51100000000E-03 0.  1.
<mgrwt>
<rscale>  0 0.20000914E+02</rscale>
<asrwt>0</asrwt>
<pdfrwt beam="1">  1        2 0.46954799E-02 0.20000914E+02</pdfrwt>
<pdfrwt beam="2">  1       -2 0.50411894E-03 0.20000914E+02</pdfrwt>
<totfact> 0.43451181E+06</totfact>
</mgrwt>
</event>
<event>
 5    1  0.4046313E-006  0.2000279E+02  0.7818608E-02  0.1745273E+00
          2   -1    0    0  501    0  0.00000000000E+00  0.00000000000E+00  0.28728737500E+02  0.28728737618E+02  0.26000000000E-02 0. -1.
         -2   -1    0    0    0  501 -0.00000000000E+00 -0.00000000000E+00 -0.34818062185E+01  0.34818071893E+01  0.26000000000E-02 0.  1.
       1023    2    1    2    0    0  0.00000000000E+00  0.00000000000E+00  0.25246931282E+02  0.32210544807E+02  0.20002791246E+02 0.  0.
        -11    1    3    3    0    0  0.99945609933E+01  0.35193441263E+00  0.12441231852E+02  0.15962435827E+02  0.51100000000E-03 0. -1.
         11    1    3    3    0    0 -0.99945609933E+01 -0.35193441263E+00  0.12805699430E+02  0.16248108980E+02  0.51100000000E-03 0.  1.
<mgrwt>
<rscale>  0 0.20002791E+02</rscale>
<asrwt>0</asrwt>
<pdfrwt beam="1">  1        2 0.44198057E-02 0.20002791E+02</pdfrwt>
<pdfrwt beam="2">  1       -2 0.53566260E-03 0.20002791E+02</pdfrwt>
<totfact> 0.43156670E+06</totfact>
</mgrwt>
</event>
<event>
 5    1  0.4046313E-006  0.2000549E+02  0.7818608E-02  0.1745219E+00
          2   -1    0    0  501    0  0.00000000000E+00  0.00000000000E+00  0.55863847956E+01  0.55863854006E+01  0.26000000000E-02 0. -1.
         -2   -1    0    0    0  501 -0.00000000000E+00 -0.00000000000E+00 -0.17910495270E+02  0.17910495459E+02  0.26000000000E-02 0.  1.
       1023    2    1    2    0    0  0.00000000000E+00  0.00000000000E+00 -0.12324110474E+02  0.23496880859E+02  0.20005492024E+02 0.  0.
        -11    1    3    3    0    0 -0.66658711330E+01  0.74566406879E+01 -0.63264849351E+01  0.11834683781E+02  0.51100000000E-03 0.  1.
         11    1    3    3    0    0  0.66658711330E+01 -0.74566406879E+01 -0.59976255392E+01  0.11662197078E+02  0.51100000000E-03 0. -1.
<mgrwt>
<rscale>  0 0.20005492E+02</rscale>
<asrwt>0</asrwt>
<pdfrwt beam="1">  1        2 0.85944388E-03 0.20005492E+02</pdfrwt>
<pdfrwt beam="2">  1       -2 0.27554609E-02 0.20005492E+02</pdfrwt>
<totfact> 0.37750111E+06</totfact>
</mgrwt>
</event>
<event>
 4    1  0.4046313E-006  0.2001825E+02  0.7818608E-02  0.1744965E+00
          2   -1    0    0  501    0  0.00000000000E+00  0.00000000000E+00  0.14951768999E+01  0.14951791605E+01  0.26000000000E-02 0.  1.
         -2   -1    0    0    0  501 -0.00000000000E+00 -0.00000000000E+00 -0.67003757731E+02  0.67003757782E+02  0.26000000000E-02 0. -1.
        -11    1    1    2    0    0 -0.99991352502E+01  0.18276916140E+00 -0.34150291604E+02  0.35584526513E+02  0.51100000000E-03 0. -1.
         11    1    1    2    0    0  0.99991352502E+01 -0.18276916140E+00 -0.31358289228E+02  0.32914410429E+02  0.51100000000E-03 0.  1.
<mgrwt>
<rscale>  0 0.20018247E+02</rscale>
<asrwt>0</asrwt>
<pdfrwt beam="1">  1        2 0.23002744E-03 0.20018247E+02</pdfrwt>
<pdfrwt beam="2">  1       -2 0.10308268E-01 0.20018247E+02</pdfrwt>
<totfact> 0.32275685E+06</totfact>
</mgrwt>
</event>
<event>
 4    1  0.4046313E-006  0.2001534E+02  0.7818608E-02  0.1745023E+00
          2   -1    0    0  501    0  0.00000000000E+00  0.00000000000E+00  0.10704640246E+02  0.10704640562E+02  0.26000000000E-02 0. -1.
         -2   -1    0    0    0  501 -0.00000000000E+00 -0.00000000000E+00 -0.93560825892E+01  0.93560829505E+01  0.26000000000E-02 0.  1.
        -11    1    1    2    0    0  0.99966778966E+01 -0.40753243455E+00  0.90686768352E+00  0.10045997258E+02  0.51100000000E-03 0. -1.
         11    1    1    2    0    0 -0.99966778966E+01  0.40753243455E+00  0.44168997327E+00  0.10014726254E+02  0.51100000000E-03 0.  1.
<mgrwt>
<rscale>  0 0.20015345E+02</rscale>
<asrwt>0</asrwt>
<pdfrwt beam="1">  1        2 0.16468678E-02 0.20015345E+02</pdfrwt>
<pdfrwt beam="2">  1       -2 0.14393974E-02 0.20015345E+02</pdfrwt>
<totfact> 0.39591769E+06</totfact>
</mgrwt>
</event>
<event>
 5    1  0.4046313E-006  0.2000076E+02  0.7818608E-02  0.1745313E+00
          2   -1    0    0  501    0  0.00000000000E+00  0.00000000000E+00  0.23155021354E+01  0.23155035951E+01  0.26000000000E-02 0. -1.
         -2   -1    0    0    0  501 -0.00000000000E+00 -0.00000000000E+00 -0.43190424482E+02  0.43190424560E+02  0.26000000000E-02 0.  1.
       1023    2    1    2    0    0  0.00000000000E+00  0.00000000000E+00 -0.40874922347E+02  0.45505928155E+02  0.20000755497E+02 0.  0.
        -11    1    3    3    0    0 -0.30010187798E+01  0.95391583965E+01 -0.20612196995E+02  0.22909917543E+02  0.51100000000E-03 0.  1.
         11    1    3    3    0    0  0.30010187798E+01 -0.95391583965E+01 -0.20262725352E+02  0.22596010612E+02  0.51100000000E-03 0. -1.
<mgrwt>
<rscale>  0 0.20000755E+02</rscale>
<asrwt>0</asrwt>
<pdfrwt beam="1">  1        2 0.35623125E-03 0.20000755E+02</pdfrwt>
<pdfrwt beam="2">  1       -2 0.66446802E-02 0.20000755E+02</pdfrwt>
<totfact> 0.34580756E+06</totfact>
</mgrwt>
</event>
<event>
 5    1  0.4046313E-006  0.2000116E+02  0.7818608E-02  0.1745305E+00
          2   -1    0    0  501    0  0.00000000000E+00  0.00000000000E+00  0.17938722523E+01  0.17938741365E+01  0.26000000000E-02 0. -1.
         -2   -1    0    0    0  501 -0.00000000000E+00 -0.00000000000E+00 -0.55751740793E+02  0.55751740854E+02  0.26000000000E-02 0.  1.
       1023    2    1    2    0    0  0.00000000000E+00  0.00000000000E+00 -0.53957868541E+02  0.57545614990E+02  0.20001155645E+02 0.  0.
        -11    1    3    3    0    0  0.53515856228E+01  0.84481787910E+01 -0.26924120724E+02  0.28721411361E+02  0.51100000000E-03 0. -1.
         11    1    3    3    0    0 -0.53515856228E+01 -0.84481787910E+01 -0.27033747817E+02  0.28824203629E+02  0.51100000000E-03 0.  1.
<mgrwt>
<rscale>  0 0.20001156E+02</rscale>
<asrwt>0</asrwt>
<pdfrwt beam="1">  1        2 0.27598054E-03 0.20001156E+02</pdfrwt>
<pdfrwt beam="2">  1       -2 0.85771897E-02 0.20001156E+02</pdfrwt>
<totfact> 0.33346146E+06</totfact>
</mgrwt>
</event>
<event>
 5    1  0.4046313E-006  0.2000847E+02  0.7818608E-02  0.1745160E+00
          2   -1    0    0  501    0  0.00000000000E+00  0.00000000000E+00  0.48140144508E+01  0.48140151529E+01  0.26000000000E-02 0. -1.
         -2   -1    0    0    0  501 -0.00000000000E+00 -0.00000000000E+00 -0.20790284211E+02  0.20790284374E+02  0.26000000000E-02 0.  1.
       1023    2    1    2    0    0  0.00000000000E+00  0.00000000000E+00 -0.15976269760E+02  0.25604299527E+02  0.20008472175E+02 0.  0.
        -11    1    3    3    0    0 -0.11056676207E+01 -0.99395971428E+01 -0.76577730291E+01  0.12596014460E+02  0.51100000000E-03 0. -1.
         11    1    3    3    0    0  0.11056676207E+01  0.99395971428E+01 -0.83184967313E+01  0.13008285067E+02  0.51100000000E-03 0.  1.
<mgrwt>
<rscale>  0 0.20008472E+02</rscale>
<asrwt>0</asrwt>
<pdfrwt beam="1">  1        2 0.74061768E-03 0.20008472E+02</pdfrwt>
<pdfrwt beam="2">  1       -2 0.31985053E-02 0.20008472E+02</pdfrwt>
<totfact> 0.37277861E+06</totfact>
</mgrwt>
</event>
<event>
 4    1  0.4046313E-006  0.3008932E+02  0.7818608E-02  0.1597103E+00
          2   -1    0    0  501    0  0.00000000000E+00  0.00000000000E+00  0.29860045101E+02  0.29860045215E+02  0.26000000000E-02 0. -1.
         -2   -1    0    0    0  501 -0.00000000000E+00 -0.00000000000E+00 -0.75800883708E+01  0.75800888167E+01  0.26000000000E-02 0.  1.
        -11    1    1    2    0    0  0.14814896523E+02  0.24530845086E+01  0.99975185460E+01  0.18040209531E+02  0.51100000000E-03 0. -1.
         11    1    1    2    0    0 -0.14814896523E+02 -0.24530845086E+01  0.12282438185E+02  0.19399924500E+02  0.51100000000E-03 0.  1.
<mgrwt>
<rscale>  0 0.30089320E+02</rscale>
<asrwt>0</asrwt>
<pdfrwt beam="1">  1        2 0.45938532E-02 0.30089320E+02</pdfrwt>
<pdfrwt beam="2">  1       -2 0.11661675E-02 0.30089320E+02</pdfrwt>
<totfact> 0.16774434E+06</totfact>
</mgrwt>
</event>
<event>
 5    1  0.4735111E-006  0.2000060E+02  0.7818608E-02  0.1745316E+00
          2   -1    0    0  501    0  0.00000000000E+00  0.00000000000E+00  0.40315503237E+02  0.40315503321E+02  0.26000000000E-02 0. -1.
         -2   -1    0    0    0  501 -0.00000000000E+00 -0.00000000000E+00 -0.24805842988E+01  0.24805856614E+01  0.26000000000E-02 0.  1.
       1023    2    1    2    0    0  0.00000000000E+00  0.00000000000E+00  0.37834918938E+02  0.42796088982E+02  0.20000603519E+02 0.  0.
        -11    1    3    3    0    0 -0.99936798357E+01 -0.35895345545E+00  0.18789955838E+02  0.21285321818E+02  0.51100000000E-03 0. -1.
         11    1    3    3    0    0  0.99936798357E+01  0.35895345545E+00  0.19044963100E+02  0.21510767164E+02  0.51100000000E-03 0.  1.
<mgrwt>
<rscale>  0 0.20000604E+02</rscale>
<asrwt>0</asrwt>
<pdfrwt beam="1">  1        2 0.62023850E-02 0.20000604E+02</pdfrwt>
<pdfrwt beam="2">  1       -2 0.38162848E-03 0.20000604E+02</pdfrwt>
<totfact> 0.44939640E+06</totfact>
</mgrwt>
</event>
<event>
 5    1  0.4046313E-006  0.2000081E+02  0.7818608E-02  0.1745312E+00
         -2   -1    0    0    0  501 -0.00000000000E+00  0.00000000000E+00  0.21145257657E+01  0.21145273641E+01  0.26000000000E-02 0. -1.
          2   -1    0    0  501    0  0.00000000000E+00 -0.00000000000E+00 -0.47295726598E+02  0.47295726669E+02  0.26000000000E-02 0.  1.
       1023    2    1    2    0    0  0.00000000000E+00  0.00000000000E+00 -0.45181200832E+02  0.49410254034E+02  0.20000807359E+02 0.  0.
        -11    1    3    3    0    0 -0.21600464361E+01 -0.97643367610E+01 -0.22588845851E+02  0.24703522626E+02  0.51100000000E-03 0. -1.
         11    1    3    3    0    0  0.21600464361E+01  0.97643367610E+01 -0.22592354982E+02  0.24706731408E+02  0.51100000000E-03 0.  1.
<mgrwt>
<rscale>  0 0.20000807E+02</rscale>
<asrwt>0</asrwt>
<pdfrwt beam="2">  1        2 0.72762650E-02 0.20000807E+02</pdfrwt>
<pdfrwt beam="1">  1       -2 0.32531182E-03 0.20000807E+02</pdfrwt>
<totfact> 0.45943773E+06</totfact>
</mgrwt>
</event>
<event>
 5    1  0.4234276E-006  0.2000166E+02  0.7818608E-02  0.1745295E+00
          2   -1    0    0  501    0  0.00000000000E+00  0.00000000000E+00  0.70788101963E+02  0.70788102010E+02  0.26000000000E-02 0.  1.
         -2   -1    0    0    0  501 -0.00000000000E+00 -0.00000000000E+00 -0.14128993882E+01  0.14129017805E+01  0.26000000000E-02 0. -1.
       1023    2    1    2    0    0  0.00000000000E+00  0.00000000000E+00  0.69375202574E+02  0.72201003791E+02  0.20001655336E+02 0.  0.
        -11    1    3    3    0    0 -0.86552319180E+01 -0.50090138644E+01  0.35103809420E+02  0.36500420484E+02  0.51100000000E-03 0.  1.
         11    1    3    3    0    0  0.86552319180E+01  0.50090138644E+01  0.34271393155E+02  0.35700583307E+02  0.51100000000E-03 0. -1.
<mgrwt>
<rscale>  0 0.20001655E+02</rscale>
<asrwt>0</asrwt>
<pdfrwt beam="1">  1        2 0.10890477E-01 0.20001655E+02</pdfrwt>
<pdfrwt beam="2">  1       -2 0.21736933E-03 0.20001655E+02</pdfrwt>
<totfact> 0.49113159E+06</totfact>
</mgrwt>
</event>
<event>
 5    1  0.4046313E-006  0.2000182E+02  0.7818608E-02  0.1745292E+00
         -2   -1    0    0    0  501 -0.00000000000E+00  0.00000000000E+00  0.63511084330E+02  0.63511084383E+02  0.26000000000E-02 0.  1.
          2   -1    0    0  501    0  0.00000000000E+00 -0.00000000000E+00 -0.15748130635E+01  0.15748152098E+01  0.26000000000E-02 0. -1.
       1023    2    1    2    0    0  0.00000000000E+00  0.00000000000E+00  0.61936271267E+02  0.65085899593E+02  0.20001815603E+02 0.  0.
        -11    1    3    3    0    0 -0.59035356354E+01  0.80714848461E+01  0.30536984038E+02  0.32132662433E+02  0.51100000000E-03 0. -1.
         11    1    3    3    0    0  0.59035356354E+01 -0.80714848461E+01  0.31399287229E+02  0.32953237160E+02  0.51100000000E-03 0.  1.
<mgrwt>
<rscale>  0 0.20001816E+02</rscale>
<asrwt>0</asrwt>
<pdfrwt beam="2">  1        2 0.24227911E-03 0.20001816E+02</pdfrwt>
<pdfrwt beam="1">  1       -2 0.97709358E-02 0.20001816E+02</pdfrwt>
<totfact> 0.32639139E+06</totfact>
</mgrwt>
</event>
<event>
 4    1  0.4046313E-006  0.2082244E+02  0.7818608E-02  0.1729451E+00
         -2   -1    0    0    0  501 -0.00000000000E+00  0.00000000000E+00  0.87490823301E+02  0.87490823340E+02  0.26000000000E-02 0. -1.
          2   -1    0    0  501    0  0.00000000000E+00 -0.00000000000E+00 -0.12389119625E+01  0.12389146907E+01  0.26000000000E-02 0.  1.
        -11    1    1    2    0    0  0.97319645779E+01  0.35377317314E+01  0.47729037243E+02  0.48839407007E+02  0.51100000000E-03 0. -1.
         11    1    1    2    0    0 -0.97319645779E+01 -0.35377317314E+01  0.38522874095E+02  0.39890331024E+02  0.51100000000E-03 0.  1.
<mgrwt>
<rscale>  0 0.20822445E+02</rscale>
<asrwt>0</asrwt>
<pdfrwt beam="2">  1        2 0.19060198E-03 0.20822445E+02</pdfrwt>
<pdfrwt beam="1">  1       -2 0.13460132E-01 0.20822445E+02</pdfrwt>
<totfact> 0.28076873E+06</totfact>
</mgrwt>
</event>
<event>
 5    1  0.4046313E-006  0.2000064E+02  0.7818608E-02  0.1745315E+00
          2   -1    0    0  501    0  0.00000000000E+00  0.00000000000E+00  0.12986782816E+02  0.12986783076E+02  0.26000000000E-02 0. -1.
         -2   -1    0    0    0  501 -0.00000000000E+00 -0.00000000000E+00 -0.77006293819E+01  0.77006298208E+01  0.26000000000E-02 0.  1.
       1023    2    1    2    0    0  0.00000000000E+00  0.00000000000E+00  0.52861534338E+01  0.20687412897E+02  0.20000640846E+02 0.  0.
        -11    1    3    3    0    0 -0.62899417294E+01  0.77743543530E+01  0.25918197573E+01  0.10330609008E+02  0.51100000000E-03 0.  1.
         11    1    3    3    0    0  0.62899417294E+01 -0.77743543530E+01  0.26943336765E+01  0.10356803889E+02  0.51100000000E-03 0. -1.
<mgrwt>
<rscale>  0 0.20000641E+02</rscale>
<asrwt>0</asrwt>
<pdfrwt beam="1">  1        2 0.19979666E-02 0.20000641E+02</pdfrwt>
<pdfrwt beam="2">  1       -2 0.11847123E-02 0.20000641E+02</pdfrwt>
<totfact> 0.40235029E+06</totfact>
</mgrwt>
</event>
<event>
 5    1  0.4046313E-006  0.2000203E+02  0.7818608E-02  0.1745288E+00
         -2   -1    0    0    0  501 -0.00000000000E+00  0.00000000000E+00  0.87899156070E+01  0.87899159916E+01  0.26000000000E-02 0. -1.
          2   -1    0    0  501    0  0.00000000000E+00 -0.00000000000E+00 -0.11378984853E+02  0.11378985150E+02  0.26000000000E-02 0.  1.
       1023    2    1    2    0    0  0.00000000000E+00  0.00000000000E+00 -0.25890692461E+01  0.20168901142E+02  0.20002032239E+02 0.  0.
        -11    1    3    3    0    0  0.56297420902E+01  0.82654106578E+01 -0.11972213599E+01  0.10071958528E+02  0.51100000000E-03 0. -1.
         11    1    3    3    0    0 -0.56297420902E+01 -0.82654106578E+01 -0.13918478862E+01  0.10096942614E+02  0.51100000000E-03 0.  1.
<mgrwt>
<rscale>  0 0.20002032E+02</rscale>
<asrwt>0</asrwt>
<pdfrwt beam="2">  1        2 0.17506131E-02 0.20002032E+02</pdfrwt>
<pdfrwt beam="1">  1       -2 0.13522948E-02 0.20002032E+02</pdfrwt>
<totfact> 0.39831421E+06</totfact>
</mgrwt>
</event>
<event>
 4    1  0.4046313E-006  0.2001327E+02  0.7818608E-02  0.1745064E+00
          2   -1    0    0  501    0  0.00000000000E+00  0.00000000000E+00  0.14720167664E+02  0.14720167894E+02  0.26000000000E-02 0. -1.
         -2   -1    0    0    0  501 -0.00000000000E+00 -0.00000000000E+00 -0.68024151166E+01  0.68024156135E+01  0.26000000000E-02 0.  1.
        -11    1    1    2    0    0  0.54451781580E+01  0.83953499785E+01  0.39898990557E+01  0.10772704450E+02  0.51100000000E-03 0. -1.
         11    1    1    2    0    0 -0.54451781580E+01 -0.83953499785E+01  0.39278534921E+01  0.10749879057E+02  0.51100000000E-03 0.  1.
<mgrwt>
<rscale>  0 0.20013265E+02</rscale>
<asrwt>0</asrwt>
<pdfrwt beam="1">  1        2 0.22646412E-02 0.20013265E+02</pdfrwt>
<pdfrwt beam="2">  1       -2 0.10465255E-02 0.20013265E+02</pdfrwt>
<totfact> 0.40568221E+06</totfact>
</mgrwt>
</event>
<event>
 5    1  0.4046313E-006  0.2000189E+02  0.7818608E-02  0.1745290E+00
         -2   -1    0    0    0  501 -0.00000000000E+00  0.00000000000E+00  0.54671015031E+01  0.54671021213E+01  0.26000000000E-02 0.  1.
          2   -1    0    0  501    0  0.00000000000E+00 -0.00000000000E+00 -0.18294687443E+02  0.18294687628E+02  0.26000000000E-02 0. -1.
       1023    2    1    2    0    0  0.00000000000E+00  0.00000000000E+00 -0.12827585940E+02  0.23761789749E+02  0.20001892187E+02 0.  0.
        -11    1    3    3    0    0  0.66358166083E+01  0.74814793825E+01 -0.65456888738E+01  0.11952097678E+02  0.51100000000E-03 0. -1.
         11    1    3    3    0    0 -0.66358166083E+01 -0.74814793825E+01 -0.62818970666E+01  0.11809692072E+02  0.51100000000E-03 0.  1.
<mgrwt>
<rscale>  0 0.20001892E+02</rscale>
<asrwt>0</asrwt>
<pdfrwt beam="2">  1        2 0.28145673E-02 0.20001892E+02</pdfrwt>
<pdfrwt beam="1">  1       -2 0.84109261E-03 0.20001892E+02</pdfrwt>
<totfact> 0.41348207E+06</totfact>
</mgrwt>
</event>
<event>
 5    1  0.4046313E-006  0.2000045E+02  0.7818608E-02  0.1745319E+00
         -2   -1    0    0    0  501 -0.00000000000E+00  0.00000000000E+00  0.60335873580E+02  0.60335873636E+02  0.26000000000E-02 0. -1.
          2   -1    0    0  501    0  0.00000000000E+00 -0.00000000000E+00 -0.16574628838E+01  0.16574649231E+01  0.26000000000E-02 0.  1.
       1023    2    1    2    0    0  0.00000000000E+00  0.00000000000E+00  0.58678410696E+02  0.61993338559E+02  0.20000453592E+02 0.  0.
        -11    1    3    3    0    0  0.98852785193E+01  0.15112033764E+01  0.29198227870E+02  0.30863230195E+02  0.51100000000E-03 0. -1.
         11    1    3    3    0    0 -0.98852785193E+01 -0.15112033764E+01  0.29480182826E+02  0.31130108364E+02  0.51100000000E-03 0.  1.
<mgrwt>
<rscale>  0 0.20000454E+02</rscale>
<asrwt>0</asrwt>
<pdfrwt beam="2">  1        2 0.25499447E-03 0.20000454E+02</pdfrwt>
<pdfrwt beam="1">  1       -2 0.92824414E-02 0.20000454E+02</pdfrwt>
<totfact> 0.32927947E+06</totfact>
</mgrwt>
</event>
<event>
 5    1  0.4046313E-006  0.2000049E+02  0.7818608E-02  0.1745318E+00
          2   -1    0    0  501    0  0.00000000000E+00  0.00000000000E+00  0.43213275856E+02  0.43213275934E+02  0.26000000000E-02 0. -1.
         -2   -1    0    0    0  501 -0.00000000000E+00 -0.00000000000E+00 -0.23142170324E+01  0.23142184929E+01  0.26000000000E-02 0.  1.
       1023    2    1    2    0    0  0.00000000000E+00  0.00000000000E+00  0.40899058824E+02  0.45527494427E+02  0.20000493398E+02 0.  0.
        -11    1    3    3    0    0  0.72596412946E+01 -0.68776836028E+01  0.20442219460E+02  0.22757180410E+02  0.51100000000E-03 0.  1.
         11    1    3    3    0    0 -0.72596412946E+01  0.68776836028E+01  0.20456839363E+02  0.22770314018E+02  0.51100000000E-03 0. -1.
<mgrwt>
<rscale>  0 0.20000493E+02</rscale>
<asrwt>0</asrwt>
<pdfrwt beam="1">  1        2 0.66481961E-02 0.20000493E+02</pdfrwt>
<pdfrwt beam="2">  1       -2 0.35603353E-03 0.20000493E+02</pdfrwt>
<totfact> 0.45362010E+06</totfact>
</mgrwt>
</event>
<event>
 5    1  0.4046313E-006  0.2000009E+02  0.7818608E-02  0.1745326E+00
          2   -1    0    0  501    0  0.00000000000E+00  0.00000000000E+00  0.10628205130E+03  0.10628205133E+03  0.26000000000E-02 0. -1.
         -2   -1    0    0    0  501 -0.00000000000E+00 -0.00000000000E+00 -0.94089957971E+00  0.94090317201E+00  0.26000000000E-02 0.  1.
       1023    2    1    2    0    0  0.00000000000E+00  0.00000000000E+00  0.10534115172E+03  0.10722295450E+03  0.20000093169E+02 0.  0.
        -11    1    3    3    0    0 -0.99755690879E+01  0.69914854228E+00  0.52734935043E+02  0.53674706907E+02  0.51100000000E-03 0.  1.
         11    1    3    3    0    0  0.99755690879E+01 -0.69914854228E+00  0.52606216672E+02  0.53548247592E+02  0.51100000000E-03 0. -1.
<mgrwt>
<rscale>  0 0.20000093E+02</rscale>
<asrwt>0</asrwt>
<pdfrwt beam="1">  1        2 0.16351092E-01 0.20000093E+02</pdfrwt>
<pdfrwt beam="2">  1       -2 0.14475400E-03 0.20000093E+02</pdfrwt>
<totfact> 0.53503338E+06</totfact>
</mgrwt>
</event>
<event>
 5    1  0.4046313E-006  0.2000007E+02  0.7818608E-02  0.1745327E+00
          2   -1    0    0  501    0  0.00000000000E+00  0.00000000000E+00  0.10697437819E+02  0.10697438135E+02  0.26000000000E-02 0.  1.
         -2   -1    0    0    0  501 -0.00000000000E+00 -0.00000000000E+00 -0.93480987257E+01  0.93480990873E+01  0.26000000000E-02 0. -1.
       1023    2    1    2    0    0  0.00000000000E+00  0.00000000000E+00  0.13493390937E+01  0.20045537223E+02  0.20000071164E+02 0.  0.
        -11    1    3    3    0    0 -0.80166761928E+01 -0.59777584342E+01  0.67038211658E+00  0.10022480009E+02  0.51100000000E-03 0.  1.
         11    1    3    3    0    0  0.80166761928E+01  0.59777584342E+01  0.67895697708E+00  0.10023057214E+02  0.51100000000E-03 0. -1.
<mgrwt>
<rscale>  0 0.20000071E+02</rscale>
<asrwt>0</asrwt>
<pdfrwt beam="1">  1        2 0.16457597E-02 0.20000071E+02</pdfrwt>
<pdfrwt beam="2">  1       -2 0.14381691E-02 0.20000071E+02</pdfrwt>
<totfact> 0.39658789E+06</totfact>
</mgrwt>
</event>
<event>
 5    1  0.4046313E-006  0.2000051E+02  0.7818608E-02  0.1745318E+00
          2   -1    0    0  501    0  0.00000000000E+00  0.00000000000E+00  0.25710953093E+01  0.25710966239E+01  0.26000000000E-02 0. -1.
         -2   -1    0    0    0  501 -0.00000000000E+00 -0.00000000000E+00 -0.38895909494E+02  0.38895909581E+02  0.26000000000E-02 0.  1.
       1023    2    1    2    0    0  0.00000000000E+00  0.00000000000E+00 -0.36324814185E+02  0.41467006205E+02  0.20000511944E+02 0.  0.
        -11    1    3    3    0    0  0.29515924201E+01  0.95547107857E+01 -0.18106649854E+02  0.20684660142E+02  0.51100000000E-03 0. -1.
         11    1    3    3    0    0 -0.29515924201E+01 -0.95547107857E+01 -0.18218164331E+02  0.20782346063E+02  0.51100000000E-03 0.  1.
<mgrwt>
<rscale>  0 0.20000512E+02</rscale>
<asrwt>0</asrwt>
<pdfrwt beam="1">  1        2 0.39555326E-03 0.20000512E+02</pdfrwt>
<pdfrwt beam="2">  1       -2 0.59839857E-02 0.20000512E+02</pdfrwt>
<totfact> 0.35037726E+06</totfact>
</mgrwt>
</event>
<event>
 5    1  0.4046313E-006  0.2000062E+02  0.7818608E-02  0.1745316E+00
         -2   -1    0    0    0  501 -0.00000000000E+00  0.00000000000E+00  0.64889323910E+01  0.64889329119E+01  0.26000000000E-02 0.  1.
          2   -1    0    0  501    0  0.00000000000E+00 -0.00000000000E+00 -0.15411808165E+02  0.15411808385E+02  0.26000000000E-02 0. -1.
       1023    2    1    2    0    0  0.00000000000E+00  0.00000000000E+00 -0.89228757744E+01  0.21900741297E+02  0.20000618922E+02 0.  0.
        -11    1    3    3    0    0 -0.73429361855E+01  0.67887563605E+01 -0.44792399442E+01  0.10957623624E+02  0.51100000000E-03 0. -1.
         11    1    3    3    0    0  0.73429361855E+01 -0.67887563605E+01 -0.44436358302E+01  0.10943117673E+02  0.51100000000E-03 0.  1.
<mgrwt>
<rscale>  0 0.20000619E+02</rscale>
<asrwt>0</asrwt>
<pdfrwt beam="2">  1        2 0.23710475E-02 0.20000619E+02</pdfrwt>
<pdfrwt beam="1">  1       -2 0.99829735E-03 0.20000619E+02</pdfrwt>
<totfact> 0.40774355E+06</totfact>
</mgrwt>
</event>
<event>
 5    1  0.4046313E-006  0.2000055E+02  0.7818608E-02  0.1745317E+00
          2   -1    0    0  501    0  0.00000000000E+00  0.00000000000E+00  0.26011663883E+01  0.26011676878E+01  0.26000000000E-02 0.  1.
         -2   -1    0    0    0  501 -0.00000000000E+00 -0.00000000000E+00 -0.38446392543E+02  0.38446392631E+02  0.26000000000E-02 0. -1.
       1023    2    1    2    0    0  0.00000000000E+00  0.00000000000E+00 -0.35845226155E+02  0.41047560319E+02  0.20000549243E+02 0.  0.
        -11    1    3    3    0    0 -0.97356063577E+01  0.22854601851E+01 -0.17946267139E+02  0.20544436324E+02  0.51100000000E-03 0.  1.
         11    1    3    3    0    0  0.97356063577E+01 -0.22854601851E+01 -0.17898959016E+02  0.20503123994E+02  0.51100000000E-03 0. -1.
<mgrwt>
<rscale>  0 0.20000549E+02</rscale>
<asrwt>0</asrwt>
<pdfrwt beam="1">  1        2 0.40017958E-03 0.20000549E+02</pdfrwt>
<pdfrwt beam="2">  1       -2 0.59148293E-02 0.20000549E+02</pdfrwt>
<totfact> 0.35086522E+06</totfact>
</mgrwt>
</event>
<event>
 5    1  0.4046313E-006  0.2000061E+02  0.7818608E-02  0.1745316E+00
          2   -1    0    0  501    0  0.00000000000E+00  0.00000000000E+00  0.90605580822E+01  0.90605584553E+01  0.26000000000E-02 0. -1.
         -2   -1    0    0    0  501 -0.00000000000E+00 -0.00000000000E+00 -0.11037515291E+02  0.11037515598E+02  0.26000000000E-02 0.  1.
       1023    2    1    2    0    0  0.00000000000E+00  0.00000000000E+00 -0.19769572092E+01  0.20098074053E+02  0.20000605512E+02 0.  0.
        -11    1    3    3    0    0  0.89359387250E+01 -0.44892383314E+01 -0.94592543102E+00  0.10044851262E+02  0.51100000000E-03 0. -1.
         11    1    3    3    0    0 -0.89359387250E+01  0.44892383314E+01 -0.10310317782E+01  0.10053222791E+02  0.51100000000E-03 0.  1.
<mgrwt>
<rscale>  0 0.20000606E+02</rscale>
<asrwt>0</asrwt>
<pdfrwt beam="1">  1        2 0.13939321E-02 0.20000606E+02</pdfrwt>
<pdfrwt beam="2">  1       -2 0.16980793E-02 0.20000606E+02</pdfrwt>
<totfact> 0.39176649E+06</totfact>
</mgrwt>
</event>
<event>
 5    1  0.4046313E-006  0.2000053E+02  0.7818608E-02  0.1745317E+00
         -2   -1    0    0    0  501 -0.00000000000E+00  0.00000000000E+00  0.93065864080E+01  0.93065867712E+01  0.26000000000E-02 0.  1.
          2   -1    0    0  501    0  0.00000000000E+00 -0.00000000000E+00 -0.10745651928E+02  0.10745652242E+02  0.26000000000E-02 0. -1.
       1023    2    1    2    0    0  0.00000000000E+00  0.00000000000E+00 -0.14390655197E+01  0.20052239013E+02  0.20000534490E+02 0.  0.
        -11    1    3    3    0    0  0.47361105605E+01 -0.88073672784E+01 -0.64947299164E+00  0.10021091609E+02  0.51100000000E-03 0. -1.
         11    1    3    3    0    0 -0.47361105605E+01  0.88073672784E+01 -0.78959252807E+00  0.10031147404E+02  0.51100000000E-03 0.  1.
<mgrwt>
<rscale>  0 0.20000534E+02</rscale>
<asrwt>0</asrwt>
<pdfrwt beam="2">  1        2 0.16531773E-02 0.20000534E+02</pdfrwt>
<pdfrwt beam="1">  1       -2 0.14317826E-02 0.20000534E+02</pdfrwt>
<totfact> 0.39669840E+06</totfact>
</mgrwt>
</event>
<event>
 5    1  0.4046313E-006  0.2000040E+02  0.7818608E-02  0.1745320E+00
         -2   -1    0    0    0  501 -0.00000000000E+00  0.00000000000E+00  0.69244778868E+02  0.69244778917E+02  0.26000000000E-02 0.  1.
          2   -1    0    0  501    0  0.00000000000E+00 -0.00000000000E+00 -0.14442080602E+01  0.14442104006E+01  0.26000000000E-02 0. -1.
       1023    2    1    2    0    0  0.00000000000E+00  0.00000000000E+00  0.67800570808E+02  0.70688989317E+02  0.20000395218E+02 0.  0.
        -11    1    3    3    0    0  0.50322615453E+01 -0.86416447162E+01  0.33731806606E+02  0.35182900063E+02  0.51100000000E-03 0.  1.
         11    1    3    3    0    0 -0.50322615453E+01  0.86416447162E+01  0.34068764201E+02  0.35506089254E+02  0.51100000000E-03 0. -1.
<mgrwt>
<rscale>  0 0.20000395E+02</rscale>
<asrwt>0</asrwt>
<pdfrwt beam="2">  1        2 0.22218596E-03 0.20000395E+02</pdfrwt>
<pdfrwt beam="1">  1       -2 0.10653047E-01 0.20000395E+02</pdfrwt>
<totfact> 0.32146124E+06</totfact>
</mgrwt>
</event>
<event>
 5    1  0.4046313E-006  0.2000051E+02  0.7818608E-02  0.1745318E+00
          2   -1    0    0  501    0  0.00000000000E+00  0.00000000000E+00  0.92823360414E+01  0.92823364055E+01  0.26000000000E-02 0. -1.
         -2   -1    0    0    0  501 -0.00000000000E+00 -0.00000000000E+00 -0.10773695646E+02  0.10773695960E+02  0.26000000000E-02 0.  1.
       1023    2    1    2    0    0  0.00000000000E+00  0.00000000000E+00 -0.14913596047E+01  0.20056032365E+02  0.20000507013E+02 0.  0.
        -11    1    3    3    0    0  0.97181589766E+01 -0.23584022822E+01 -0.76560227363E+00  0.10029497611E+02  0.51100000000E-03 0. -1.
         11    1    3    3    0    0 -0.97181589766E+01  0.23584022822E+01 -0.72575733108E+00  0.10026534755E+02  0.51100000000E-03 0.  1.
<mgrwt>
<rscale>  0 0.20000507E+02</rscale>
<asrwt>0</asrwt>
<pdfrwt beam="1">  1        2 0.14280518E-02 0.20000507E+02</pdfrwt>
<pdfrwt beam="2">  1       -2 0.16574917E-02 0.20000507E+02</pdfrwt>
<totfact> 0.39246422E+06</totfact>
</mgrwt>
</event>
<event>
 5    1  0.4046313E-006  0.2000223E+02  0.7818608E-02  0.1745284E+00
          2   -1    0    0  501    0  0.00000000000E+00  0.00000000000E+00  0.14973336815E+02  0.14973337041E+02  0.26000000000E-02 0. -1.
         -2   -1    0    0    0  501 -0.00000000000E+00 -0.00000000000E+00 -0.66800302462E+01  0.66800307522E+01  0.26000000000E-02 0.  1.
       1023    2    1    2    0    0  0.00000000000E+00  0.00000000000E+00  0.82933065691E+01  0.21653367793E+02  0.20002234949E+02 0.  0.
        -11    1    3    3    0    0  0.96623896507E+01 -0.25806923977E+01  0.41732465256E+01  0.10836869190E+02  0.51100000000E-03 0.  1.
         11    1    3    3    0    0 -0.96623896507E+01  0.25806923977E+01  0.41200600435E+01  0.10816498603E+02  0.51100000000E-03 0. -1.
<mgrwt>
<rscale>  0 0.20002235E+02</rscale>
<asrwt>0</asrwt>
<pdfrwt beam="1">  1        2 0.23035903E-02 0.20002235E+02</pdfrwt>
<pdfrwt beam="2">  1       -2 0.10276970E-02 0.20002235E+02</pdfrwt>
<totfact> 0.40673562E+06</totfact>
</mgrwt>
</event>
<event>
 5    1  0.4046313E-006  0.2000335E+02  0.7818608E-02  0.1745262E+00
          2   -1    0    0  501    0  0.00000000000E+00  0.00000000000E+00  0.38719560809E+02  0.38719560897E+02  0.26000000000E-02 0.  1.
         -2   -1    0    0    0  501 -0.00000000000E+00 -0.00000000000E+00 -0.25835374046E+01  0.25835387129E+01  0.26000000000E-02 0. -1.
       1023    2    1    2    0    0  0.00000000000E+00  0.00000000000E+00  0.36136023405E+02  0.41303099609E+02  0.20003345966E+02 0.  0.
        -11    1    3    3    0    0 -0.71721922044E+01  0.69692316674E+01  0.17755336873E+02  0.20377991039E+02  0.51100000000E-03 0.  1.
         11    1    3    3    0    0  0.71721922044E+01 -0.69692316674E+01  0.18380686532E+02  0.20925108570E+02  0.51100000000E-03 0. -1.
<mgrwt>
<rscale>  0 0.20003346E+02</rscale>
<asrwt>0</asrwt>
<pdfrwt beam="1">  1        2 0.59568561E-02 0.20003346E+02</pdfrwt>
<pdfrwt beam="2">  1       -2 0.39746737E-03 0.20003346E+02</pdfrwt>
<totfact> 0.44690581E+06</totfact>
</mgrwt>
</event>
<event>
 5    1  0.4046313E-006  0.2000018E+02  0.7818608E-02  0.1745324E+00
          2   -1    0    0  501    0  0.00000000000E+00  0.00000000000E+00  0.10772575531E+03  0.10772575534E+03  0.26000000000E-02 0. -1.
         -2   -1    0    0    0  501 -0.00000000000E+00 -0.00000000000E+00 -0.92829815704E+00  0.92830179810E+00  0.26000000000E-02 0.  1.
       1023    2    1    2    0    0  0.00000000000E+00  0.00000000000E+00  0.10679745715E+03  0.10865405714E+03  0.20000181962E+02 0.  0.
        -11    1    3    3    0    0  0.60174891520E+01 -0.79869516676E+01  0.53484063614E+02  0.54410905465E+02  0.51100000000E-03 0. -1.
         11    1    3    3    0    0 -0.60174891520E+01  0.79869516676E+01  0.53313393537E+02  0.54243151673E+02  0.51100000000E-03 0.  1.
<mgrwt>
<rscale>  0 0.20000182E+02</rscale>
<asrwt>0</asrwt>
<pdfrwt beam="1">  1        2 0.16573181E-01 0.20000182E+02</pdfrwt>
<pdfrwt beam="2">  1       -2 0.14281549E-03 0.20000182E+02</pdfrwt>
<totfact> 0.53672452E+06</totfact>
</mgrwt>
</event>
<event>
 5    1  0.4046313E-006  0.2000161E+02  0.7818608E-02  0.1745296E+00
          2   -1    0    0  501    0  0.00000000000E+00  0.00000000000E+00  0.14649298408E+02  0.14649298638E+02  0.26000000000E-02 0.  1.
         -2   -1    0    0    0  501 -0.00000000000E+00 -0.00000000000E+00 -0.68273673559E+01  0.68273678509E+01  0.26000000000E-02 0. -1.
       1023    2    1    2    0    0  0.00000000000E+00  0.00000000000E+00  0.78219310517E+01  0.21476666489E+02  0.20001614888E+02 0.  0.
        -11    1    3    3    0    0 -0.57497134723E+01 -0.81827154420E+01  0.39223415860E+01  0.10742476474E+02  0.51100000000E-03 0. -1.
         11    1    3    3    0    0  0.57497134723E+01  0.81827154420E+01  0.38995894657E+01  0.10734190015E+02  0.51100000000E-03 0.  1.
<mgrwt>
<rscale>  0 0.20001615E+02</rscale>
<asrwt>0</asrwt>
<pdfrwt beam="1">  1        2 0.22537382E-02 0.20001615E+02</pdfrwt>
<pdfrwt beam="2">  1       -2 0.10503643E-02 0.20001615E+02</pdfrwt>
<totfact> 0.40606377E+06</totfact>
</mgrwt>
</event>
<event>
 5    1  0.4046313E-006  0.2000118E+02  0.7818608E-02  0.1745305E+00
         -2   -1    0    0    0  501 -0.00000000000E+00  0.00000000000E+00  0.13271936277E+01  0.13271961744E+01  0.26000000000E-02 0.  1.
          2   -1    0    0  501    0  0.00000000000E+00 -0.00000000000E+00 -0.75355737911E+02  0.75355737955E+02  0.26000000000E-02 0. -1.
       1023    2    1    2    0    0  0.00000000000E+00  0.00000000000E+00 -0.74028544283E+02  0.76682934130E+02  0.20001175419E+02 0.  0.
        -11    1    3    3    0    0  0.42905624259E+01 -0.90333810845E+01 -0.36902198170E+02  0.38233272549E+02  0.51100000000E-03 0. -1.
         11    1    3    3    0    0 -0.42905624259E+01  0.90333810845E+01 -0.37126346113E+02  0.38449661581E+02  0.51100000000E-03 0.  1.
<mgrwt>
<rscale>  0 0.20001175E+02</rscale>
<asrwt>0</asrwt>
<pdfrwt beam="2">  1        2 0.11593187E-01 0.20001175E+02</pdfrwt>
<pdfrwt beam="1">  1       -2 0.20418389E-03 0.20001175E+02</pdfrwt>
<totfact> 0.49703598E+06</totfact>
</mgrwt>
</event>
<event>
 5    1  0.4046313E-006  0.2000005E+02  0.7818608E-02  0.1745327E+00
         -2   -1    0    0    0  501 -0.00000000000E+00  0.00000000000E+00  0.10833861655E+01  0.10833892854E+01  0.26000000000E-02 0. -1.
          2   -1    0    0  501    0  0.00000000000E+00 -0.00000000000E+00 -0.92303504861E+02  0.92303504898E+02  0.26000000000E-02 0.  1.
       1023    2    1    2    0    0  0.00000000000E+00  0.00000000000E+00 -0.91220118695E+02  0.93386894183E+02  0.20000048758E+02 0.  0.
        -11    1    3    3    0    0  0.45972701745E+00  0.99894446966E+01 -0.45556200927E+02  0.46640838301E+02  0.51100000000E-03 0. -1.
         11    1    3    3    0    0 -0.45972701745E+00 -0.99894446966E+01 -0.45663917768E+02  0.46746055882E+02  0.51100000000E-03 0.  1.
<mgrwt>
<rscale>  0 0.20000049E+02</rscale>
<asrwt>0</asrwt>
<pdfrwt beam="2">  1        2 0.14200533E-01 0.20000049E+02</pdfrwt>
<pdfrwt beam="1">  1       -2 0.16667511E-03 0.20000049E+02</pdfrwt>
<totfact> 0.51826745E+06</totfact>
</mgrwt>
</event>
<event>
 5    1  0.4046313E-006  0.2000065E+02  0.7818608E-02  0.1745315E+00
         -2   -1    0    0    0  501 -0.00000000000E+00  0.00000000000E+00  0.45323563515E+02  0.45323563589E+02  0.26000000000E-02 0. -1.
          2   -1    0    0  501    0  0.00000000000E+00 -0.00000000000E+00 -0.22065005724E+01  0.22065021043E+01  0.26000000000E-02 0.  1.
       1023    2    1    2    0    0  0.00000000000E+00  0.00000000000E+00  0.43117062942E+02  0.47530065694E+02  0.20000650691E+02 0.  0.
        -11    1    3    3    0    0 -0.10098609934E+01  0.99491998652E+01  0.21583407025E+02  0.23787598791E+02  0.51100000000E-03 0. -1.
         11    1    3    3    0    0  0.10098609934E+01 -0.99491998652E+01  0.21533655917E+02  0.23742466902E+02  0.51100000000E-03 0.  1.
<mgrwt>
<rscale>  0 0.20000651E+02</rscale>
<asrwt>0</asrwt>
<pdfrwt beam="2">  1        2 0.33946177E-03 0.20000651E+02</pdfrwt>
<pdfrwt beam="1">  1       -2 0.69728556E-02 0.20000651E+02</pdfrwt>
<totfact> 0.34361933E+06</totfact>
</mgrwt>
</event>
<event>
 5    1  0.4113440E-006  0.2000186E+02  0.7818608E-02  0.1745291E+00
         -2   -1    0    0    0  501 -0.00000000000E+00  0.00000000000E+00  0.15281089075E+01  0.15281111194E+01  0.26000000000E-02 0.  1.
          2   -1    0    0  501    0  0.00000000000E+00 -0.00000000000E+00 -0.65452480340E+02  0.65452480392E+02  0.26000000000E-02 0. -1.
       1023    2    1    2    0    0  0.00000000000E+00  0.00000000000E+00 -0.63924371432E+02  0.66980591511E+02  0.20001859317E+02 0.  0.
        -11    1    3    3    0    0  0.82458272552E+01 -0.56576987822E+01 -0.32377361130E+02  0.33886527362E+02  0.51100000000E-03 0. -1.
         11    1    3    3    0    0 -0.82458272552E+01  0.56576987822E+01 -0.31547010302E+02  0.33094064149E+02  0.51100000000E-03 0.  1.
<mgrwt>
<rscale>  0 0.20001859E+02</rscale>
<asrwt>0</asrwt>
<pdfrwt beam="2">  1        2 0.10069610E-01 0.20001859E+02</pdfrwt>
<pdfrwt beam="1">  1       -2 0.23509390E-03 0.20001859E+02</pdfrwt>
<totfact> 0.48414126E+06</totfact>
</mgrwt>
</event>
<event>
 5    1  0.4046313E-006  0.2000105E+02  0.7818608E-02  0.1745307E+00
          2   -1    0    0  501    0  0.00000000000E+00  0.00000000000E+00  0.11400815020E+03  0.11400815023E+03  0.26000000000E-02 0. -1.
         -2   -1    0    0    0  501 -0.00000000000E+00 -0.00000000000E+00 -0.87722027465E+00  0.87722412772E+00  0.26000000000E-02 0.  1.
       1023    2    1    2    0    0  0.00000000000E+00  0.00000000000E+00  0.11313092993E+03  0.11488537436E+03  0.20001048359E+02 0.  0.
        -11    1    3    3    0    0  0.99666494882E+01  0.81790665984E+00  0.57059922778E+02  0.57929594000E+02  0.51100000000E-03 0.  1.
         11    1    3    3    0    0 -0.99666494882E+01 -0.81790665984E+00  0.56071007147E+02  0.56955780357E+02  0.51100000000E-03 0. -1.
<mgrwt>
<rscale>  0 0.20001048E+02</rscale>
<asrwt>0</asrwt>
<pdfrwt beam="1">  1        2 0.17539729E-01 0.20001048E+02</pdfrwt>
<pdfrwt beam="2">  1       -2 0.13495716E-03 0.20001048E+02</pdfrwt>
<totfact> 0.54398614E+06</totfact>
</mgrwt>
</event>
<event>
 5    1  0.4046313E-006  0.2000019E+02  0.7818608E-02  0.1745324E+00
          2   -1    0    0  501    0  0.00000000000E+00  0.00000000000E+00  0.61265284493E+02  0.61265284548E+02  0.26000000000E-02 0. -1.
         -2   -1    0    0    0  501 -0.00000000000E+00 -0.00000000000E+00 -0.16322763984E+01  0.16322784691E+01  0.26000000000E-02 0.  1.
       1023    2    1    2    0    0  0.00000000000E+00  0.00000000000E+00  0.59633008094E+02  0.62897563017E+02  0.20000194476E+02 0.  0.
        -11    1    3    3    0    0 -0.95875080742E+01  0.28426478960E+01  0.29717734816E+02  0.31355138670E+02  0.51100000000E-03 0.  1.
         11    1    3    3    0    0  0.95875080742E+01 -0.28426478960E+01  0.29915273278E+02  0.31542424347E+02  0.51100000000E-03 0. -1.
<mgrwt>
<rscale>  0 0.20000194E+02</rscale>
<asrwt>0</asrwt>
<pdfrwt beam="1">  1        2 0.94254259E-02 0.20000194E+02</pdfrwt>
<pdfrwt beam="2">  1       -2 0.25111968E-03 0.20000194E+02</pdfrwt>
<totfact> 0.47866491E+06</totfact>
</mgrwt>
</event>
<event>
 5    1  0.4046313E-006  0.2000197E+02  0.7818608E-02  0.1745289E+00
         -2   -1    0    0    0  501 -0.00000000000E+00  0.00000000000E+00  0.21325997920E+02  0.21325998078E+02  0.26000000000E-02 0.  1.
          2   -1    0    0  501    0  0.00000000000E+00 -0.00000000000E+00 -0.46900337896E+01  0.46900345103E+01  0.26000000000E-02 0. -1.
       1023    2    1    2    0    0  0.00000000000E+00  0.00000000000E+00  0.16635964130E+02  0.26016032588E+02  0.20001966131E+02 0.  0.
        -11    1    3    3    0    0 -0.17558958496E+01 -0.98455720655E+01  0.82728787757E+01  0.12979174975E+02  0.51100000000E-03 0. -1.
         11    1    3    3    0    0  0.17558958496E+01  0.98455720655E+01  0.83630853543E+01  0.13036857614E+02  0.51100000000E-03 0.  1.
<mgrwt>
<rscale>  0 0.20001966E+02</rscale>
<asrwt>0</asrwt>
<pdfrwt beam="2">  1        2 0.72154372E-03 0.20001966E+02</pdfrwt>
<pdfrwt beam="1">  1       -2 0.32809229E-02 0.20001966E+02</pdfrwt>
<totfact> 0.37223411E+06</totfact>
</mgrwt>
</event>
<event>
 4    1  0.4046313E-006  0.2008457E+02  0.7818608E-02  0.1743652E+00
          2   -1    0    0  501    0  0.00000000000E+00  0.00000000000E+00  0.23600453336E+02  0.23600453479E+02  0.26000000000E-02 0.  1.
         -2   -1    0    0    0  501 -0.00000000000E+00 -0.00000000000E+00 -0.42731141471E+01  0.42731149381E+01  0.26000000000E-02 0. -1.
        -11    1    1    2    0    0  0.91976773648E+01 -0.40254897939E+01  0.99600468811E+01  0.14142290165E+02  0.51100000000E-03 0.  1.
         11    1    1    2    0    0 -0.91976773648E+01  0.40254897939E+01  0.93672923074E+01  0.13731278252E+02  0.51100000000E-03 0. -1.
<mgrwt>
<rscale>  0 0.20084566E+02</rscale>
<asrwt>0</asrwt>
<pdfrwt beam="1">  1        2 0.36308390E-02 0.20084566E+02</pdfrwt>
<pdfrwt beam="2">  1       -2 0.65740226E-03 0.20084566E+02</pdfrwt>
<totfact> 0.41918462E+06</totfact>
</mgrwt>
</event>
<event>
 5    1  0.4099620E-006  0.2000093E+02  0.7818608E-02  0.1745310E+00
          2   -1    0    0  501    0  0.00000000000E+00  0.00000000000E+00  0.61116199959E+02  0.61116200014E+02  0.26000000000E-02 0. -1.
         -2   -1    0    0    0  501 -0.00000000000E+00 -0.00000000000E+00 -0.16363788447E+01  0.16363809102E+01  0.26000000000E-02 0.  1.
       1023    2    1    2    0    0  0.00000000000E+00  0.00000000000E+00  0.59479821114E+02  0.62752580925E+02  0.20000932301E+02 0.  0.
        -11    1    3    3    0    0 -0.60209423583E+01 -0.79845465755E+01  0.29527299699E+02  0.31174767981E+02  0.51100000000E-03 0.  1.
         11    1    3    3    0    0  0.60209423583E+01  0.79845465755E+01  0.29952521415E+02  0.31577812943E+02  0.51100000000E-03 0. -1.
<mgrwt>
<rscale>  0 0.20000932E+02</rscale>
<asrwt>0</asrwt>
<pdfrwt beam="1">  1        2 0.94024914E-02 0.20000932E+02</pdfrwt>
<pdfrwt beam="2">  1       -2 0.25175078E-03 0.20000932E+02</pdfrwt>
<totfact> 0.47842605E+06</totfact>
</mgrwt>
</event>
<event>
 5    1  0.4046313E-006  0.2000042E+02  0.7818608E-02  0.1745320E+00
          2   -1    0    0  501    0  0.00000000000E+00  0.00000000000E+00  0.25737915467E+02  0.25737915598E+02  0.26000000000E-02 0.  1.
         -2   -1    0    0    0  501 -0.00000000000E+00 -0.00000000000E+00 -0.38854802794E+01  0.38854811493E+01  0.26000000000E-02 0. -1.
       1023    2    1    2    0    0  0.00000000000E+00  0.00000000000E+00  0.21852435187E+02  0.29623396747E+02  0.20000417777E+02 0.  0.
        -11    1    3    3    0    0 -0.83401820664E+01 -0.55177477859E+01  0.10926011999E+02  0.14811546711E+02  0.51100000000E-03 0. -1.
         11    1    3    3    0    0  0.83401820664E+01  0.55177477859E+01  0.10926423189E+02  0.14811850036E+02  0.51100000000E-03 0.  1.
<mgrwt>
<rscale>  0 0.20000418E+02</rscale>
<asrwt>0</asrwt>
<pdfrwt beam="1">  1        2 0.39596792E-02 0.20000418E+02</pdfrwt>
<pdfrwt beam="2">  1       -2 0.59776630E-03 0.20000418E+02</pdfrwt>
<totfact> 0.42678440E+06</totfact>
</mgrwt>
</event>
<event>
 4    1  0.4046313E-006  0.2005804E+02  0.7818608E-02  0.1744176E+00
         -2   -1    0    0    0  501 -0.00000000000E+00  0.00000000000E+00  0.28264061543E+02  0.28264061662E+02  0.26000000000E-02 0. -1.
          2   -1    0    0  501    0  0.00000000000E+00 -0.00000000000E+00 -0.35586275206E+01  0.35586284704E+01  0.26000000000E-02 0.  1.
        -11    1    1    2    0    0  0.79711182674E+01 -0.60527957752E+01  0.13363899229E+02  0.16696372840E+02  0.51100000000E-03 0. -1.
         11    1    1    2    0    0 -0.79711182674E+01  0.60527957752E+01  0.11341534793E+02  0.15126317293E+02  0.51100000000E-03 0.  1.
<mgrwt>
<rscale>  0 0.20058044E+02</rscale>
<asrwt>0</asrwt>
<pdfrwt beam="2">  1        2 0.54748123E-03 0.20058044E+02</pdfrwt>
<pdfrwt beam="1">  1       -2 0.43483173E-02 0.20058044E+02</pdfrwt>
<totfact> 0.36052816E+06</totfact>
</mgrwt>
</event>
<event>
 5    1  0.4171020E-006  0.2000093E+02  0.7818608E-02  0.1745310E+00
         -2   -1    0    0    0  501 -0.00000000000E+00  0.00000000000E+00  0.15563440659E+01  0.15563462377E+01  0.26000000000E-02 0. -1.
          2   -1    0    0  501    0  0.00000000000E+00 -0.00000000000E+00 -0.64259099267E+02  0.64259099320E+02  0.26000000000E-02 0.  1.
       1023    2    1    2    0    0  0.00000000000E+00  0.00000000000E+00 -0.62702755201E+02  0.65815445557E+02  0.20000934081E+02 0.  0.
        -11    1    3    3    0    0  0.99848592845E+01 -0.55693204667E+00 -0.31213621852E+02  0.32776482081E+02  0.51100000000E-03 0.  1.
         11    1    3    3    0    0 -0.99848592845E+01  0.55693204667E+00 -0.31489133349E+02  0.33038963476E+02  0.51100000000E-03 0. -1.
<mgrwt>
<rscale>  0 0.20000934E+02</rscale>
<asrwt>0</asrwt>
<pdfrwt beam="2">  1        2 0.98860134E-02 0.20000934E+02</pdfrwt>
<pdfrwt beam="1">  1       -2 0.23943777E-03 0.20000934E+02</pdfrwt>
<totfact> 0.48261293E+06</totfact>
</mgrwt>
</event>
<event>
 5    1  0.4046313E-006  0.2000055E+02  0.7818608E-02  0.1745317E+00
          2   -1    0    0  501    0  0.00000000000E+00  0.00000000000E+00  0.11886235511E+03  0.11886235514E+03  0.26000000000E-02 0.  1.
         -2   -1    0    0    0  501 -0.00000000000E+00 -0.00000000000E+00 -0.84135316735E+00  0.84135718468E+00  0.26000000000E-02 0. -1.
       1023    2    1    2    0    0  0.00000000000E+00  0.00000000000E+00  0.11802100194E+03  0.11970371232E+03  0.20000546102E+02 0.  0.
        -11    1    3    3    0    0 -0.25461952298E+01 -0.96705593630E+01  0.58703434141E+02  0.59549105860E+02  0.51100000000E-03 0.  1.
         11    1    3    3    0    0  0.25461952298E+01  0.96705593630E+01  0.59317567801E+02  0.60154606462E+02  0.51100000000E-03 0. -1.
<mgrwt>
<rscale>  0 0.20000546E+02</rscale>
<asrwt>0</asrwt>
<pdfrwt beam="1">  1        2 0.18286524E-01 0.20000546E+02</pdfrwt>
<pdfrwt beam="2">  1       -2 0.12943921E-03 0.20000546E+02</pdfrwt>
<totfact> 0.54959208E+06</totfact>
</mgrwt>
</event>
<event>
 5    1  0.4046313E-006  0.2000133E+02  0.7818608E-02  0.1745302E+00
         -2   -1    0    0    0  501 -0.00000000000E+00  0.00000000000E+00  0.60209896600E+02  0.60209896656E+02  0.26000000000E-02 0. -1.
          2   -1    0    0  501    0  0.00000000000E+00 -0.00000000000E+00 -0.16610769034E+01  0.16610789382E+01  0.26000000000E-02 0.  1.
       1023    2    1    2    0    0  0.00000000000E+00  0.00000000000E+00  0.58548819697E+02  0.61870975594E+02  0.20001333284E+02 0.  0.
        -11    1    3    3    0    0  0.81386698685E+01  0.58108716782E+01  0.29570404595E+02  0.31215589135E+02  0.51100000000E-03 0. -1.
         11    1    3    3    0    0 -0.81386698685E+01 -0.58108716782E+01  0.28978415102E+02  0.30655386459E+02  0.51100000000E-03 0.  1.
<mgrwt>
<rscale>  0 0.20001333E+02</rscale>
<asrwt>0</asrwt>
<pdfrwt beam="2">  1        2 0.25555040E-03 0.20001333E+02</pdfrwt>
<pdfrwt beam="1">  1       -2 0.92630630E-02 0.20001333E+02</pdfrwt>
<totfact> 0.32936173E+06</totfact>
</mgrwt>
</event>
<event>
 5    1  0.4298167E-006  0.2000305E+02  0.7818608E-02  0.1745267E+00
          2   -1    0    0  501    0  0.00000000000E+00  0.00000000000E+00  0.10193264536E+03  0.10193264539E+03  0.26000000000E-02 0. -1.
         -2   -1    0    0    0  501 -0.00000000000E+00 -0.00000000000E+00 -0.98133762521E+00  0.98134106949E+00  0.26000000000E-02 0.  1.
       1023    2    1    2    0    0  0.00000000000E+00  0.00000000000E+00  0.10095130774E+03  0.10291398646E+03  0.20003051674E+02 0.  0.
        -11    1    3    3    0    0  0.21285089525E+01  0.97712657335E+01  0.49706761745E+02  0.50702764697E+02  0.51100000000E-03 0.  1.
         11    1    3    3    0    0 -0.21285089525E+01 -0.97712657335E+01  0.51244545990E+02  0.52211221767E+02  0.51100000000E-03 0. -1.
<mgrwt>
<rscale>  0 0.20003052E+02</rscale>
<asrwt>0</asrwt>
<pdfrwt beam="1">  1        2 0.15681949E-01 0.20003052E+02</pdfrwt>
<pdfrwt beam="2">  1       -2 0.15097526E-03 0.20003052E+02</pdfrwt>
<totfact> 0.52970989E+06</totfact>
</mgrwt>
</event>
<event>
 5    1  0.4322520E-006  0.2000087E+02  0.7818608E-02  0.1745311E+00
         -2   -1    0    0    0  501 -0.00000000000E+00  0.00000000000E+00  0.11044278949E+01  0.11044309553E+01  0.26000000000E-02 0. -1.
          2   -1    0    0  501    0  0.00000000000E+00 -0.00000000000E+00 -0.90552379015E+02  0.90552379052E+02  0.26000000000E-02 0.  1.
       1023    2    1    2    0    0  0.00000000000E+00  0.00000000000E+00 -0.89447951120E+02  0.91656810007E+02  0.20000871510E+02 0.  0.
        -11    1    3    3    0    0 -0.70863955617E+01 -0.70558674035E+01 -0.44355987502E+02  0.45469285176E+02  0.51100000000E-03 0.  1.
         11    1    3    3    0    0  0.70863955617E+01  0.70558674035E+01 -0.45091963617E+02  0.46187524831E+02  0.51100000000E-03 0. -1.
<mgrwt>
<rscale>  0 0.20000872E+02</rscale>
<asrwt>0</asrwt>
<pdfrwt beam="2">  1        2 0.13931130E-01 0.20000872E+02</pdfrwt>
<pdfrwt beam="1">  1       -2 0.16991229E-03 0.20000872E+02</pdfrwt>
<totfact> 0.51607603E+06</totfact>
</mgrwt>
</event>
<event>
 5    1  0.4046313E-006  0.2000060E+02  0.7818608E-02  0.1745316E+00
         -2   -1    0    0    0  501 -0.00000000000E+00  0.00000000000E+00  0.17177930827E+01  0.17177950504E+01  0.26000000000E-02 0.  1.
          2   -1    0    0  501    0  0.00000000000E+00 -0.00000000000E+00 -0.58217715267E+02  0.58217715325E+02  0.26000000000E-02 0. -1.
       1023    2    1    2    0    0  0.00000000000E+00  0.00000000000E+00 -0.56499922184E+02  0.59935510375E+02  0.20000604919E+02 0.  0.
        -11    1    3    3    0    0  0.95615127333E+01  0.29293965340E+01 -0.28110712904E+02  0.29836488902E+02  0.51100000000E-03 0. -1.
         11    1    3    3    0    0 -0.95615127333E+01 -0.29293965340E+01 -0.28389209280E+02  0.30099021473E+02  0.51100000000E-03 0.  1.
<mgrwt>
<rscale>  0 0.20000605E+02</rscale>
<asrwt>0</asrwt>
<pdfrwt beam="2">  1        2 0.89565702E-02 0.20000605E+02</pdfrwt>
<pdfrwt beam="1">  1       -2 0.26427606E-03 0.20000605E+02</pdfrwt>
<totfact> 0.47454046E+06</totfact>
</mgrwt>
</event>
<event>
 5    1  0.4046313E-006  0.2000082E+02  0.7818608E-02  0.1745312E+00
         -2   -1    0    0    0  501 -0.00000000000E+00  0.00000000000E+00  0.37797820892E+02  0.37797820981E+02  0.26000000000E-02 0. -1.
          2   -1    0    0  501    0  0.00000000000E+00 -0.00000000000E+00 -0.26458721406E+01  0.26458734181E+01  0.26000000000E-02 0.  1.
       1023    2    1    2    0    0  0.00000000000E+00  0.00000000000E+00  0.35151948751E+02  0.40443694399E+02  0.20000822874E+02 0.  0.
        -11    1    3    3    0    0  0.34174269666E+01  0.93981925849E+01  0.17458106184E+02  0.20119401152E+02  0.51100000000E-03 0. -1.
         11    1    3    3    0    0 -0.34174269666E+01 -0.93981925849E+01  0.17693842567E+02  0.20324293247E+02  0.51100000000E-03 0.  1.
<mgrwt>
<rscale>  0 0.20000823E+02</rscale>
<asrwt>0</asrwt>
<pdfrwt beam="2">  1        2 0.40705733E-03 0.20000823E+02</pdfrwt>
<pdfrwt beam="1">  1       -2 0.58150498E-02 0.20000823E+02</pdfrwt>
<totfact> 0.35156539E+06</totfact>
</mgrwt>
</event>
<event>
 4    1  0.4046313E-006  0.2002924E+02  0.7818608E-02  0.1744747E+00
         -2   -1    0    0    0  501 -0.00000000000E+00  0.00000000000E+00  0.19773287950E+02  0.19773288121E+02  0.26000000000E-02 0.  1.
          2   -1    0    0  501    0  0.00000000000E+00 -0.00000000000E+00 -0.50721245601E+01  0.50721252265E+01  0.26000000000E-02 0. -1.
        -11    1    1    2    0    0 -0.37902614104E+01 -0.92635324489E+01  0.69327213779E+01  0.12175456499E+02  0.51100000000E-03 0.  1.
         11    1    1    2    0    0  0.37902614104E+01  0.92635324489E+01  0.77684420124E+01  0.12669956849E+02  0.51100000000E-03 0. -1.
<mgrwt>
<rscale>  0 0.20029238E+02</rscale>
<asrwt>0</asrwt>
<pdfrwt beam="2">  1        2 0.78032692E-03 0.20029238E+02</pdfrwt>
<pdfrwt beam="1">  1       -2 0.30420444E-02 0.20029238E+02</pdfrwt>
<totfact> 0.37350865E+06</totfact>
</mgrwt>
</event>
<event>
 5    1  0.4046313E-006  0.2000127E+02  0.7818608E-02  0.1745303E+00
          2   -1    0    0  501    0  0.00000000000E+00  0.00000000000E+00  0.15036699029E+02  0.15036699254E+02  0.26000000000E-02 0. -1.
         -2   -1    0    0    0  501 -0.00000000000E+00 -0.00000000000E+00 -0.66512389387E+01  0.66512394469E+01  0.26000000000E-02 0.  1.
       1023    2    1    2    0    0  0.00000000000E+00  0.00000000000E+00  0.83854600905E+01  0.21687938701E+02  0.20001268564E+02 0.  0.
        -11    1    3    3    0    0 -0.96184417433E+01 -0.27371974726E+01  0.42768211277E+01  0.10876482464E+02  0.51100000000E-03 0.  1.
         11    1    3    3    0    0  0.96184417433E+01  0.27371974726E+01  0.41086389628E+01  0.10811456237E+02  0.51100000000E-03 0. -1.
<mgrwt>
<rscale>  0 0.20001269E+02</rscale>
<asrwt>0</asrwt>
<pdfrwt beam="1">  1        2 0.23133383E-02 0.20001269E+02</pdfrwt>
<pdfrwt beam="2">  1       -2 0.10232676E-02 0.20001269E+02</pdfrwt>
<totfact> 0.40691601E+06</totfact>
</mgrwt>
</event>
<event>
 5    1  0.4046313E-006  0.2000104E+02  0.7818608E-02  0.1745307E+00
         -2   -1    0    0    0  501 -0.00000000000E+00  0.00000000000E+00  0.41074274308E+02  0.41074274390E+02  0.26000000000E-02 0.  1.
          2   -1    0    0  501    0  0.00000000000E+00 -0.00000000000E+00 -0.24348670724E+01  0.24348684606E+01  0.26000000000E-02 0. -1.
       1023    2    1    2    0    0  0.00000000000E+00  0.00000000000E+00  0.38639407236E+02  0.43509142851E+02  0.20001042975E+02 0.  0.
        -11    1    3    3    0    0  0.58899650845E+01  0.80818569569E+01  0.19424689494E+02  0.21847806818E+02  0.51100000000E-03 0. -1.
         11    1    3    3    0    0 -0.58899650845E+01 -0.80818569569E+01  0.19214717742E+02  0.21661336033E+02  0.51100000000E-03 0.  1.
<mgrwt>
<rscale>  0 0.20001043E+02</rscale>
<asrwt>0</asrwt>
<pdfrwt beam="2">  1        2 0.37459505E-03 0.20001043E+02</pdfrwt>
<pdfrwt beam="1">  1       -2 0.63191192E-02 0.20001043E+02</pdfrwt>
<totfact> 0.34801836E+06</totfact>
</mgrwt>
</event>
<event>
 5    1  0.4046313E-006  0.2000256E+02  0.7818608E-02  0.1745277E+00
          2   -1    0    0  501    0  0.00000000000E+00  0.00000000000E+00  0.58181387236E+01  0.58181393045E+01  0.26000000000E-02 0. -1.
         -2   -1    0    0    0  501 -0.00000000000E+00 -0.00000000000E+00 -0.17192020077E+02  0.17192020274E+02  0.26000000000E-02 0.  1.
       1023    2    1    2    0    0  0.00000000000E+00  0.00000000000E+00 -0.11373881354E+02  0.23010159578E+02  0.20002556506E+02 0.  0.
        -11    1    3    3    0    0  0.96413292166E+01  0.26580649749E+01 -0.56053707732E+01  0.11464759929E+02  0.51100000000E-03 0.  1.
         11    1    3    3    0    0 -0.96413292166E+01 -0.26580649749E+01 -0.57685105806E+01  0.11545399649E+02  0.51100000000E-03 0. -1.
<mgrwt>
<rscale>  0 0.20002557E+02</rscale>
<asrwt>0</asrwt>
<pdfrwt beam="1">  1        2 0.89509833E-03 0.20002557E+02</pdfrwt>
<pdfrwt beam="2">  1       -2 0.26449262E-02 0.20002557E+02</pdfrwt>
<totfact> 0.37885113E+06</totfact>
</mgrwt>
</event>
<event>
 5    1  0.4046313E-006  0.2000035E+02  0.7818608E-02  0.1745321E+00
          2   -1    0    0  501    0  0.00000000000E+00  0.00000000000E+00  0.15082802899E+02  0.15082803123E+02  0.26000000000E-02 0.  1.
         -2   -1    0    0    0  501 -0.00000000000E+00 -0.00000000000E+00 -0.66303021396E+01  0.66303026494E+01  0.26000000000E-02 0. -1.
       1023    2    1    2    0    0  0.00000000000E+00  0.00000000000E+00  0.84525007596E+01  0.21713105773E+02  0.20000354827E+02 0.  0.
        -11    1    3    3    0    0  0.94763263827E+01  0.31939104606E+01  0.41811958600E+01  0.10839014015E+02  0.51100000000E-03 0. -1.
         11    1    3    3    0    0 -0.94763263827E+01 -0.31939104606E+01  0.42713048996E+01  0.10874091757E+02  0.51100000000E-03 0.  1.
<mgrwt>
<rscale>  0 0.20000355E+02</rscale>
<asrwt>0</asrwt>
<pdfrwt beam="1">  1        2 0.23204312E-02 0.20000355E+02</pdfrwt>
<pdfrwt beam="2">  1       -2 0.10200466E-02 0.20000355E+02</pdfrwt>
<totfact> 0.40705678E+06</totfact>
</mgrwt>
</event>
<event>
 5    1  0.4046313E-006  0.2000090E+02  0.7818608E-02  0.1745310E+00
          2   -1    0    0  501    0  0.00000000000E+00  0.00000000000E+00  0.11625411882E+02  0.11625412173E+02  0.26000000000E-02 0. -1.
         -2   -1    0    0    0  501 -0.00000000000E+00 -0.00000000000E+00 -0.86026167112E+01  0.86026171042E+01  0.26000000000E-02 0.  1.
       1023    2    1    2    0    0  0.00000000000E+00  0.00000000000E+00  0.30227951711E+01  0.20228029277E+02  0.20000896925E+02 0.  0.
        -11    1    3    3    0    0  0.58955694025E+01 -0.80777932332E+01  0.14890768485E+01  0.10110679118E+02  0.51100000000E-03 0.  1.
         11    1    3    3    0    0 -0.58955694025E+01  0.80777932332E+01  0.15337183225E+01  0.10117350160E+02  0.51100000000E-03 0. -1.
<mgrwt>
<rscale>  0 0.20000897E+02</rscale>
<asrwt>0</asrwt>
<pdfrwt beam="1">  1        2 0.17885250E-02 0.20000897E+02</pdfrwt>
<pdfrwt beam="2">  1       -2 0.13234795E-02 0.20000897E+02</pdfrwt>
<totfact> 0.39900066E+06</totfact>
</mgrwt>
</event>
<event>
 4    1  0.4046313E-006  0.2007899E+02  0.7818608E-02  0.1743762E+00
         -2   -1    0    0    0  501 -0.00000000000E+00  0.00000000000E+00  0.96520941548E+02  0.96520941583E+02  0.26000000000E-02 0. -1.
          2   -1    0    0  501    0  0.00000000000E+00 -0.00000000000E+00 -0.10442431379E+01  0.10442463747E+01  0.26000000000E-02 0.  1.
        -11    1    1    2    0    0 -0.46516373258E+01  0.88967566250E+01  0.47551292741E+02  0.48599541663E+02  0.51100000000E-03 0.  1.
         11    1    1    2    0    0  0.46516373258E+01 -0.88967566250E+01  0.47925405669E+02  0.48965646294E+02  0.51100000000E-03 0. -1.
<mgrwt>
<rscale>  0 0.20078993E+02</rscale>
<asrwt>0</asrwt>
<pdfrwt beam="2">  1        2 0.16065307E-03 0.20078993E+02</pdfrwt>
<pdfrwt beam="1">  1       -2 0.14849373E-01 0.20078993E+02</pdfrwt>
<totfact> 0.29728808E+06</totfact>
</mgrwt>
</event>
<event>
 5    1  0.4046313E-006  0.2000407E+02  0.7818608E-02  0.1745247E+00
          2   -1    0    0  501    0  0.00000000000E+00  0.00000000000E+00  0.38886627370E+02  0.38886627457E+02  0.26000000000E-02 0. -1.
         -2   -1    0    0    0  501 -0.00000000000E+00 -0.00000000000E+00 -0.25726251023E+01  0.25726264161E+01  0.26000000000E-02 0.  1.
       1023    2    1    2    0    0  0.00000000000E+00  0.00000000000E+00  0.36314002268E+02  0.41459253873E+02  0.20004073860E+02 0.  0.
        -11    1    3    3    0    0  0.40367275697E+01 -0.91493567740E+01  0.18543870900E+02  0.21068484689E+02  0.51100000000E-03 0. -1.
         11    1    3    3    0    0 -0.40367275697E+01  0.91493567740E+01  0.17770131367E+02  0.20390769184E+02  0.51100000000E-03 0.  1.
<mgrwt>
<rscale>  0 0.20004074E+02</rscale>
<asrwt>0</asrwt>
<pdfrwt beam="1">  1        2 0.59825579E-02 0.20004074E+02</pdfrwt>
<pdfrwt beam="2">  1       -2 0.39578860E-03 0.20004074E+02</pdfrwt>
<totfact> 0.44711685E+06</totfact>
</mgrwt>
</event>
<event>
 5    1  0.4046313E-006  0.2000128E+02  0.7818608E-02  0.1745303E+00
         -2   -1    0    0    0  501 -0.00000000000E+00  0.00000000000E+00  0.11544739760E+03  0.11544739763E+03  0.26000000000E-02 0. -1.
          2   -1    0    0  501    0  0.00000000000E+00 -0.00000000000E+00 -0.86630396363E+00  0.86630786525E+00  0.26000000000E-02 0.  1.
       1023    2    1    2    0    0  0.00000000000E+00  0.00000000000E+00  0.11458109364E+03  0.11631370550E+03  0.20001276633E+02 0.  0.
        -11    1    3    3    0    0 -0.91896848643E+01 -0.39441105727E+01  0.57757598932E+02  0.58616947641E+02  0.51100000000E-03 0.  1.
         11    1    3    3    0    0  0.91896848643E+01  0.39441105727E+01  0.56823494705E+02  0.57696757854E+02  0.51100000000E-03 0. -1.
<mgrwt>
<rscale>  0 0.20001277E+02</rscale>
<asrwt>0</asrwt>
<pdfrwt beam="2">  1        2 0.13327798E-03 0.20001277E+02</pdfrwt>
<pdfrwt beam="1">  1       -2 0.17761119E-01 0.20001277E+02</pdfrwt>
<totfact> 0.28642668E+06</totfact>
</mgrwt>
</event>
<event>
 5    1  0.4062753E-006  0.2000235E+02  0.7818608E-02  0.1745281E+00
          2   -1    0    0  501    0  0.00000000000E+00  0.00000000000E+00  0.89744875201E+02  0.89744875239E+02  0.26000000000E-02 0. -1.
         -2   -1    0    0    0  501 -0.00000000000E+00 -0.00000000000E+00 -0.11145304301E+01  0.11145334627E+01  0.26000000000E-02 0.  1.
       1023    2    1    2    0    0  0.00000000000E+00  0.00000000000E+00  0.88630344771E+02  0.90859408701E+02  0.20002353246E+02 0.  0.
        -11    1    3    3    0    0  0.72419650286E+01  0.68973551060E+01  0.44029011698E+02  0.45150564075E+02  0.51100000000E-03 0.  1.
         11    1    3    3    0    0 -0.72419650286E+01 -0.68973551060E+01  0.44601333072E+02  0.45708844626E+02  0.51100000000E-03 0. -1.
<mgrwt>
<rscale>  0 0.20002353E+02</rscale>
<asrwt>0</asrwt>
<pdfrwt beam="1">  1        2 0.13806903E-01 0.20002353E+02</pdfrwt>
<pdfrwt beam="2">  1       -2 0.17146647E-03 0.20002353E+02</pdfrwt>
<totfact> 0.51499954E+06</totfact>
</mgrwt>
</event>
<event>
 5    1  0.4276338E-006  0.2000080E+02  0.7818608E-02  0.1745312E+00
         -2   -1    0    0    0  501 -0.00000000000E+00  0.00000000000E+00  0.93506146531E+00  0.93506508004E+00  0.26000000000E-02 0. -1.
          2   -1    0    0  501    0  0.00000000000E+00 -0.00000000000E+00 -0.10695315964E+03  0.10695315967E+03  0.26000000000E-02 0.  1.
       1023    2    1    2    0    0  0.00000000000E+00  0.00000000000E+00 -0.10601809817E+03  0.10788822475E+03  0.20000797471E+02 0.  0.
        -11    1    3    3    0    0 -0.53348191368E+01 -0.84581493317E+01 -0.52545359483E+02  0.53488460333E+02  0.51100000000E-03 0. -1.
         11    1    3    3    0    0  0.53348191368E+01  0.84581493317E+01 -0.53472738687E+02  0.54399764413E+02  0.51100000000E-03 0.  1.
<mgrwt>
<rscale>  0 0.20000797E+02</rscale>
<asrwt>0</asrwt>
<pdfrwt beam="2">  1        2 0.16454323E-01 0.20000797E+02</pdfrwt>
<pdfrwt beam="1">  1       -2 0.14385598E-03 0.20000797E+02</pdfrwt>
<totfact> 0.53578106E+06</totfact>
</mgrwt>
</event>
<event>
 5    1  0.4046313E-006  0.2000121E+02  0.7818608E-02  0.1745304E+00
         -2   -1    0    0    0  501 -0.00000000000E+00  0.00000000000E+00  0.11529126617E+02  0.11529126910E+02  0.26000000000E-02 0. -1.
          2   -1    0    0  501    0  0.00000000000E+00 -0.00000000000E+00 -0.86747370703E+01  0.86747374599E+01  0.26000000000E-02 0.  1.
       1023    2    1    2    0    0  0.00000000000E+00  0.00000000000E+00  0.28543895465E+01  0.20203864370E+02  0.20001214858E+02 0.  0.
        -11    1    3    3    0    0  0.81271868926E+01  0.58274100246E+01  0.13790219132E+01  0.10095126353E+02  0.51100000000E-03 0. -1.
         11    1    3    3    0    0 -0.81271868926E+01 -0.58274100246E+01  0.14753676333E+01  0.10108738017E+02  0.51100000000E-03 0.  1.
<mgrwt>
<rscale>  0 0.20001215E+02</rscale>
<asrwt>0</asrwt>
<pdfrwt beam="2">  1        2 0.13345750E-02 0.20001215E+02</pdfrwt>
<pdfrwt beam="1">  1       -2 0.17737118E-02 0.20001215E+02</pdfrwt>
<totfact> 0.39049283E+06</totfact>
</mgrwt>
</event>
<event>
 5    1  0.4046313E-006  0.2000248E+02  0.7818608E-02  0.1745279E+00
          2   -1    0    0  501    0  0.00000000000E+00  0.00000000000E+00  0.69602301308E+01  0.69602306164E+01  0.26000000000E-02 0.  1.
         -2   -1    0    0    0  501 -0.00000000000E+00 -0.00000000000E+00 -0.14370906232E+02  0.14370906467E+02  0.26000000000E-02 0. -1.
       1023    2    1    2    0    0  0.00000000000E+00  0.00000000000E+00 -0.74106761011E+01  0.21331137084E+02  0.20002482071E+02 0.  0.
        -11    1    3    3    0    0 -0.70794339903E+01 -0.70643414918E+01 -0.36638206468E+01  0.10651144930E+02  0.51100000000E-03 0.  1.
         11    1    3    3    0    0  0.70794339903E+01  0.70643414918E+01 -0.37468554542E+01  0.10679992153E+02  0.51100000000E-03 0. -1.
<mgrwt>
<rscale>  0 0.20002482E+02</rscale>
<asrwt>0</asrwt>
<pdfrwt beam="1">  1        2 0.10708047E-02 0.20002482E+02</pdfrwt>
<pdfrwt beam="2">  1       -2 0.22109087E-02 0.20002482E+02</pdfrwt>
<totfact> 0.38411712E+06</totfact>
</mgrwt>
</event>
<event>
 5    1  0.4046313E-006  0.2000079E+02  0.7818608E-02  0.1745312E+00
          2   -1    0    0  501    0  0.00000000000E+00  0.00000000000E+00  0.40884566604E+02  0.40884566687E+02  0.26000000000E-02 0.  1.
         -2   -1    0    0    0  501 -0.00000000000E+00 -0.00000000000E+00 -0.24461032480E+01  0.24461046298E+01  0.26000000000E-02 0. -1.
       1023    2    1    2    0    0  0.00000000000E+00  0.00000000000E+00  0.38438463356E+02  0.43330671317E+02  0.20000790274E+02 0.  0.
        -11    1    3    3    0    0  0.68689484577E+01  0.72675897857E+01  0.19407954338E+02  0.21832750767E+02  0.51100000000E-03 0.  1.
         11    1    3    3    0    0 -0.68689484577E+01 -0.72675897857E+01  0.19030509018E+02  0.21497920549E+02  0.51100000000E-03 0. -1.
<mgrwt>
<rscale>  0 0.20000790E+02</rscale>
<asrwt>0</asrwt>
<pdfrwt beam="1">  1        2 0.62899328E-02 0.20000790E+02</pdfrwt>
<pdfrwt beam="2">  1       -2 0.37632373E-03 0.20000790E+02</pdfrwt>
<totfact> 0.45022087E+06</totfact>
</mgrwt>
</event>
<event>
 5    1  0.4046313E-006  0.2000050E+02  0.7818608E-02  0.1745318E+00
          2   -1    0    0  501    0  0.00000000000E+00  0.00000000000E+00  0.25578073064E+02  0.25578073196E+02  0.26000000000E-02 0. -1.
         -2   -1    0    0    0  501 -0.00000000000E+00 -0.00000000000E+00 -0.39097952455E+01  0.39097961100E+01  0.26000000000E-02 0.  1.
       1023    2    1    2    0    0  0.00000000000E+00  0.00000000000E+00  0.21668277818E+02  0.29487869306E+02  0.20000504309E+02 0.  0.
        -11    1    3    3    0    0 -0.83458971535E+01 -0.55087704282E+01  0.10735324461E+02  0.14671323815E+02  0.51100000000E-03 0. -1.
         11    1    3    3    0    0  0.83458971535E+01  0.55087704282E+01  0.10932953357E+02  0.14816545491E+02  0.51100000000E-03 0.  1.
<mgrwt>
<rscale>  0 0.20000504E+02</rscale>
<asrwt>0</asrwt>
<pdfrwt beam="1">  1        2 0.39350881E-02 0.20000504E+02</pdfrwt>
<pdfrwt beam="2">  1       -2 0.60150705E-03 0.20000504E+02</pdfrwt>
<totfact> 0.42651318E+06</totfact>
</mgrwt>
</event>
<event>
 4    1  0.4046313E-006  0.2003104E+02  0.7818608E-02  0.1744712E+00
         -2   -1    0    0    0  501 -0.00000000000E+00  0.00000000000E+00  0.11643854786E+01  0.11643883815E+01  0.26000000000E-02 0. -1.
          2   -1    0    0  501    0  0.00000000000E+00 -0.00000000000E+00 -0.86148870069E+02  0.86148870109E+02  0.26000000000E-02 0.  1.
        -11    1    1    2    0    0 -0.18544048607E+01  0.98347541248E+01 -0.44177143454E+02  0.45296591595E+02  0.51100000000E-03 0.  1.
         11    1    1    2    0    0  0.18544048607E+01 -0.98347541248E+01 -0.40807341137E+02  0.42016666895E+02  0.51100000000E-03 0. -1.
<mgrwt>
<rscale>  0 0.20031038E+02</rscale>
<asrwt>0</asrwt>
<pdfrwt beam="2">  1        2 0.13253667E-01 0.20031038E+02</pdfrwt>
<pdfrwt beam="1">  1       -2 0.17913652E-03 0.20031038E+02</pdfrwt>
<totfact> 0.50894006E+06</totfact>
</mgrwt>
</event>
<event>
 5    1  0.4046313E-006  0.2000233E+02  0.7818608E-02  0.1745282E+00
          2   -1    0    0  501    0  0.00000000000E+00  0.00000000000E+00  0.18264443814E+01  0.18264462320E+01  0.26000000000E-02 0.  1.
         -2   -1    0    0    0  501 -0.00000000000E+00 -0.00000000000E+00 -0.54763893583E+02  0.54763893645E+02  0.26000000000E-02 0. -1.
       1023    2    1    2    0    0  0.00000000000E+00  0.00000000000E+00 -0.52937449202E+02  0.56590339877E+02  0.20002325850E+02 0.  0.
        -11    1    3    3    0    0  0.96660611046E+01  0.25664599602E+01 -0.26294193672E+02  0.28131904933E+02  0.51100000000E-03 0. -1.
         11    1    3    3    0    0 -0.96660611046E+01 -0.25664599602E+01 -0.26643255529E+02  0.28458434944E+02  0.51100000000E-03 0.  1.
<mgrwt>
<rscale>  0 0.20002326E+02</rscale>
<asrwt>0</asrwt>
<pdfrwt beam="1">  1        2 0.28099163E-03 0.20002326E+02</pdfrwt>
<pdfrwt beam="2">  1       -2 0.84252133E-02 0.20002326E+02</pdfrwt>
<totfact> 0.33434288E+06</totfact>
</mgrwt>
</event>
<event>
 5    1  0.4046313E-006  0.2000144E+02  0.7818608E-02  0.1745299E+00
         -2   -1    0    0    0  501 -0.00000000000E+00  0.00000000000E+00  0.99140385656E+02  0.99140385690E+02  0.26000000000E-02 0.  1.
          2   -1    0    0  501    0  0.00000000000E+00 -0.00000000000E+00 -0.10088143163E+01  0.10088176667E+01  0.26000000000E-02 0. -1.
       1023    2    1    2    0    0  0.00000000000E+00  0.00000000000E+00  0.98131571339E+02  0.10014920336E+03  0.20001440933E+02 0.  0.
        -11    1    3    3    0    0 -0.99777066019E+01 -0.67762334527E+00  0.49189163475E+02  0.50195493882E+02  0.51100000000E-03 0.  1.
         11    1    3    3    0    0  0.99777066019E+01  0.67762334527E+00  0.48942407864E+02  0.49953709474E+02  0.51100000000E-03 0. -1.
<mgrwt>
<rscale>  0 0.20001441E+02</rscale>
<asrwt>0</asrwt>
<pdfrwt beam="2">  1        2 0.15520253E-03 0.20001441E+02</pdfrwt>
<pdfrwt beam="1">  1       -2 0.15252361E-01 0.20001441E+02</pdfrwt>
<totfact> 0.29788653E+06</totfact>
</mgrwt>
</event>
<event>
 5    1  0.4046313E-006  0.2000058E+02  0.7818608E-02  0.1745317E+00
          2   -1    0    0  501    0  0.00000000000E+00  0.00000000000E+00  0.38502402931E+01  0.38502411710E+01  0.26000000000E-02 0.  1.
         -2   -1    0    0    0  501 -0.00000000000E+00 -0.00000000000E+00 -0.25973904954E+02  0.25973905084E+02  0.26000000000E-02 0. -1.
       1023    2    1    2    0    0  0.00000000000E+00  0.00000000000E+00 -0.22123664661E+02  0.29824146255E+02  0.20000579037E+02 0.  0.
        -11    1    3    3    0    0  0.92237720696E+01 -0.38636369450E+01 -0.11044925017E+02  0.14899531218E+02  0.51100000000E-03 0. -1.
         11    1    3    3    0    0 -0.92237720696E+01  0.38636369450E+01 -0.11078739644E+02  0.14924615037E+02  0.51100000000E-03 0.  1.
<mgrwt>
<rscale>  0 0.20000579E+02</rscale>
<asrwt>0</asrwt>
<pdfrwt beam="1">  1        2 0.59234475E-03 0.20000579E+02</pdfrwt>
<pdfrwt beam="2">  1       -2 0.39959853E-02 0.20000579E+02</pdfrwt>
<totfact> 0.36575960E+06</totfact>
</mgrwt>
</event>
<event>
 5    1  0.4046313E-006  0.2000094E+02  0.7818608E-02  0.1745309E+00
         -2   -1    0    0    0  501 -0.00000000000E+00  0.00000000000E+00  0.50330526927E+02  0.50330526995E+02  0.26000000000E-02 0. -1.
          2   -1    0    0  501    0  0.00000000000E+00 -0.00000000000E+00 -0.19870518999E+01  0.19870536009E+01  0.26000000000E-02 0.  1.
       1023    2    1    2    0    0  0.00000000000E+00  0.00000000000E+00  0.48343475028E+02  0.52317580595E+02  0.20000941518E+02 0.  0.
        -11    1    3    3    0    0  0.14150370969E+01 -0.98995365015E+01  0.23964741874E+02  0.25967518292E+02  0.51100000000E-03 0.  1.
         11    1    3    3    0    0 -0.14150370969E+01  0.98995365015E+01  0.24378733154E+02  0.26350062303E+02  0.51100000000E-03 0. -1.
<mgrwt>
<rscale>  0 0.20000942E+02</rscale>
<asrwt>0</asrwt>
<pdfrwt beam="2">  1        2 0.30570045E-03 0.20000942E+02</pdfrwt>
<pdfrwt beam="1">  1       -2 0.77431576E-02 0.20000942E+02</pdfrwt>
<totfact> 0.33862988E+06</totfact>
</mgrwt>
</event>
<event>
 5    1  0.4046313E-006  0.2000155E+02  0.7818608E-02  0.1745297E+00
         -2   -1    0    0    0  501 -0.00000000000E+00  0.00000000000E+00  0.36780697444E+01  0.36780706634E+01  0.26000000000E-02 0. -1.
          2   -1    0    0  501    0  0.00000000000E+00 -0.00000000000E+00 -0.27192370819E+02  0.27192370944E+02  0.26000000000E-02 0.  1.
       1023    2    1    2    0    0  0.00000000000E+00  0.00000000000E+00 -0.23514301075E+02  0.30870441607E+02  0.20001545189E+02 0.  0.
        -11    1    3    3    0    0  0.99728302474E+01  0.74026279532E+00 -0.11912414726E+02  0.15553486973E+02  0.51100000000E-03 0.  1.
         11    1    3    3    0    0 -0.99728302474E+01 -0.74026279532E+00 -0.11601886349E+02  0.15316954634E+02  0.51100000000E-03 0. -1.
<mgrwt>
<rscale>  0 0.20001545E+02</rscale>
<asrwt>0</asrwt>
<pdfrwt beam="2">  1        2 0.41834416E-02 0.20001545E+02</pdfrwt>
<pdfrwt beam="1">  1       -2 0.56585698E-03 0.20001545E+02</pdfrwt>
<totfact> 0.42913491E+06</totfact>
</mgrwt>
</event>
<event>
 5    1  0.4046313E-006  0.2000029E+02  0.7818608E-02  0.1745322E+00
          2   -1    0    0  501    0  0.00000000000E+00  0.00000000000E+00  0.32860748600E+02  0.32860748703E+02  0.26000000000E-02 0. -1.
         -2   -1    0    0    0  501 -0.00000000000E+00 -0.00000000000E+00 -0.30432325898E+01  0.30432337005E+01  0.26000000000E-02 0.  1.
       1023    2    1    2    0    0  0.00000000000E+00  0.00000000000E+00  0.29817516010E+02  0.35903982403E+02  0.20000292283E+02 0.  0.
        -11    1    3    3    0    0 -0.79053533811E+01 -0.61244028530E+01  0.14909569810E+02  0.17952665389E+02  0.51100000000E-03 0.  1.
         11    1    3    3    0    0  0.79053533811E+01  0.61244028530E+01  0.14907946201E+02  0.17951317015E+02  0.51100000000E-03 0. -1.
<mgrwt>
<rscale>  0 0.20000292E+02</rscale>
<asrwt>0</asrwt>
<pdfrwt beam="1">  1        2 0.50554996E-02 0.20000292E+02</pdfrwt>
<pdfrwt beam="2">  1       -2 0.46818975E-03 0.20000292E+02</pdfrwt>
<totfact> 0.43819712E+06</totfact>
</mgrwt>
</event>
<event>
 5    1  0.4046313E-006  0.2000215E+02  0.7818608E-02  0.1745285E+00
         -2   -1    0    0    0  501 -0.00000000000E+00  0.00000000000E+00  0.17472762467E+01  0.17472781812E+01  0.26000000000E-02 0.  1.
          2   -1    0    0  501    0  0.00000000000E+00 -0.00000000000E+00 -0.57244216392E+02  0.57244216451E+02  0.26000000000E-02 0. -1.
       1023    2    1    2    0    0  0.00000000000E+00  0.00000000000E+00 -0.55496940145E+02  0.58991494632E+02  0.20002151721E+02 0.  0.
        -11    1    3    3    0    0 -0.99298460890E+01  0.11908100785E+01 -0.27868128135E+02  0.29608317041E+02  0.51100000000E-03 0. -1.
         11    1    3    3    0    0  0.99298460890E+01 -0.11908100785E+01 -0.27628812011E+02  0.29383177592E+02  0.51100000000E-03 0.  1.
<mgrwt>
<rscale>  0 0.20002152E+02</rscale>
<asrwt>0</asrwt>
<pdfrwt beam="2">  1        2 0.88068012E-02 0.20002152E+02</pdfrwt>
<pdfrwt beam="1">  1       -2 0.26881193E-03 0.20002152E+02</pdfrwt>
<totfact> 0.47313996E+06</totfact>
</mgrwt>
</event>
<event>
 5    1  0.4046313E-006  0.2000013E+02  0.7818608E-02  0.1745325E+00
         -2   -1    0    0    0  501 -0.00000000000E+00  0.00000000000E+00  0.26231158118E+01  0.26231171003E+01  0.26000000000E-02 0. -1.
          2   -1    0    0  501    0  0.00000000000E+00 -0.00000000000E+00 -0.38123096830E+02  0.38123096919E+02  0.26000000000E-02 0.  1.
       1023    2    1    2    0    0  0.00000000000E+00  0.00000000000E+00 -0.35499981019E+02  0.40746214019E+02  0.20000132614E+02 0.  0.
        -11    1    3    3    0    0 -0.60265392397E+01 -0.79800430753E+01 -0.17683560976E+02  0.20315230537E+02  0.51100000000E-03 0. -1.
         11    1    3    3    0    0  0.60265392397E+01  0.79800430753E+01 -0.17816420042E+02  0.20430983483E+02  0.51100000000E-03 0.  1.
<mgrwt>
<rscale>  0 0.20000133E+02</rscale>
<asrwt>0</asrwt>
<pdfrwt beam="2">  1        2 0.58650915E-02 0.20000133E+02</pdfrwt>
<pdfrwt beam="1">  1       -2 0.40355641E-03 0.20000133E+02</pdfrwt>
<totfact> 0.44618055E+06</totfact>
</mgrwt>
</event>
<event>
 5    1  0.4046313E-006  0.2000081E+02  0.7818608E-02  0.1745312E+00
          2   -1    0    0  501    0  0.00000000000E+00  0.00000000000E+00  0.65279761643E+02  0.65279761695E+02  0.26000000000E-02 0.  1.
         -2   -1    0    0    0  501 -0.00000000000E+00 -0.00000000000E+00 -0.15319915978E+01  0.15319938041E+01  0.26000000000E-02 0. -1.
       1023    2    1    2    0    0  0.00000000000E+00  0.00000000000E+00  0.63747770045E+02  0.66811755499E+02  0.20000812161E+02 0.  0.
        -11    1    3    3    0    0  0.94188692245E+01 -0.33594047223E+01  0.31586063616E+02  0.33131255825E+02  0.51100000000E-03 0.  1.
         11    1    3    3    0    0 -0.94188692245E+01  0.33594047223E+01  0.32161706430E+02  0.33680499674E+02  0.51100000000E-03 0. -1.
<mgrwt>
<rscale>  0 0.20000812E+02</rscale>
<asrwt>0</asrwt>
<pdfrwt beam="1">  1        2 0.10043038E-01 0.20000812E+02</pdfrwt>
<pdfrwt beam="2">  1       -2 0.23569126E-03 0.20000812E+02</pdfrwt>
<totfact> 0.48396951E+06</totfact>
</mgrwt>
</event>
<event>
 5    1  0.4046313E-006  0.2000274E+02  0.7818608E-02  0.1745274E+00
         -2   -1    0    0    0  501 -0.00000000000E+00  0.00000000000E+00  0.29746280463E+02  0.29746280577E+02  0.26000000000E-02 0.  1.
          2   -1    0    0  501    0  0.00000000000E+00 -0.00000000000E+00 -0.33626842748E+01  0.33626852799E+01  0.26000000000E-02 0. -1.
       1023    2    1    2    0    0  0.00000000000E+00  0.00000000000E+00  0.26383596188E+02  0.33108965857E+02  0.20002736619E+02 0.  0.
        -11    1    3    3    0    0  0.96078565148E+01  0.27730239001E+01  0.12920829403E+02  0.16338555661E+02  0.51100000000E-03 0.  1.
         11    1    3    3    0    0 -0.96078565148E+01 -0.27730239001E+01  0.13462766785E+02  0.16770410196E+02  0.51100000000E-03 0. -1.
<mgrwt>
<rscale>  0 0.20002737E+02</rscale>
<asrwt>0</asrwt>
<pdfrwt beam="2">  1        2 0.51733612E-03 0.20002737E+02</pdfrwt>
<pdfrwt beam="1">  1       -2 0.45763510E-02 0.20002737E+02</pdfrwt>
<totfact> 0.36084859E+06</totfact>
</mgrwt>
</event>
<event>
 5    1  0.4046313E-006  0.2000140E+02  0.7818608E-02  0.1745300E+00
          2   -1    0    0  501    0  0.00000000000E+00  0.00000000000E+00  0.50831177838E+01  0.50831184488E+01  0.26000000000E-02 0.  1.
         -2   -1    0    0    0  501 -0.00000000000E+00 -0.00000000000E+00 -0.19675725220E+02  0.19675725392E+02  0.26000000000E-02 0. -1.
       1023    2    1    2    0    0  0.00000000000E+00  0.00000000000E+00 -0.14592607437E+02  0.24758843841E+02  0.20001403864E+02 0.  0.
        -11    1    3    3    0    0  0.30423151248E+01  0.95265872426E+01 -0.72344968612E+01  0.12342993596E+02  0.51100000000E-03 0. -1.
         11    1    3    3    0    0 -0.30423151248E+01 -0.95265872426E+01 -0.73581105754E+01  0.12415850245E+02  0.51100000000E-03 0.  1.
<mgrwt>
<rscale>  0 0.20001404E+02</rscale>
<asrwt>0</asrwt>
<pdfrwt beam="1">  1        2 0.78201820E-03 0.20001404E+02</pdfrwt>
<pdfrwt beam="2">  1       -2 0.30270347E-02 0.20001404E+02</pdfrwt>
<totfact> 0.37479100E+06</totfact>
</mgrwt>
</event>
<event>
 5    1  0.4046313E-006  0.2000307E+02  0.7818608E-02  0.1745267E+00
         -2   -1    0    0    0  501 -0.00000000000E+00  0.00000000000E+00  0.93007701995E+02  0.93007702032E+02  0.26000000000E-02 0.  1.
          2   -1    0    0  501    0  0.00000000000E+00 -0.00000000000E+00 -0.10755085709E+01  0.10755117136E+01  0.26000000000E-02 0. -1.
       1023    2    1    2    0    0  0.00000000000E+00  0.00000000000E+00  0.91932193424E+02  0.94083213745E+02  0.20003072784E+02 0.  0.
        -11    1    3    3    0    0 -0.97785542022E+01  0.20989472391E+01  0.45632578844E+02  0.46715714208E+02  0.51100000000E-03 0.  1.
         11    1    3    3    0    0  0.97785542022E+01 -0.20989472391E+01  0.46299614581E+02  0.47367499537E+02  0.51100000000E-03 0. -1.
<mgrwt>
<rscale>  0 0.20003073E+02</rscale>
<asrwt>0</asrwt>
<pdfrwt beam="2">  1        2 0.16546305E-03 0.20003073E+02</pdfrwt>
<pdfrwt beam="1">  1       -2 0.14308882E-01 0.20003073E+02</pdfrwt>
<totfact> 0.30237345E+06</totfact>
</mgrwt>
</event>
<event>
 4    1  0.4046313E-006  0.2005731E+02  0.7818608E-02  0.1744191E+00
         -2   -1    0    0    0  501 -0.00000000000E+00  0.00000000000E+00  0.60625379104E+01  0.60625384680E+01  0.26000000000E-02 0. -1.
          2   -1    0    0  501    0  0.00000000000E+00 -0.00000000000E+00 -0.16589403720E+02  0.16589403924E+02  0.26000000000E-02 0.  1.
        -11    1    1    2    0    0  0.85960440038E+01  0.51649752683E+01 -0.53429329394E+01  0.11362916646E+02  0.51100000000E-03 0. -1.
         11    1    1    2    0    0 -0.85960440038E+01 -0.51649752683E+01 -0.51839328704E+01  0.11289025746E+02  0.51100000000E-03 0.  1.
<mgrwt>
<rscale>  0 0.20057308E+02</rscale>
<asrwt>0</asrwt>
<pdfrwt beam="2">  1        2 0.25522160E-02 0.20057308E+02</pdfrwt>
<pdfrwt beam="1">  1       -2 0.93269820E-03 0.20057308E+02</pdfrwt>
<totfact> 0.40756049E+06</totfact>
</mgrwt>
</event>
<event>
 5    1  0.4046313E-006  0.2000173E+02  0.7818608E-02  0.1745294E+00
         -2   -1    0    0    0  501 -0.00000000000E+00  0.00000000000E+00  0.52006499114E+02  0.52006499179E+02  0.26000000000E-02 0.  1.
          2   -1    0    0  501    0  0.00000000000E+00 -0.00000000000E+00 -0.19231679257E+01  0.19231696832E+01  0.26000000000E-02 0. -1.
       1023    2    1    2    0    0  0.00000000000E+00  0.00000000000E+00  0.50083331188E+02  0.53929668862E+02  0.20001727942E+02 0.  0.
        -11    1    3    3    0    0  0.84359136788E+01 -0.53705356682E+01  0.25311114616E+02  0.27215065980E+02  0.51100000000E-03 0.  1.
         11    1    3    3    0    0 -0.84359136788E+01  0.53705356682E+01  0.24772216572E+02  0.26714602882E+02  0.51100000000E-03 0. -1.
<mgrwt>
<rscale>  0 0.20001728E+02</rscale>
<asrwt>0</asrwt>
<pdfrwt beam="2">  1        2 0.29587216E-03 0.20001728E+02</pdfrwt>
<pdfrwt beam="1">  1       -2 0.80009991E-02 0.20001728E+02</pdfrwt>
<totfact> 0.33698170E+06</totfact>
</mgrwt>
</event>
<event>
 5    1  0.4046313E-006  0.2000032E+02  0.7818608E-02  0.1745322E+00
         -2   -1    0    0    0  501 -0.00000000000E+00  0.00000000000E+00  0.20601087653E+02  0.20601087817E+02  0.26000000000E-02 0.  1.
          2   -1    0    0  501    0  0.00000000000E+00 -0.00000000000E+00 -0.48542677463E+01  0.48542684426E+01  0.26000000000E-02 0. -1.
       1023    2    1    2    0    0  0.00000000000E+00  0.00000000000E+00  0.15746819907E+02  0.25455356260E+02  0.20000320626E+02 0.  0.
        -11    1    3    3    0    0 -0.73929482744E+01  0.67340494872E+01  0.78607245970E+01  0.12719830900E+02  0.51100000000E-03 0. -1.
         11    1    3    3    0    0  0.73929482744E+01 -0.67340494872E+01  0.78860953098E+01  0.12735525359E+02  0.51100000000E-03 0.  1.
<mgrwt>
<rscale>  0 0.20000321E+02</rscale>
<asrwt>0</asrwt>
<pdfrwt beam="2">  1        2 0.74681048E-03 0.20000321E+02</pdfrwt>
<pdfrwt beam="1">  1       -2 0.31693982E-02 0.20000321E+02</pdfrwt>
<totfact> 0.37339715E+06</totfact>
</mgrwt>
</event>
<event>
 5    1  0.4046313E-006  0.2000044E+02  0.7818608E-02  0.1745319E+00
         -2   -1    0    0    0  501 -0.00000000000E+00  0.00000000000E+00  0.52312560447E+02  0.52312560511E+02  0.26000000000E-02 0.  1.
          2   -1    0    0  501    0  0.00000000000E+00 -0.00000000000E+00 -0.19116702606E+01  0.19116720287E+01  0.26000000000E-02 0. -1.
       1023    2    1    2    0    0  0.00000000000E+00  0.00000000000E+00  0.50400890186E+02  0.54224232540E+02  0.20000441570E+02 0.  0.
        -11    1    3    3    0    0 -0.95784914271E+01 -0.28728440082E+01  0.25035871804E+02  0.26959147018E+02  0.51100000000E-03 0.  1.
         11    1    3    3    0    0  0.95784914271E+01  0.28728440082E+01  0.25365018382E+02  0.27265085522E+02  0.51100000000E-03 0. -1.
<mgrwt>
<rscale>  0 0.20000442E+02</rscale>
<asrwt>0</asrwt>
<pdfrwt beam="2">  1        2 0.29410327E-03 0.20000442E+02</pdfrwt>
<pdfrwt beam="1">  1       -2 0.80480859E-02 0.20000442E+02</pdfrwt>
<totfact> 0.33673572E+06</totfact>
</mgrwt>
</event>
<event>
 5    1  0.4046313E-006  0.2000062E+02  0.7818608E-02  0.1745316E+00
         -2   -1    0    0    0  501 -0.00000000000E+00  0.00000000000E+00  0.63844607228E+01  0.63844612522E+01  0.26000000000E-02 0. -1.
          2   -1    0    0  501    0  0.00000000000E+00 -0.00000000000E+00 -0.15663995780E+02  0.15663995996E+02  0.26000000000E-02 0.  1.
       1023    2    1    2    0    0  0.00000000000E+00  0.00000000000E+00 -0.92795350573E+01  0.22048457248E+02  0.20000617394E+02 0.  0.
        -11    1    3    3    0    0  0.73027939033E+01 -0.68316845978E+01 -0.45749180423E+01  0.10996935418E+02  0.51100000000E-03 0. -1.
         11    1    3    3    0    0 -0.73027939033E+01  0.68316845978E+01 -0.47046170150E+01  0.11051521830E+02  0.51100000000E-03 0.  1.
<mgrwt>
<rscale>  0 0.20000617E+02</rscale>
<asrwt>0</asrwt>
<pdfrwt beam="2">  1        2 0.24098456E-02 0.20000617E+02</pdfrwt>
<pdfrwt beam="1">  1       -2 0.98222478E-03 0.20000617E+02</pdfrwt>
<totfact> 0.40827349E+06</totfact>
</mgrwt>
</event>
<event>
 5    1  0.4046313E-006  0.2000070E+02  0.7818608E-02  0.1745314E+00
          2   -1    0    0  501    0  0.00000000000E+00  0.00000000000E+00  0.61607435673E+01  0.61607441160E+01  0.26000000000E-02 0. -1.
         -2   -1    0    0    0  501 -0.00000000000E+00 -0.00000000000E+00 -0.16232939352E+02  0.16232939560E+02  0.26000000000E-02 0.  1.
       1023    2    1    2    0    0  0.00000000000E+00  0.00000000000E+00 -0.10072195785E+02  0.22393683676E+02  0.20000698505E+02 0.  0.
        -11    1    3    3    0    0 -0.49428150908E+01  0.86934116982E+01 -0.50501238935E+01  0.11203150431E+02  0.51100000000E-03 0. -1.
         11    1    3    3    0    0  0.49428150908E+01 -0.86934116982E+01 -0.50220718914E+01  0.11190533246E+02  0.51100000000E-03 0.  1.
<mgrwt>
<rscale>  0 0.20000699E+02</rscale>
<asrwt>0</asrwt>
<pdfrwt beam="1">  1        2 0.94780676E-03 0.20000699E+02</pdfrwt>
<pdfrwt beam="2">  1       -2 0.24973753E-02 0.20000699E+02</pdfrwt>
<totfact> 0.38063273E+06</totfact>
</mgrwt>
</event>
<event>
 5    1  0.4046313E-006  0.2000171E+02  0.7818608E-02  0.1745294E+00
          2   -1    0    0  501    0  0.00000000000E+00  0.00000000000E+00  0.16952308180E+01  0.16952328118E+01  0.26000000000E-02 0. -1.
         -2   -1    0    0    0  501 -0.00000000000E+00 -0.00000000000E+00 -0.58999051084E+02  0.58999051141E+02  0.26000000000E-02 0.  1.
       1023    2    1    2    0    0  0.00000000000E+00  0.00000000000E+00 -0.57303820266E+02  0.60694283953E+02  0.20001707114E+02 0.  0.
        -11    1    3    3    0    0  0.42961980686E+01  0.90302619800E+01 -0.29012517063E+02  0.30687604922E+02  0.51100000000E-03 0. -1.
         11    1    3    3    0    0 -0.42961980686E+01 -0.90302619800E+01 -0.28291303202E+02  0.30006679030E+02  0.51100000000E-03 0.  1.
<mgrwt>
<rscale>  0 0.20001707E+02</rscale>
<asrwt>0</asrwt>
<pdfrwt beam="1">  1        2 0.26080494E-03 0.20001707E+02</pdfrwt>
<pdfrwt beam="2">  1       -2 0.90767757E-02 0.20001707E+02</pdfrwt>
<totfact> 0.33044828E+06</totfact>
</mgrwt>
</event>
<event>
 5    1  0.4046313E-006  0.2000069E+02  0.7818608E-02  0.1745314E+00
         -2   -1    0    0    0  501 -0.00000000000E+00  0.00000000000E+00  0.52411948371E+01  0.52411954820E+01  0.26000000000E-02 0. -1.
          2   -1    0    0  501    0  0.00000000000E+00 -0.00000000000E+00 -0.19080935973E+02  0.19080936150E+02  0.26000000000E-02 0.  1.
       1023    2    1    2    0    0  0.00000000000E+00  0.00000000000E+00 -0.13839741136E+02  0.24322131632E+02  0.20000691299E+02 0.  0.
        -11    1    3    3    0    0 -0.97844759511E+01  0.20663042970E+01 -0.69642153822E+01  0.12186298833E+02  0.51100000000E-03 0. -1.
         11    1    3    3    0    0  0.97844759511E+01 -0.20663042970E+01 -0.68755257534E+01  0.12135832799E+02  0.51100000000E-03 0.  1.
<mgrwt>
<rscale>  0 0.20000691E+02</rscale>
<asrwt>0</asrwt>
<pdfrwt beam="2">  1        2 0.29355286E-02 0.20000691E+02</pdfrwt>
<pdfrwt beam="1">  1       -2 0.80633774E-03 0.20000691E+02</pdfrwt>
<totfact> 0.41503573E+06</totfact>
</mgrwt>
</event>
<event>
 5    1  0.4046313E-006  0.2000434E+02  0.7818608E-02  0.1745242E+00
         -2   -1    0    0    0  501 -0.00000000000E+00  0.00000000000E+00  0.11358381002E+01  0.11358410760E+01  0.26000000000E-02 0.  1.
          2   -1    0    0  501    0  0.00000000000E+00 -0.00000000000E+00 -0.88078816939E+02  0.88078816977E+02  0.26000000000E-02 0. -1.
       1023    2    1    2    0    0  0.00000000000E+00  0.00000000000E+00 -0.86942978839E+02  0.89214658053E+02  0.20004340584E+02 0.  0.
        -11    1    3    3    0    0 -0.72963167319E+01  0.68406838007E+01 -0.42978537495E+02  0.44126929172E+02  0.51100000000E-03 0. -1.
         11    1    3    3    0    0  0.72963167319E+01 -0.68406838007E+01 -0.43964441344E+02  0.45087728881E+02  0.51100000000E-03 0.  1.
<mgrwt>
<rscale>  0 0.20004341E+02</rscale>
<asrwt>0</asrwt>
<pdfrwt beam="2">  1        2 0.13550582E-01 0.20004341E+02</pdfrwt>
<pdfrwt beam="1">  1       -2 0.17474462E-03 0.20004341E+02</pdfrwt>
<totfact> 0.51283326E+06</totfact>
</mgrwt>
</event>
<event>
 5    1  0.4046313E-006  0.2000049E+02  0.7818608E-02  0.1745318E+00
          2   -1    0    0  501    0  0.00000000000E+00  0.00000000000E+00  0.54033338629E+02  0.54033338692E+02  0.26000000000E-02 0.  1.
         -2   -1    0    0    0  501 -0.00000000000E+00 -0.00000000000E+00 -0.18507995911E+01  0.18508014173E+01  0.26000000000E-02 0. -1.
       1023    2    1    2    0    0  0.00000000000E+00  0.00000000000E+00  0.52182539038E+02  0.55884140109E+02  0.20000493375E+02 0.  0.
        -11    1    3    3    0    0  0.51827981307E+01 -0.85523416111E+01  0.26179187581E+02  0.28024164683E+02  0.51100000000E-03 0. -1.
         11    1    3    3    0    0 -0.51827981307E+01  0.85523416111E+01  0.26003351457E+02  0.27859975426E+02  0.51100000000E-03 0.  1.
<mgrwt>
<rscale>  0 0.20000493E+02</rscale>
<asrwt>0</asrwt>
<pdfrwt beam="1">  1        2 0.83128218E-02 0.20000493E+02</pdfrwt>
<pdfrwt beam="2">  1       -2 0.28473853E-03 0.20000493E+02</pdfrwt>
<totfact> 0.46884341E+06</totfact>
</mgrwt>
</event>
<event>
 4    1  0.4046313E-006  0.2002261E+02  0.7818608E-02  0.1744879E+00
         -2   -1    0    0    0  501 -0.00000000000E+00  0.00000000000E+00  0.22797629572E+02  0.22797629721E+02  0.26000000000E-02 0. -1.
          2   -1    0    0  501    0  0.00000000000E+00 -0.00000000000E+00 -0.43963425385E+01  0.43963433073E+01  0.26000000000E-02 0.  1.
        -11    1    1    2    0    0 -0.87025652426E+01  0.49487206189E+01  0.92570246052E+01  0.13635137783E+02  0.51100000000E-03 0. -1.
         11    1    1    2    0    0  0.87025652426E+01 -0.49487206189E+01  0.91442624286E+01  0.13558835245E+02  0.51100000000E-03 0.  1.
<mgrwt>
<rscale>  0 0.20022607E+02</rscale>
<asrwt>0</asrwt>
<pdfrwt beam="2">  1        2 0.67636046E-03 0.20022607E+02</pdfrwt>
<pdfrwt beam="1">  1       -2 0.35073277E-02 0.20022607E+02</pdfrwt>
<totfact> 0.36925136E+06</totfact>
</mgrwt>
</event>
<event>
 5    1  0.4046313E-006  0.2000082E+02  0.7818608E-02  0.1745312E+00
         -2   -1    0    0    0  501 -0.00000000000E+00  0.00000000000E+00  0.63063660482E+01  0.63063665842E+01  0.26000000000E-02 0.  1.
          2   -1    0    0  501    0  0.00000000000E+00 -0.00000000000E+00 -0.15858294945E+02  0.15858295159E+02  0.26000000000E-02 0. -1.
       1023    2    1    2    0    0  0.00000000000E+00  0.00000000000E+00 -0.95519288972E+01  0.22164661743E+02  0.20000822096E+02 0.  0.
        -11    1    3    3    0    0 -0.88500915888E+01 -0.46563821122E+01 -0.47239225432E+01  0.11059903253E+02  0.51100000000E-03 0. -1.
         11    1    3    3    0    0  0.88500915888E+01  0.46563821122E+01 -0.48280063540E+01  0.11104758490E+02  0.51100000000E-03 0.  1.
<mgrwt>
<rscale>  0 0.20000822E+02</rscale>
<asrwt>0</asrwt>
<pdfrwt beam="2">  1        2 0.24397377E-02 0.20000822E+02</pdfrwt>
<pdfrwt beam="1">  1       -2 0.97021023E-03 0.20000822E+02</pdfrwt>
<totfact> 0.40866893E+06</totfact>
</mgrwt>
</event>
<event>
 5    1  0.4046313E-006  0.2000090E+02  0.7818608E-02  0.1745310E+00
         -2   -1    0    0    0  501 -0.00000000000E+00  0.00000000000E+00  0.33261574033E+01  0.33261584195E+01  0.26000000000E-02 0.  1.
          2   -1    0    0  501    0  0.00000000000E+00 -0.00000000000E+00 -0.30067431400E+02  0.30067431513E+02  0.26000000000E-02 0. -1.
       1023    2    1    2    0    0  0.00000000000E+00  0.00000000000E+00 -0.26741273997E+02  0.33393589932E+02  0.20000902819E+02 0.  0.
        -11    1    3    3    0    0  0.97238345932E+01 -0.23348370685E+01 -0.13257339864E+02  0.16606067682E+02  0.51100000000E-03 0.  1.
         11    1    3    3    0    0 -0.97238345932E+01  0.23348370685E+01 -0.13483934132E+02  0.16787522250E+02  0.51100000000E-03 0. -1.
<mgrwt>
<rscale>  0 0.20000903E+02</rscale>
<asrwt>0</asrwt>
<pdfrwt beam="2">  1        2 0.46257586E-02 0.20000903E+02</pdfrwt>
<pdfrwt beam="1">  1       -2 0.51171663E-03 0.20000903E+02</pdfrwt>
<totfact> 0.43379537E+06</totfact>
</mgrwt>
</event>
<event>
 5    1  0.4046313E-006  0.2000037E+02  0.7818608E-02  0.1745321E+00
          2   -1    0    0  501    0  0.00000000000E+00  0.00000000000E+00  0.45125723400E+01  0.45125730890E+01  0.26000000000E-02 0. -1.
         -2   -1    0    0    0  501 -0.00000000000E+00 -0.00000000000E+00 -0.22161116445E+02  0.22161116597E+02  0.26000000000E-02 0.  1.
       1023    2    1    2    0    0  0.00000000000E+00  0.00000000000E+00 -0.17648544105E+02  0.26673689686E+02  0.20000365308E+02 0.  0.
        -11    1    3    3    0    0 -0.63929582815E+01  0.76897161390E+01 -0.87645847435E+01  0.13297352965E+02  0.51100000000E-03 0.  1.
         11    1    3    3    0    0  0.63929582815E+01 -0.76897161390E+01 -0.88839593612E+01  0.13376336721E+02  0.51100000000E-03 0. -1.
<mgrwt>
<rscale>  0 0.20000365E+02</rscale>
<asrwt>0</asrwt>
<pdfrwt beam="1">  1        2 0.69424198E-03 0.20000365E+02</pdfrwt>
<pdfrwt beam="2">  1       -2 0.34094025E-02 0.20000365E+02</pdfrwt>
<totfact> 0.37106520E+06</totfact>
</mgrwt>
</event>
<event>
 5    1  0.4046313E-006  0.2000068E+02  0.7818608E-02  0.1745315E+00
          2   -1    0    0  501    0  0.00000000000E+00  0.00000000000E+00  0.73779750723E+01  0.73779755304E+01  0.26000000000E-02 0.  1.
         -2   -1    0    0    0  501 -0.00000000000E+00 -0.00000000000E+00 -0.13554768900E+02  0.13554769149E+02  0.26000000000E-02 0. -1.
       1023    2    1    2    0    0  0.00000000000E+00  0.00000000000E+00 -0.61767938276E+01  0.20932744680E+02  0.20000675434E+02 0.  0.
        -11    1    3    3    0    0  0.21193792995E+00  0.99977750912E+01 -0.31716641896E+01  0.10490942687E+02  0.51100000000E-03 0.  1.
         11    1    3    3    0    0 -0.21193792995E+00 -0.99977750912E+01 -0.30051296381E+01  0.10441801993E+02  0.51100000000E-03 0. -1.
<mgrwt>
<rscale>  0 0.20000675E+02</rscale>
<asrwt>0</asrwt>
<pdfrwt beam="1">  1        2 0.11350731E-02 0.20000675E+02</pdfrwt>
<pdfrwt beam="2">  1       -2 0.20853491E-02 0.20000675E+02</pdfrwt>
<totfact> 0.38587889E+06</totfact>
</mgrwt>
</event>
<event>
 5    1  0.4046313E-006  0.2000190E+02  0.7818608E-02  0.1745290E+00
         -2   -1    0    0    0  501 -0.00000000000E+00  0.00000000000E+00  0.36671538333E+01  0.36671547550E+01  0.26000000000E-02 0.  1.
          2   -1    0    0  501    0  0.00000000000E+00 -0.00000000000E+00 -0.27274273809E+02  0.27274273933E+02  0.26000000000E-02 0. -1.
       1023    2    1    2    0    0  0.00000000000E+00  0.00000000000E+00 -0.23607119976E+02  0.30941428688E+02  0.20001897303E+02 0.  0.
        -11    1    3    3    0    0  0.85748369797E+01  0.51469286850E+01 -0.11828957291E+02  0.15490091509E+02  0.51100000000E-03 0. -1.
         11    1    3    3    0    0 -0.85748369797E+01 -0.51469286850E+01 -0.11778162685E+02  0.15451337178E+02  0.51100000000E-03 0.  1.
<mgrwt>
<rscale>  0 0.20001897E+02</rscale>
<asrwt>0</asrwt>
<pdfrwt beam="2">  1        2 0.41960421E-02 0.20001897E+02</pdfrwt>
<pdfrwt beam="1">  1       -2 0.56417761E-03 0.20001897E+02</pdfrwt>
<totfact> 0.42925206E+06</totfact>
</mgrwt>
</event>
<event>
 5    1  0.4046313E-006  0.2000229E+02  0.7818608E-02  0.1745282E+00
         -2   -1    0    0    0  501 -0.00000000000E+00  0.00000000000E+00  0.14850685650E+02  0.14850685877E+02  0.26000000000E-02 0. -1.
          2   -1    0    0  501    0  0.00000000000E+00 -0.00000000000E+00 -0.67352393392E+01  0.67352398410E+01  0.26000000000E-02 0.  1.
       1023    2    1    2    0    0  0.00000000000E+00  0.00000000000E+00  0.81154463107E+01  0.21585925719E+02  0.20002292876E+02 0.  0.
        -11    1    3    3    0    0 -0.52823423598E+01 -0.84917878678E+01  0.39534959980E+01  0.10753777609E+02  0.51100000000E-03 0. -1.
         11    1    3    3    0    0  0.52823423598E+01  0.84917878678E+01  0.41619503127E+01  0.10832148109E+02  0.51100000000E-03 0.  1.
<mgrwt>
<rscale>  0 0.20002293E+02</rscale>
<asrwt>0</asrwt>
<pdfrwt beam="2">  1        2 0.10361907E-02 0.20002293E+02</pdfrwt>
<pdfrwt beam="1">  1       -2 0.22847209E-02 0.20002293E+02</pdfrwt>
<totfact> 0.38317258E+06</totfact>
</mgrwt>
</event>
<event>
 5    1  0.4046313E-006  0.2000044E+02  0.7818608E-02  0.1745319E+00
          2   -1    0    0  501    0  0.00000000000E+00  0.00000000000E+00  0.24929311489E+01  0.24929325047E+01  0.26000000000E-02 0. -1.
         -2   -1    0    0    0  501 -0.00000000000E+00 -0.00000000000E+00 -0.40115190870E+02  0.40115190955E+02  0.26000000000E-02 0.  1.
       1023    2    1    2    0    0  0.00000000000E+00  0.00000000000E+00 -0.37622259722E+02  0.42608123459E+02  0.20000443949E+02 0.  0.
        -11    1    3    3    0    0 -0.52365863285E+01 -0.85193115902E+01 -0.18944731312E+02  0.21422029574E+02  0.51100000000E-03 0.  1.
         11    1    3    3    0    0  0.52365863285E+01  0.85193115902E+01 -0.18677528410E+02  0.21186093885E+02  0.51100000000E-03 0. -1.
<mgrwt>
<rscale>  0 0.20000444E+02</rscale>
<asrwt>0</asrwt>
<pdfrwt beam="1">  1        2 0.38352801E-03 0.20000444E+02</pdfrwt>
<pdfrwt beam="2">  1       -2 0.61715675E-02 0.20000444E+02</pdfrwt>
<totfact> 0.34906461E+06</totfact>
</mgrwt>
</event>
<event>
 5    1  0.4046313E-006  0.2000077E+02  0.7818608E-02  0.1745313E+00
          2   -1    0    0  501    0  0.00000000000E+00  0.00000000000E+00  0.10238351000E+02  0.10238351330E+02  0.26000000000E-02 0. -1.
         -2   -1    0    0    0  501 -0.00000000000E+00 -0.00000000000E+00 -0.97679513703E+01  0.97679517163E+01  0.26000000000E-02 0.  1.
       1023    2    1    2    0    0  0.00000000000E+00  0.00000000000E+00  0.47039962959E+00  0.20006303046E+02  0.20000772129E+02 0.  0.
        -11    1    3    3    0    0 -0.71397567208E+01 -0.70021005605E+01  0.18846547715E+00  0.10002052679E+02  0.51100000000E-03 0. -1.
         11    1    3    3    0    0  0.71397567208E+01  0.70021005605E+01  0.28193415244E+00  0.10004250368E+02  0.51100000000E-03 0.  1.
<mgrwt>
<rscale>  0 0.20000772E+02</rscale>
<asrwt>0</asrwt>
<pdfrwt beam="1">  1        2 0.15751310E-02 0.20000772E+02</pdfrwt>
<pdfrwt beam="2">  1       -2 0.15027618E-02 0.20000772E+02</pdfrwt>
<totfact> 0.39527912E+06</totfact>
</mgrwt>
</event>
<event>
 5    1  0.4046313E-006  0.2000211E+02  0.7818608E-02  0.1745286E+00
          2   -1    0    0  501    0  0.00000000000E+00  0.00000000000E+00  0.25692130935E+02  0.25692131067E+02  0.26000000000E-02 0. -1.
         -2   -1    0    0    0  501 -0.00000000000E+00 -0.00000000000E+00 -0.38930618866E+01  0.38930627548E+01  0.26000000000E-02 0.  1.
       1023    2    1    2    0    0  0.00000000000E+00  0.00000000000E+00  0.21799069049E+02  0.29585193822E+02  0.20002106941E+02 0.  0.
        -11    1    3    3    0    0  0.34994617827E+01 -0.93687657197E+01  0.10851233722E+02  0.14757007740E+02  0.51100000000E-03 0. -1.
         11    1    3    3    0    0 -0.34994617827E+01  0.93687657197E+01  0.10947835326E+02  0.14828186082E+02  0.51100000000E-03 0.  1.
<mgrwt>
<rscale>  0 0.20002107E+02</rscale>
<asrwt>0</asrwt>
<pdfrwt beam="1">  1        2 0.39526356E-02 0.20002107E+02</pdfrwt>
<pdfrwt beam="2">  1       -2 0.59893267E-03 0.20002107E+02</pdfrwt>
<totfact> 0.42662703E+06</totfact>
</mgrwt>
</event>
<event>
 5    1  0.4046313E-006  0.2000140E+02  0.7818608E-02  0.1745300E+00
          2   -1    0    0  501    0  0.00000000000E+00  0.00000000000E+00  0.37038045031E+01  0.37038054157E+01  0.26000000000E-02 0. -1.
         -2   -1    0    0    0  501 -0.00000000000E+00 -0.00000000000E+00 -0.27003027922E+02  0.27003028048E+02  0.26000000000E-02 0.  1.
       1023    2    1    2    0    0  0.00000000000E+00  0.00000000000E+00 -0.23299223419E+02  0.30706833463E+02  0.20001395186E+02 0.  0.
        -11    1    3    3    0    0 -0.21623460087E+01  0.97638798378E+01 -0.11542559053E+02  0.15272189087E+02  0.51100000000E-03 0.  1.
         11    1    3    3    0    0  0.21623460087E+01 -0.97638798378E+01 -0.11756664366E+02  0.15434644377E+02  0.51100000000E-03 0. -1.
<mgrwt>
<rscale>  0 0.20001395E+02</rscale>
<asrwt>0</asrwt>
<pdfrwt beam="1">  1        2 0.56981617E-03 0.20001395E+02</pdfrwt>
<pdfrwt beam="2">  1       -2 0.41543119E-02 0.20001395E+02</pdfrwt>
<totfact> 0.36437596E+06</totfact>
</mgrwt>
</event>
<event>
 5    1  0.4046313E-006  0.2000062E+02  0.7818608E-02  0.1745316E+00
         -2   -1    0    0    0  501 -0.00000000000E+00  0.00000000000E+00  0.33053324778E+01  0.33053335004E+01  0.26000000000E-02 0. -1.
          2   -1    0    0  501    0  0.00000000000E+00 -0.00000000000E+00 -0.30256009582E+02  0.30256009693E+02  0.26000000000E-02 0.  1.
       1023    2    1    2    0    0  0.00000000000E+00  0.00000000000E+00 -0.26950677104E+02  0.33561343194E+02  0.20000619006E+02 0.  0.
        -11    1    3    3    0    0  0.99999344769E+01  0.52301158105E-01 -0.13591169489E+02  0.16873687009E+02  0.51100000000E-03 0.  1.
         11    1    3    3    0    0 -0.99999344769E+01 -0.52301158105E-01 -0.13359507615E+02  0.16687656184E+02  0.51100000000E-03 0. -1.
<mgrwt>
<rscale>  0 0.20000619E+02</rscale>
<asrwt>0</asrwt>
<pdfrwt beam="2">  1        2 0.46547706E-02 0.20000619E+02</pdfrwt>
<pdfrwt beam="1">  1       -2 0.50851280E-03 0.20000619E+02</pdfrwt>
<totfact> 0.43410792E+06</totfact>
</mgrwt>
</event>
<event>
 5    1  0.4046313E-006  0.2000066E+02  0.7818608E-02  0.1745315E+00
         -2   -1    0    0    0  501 -0.00000000000E+00  0.00000000000E+00  0.14750560564E+02  0.14750560794E+02  0.26000000000E-02 0. -1.
          2   -1    0    0  501    0  0.00000000000E+00 -0.00000000000E+00 -0.67798503747E+01  0.67798508732E+01  0.26000000000E-02 0.  1.
       1023    2    1    2    0    0  0.00000000000E+00  0.00000000000E+00  0.79707101897E+01  0.21530411667E+02  0.20000660129E+02 0.  0.
        -11    1    3    3    0    0 -0.18966074819E+01  0.98185012548E+01  0.38984706073E+01  0.10733040584E+02  0.51100000000E-03 0.  1.
         11    1    3    3    0    0  0.18966074819E+01 -0.98185012548E+01  0.40722395824E+01  0.10797371083E+02  0.51100000000E-03 0. -1.
<mgrwt>
<rscale>  0 0.20000660E+02</rscale>
<asrwt>0</asrwt>
<pdfrwt beam="2">  1        2 0.10430540E-02 0.20000660E+02</pdfrwt>
<pdfrwt beam="1">  1       -2 0.22693171E-02 0.20000660E+02</pdfrwt>
<totfact> 0.38343666E+06</totfact>
</mgrwt>
</event>
<event>
 5    1  0.4046313E-006  0.2000121E+02  0.7818608E-02  0.1745304E+00
         -2   -1    0    0    0  501 -0.00000000000E+00  0.00000000000E+00  0.15362815459E+02  0.15362815679E+02  0.26000000000E-02 0.  1.
          2   -1    0    0  501    0  0.00000000000E+00 -0.00000000000E+00 -0.65100083827E+01  0.65100089019E+01  0.26000000000E-02 0. -1.
       1023    2    1    2    0    0  0.00000000000E+00  0.00000000000E+00  0.88528070764E+01  0.21872824581E+02  0.20001206514E+02 0.  0.
        -11    1    3    3    0    0  0.97385143948E+01  0.22744323122E+01  0.44056462094E+01  0.10928010969E+02  0.51100000000E-03 0.  1.
         11    1    3    3    0    0 -0.97385143948E+01 -0.22744323122E+01  0.44471608669E+01  0.10944813612E+02  0.51100000000E-03 0. -1.
<mgrwt>
<rscale>  0 0.20001207E+02</rscale>
<asrwt>0</asrwt>
<pdfrwt beam="2">  1        2 0.10015398E-02 0.20001207E+02</pdfrwt>
<pdfrwt beam="1">  1       -2 0.23635101E-02 0.20001207E+02</pdfrwt>
<totfact> 0.38222950E+06</totfact>
</mgrwt>
</event>
<event>
 5    1  0.4046313E-006  0.2000085E+02  0.7818608E-02  0.1745311E+00
          2   -1    0    0  501    0  0.00000000000E+00  0.00000000000E+00  0.10139329184E+02  0.10139329517E+02  0.26000000000E-02 0. -1.
         -2   -1    0    0    0  501 -0.00000000000E+00 -0.00000000000E+00 -0.98634250031E+01  0.98634253458E+01  0.26000000000E-02 0.  1.
       1023    2    1    2    0    0  0.00000000000E+00  0.00000000000E+00  0.27590418099E+00  0.20002754863E+02  0.20000851957E+02 0.  0.
        -11    1    3    3    0    0  0.96623907388E+01  0.25767686688E+01  0.22155386897E+00  0.10002530577E+02  0.51100000000E-03 0.  1.
         11    1    3    3    0    0 -0.96623907388E+01 -0.25767686688E+01  0.54350312013E-01  0.10000224286E+02  0.51100000000E-03 0. -1.
<mgrwt>
<rscale>  0 0.20000852E+02</rscale>
<asrwt>0</asrwt>
<pdfrwt beam="1">  1        2 0.15598968E-02 0.20000852E+02</pdfrwt>
<pdfrwt beam="2">  1       -2 0.15174501E-02 0.20000852E+02</pdfrwt>
<totfact> 0.39499375E+06</totfact>
</mgrwt>
</event>
<event>
 5    1  0.4046313E-006  0.2000076E+02  0.7818608E-02  0.1745313E+00
          2   -1    0    0  501    0  0.00000000000E+00  0.00000000000E+00  0.14145233083E+02  0.14145233322E+02  0.26000000000E-02 0. -1.
         -2   -1    0    0    0  501 -0.00000000000E+00 -0.00000000000E+00 -0.70700587804E+01  0.70700592585E+01  0.26000000000E-02 0.  1.
       1023    2    1    2    0    0  0.00000000000E+00  0.00000000000E+00  0.70751743026E+01  0.21215292580E+02  0.20000763682E+02 0.  0.
        -11    1    3    3    0    0  0.93515574622E+01 -0.35428314604E+01  0.34675875688E+01  0.10584301844E+02  0.51100000000E-03 0. -1.
         11    1    3    3    0    0 -0.93515574622E+01  0.35428314604E+01  0.36075867338E+01  0.10630990736E+02  0.51100000000E-03 0.  1.
<mgrwt>
<rscale>  0 0.20000764E+02</rscale>
<asrwt>0</asrwt>
<pdfrwt beam="1">  1        2 0.21761898E-02 0.20000764E+02</pdfrwt>
<pdfrwt beam="2">  1       -2 0.10877014E-02 0.20000764E+02</pdfrwt>
<totfact> 0.40499406E+06</totfact>
</mgrwt>
</event>
<event>
 5    1  0.4046313E-006  0.2000086E+02  0.7818608E-02  0.1745311E+00
          2   -1    0    0  501    0  0.00000000000E+00  0.00000000000E+00  0.60027230550E+01  0.60027236181E+01  0.26000000000E-02 0. -1.
         -2   -1    0    0    0  501 -0.00000000000E+00 -0.00000000000E+00 -0.16660540865E+02  0.16660541068E+02  0.26000000000E-02 0.  1.
       1023    2    1    2    0    0  0.00000000000E+00  0.00000000000E+00 -0.10657817810E+02  0.22663264686E+02  0.20000862126E+02 0.  0.
        -11    1    3    3    0    0 -0.98088244100E+01  0.19478193926E+01 -0.53740132229E+01  0.11352843480E+02  0.51100000000E-03 0.  1.
         11    1    3    3    0    0  0.98088244100E+01 -0.19478193926E+01 -0.52838045876E+01  0.11310421207E+02  0.51100000000E-03 0. -1.
<mgrwt>
<rscale>  0 0.20000862E+02</rscale>
<asrwt>0</asrwt>
<pdfrwt beam="1">  1        2 0.92349592E-03 0.20000862E+02</pdfrwt>
<pdfrwt beam="2">  1       -2 0.25631602E-02 0.20000862E+02</pdfrwt>
<totfact> 0.37985616E+06</totfact>
</mgrwt>
</event>
<event>
 5    1  0.4046313E-006  0.2000050E+02  0.7818608E-02  0.1745318E+00
          2   -1    0    0  501    0  0.00000000000E+00  0.00000000000E+00  0.25959351050E+01  0.25959364070E+01  0.26000000000E-02 0. -1.
         -2   -1    0    0    0  501 -0.00000000000E+00 -0.00000000000E+00 -0.38523665847E+02  0.38523665934E+02  0.26000000000E-02 0.  1.
       1023    2    1    2    0    0  0.00000000000E+00  0.00000000000E+00 -0.35927730742E+02  0.41119602341E+02  0.20000496506E+02 0.  0.
        -11    1    3    3    0    0 -0.88194225334E+01 -0.47140577087E+01 -0.18005543095E+02  0.20596216553E+02  0.51100000000E-03 0. -1.
         11    1    3    3    0    0  0.88194225334E+01  0.47140577087E+01 -0.17922187647E+02  0.20523385788E+02  0.51100000000E-03 0.  1.
<mgrwt>
<rscale>  0 0.20000497E+02</rscale>
<asrwt>0</asrwt>
<pdfrwt beam="1">  1        2 0.39937477E-03 0.20000497E+02</pdfrwt>
<pdfrwt beam="2">  1       -2 0.59267175E-02 0.20000497E+02</pdfrwt>
<totfact> 0.35078293E+06</totfact>
</mgrwt>
</event>
<event>
 5    1  0.4046313E-006  0.2000037E+02  0.7818608E-02  0.1745321E+00
         -2   -1    0    0    0  501 -0.00000000000E+00  0.00000000000E+00  0.55395318560E+01  0.55395324662E+01  0.26000000000E-02 0. -1.
          2   -1    0    0  501    0  0.00000000000E+00 -0.00000000000E+00 -0.18052725904E+02  0.18052726091E+02  0.26000000000E-02 0.  1.
       1023    2    1    2    0    0  0.00000000000E+00  0.00000000000E+00 -0.12513194048E+02  0.23592258558E+02  0.20000365961E+02 0.  0.
        -11    1    3    3    0    0  0.44780738501E+01  0.89414721497E+01 -0.62852435810E+01  0.11811323243E+02  0.51100000000E-03 0.  1.
         11    1    3    3    0    0 -0.44780738501E+01 -0.89414721497E+01 -0.62279504671E+01  0.11780935315E+02  0.51100000000E-03 0. -1.
<mgrwt>
<rscale>  0 0.20000366E+02</rscale>
<asrwt>0</asrwt>
<pdfrwt beam="2">  1        2 0.27773425E-02 0.20000366E+02</pdfrwt>
<pdfrwt beam="1">  1       -2 0.85223573E-03 0.20000366E+02</pdfrwt>
<totfact> 0.41308597E+06</totfact>
</mgrwt>
</event>
<event>
 5    1  0.4445153E-006  0.2000094E+02  0.7818608E-02  0.1745309E+00
         -2   -1    0    0    0  501 -0.00000000000E+00  0.00000000000E+00  0.10408551645E+01  0.10408584118E+01  0.26000000000E-02 0.  1.
          2   -1    0    0  501    0  0.00000000000E+00 -0.00000000000E+00 -0.96083685064E+02  0.96083685099E+02  0.26000000000E-02 0. -1.
       1023    2    1    2    0    0  0.00000000000E+00  0.00000000000E+00 -0.95042829900E+02  0.97124543511E+02  0.20000935901E+02 0.  0.
        -11    1    3    3    0    0  0.99531132690E+01 -0.96970427775E+00 -0.47849647156E+02  0.48883468815E+02  0.51100000000E-03 0.  1.
         11    1    3    3    0    0 -0.99531132690E+01  0.96970427775E+00 -0.47193182743E+02  0.48241074696E+02  0.51100000000E-03 0. -1.
<mgrwt>
<rscale>  0 0.20000936E+02</rscale>
<asrwt>0</asrwt>
<pdfrwt beam="2">  1        2 0.14782099E-01 0.20000936E+02</pdfrwt>
<pdfrwt beam="1">  1       -2 0.16013189E-03 0.20000936E+02</pdfrwt>
<totfact> 0.52281190E+06</totfact>
</mgrwt>
</event>
<event>
 5    1  0.4046313E-006  0.2000193E+02  0.7818608E-02  0.1745290E+00
         -2   -1    0    0    0  501 -0.00000000000E+00  0.00000000000E+00  0.93910869978E+02  0.93910870014E+02  0.26000000000E-02 0.  1.
          2   -1    0    0  501    0  0.00000000000E+00 -0.00000000000E+00 -0.10650436322E+01  0.10650468058E+01  0.26000000000E-02 0. -1.
       1023    2    1    2    0    0  0.00000000000E+00  0.00000000000E+00  0.92845826345E+02  0.94975916819E+02  0.20001932555E+02 0.  0.
        -11    1    3    3    0    0 -0.99052679811E+01  0.13763383083E+01  0.45932078847E+02  0.47008132364E+02  0.51100000000E-03 0.  1.
         11    1    3    3    0    0  0.99052679811E+01 -0.13763383083E+01  0.46913747498E+02  0.47967784455E+02  0.51100000000E-03 0. -1.
<mgrwt>
<rscale>  0 0.20001933E+02</rscale>
<asrwt>0</asrwt>
<pdfrwt beam="2">  1        2 0.16385310E-03 0.20001933E+02</pdfrwt>
<pdfrwt beam="1">  1       -2 0.14447828E-01 0.20001933E+02</pdfrwt>
<totfact> 0.30173379E+06</totfact>
</mgrwt>
</event>
<event>
 5    1  0.4046313E-006  0.2000049E+02  0.7818608E-02  0.1745318E+00
         -2   -1    0    0    0  501 -0.00000000000E+00  0.00000000000E+00  0.27397564355E+01  0.27397576692E+01  0.26000000000E-02 0.  1.
          2   -1    0    0  501    0  0.00000000000E+00 -0.00000000000E+00 -0.36501381449E+02  0.36501381541E+02  0.26000000000E-02 0. -1.
       1023    2    1    2    0    0  0.00000000000E+00  0.00000000000E+00 -0.33761625013E+02  0.39241139210E+02  0.20000492069E+02 0.  0.
        -11    1    3    3    0    0 -0.43889518840E+01  0.89856539697E+01 -0.16893913618E+02  0.19631841317E+02  0.51100000000E-03 0.  1.
         11    1    3    3    0    0  0.43889518840E+01 -0.89856539697E+01 -0.16867711395E+02  0.19609297894E+02  0.51100000000E-03 0. -1.
<mgrwt>
<rscale>  0 0.20000492E+02</rscale>
<asrwt>0</asrwt>
<pdfrwt beam="2">  1        2 0.56155969E-02 0.20000492E+02</pdfrwt>
<pdfrwt beam="1">  1       -2 0.42150112E-03 0.20000492E+02</pdfrwt>
<totfact> 0.44373690E+06</totfact>
</mgrwt>
</event>
<event>
 5    1  0.4046313E-006  0.2000407E+02  0.7818608E-02  0.1745247E+00
         -2   -1    0    0    0  501 -0.00000000000E+00  0.00000000000E+00  0.68220523814E+01  0.68220528769E+01  0.26000000000E-02 0.  1.
          2   -1    0    0  501    0  0.00000000000E+00 -0.00000000000E+00 -0.14664310781E+02  0.14664311011E+02  0.26000000000E-02 0. -1.
       1023    2    1    2    0    0  0.00000000000E+00  0.00000000000E+00 -0.78422583994E+01  0.21486363888E+02  0.20004069994E+02 0.  0.
        -11    1    3    3    0    0 -0.91108647284E+01 -0.41263648121E+01 -0.38381995295E+01  0.10712913635E+02  0.51100000000E-03 0. -1.
         11    1    3    3    0    0  0.91108647284E+01  0.41263648121E+01 -0.40040588700E+01  0.10773450253E+02  0.51100000000E-03 0.  1.
<mgrwt>
<rscale>  0 0.20004070E+02</rscale>
<asrwt>0</asrwt>
<pdfrwt beam="2">  1        2 0.22560479E-02 0.20004070E+02</pdfrwt>
<pdfrwt beam="1">  1       -2 0.10495466E-02 0.20004070E+02</pdfrwt>
<totfact> 0.40598352E+06</totfact>
</mgrwt>
</event>
<event>
 5    1  0.4367386E-006  0.2000038E+02  0.7818608E-02  0.1745321E+00
         -2   -1    0    0    0  501 -0.00000000000E+00  0.00000000000E+00  0.67408697415E+01  0.67408702429E+01  0.26000000000E-02 0. -1.
          2   -1    0    0  501    0  0.00000000000E+00 -0.00000000000E+00 -0.14835442302E+02  0.14835442530E+02  0.26000000000E-02 0.  1.
       1023    2    1    2    0    0  0.00000000000E+00  0.00000000000E+00 -0.80945725609E+01  0.21576312773E+02  0.20000379195E+02 0.  0.
        -11    1    3    3    0    0 -0.99957815056E+01  0.29314646420E+00 -0.40979892727E+01  0.10807178128E+02  0.51100000000E-03 0. -1.
         11    1    3    3    0    0  0.99957815056E+01 -0.29314646420E+00 -0.39965832881E+01  0.10769134645E+02  0.51100000000E-03 0.  1.
<mgrwt>
<rscale>  0 0.20000379E+02</rscale>
<asrwt>0</asrwt>
<pdfrwt beam="2">  1        2 0.22823758E-02 0.20000379E+02</pdfrwt>
<pdfrwt beam="1">  1       -2 0.10370569E-02 0.20000379E+02</pdfrwt>
<totfact> 0.40652414E+06</totfact>
</mgrwt>
</event>
<event>
 5    1  0.4046313E-006  0.2000343E+02  0.7818608E-02  0.1745260E+00
         -2   -1    0    0    0  501 -0.00000000000E+00  0.00000000000E+00  0.30136484700E+02  0.30136484812E+02  0.26000000000E-02 0.  1.
          2   -1    0    0  501    0  0.00000000000E+00 -0.00000000000E+00 -0.33193751738E+01  0.33193761921E+01  0.26000000000E-02 0. -1.
       1023    2    1    2    0    0  0.00000000000E+00  0.00000000000E+00  0.26817109526E+02  0.33455861004E+02  0.20003431510E+02 0.  0.
        -11    1    3    3    0    0 -0.65396533749E+01  0.75671609085E+01  0.13286481218E+02  0.16630080394E+02  0.51100000000E-03 0.  1.
         11    1    3    3    0    0  0.65396533749E+01 -0.75671609085E+01  0.13530628308E+02  0.16825780610E+02  0.51100000000E-03 0. -1.
<mgrwt>
<rscale>  0 0.20003432E+02</rscale>
<asrwt>0</asrwt>
<pdfrwt beam="2">  1        2 0.51067319E-03 0.20003432E+02</pdfrwt>
<pdfrwt beam="1">  1       -2 0.46363824E-02 0.20003432E+02</pdfrwt>
<totfact> 0.36034091E+06</totfact>
</mgrwt>
</event>
<event>
 5    1  0.4046313E-006  0.2000123E+02  0.7818608E-02  0.1745304E+00
          2   -1    0    0  501    0  0.00000000000E+00  0.00000000000E+00  0.11439629523E+02  0.11439629818E+02  0.26000000000E-02 0. -1.
         -2   -1    0    0    0  501 -0.00000000000E+00 -0.00000000000E+00 -0.87426130601E+01  0.87426134467E+01  0.26000000000E-02 0.  1.
       1023    2    1    2    0    0  0.00000000000E+00  0.00000000000E+00  0.26970164626E+01  0.20182243265E+02  0.20001226097E+02 0.  0.
        -11    1    3    3    0    0 -0.48778134294E+01  0.87301166223E+01  0.14143753264E+01  0.10099923659E+02  0.51100000000E-03 0. -1.
         11    1    3    3    0    0  0.48778134294E+01 -0.87301166223E+01  0.12826411362E+01  0.10082319606E+02  0.51100000000E-03 0.  1.
<mgrwt>
<rscale>  0 0.20001226E+02</rscale>
<asrwt>0</asrwt>
<pdfrwt beam="1">  1        2 0.17599431E-02 0.20001226E+02</pdfrwt>
<pdfrwt beam="2">  1       -2 0.13450174E-02 0.20001226E+02</pdfrwt>
<totfact> 0.39850800E+06</totfact>
</mgrwt>
</event>
<event>
 5    1  0.4046313E-006  0.2000019E+02  0.7818608E-02  0.1745324E+00
          2   -1    0    0  501    0  0.00000000000E+00  0.00000000000E+00  0.77337621589E+01  0.77337625959E+01  0.26000000000E-02 0. -1.
         -2   -1    0    0    0  501 -0.00000000000E+00 -0.00000000000E+00 -0.12930560376E+02  0.12930560638E+02  0.26000000000E-02 0.  1.
       1023    2    1    2    0    0  0.00000000000E+00  0.00000000000E+00 -0.51967982175E+01  0.20664323234E+02  0.20000188574E+02 0.  0.
        -11    1    3    3    0    0  0.93469035508E+01 -0.35548734794E+01 -0.26112227289E+01  0.10335386584E+02  0.51100000000E-03 0. -1.
         11    1    3    3    0    0 -0.93469035508E+01  0.35548734794E+01 -0.25855754886E+01  0.10328936650E+02  0.51100000000E-03 0.  1.
<mgrwt>
<rscale>  0 0.20000189E+02</rscale>
<asrwt>0</asrwt>
<pdfrwt beam="1">  1        2 0.11898096E-02 0.20000189E+02</pdfrwt>
<pdfrwt beam="2">  1       -2 0.19893170E-02 0.20000189E+02</pdfrwt>
<totfact> 0.38725305E+06</totfact>
</mgrwt>
</event>
<event>
 5    1  0.4046313E-006  0.2000027E+02  0.7818608E-02  0.1745323E+00
          2   -1    0    0  501    0  0.00000000000E+00  0.00000000000E+00  0.97189296841E+02  0.97189296875E+02  0.26000000000E-02 0.  1.
         -2   -1    0    0    0  501 -0.00000000000E+00 -0.00000000000E+00 -0.10289459844E+01  0.10289492693E+01  0.26000000000E-02 0. -1.
       1023    2    1    2    0    0  0.00000000000E+00  0.00000000000E+00  0.96160350856E+02  0.98218246145E+02  0.20000269972E+02 0.  0.
        -11    1    3    3    0    0 -0.84534636586E+01 -0.53424223358E+01  0.48145183454E+02  0.49172769033E+02  0.51100000000E-03 0.  1.
         11    1    3    3    0    0  0.84534636586E+01  0.53424223358E+01  0.48015167402E+02  0.49045477112E+02  0.51100000000E-03 0. -1.
<mgrwt>
<rscale>  0 0.20000270E+02</rscale>
<asrwt>0</asrwt>
<pdfrwt beam="1">  1        2 0.14952206E-01 0.20000270E+02</pdfrwt>
<pdfrwt beam="2">  1       -2 0.15829957E-03 0.20000270E+02</pdfrwt>
<totfact> 0.52418594E+06</totfact>
</mgrwt>
</event>
<event>
 5    1  0.4046313E-006  0.2000023E+02  0.7818608E-02  0.1745324E+00
          2   -1    0    0  501    0  0.00000000000E+00  0.00000000000E+00  0.32418637926E+02  0.32418638030E+02  0.26000000000E-02 0.  1.
         -2   -1    0    0    0  501 -0.00000000000E+00 -0.00000000000E+00 -0.30847156119E+01  0.30847167076E+01  0.26000000000E-02 0. -1.
       1023    2    1    2    0    0  0.00000000000E+00  0.00000000000E+00  0.29333922314E+02  0.35503354737E+02  0.20000229981E+02 0.  0.
        -11    1    3    3    0    0 -0.12028011974E+00 -0.99992783139E+01  0.14751452542E+02  0.17821486651E+02  0.51100000000E-03 0. -1.
         11    1    3    3    0    0  0.12028011974E+00  0.99992783139E+01  0.14582469772E+02  0.17681868086E+02  0.51100000000E-03 0.  1.
<mgrwt>
<rscale>  0 0.20000230E+02</rscale>
<asrwt>0</asrwt>
<pdfrwt beam="1">  1        2 0.49874829E-02 0.20000230E+02</pdfrwt>
<pdfrwt beam="2">  1       -2 0.47457172E-03 0.20000230E+02</pdfrwt>
<totfact> 0.43751543E+06</totfact>
</mgrwt>
</event>
<event>
 5    1  0.4046313E-006  0.2000019E+02  0.7818608E-02  0.1745324E+00
          2   -1    0    0  501    0  0.00000000000E+00  0.00000000000E+00  0.10263799725E+02  0.10263800054E+02  0.26000000000E-02 0. -1.
         -2   -1    0    0    0  501 -0.00000000000E+00 -0.00000000000E+00 -0.97431621582E+01  0.97431625052E+01  0.26000000000E-02 0.  1.
       1023    2    1    2    0    0  0.00000000000E+00  0.00000000000E+00  0.52063756683E+00  0.20006962560E+02  0.20000187184E+02 0.  0.
        -11    1    3    3    0    0 -0.61748548962E+01  0.78659405911E+01  0.25616858747E+00  0.10003373280E+02  0.51100000000E-03 0. -1.
         11    1    3    3    0    0  0.61748548962E+01 -0.78659405911E+01  0.26446897936E+00  0.10003589280E+02  0.51100000000E-03 0.  1.
<mgrwt>
<rscale>  0 0.20000187E+02</rscale>
<asrwt>0</asrwt>
<pdfrwt beam="1">  1        2 0.15790462E-02 0.20000187E+02</pdfrwt>
<pdfrwt beam="2">  1       -2 0.14989481E-02 0.20000187E+02</pdfrwt>
<totfact> 0.39537756E+06</totfact>
</mgrwt>
</event>
<event>
 5    1  0.4046313E-006  0.2000226E+02  0.7818608E-02  0.1745283E+00
         -2   -1    0    0    0  501 -0.00000000000E+00  0.00000000000E+00  0.63549198025E+02  0.63549198079E+02  0.26000000000E-02 0. -1.
          2   -1    0    0  501    0  0.00000000000E+00 -0.00000000000E+00 -0.15739388027E+01  0.15739409502E+01  0.26000000000E-02 0.  1.
       1023    2    1    2    0    0  0.00000000000E+00  0.00000000000E+00  0.61975259223E+02  0.65123139029E+02  0.20002261903E+02 0.  0.
        -11    1    3    3    0    0  0.45655196552E+01  0.88981866884E+01  0.31086596346E+02  0.32655752459E+02  0.51100000000E-03 0. -1.
         11    1    3    3    0    0 -0.45655196552E+01 -0.88981866884E+01  0.30888662877E+02  0.32467386570E+02  0.51100000000E-03 0.  1.
<mgrwt>
<rscale>  0 0.20002262E+02</rscale>
<asrwt>0</asrwt>
<pdfrwt beam="2">  1        2 0.24214464E-03 0.20002262E+02</pdfrwt>
<pdfrwt beam="1">  1       -2 0.97767984E-02 0.20002262E+02</pdfrwt>
<totfact> 0.32634178E+06</totfact>
</mgrwt>
</event>
<event>
 5    1  0.4046313E-006  0.2000123E+02  0.7818608E-02  0.1745304E+00
          2   -1    0    0  501    0  0.00000000000E+00  0.00000000000E+00  0.19801503174E+02  0.19801503344E+02  0.26000000000E-02 0. -1.
         -2   -1    0    0    0  501 -0.00000000000E+00 -0.00000000000E+00 -0.50507423772E+01  0.50507430464E+01  0.26000000000E-02 0.  1.
       1023    2    1    2    0    0  0.00000000000E+00  0.00000000000E+00  0.14750760797E+02  0.24852246391E+02  0.20001230127E+02 0.  0.
        -11    1    3    3    0    0  0.41264077066E+01  0.91094465518E+01  0.74439380508E+01  0.12466814790E+02  0.51100000000E-03 0.  1.
         11    1    3    3    0    0 -0.41264077066E+01 -0.91094465518E+01  0.73068227458E+01  0.12385431601E+02  0.51100000000E-03 0. -1.
<mgrwt>
<rscale>  0 0.20001230E+02</rscale>
<asrwt>0</asrwt>
<pdfrwt beam="1">  1        2 0.30463852E-02 0.20001230E+02</pdfrwt>
<pdfrwt beam="2">  1       -2 0.77703733E-03 0.20001230E+02</pdfrwt>
<totfact> 0.41635553E+06</totfact>
</mgrwt>
</event>
<event>
 5    1  0.4046313E-006  0.2000563E+02  0.7818608E-02  0.1745216E+00
          2   -1    0    0  501    0  0.00000000000E+00  0.00000000000E+00  0.26615667302E+02  0.26615667429E+02  0.26000000000E-02 0.  1.
         -2   -1    0    0    0  501 -0.00000000000E+00 -0.00000000000E+00 -0.37593020750E+01  0.37593029741E+01  0.26000000000E-02 0. -1.
       1023    2    1    2    0    0  0.00000000000E+00  0.00000000000E+00  0.22856365227E+02  0.30374970403E+02  0.20005634096E+02 0.  0.
        -11    1    3    3    0    0 -0.80672370396E+01  0.59128113345E+01  0.11612252372E+02  0.15325992847E+02  0.51100000000E-03 0.  1.
         11    1    3    3    0    0  0.80672370396E+01 -0.59128113345E+01  0.11244112854E+02  0.15048977556E+02  0.51100000000E-03 0. -1.
<mgrwt>
<rscale>  0 0.20005634E+02</rscale>
<asrwt>0</asrwt>
<pdfrwt beam="1">  1        2 0.40947184E-02 0.20005634E+02</pdfrwt>
<pdfrwt beam="2">  1       -2 0.57835421E-03 0.20005634E+02</pdfrwt>
<totfact> 0.42799035E+06</totfact>
</mgrwt>
</event>
<event>
 4    1  0.4046313E-006  0.2002095E+02  0.7818608E-02  0.1744912E+00
         -2   -1    0    0    0  501 -0.00000000000E+00  0.00000000000E+00  0.35719238655E+02  0.35719238750E+02  0.26000000000E-02 0.  1.
          2   -1    0    0  501    0  0.00000000000E+00 -0.00000000000E+00 -0.28054791071E+01  0.28054803119E+01  0.26000000000E-02 0. -1.
        -11    1    1    2    0    0 -0.90469656724E+01 -0.42769690661E+01  0.15949416964E+02  0.18828806495E+02  0.51100000000E-03 0.  1.
         11    1    1    2    0    0  0.90469656724E+01  0.42769690661E+01  0.16964342584E+02  0.19695912567E+02  0.51100000000E-03 0. -1.
<mgrwt>
<rscale>  0 0.20020949E+02</rscale>
<asrwt>0</asrwt>
<pdfrwt beam="2">  1        2 0.43161230E-03 0.20020949E+02</pdfrwt>
<pdfrwt beam="1">  1       -2 0.54952672E-02 0.20020949E+02</pdfrwt>
<totfact> 0.35310547E+06</totfact>
</mgrwt>
</event>
<event>
 4    1  0.4046313E-006  0.2016356E+02  0.7818608E-02  0.1742095E+00
          2   -1    0    0  501    0  0.00000000000E+00  0.00000000000E+00  0.22043461596E+02  0.22043461750E+02  0.26000000000E-02 0.  1.
         -2   -1    0    0    0  501 -0.00000000000E+00 -0.00000000000E+00 -0.46109965569E+01  0.46109972899E+01  0.26000000000E-02 0. -1.
        -11    1    1    2    0    0 -0.72499181883E+01 -0.69948498346E+01  0.81989963184E+01  0.12988948334E+02  0.51100000000E-03 0. -1.
         11    1    1    2    0    0  0.72499181883E+01  0.69948498346E+01  0.92334687211E+01  0.13665510705E+02  0.51100000000E-03 0.  1.
<mgrwt>
<rscale>  0 0.20163565E+02</rscale>
<asrwt>0</asrwt>
<pdfrwt beam="1">  1        2 0.33913019E-02 0.20163565E+02</pdfrwt>
<pdfrwt beam="2">  1       -2 0.70938415E-03 0.20163565E+02</pdfrwt>
<totfact> 0.41282313E+06</totfact>
</mgrwt>
</event>
<event>
 5    1  0.4046313E-006  0.2000020E+02  0.7818608E-02  0.1745324E+00
         -2   -1    0    0    0  501 -0.00000000000E+00  0.00000000000E+00  0.51754467960E+02  0.51754468025E+02  0.26000000000E-02 0.  1.
          2   -1    0    0  501    0  0.00000000000E+00 -0.00000000000E+00 -0.19322377205E+01  0.19322394698E+01  0.26000000000E-02 0. -1.
       1023    2    1    2    0    0  0.00000000000E+00  0.00000000000E+00  0.49822230240E+02  0.53686707495E+02  0.20000198390E+02 0.  0.
        -11    1    3    3    0    0  0.97879753206E+01 -0.20487829980E+01  0.24902213896E+02  0.26835093251E+02  0.51100000000E-03 0.  1.
         11    1    3    3    0    0 -0.97879753206E+01  0.20487829980E+01  0.24920016344E+02  0.26851614244E+02  0.51100000000E-03 0. -1.
<mgrwt>
<rscale>  0 0.20000198E+02</rscale>
<asrwt>0</asrwt>
<pdfrwt beam="2">  1        2 0.29726753E-03 0.20000198E+02</pdfrwt>
<pdfrwt beam="1">  1       -2 0.79622246E-02 0.20000198E+02</pdfrwt>
<totfact> 0.33728011E+06</totfact>
</mgrwt>
</event>
<event>
 5    1  0.4446368E-006  0.2000219E+02  0.7818608E-02  0.1745285E+00
          2   -1    0    0  501    0  0.00000000000E+00  0.00000000000E+00  0.10367462691E+03  0.10367462694E+03  0.26000000000E-02 0. -1.
         -2   -1    0    0    0  501 -0.00000000000E+00 -0.00000000000E+00 -0.96476569599E+00  0.96476919943E+00  0.26000000000E-02 0.  1.
       1023    2    1    2    0    0  0.00000000000E+00  0.00000000000E+00  0.10270986121E+03  0.10463939614E+03  0.20002190739E+02 0.  0.
        -11    1    3    3    0    0  0.23830039460E+01  0.97127724872E+01  0.51734022185E+02  0.52691799256E+02  0.51100000000E-03 0. -1.
         11    1    3    3    0    0 -0.23830039460E+01 -0.97127724872E+01  0.50975839026E+02  0.51947596883E+02  0.51100000000E-03 0.  1.
<mgrwt>
<rscale>  0 0.20002191E+02</rscale>
<asrwt>0</asrwt>
<pdfrwt beam="1">  1        2 0.15949938E-01 0.20002191E+02</pdfrwt>
<pdfrwt beam="2">  1       -2 0.14842581E-03 0.20002191E+02</pdfrwt>
<totfact> 0.53183074E+06</totfact>
</mgrwt>
</event>
<event>
 5    1  0.4046313E-006  0.2000068E+02  0.7818608E-02  0.1745314E+00
          2   -1    0    0  501    0  0.00000000000E+00  0.00000000000E+00  0.44590958766E+01  0.44590966346E+01  0.26000000000E-02 0.  1.
         -2   -1    0    0    0  501 -0.00000000000E+00 -0.00000000000E+00 -0.22427602686E+02  0.22427602837E+02  0.26000000000E-02 0. -1.
       1023    2    1    2    0    0  0.00000000000E+00  0.00000000000E+00 -0.17968506810E+02  0.26886699472E+02  0.20000684276E+02 0.  0.
        -11    1    3    3    0    0 -0.51307488191E+01  0.85838116588E+01 -0.90123415181E+01  0.13462121153E+02  0.51100000000E-03 0.  1.
         11    1    3    3    0    0  0.51307488191E+01 -0.85838116588E+01 -0.89561652915E+01  0.13424578319E+02  0.51100000000E-03 0. -1.
<mgrwt>
<rscale>  0 0.20000684E+02</rscale>
<asrwt>0</asrwt>
<pdfrwt beam="1">  1        2 0.68601484E-03 0.20000684E+02</pdfrwt>
<pdfrwt beam="2">  1       -2 0.34504004E-02 0.20000684E+02</pdfrwt>
<totfact> 0.37066494E+06</totfact>
</mgrwt>
</event>
<event>
 5    1  0.4046313E-006  0.2000044E+02  0.7818608E-02  0.1745319E+00
         -2   -1    0    0    0  501 -0.00000000000E+00  0.00000000000E+00  0.11947705969E+02  0.11947706252E+02  0.26000000000E-02 0.  1.
          2   -1    0    0  501    0  0.00000000000E+00 -0.00000000000E+00 -0.83701772170E+01  0.83701776208E+01  0.26000000000E-02 0. -1.
       1023    2    1    2    0    0  0.00000000000E+00  0.00000000000E+00  0.35775287519E+01  0.20317883873E+02  0.20000442322E+02 0.  0.
        -11    1    3    3    0    0 -0.99921425094E+01 -0.39810753043E+00  0.17329239659E+01  0.10149109678E+02  0.51100000000E-03 0.  1.
         11    1    3    3    0    0  0.99921425094E+01  0.39810753043E+00  0.18446047860E+01  0.10168774194E+02  0.51100000000E-03 0. -1.
<mgrwt>
<rscale>  0 0.20000442E+02</rscale>
<asrwt>0</asrwt>
<pdfrwt beam="2">  1        2 0.12877196E-02 0.20000442E+02</pdfrwt>
<pdfrwt beam="1">  1       -2 0.18381087E-02 0.20000442E+02</pdfrwt>
<totfact> 0.38950487E+06</totfact>
</mgrwt>
</event>
<event>
 5    1  0.4046313E-006  0.2000016E+02  0.7818608E-02  0.1745325E+00
          2   -1    0    0  501    0  0.00000000000E+00  0.00000000000E+00  0.22644362741E+02  0.22644362890E+02  0.26000000000E-02 0. -1.
         -2   -1    0    0    0  501 -0.00000000000E+00 -0.00000000000E+00 -0.44161791032E+01  0.44161798686E+01  0.26000000000E-02 0.  1.
       1023    2    1    2    0    0  0.00000000000E+00  0.00000000000E+00  0.18228183638E+02  0.27060542759E+02  0.20000157391E+02 0.  0.
        -11    1    3    3    0    0 -0.37331578420E+01  0.92770526346E+01  0.91647278737E+01  0.13564380204E+02  0.51100000000E-03 0. -1.
         11    1    3    3    0    0  0.37331578420E+01 -0.92770526346E+01  0.90634557639E+01  0.13496162555E+02  0.51100000000E-03 0.  1.
<mgrwt>
<rscale>  0 0.20000157E+02</rscale>
<asrwt>0</asrwt>
<pdfrwt beam="1">  1        2 0.34837482E-02 0.20000157E+02</pdfrwt>
<pdfrwt beam="2">  1       -2 0.67941223E-03 0.20000157E+02</pdfrwt>
<totfact> 0.42151539E+06</totfact>
</mgrwt>
</event>
<event>
 5    1  0.4046313E-006  0.2000212E+02  0.7818608E-02  0.1745286E+00
          2   -1    0    0  501    0  0.00000000000E+00  0.00000000000E+00  0.44833411358E+02  0.44833411433E+02  0.26000000000E-02 0. -1.
         -2   -1    0    0    0  501 -0.00000000000E+00 -0.00000000000E+00 -0.22309505739E+01  0.22309520889E+01  0.26000000000E-02 0.  1.
       1023    2    1    2    0    0  0.00000000000E+00  0.00000000000E+00  0.42602460784E+02  0.47064363522E+02  0.20002116110E+02 0.  0.
        -11    1    3    3    0    0  0.81780581511E+01  0.57554685388E+01  0.21012009045E+02  0.23270379833E+02  0.51100000000E-03 0. -1.
         11    1    3    3    0    0 -0.81780581511E+01 -0.57554685388E+01  0.21590451739E+02  0.23793983689E+02  0.51100000000E-03 0.  1.
<mgrwt>
<rscale>  0 0.20002116E+02</rscale>
<asrwt>0</asrwt>
<pdfrwt beam="1">  1        2 0.68974476E-02 0.20002116E+02</pdfrwt>
<pdfrwt beam="2">  1       -2 0.34322331E-03 0.20002116E+02</pdfrwt>
<totfact> 0.45586713E+06</totfact>
</mgrwt>
</event>
<event>
 5    1  0.4046313E-006  0.2000331E+02  0.7818608E-02  0.1745262E+00
         -2   -1    0    0    0  501 -0.00000000000E+00  0.00000000000E+00  0.28157295204E+01  0.28157307208E+01  0.26000000000E-02 0. -1.
          2   -1    0    0  501    0  0.00000000000E+00 -0.00000000000E+00 -0.35526524498E+02  0.35526524594E+02  0.26000000000E-02 0.  1.
       1023    2    1    2    0    0  0.00000000000E+00  0.00000000000E+00 -0.32710794978E+02  0.38342255314E+02  0.20003310589E+02 0.  0.
        -11    1    3    3    0    0 -0.57467754007E+01  0.81849739471E+01 -0.16581240765E+02  0.19363800546E+02  0.51100000000E-03 0.  1.
         11    1    3    3    0    0  0.57467754007E+01 -0.81849739471E+01 -0.16129554213E+02  0.18978454768E+02  0.51100000000E-03 0. -1.
<mgrwt>
<rscale>  0 0.20003311E+02</rscale>
<asrwt>0</asrwt>
<pdfrwt beam="2">  1        2 0.54656190E-02 0.20003311E+02</pdfrwt>
<pdfrwt beam="1">  1       -2 0.43318928E-03 0.20003311E+02</pdfrwt>
<totfact> 0.44212621E+06</totfact>
</mgrwt>
</event>
<event>
 5    1  0.4046313E-006  0.2000285E+02  0.7818608E-02  0.1745271E+00
         -2   -1    0    0    0  501 -0.00000000000E+00  0.00000000000E+00  0.15419469162E+02  0.15419469382E+02  0.26000000000E-02 0. -1.
          2   -1    0    0  501    0  0.00000000000E+00 -0.00000000000E+00 -0.64871557435E+01  0.64871562645E+01  0.26000000000E-02 0.  1.
       1023    2    1    2    0    0  0.00000000000E+00  0.00000000000E+00  0.89323134189E+01  0.21906625646E+02  0.20002850401E+02 0.  0.
        -11    1    3    3    0    0 -0.99645741289E+01  0.85435776892E+00  0.45498571679E+01  0.10987441252E+02  0.51100000000E-03 0. -1.
         11    1    3    3    0    0  0.99645741289E+01 -0.85435776892E+00  0.43824562510E+01  0.10919184394E+02  0.51100000000E-03 0.  1.
<mgrwt>
<rscale>  0 0.20002850E+02</rscale>
<asrwt>0</asrwt>
<pdfrwt beam="2">  1        2 0.99802402E-03 0.20002850E+02</pdfrwt>
<pdfrwt beam="1">  1       -2 0.23722261E-02 0.20002850E+02</pdfrwt>
<totfact> 0.38205408E+06</totfact>
</mgrwt>
</event>
<event>
 5    1  0.4266629E-006  0.2000071E+02  0.7818608E-02  0.1745314E+00
          2   -1    0    0  501    0  0.00000000000E+00  0.00000000000E+00  0.73227727762E+02  0.73227727808E+02  0.26000000000E-02 0. -1.
         -2   -1    0    0    0  501 -0.00000000000E+00 -0.00000000000E+00 -0.13656987526E+01  0.13657012276E+01  0.26000000000E-02 0.  1.
       1023    2    1    2    0    0  0.00000000000E+00  0.00000000000E+00  0.71862029009E+02  0.74593429036E+02  0.20000711037E+02 0.  0.
        -11    1    3    3    0    0 -0.68566755059E+01  0.72794654222E+01  0.36117282645E+02  0.37476162046E+02  0.51100000000E-03 0. -1.
         11    1    3    3    0    0  0.68566755059E+01 -0.72794654222E+01  0.35744746365E+02  0.37117266989E+02  0.51100000000E-03 0.  1.
<mgrwt>
<rscale>  0 0.20000711E+02</rscale>
<asrwt>0</asrwt>
<pdfrwt beam="1">  1        2 0.11265807E-01 0.20000711E+02</pdfrwt>
<pdfrwt beam="2">  1       -2 0.21010765E-03 0.20000711E+02</pdfrwt>
<totfact> 0.49433336E+06</totfact>
</mgrwt>
</event>
<event>
 5    1  0.4046313E-006  0.2000170E+02  0.7818608E-02  0.1745294E+00
         -2   -1    0    0    0  501 -0.00000000000E+00  0.00000000000E+00  0.30523196319E+01  0.30523207393E+01  0.26000000000E-02 0. -1.
          2   -1    0    0  501    0  0.00000000000E+00 -0.00000000000E+00 -0.32767524800E+02  0.32767524903E+02  0.26000000000E-02 0.  1.
       1023    2    1    2    0    0  0.00000000000E+00  0.00000000000E+00 -0.29715205168E+02  0.35819845643E+02  0.20001698020E+02 0.  0.
        -11    1    3    3    0    0  0.34550781389E+01 -0.93850190703E+01 -0.14909281905E+02  0.17952794632E+02  0.51100000000E-03 0.  1.
         11    1    3    3    0    0 -0.34550781389E+01  0.93850190703E+01 -0.14805923263E+02  0.17867051011E+02  0.51100000000E-03 0. -1.
<mgrwt>
<rscale>  0 0.20001698E+02</rscale>
<asrwt>0</asrwt>
<pdfrwt beam="2">  1        2 0.50411575E-02 0.20001698E+02</pdfrwt>
<pdfrwt beam="1">  1       -2 0.46958775E-03 0.20001698E+02</pdfrwt>
<totfact> 0.43798402E+06</totfact>
</mgrwt>
</event>
<event>
 5    1  0.4046313E-006  0.2000687E+02  0.7818608E-02  0.1745191E+00
          2   -1    0    0  501    0  0.00000000000E+00  0.00000000000E+00  0.26865251512E+02  0.26865251638E+02  0.26000000000E-02 0.  1.
         -2   -1    0    0    0  501 -0.00000000000E+00 -0.00000000000E+00 -0.37248387869E+01  0.37248396944E+01  0.26000000000E-02 0. -1.
       1023    2    1    2    0    0  0.00000000000E+00  0.00000000000E+00  0.23140412725E+02  0.30590091332E+02  0.20006873484E+02 0.  0.
        -11    1    3    3    0    0  0.74382479156E+01  0.66849142202E+01  0.11217756913E+02  0.15028429080E+02  0.51100000000E-03 0.  1.
         11    1    3    3    0    0 -0.74382479156E+01 -0.66849142202E+01  0.11922655812E+02  0.15561662252E+02  0.51100000000E-03 0. -1.
<mgrwt>
<rscale>  0 0.20006873E+02</rscale>
<asrwt>0</asrwt>
<pdfrwt beam="1">  1        2 0.41331158E-02 0.20006873E+02</pdfrwt>
<pdfrwt beam="2">  1       -2 0.57305218E-03 0.20006873E+02</pdfrwt>
<totfact> 0.42834176E+06</totfact>
</mgrwt>
</event>
<event>
 4    1  0.4046313E-006  0.2004610E+02  0.7818608E-02  0.1744413E+00
          2   -1    0    0  501    0  0.00000000000E+00  0.00000000000E+00  0.27254898461E+02  0.27254898585E+02  0.26000000000E-02 0.  1.
         -2   -1    0    0    0  501 -0.00000000000E+00 -0.00000000000E+00 -0.36859999132E+01  0.36860008301E+01  0.26000000000E-02 0. -1.
        -11    1    1    2    0    0 -0.86567276095E+01 -0.50264468542E+01  0.11001263377E+02  0.14873866243E+02  0.51100000000E-03 0.  1.
         11    1    1    2    0    0  0.86567276095E+01  0.50264468542E+01  0.12567635171E+02  0.16067033171E+02  0.51100000000E-03 0. -1.
<mgrwt>
<rscale>  0 0.20046104E+02</rscale>
<asrwt>0</asrwt>
<pdfrwt beam="1">  1        2 0.41930612E-02 0.20046104E+02</pdfrwt>
<pdfrwt beam="2">  1       -2 0.56707702E-03 0.20046104E+02</pdfrwt>
<totfact> 0.42709857E+06</totfact>
</mgrwt>
</event>
<event>
 5    1  0.4046313E-006  0.2000259E+02  0.7818608E-02  0.1745277E+00
          2   -1    0    0  501    0  0.00000000000E+00  0.00000000000E+00  0.64753270328E+02  0.64753270380E+02  0.26000000000E-02 0.  1.
         -2   -1    0    0    0  501 -0.00000000000E+00 -0.00000000000E+00 -0.15447225681E+01  0.15447247562E+01  0.26000000000E-02 0. -1.
       1023    2    1    2    0    0  0.00000000000E+00  0.00000000000E+00  0.63208547760E+02  0.66297995136E+02  0.20002591062E+02 0.  0.
        -11    1    3    3    0    0 -0.63692287435E+01 -0.77103359927E+01  0.31928281388E+02  0.33457906518E+02  0.51100000000E-03 0.  1.
         11    1    3    3    0    0  0.63692287435E+01  0.77103359927E+01  0.31280266372E+02  0.32840088618E+02  0.51100000000E-03 0. -1.
<mgrwt>
<rscale>  0 0.20002591E+02</rscale>
<asrwt>0</asrwt>
<pdfrwt beam="1">  1        2 0.99620430E-02 0.20002591E+02</pdfrwt>
<pdfrwt beam="2">  1       -2 0.23764977E-03 0.20002591E+02</pdfrwt>
<totfact> 0.48317832E+06</totfact>
</mgrwt>
</event>
<event>
 5    1  0.4046313E-006  0.2000083E+02  0.7818608E-02  0.1745312E+00
          2   -1    0    0  501    0  0.00000000000E+00  0.00000000000E+00  0.97260560263E+00  0.97260907783E+00  0.26000000000E-02 0.  1.
         -2   -1    0    0    0  501 -0.00000000000E+00 -0.00000000000E+00 -0.10282491777E+03  0.10282491780E+03  0.26000000000E-02 0. -1.
       1023    2    1    2    0    0  0.00000000000E+00  0.00000000000E+00 -0.10185231216E+03  0.10379752688E+03  0.20000827300E+02 0.  0.
        -11    1    3    3    0    0 -0.60158411863E+01 -0.79886035724E+01 -0.50864598445E+02  0.51838359421E+02  0.51100000000E-03 0. -1.
         11    1    3    3    0    0  0.60158411863E+01  0.79886035724E+01 -0.50987713717E+02  0.51959167455E+02  0.51100000000E-03 0.  1.
<mgrwt>
<rscale>  0 0.20000827E+02</rscale>
<asrwt>0</asrwt>
<pdfrwt beam="1">  1        2 0.14963198E-03 0.20000827E+02</pdfrwt>
<pdfrwt beam="2">  1       -2 0.15819210E-01 0.20000827E+02</pdfrwt>
<totfact> 0.29524190E+06</totfact>
</mgrwt>
</event>
<event>
 5    1  0.4046313E-006  0.2000026E+02  0.7818608E-02  0.1745323E+00
          2   -1    0    0  501    0  0.00000000000E+00  0.00000000000E+00  0.32869771830E+01  0.32869782113E+01  0.26000000000E-02 0.  1.
         -2   -1    0    0    0  501 -0.00000000000E+00 -0.00000000000E+00 -0.30423863056E+02  0.30423863167E+02  0.26000000000E-02 0. -1.
       1023    2    1    2    0    0  0.00000000000E+00  0.00000000000E+00 -0.27136885873E+02  0.33710841379E+02  0.20000256287E+02 0.  0.
        -11    1    3    3    0    0  0.62861918064E+01 -0.77772347334E+01 -0.13621076044E+02  0.16897789807E+02  0.51100000000E-03 0.  1.
         11    1    3    3    0    0 -0.62861918064E+01  0.77772347334E+01 -0.13515809829E+02  0.16813051571E+02  0.51100000000E-03 0. -1.
<mgrwt>
<rscale>  0 0.20000256E+02</rscale>
<asrwt>0</asrwt>
<pdfrwt beam="1">  1        2 0.50568891E-03 0.20000256E+02</pdfrwt>
<pdfrwt beam="2">  1       -2 0.46805942E-02 0.20000256E+02</pdfrwt>
<totfact> 0.36011378E+06</totfact>
</mgrwt>
</event>
<event>
 5    1  0.4046313E-006  0.2000094E+02  0.7818608E-02  0.1745309E+00
          2   -1    0    0  501    0  0.00000000000E+00  0.00000000000E+00  0.13410112498E+01  0.13410137702E+01  0.26000000000E-02 0. -1.
         -2   -1    0    0    0  501 -0.00000000000E+00 -0.00000000000E+00 -0.74577491941E+02  0.74577491986E+02  0.26000000000E-02 0.  1.
       1023    2    1    2    0    0  0.00000000000E+00  0.00000000000E+00 -0.73236480691E+02  0.75918505757E+02  0.20000935285E+02 0.  0.
        -11    1    3    3    0    0  0.76006727240E+01  0.64991396185E+01 -0.36685197367E+02  0.38023844463E+02  0.51100000000E-03 0.  1.
         11    1    3    3    0    0 -0.76006727240E+01 -0.64991396185E+01 -0.36551283324E+02  0.37894661293E+02  0.51100000000E-03 0. -1.
<mgrwt>
<rscale>  0 0.20000935E+02</rscale>
<asrwt>0</asrwt>
<pdfrwt beam="1">  1        2 0.20630968E-03 0.20000935E+02</pdfrwt>
<pdfrwt beam="2">  1       -2 0.11473457E-01 0.20000935E+02</pdfrwt>
<totfact> 0.31696298E+06</totfact>
</mgrwt>
</event>
<event>
 5    1  0.4046313E-006  0.2000412E+02  0.7818608E-02  0.1745246E+00
          2   -1    0    0  501    0  0.00000000000E+00  0.00000000000E+00  0.12492475364E+02  0.12492475635E+02  0.26000000000E-02 0.  1.
         -2   -1    0    0    0  501 -0.00000000000E+00 -0.00000000000E+00 -0.80081137352E+01  0.80081141573E+01  0.26000000000E-02 0. -1.
       1023    2    1    2    0    0  0.00000000000E+00  0.00000000000E+00  0.44843616288E+01  0.20500589792E+02  0.20004116641E+02 0.  0.
        -11    1    3    3    0    0 -0.92770569058E+01  0.37362579024E+01  0.21055972905E+01  0.10220418199E+02  0.51100000000E-03 0.  1.
         11    1    3    3    0    0  0.92770569058E+01 -0.37362579024E+01  0.23787643384E+01  0.10280171593E+02  0.51100000000E-03 0. -1.
<mgrwt>
<rscale>  0 0.20004117E+02</rscale>
<asrwt>0</asrwt>
<pdfrwt beam="1">  1        2 0.19219193E-02 0.20004117E+02</pdfrwt>
<pdfrwt beam="2">  1       -2 0.12320176E-02 0.20004117E+02</pdfrwt>
<totfact> 0.40101053E+06</totfact>
</mgrwt>
</event>
<event>
 5    1  0.4046313E-006  0.2000351E+02  0.7818608E-02  0.1745258E+00
          2   -1    0    0  501    0  0.00000000000E+00  0.00000000000E+00  0.77575726991E+01  0.77575731348E+01  0.26000000000E-02 0. -1.
         -2   -1    0    0    0  501 -0.00000000000E+00 -0.00000000000E+00 -0.12895148308E+02  0.12895148570E+02  0.26000000000E-02 0.  1.
       1023    2    1    2    0    0  0.00000000000E+00  0.00000000000E+00 -0.51375756086E+01  0.20652721705E+02  0.20003505460E+02 0.  0.
        -11    1    3    3    0    0  0.32608489206E+01 -0.94551585310E+01 -0.25237974061E+01  0.10315169031E+02  0.51100000000E-03 0. -1.
         11    1    3    3    0    0 -0.32608489206E+01  0.94551585310E+01 -0.26137782025E+01  0.10337552674E+02  0.51100000000E-03 0.  1.
<mgrwt>
<rscale>  0 0.20003505E+02</rscale>
<asrwt>0</asrwt>
<pdfrwt beam="1">  1        2 0.11934728E-02 0.20003505E+02</pdfrwt>
<pdfrwt beam="2">  1       -2 0.19838690E-02 0.20003505E+02</pdfrwt>
<totfact> 0.38719343E+06</totfact>
</mgrwt>
</event>
<event>
 5    1  0.4046313E-006  0.2000186E+02  0.7818608E-02  0.1745291E+00
          2   -1    0    0  501    0  0.00000000000E+00  0.00000000000E+00  0.30058210824E+02  0.30058210937E+02  0.26000000000E-02 0.  1.
         -2   -1    0    0    0  501 -0.00000000000E+00 -0.00000000000E+00 -0.33274955279E+01  0.33274965436E+01  0.26000000000E-02 0. -1.
       1023    2    1    2    0    0  0.00000000000E+00  0.00000000000E+00  0.26730715297E+02  0.33385707481E+02  0.20001858006E+02 0.  0.
        -11    1    3    3    0    0  0.21653317877E+01  0.97632686631E+01  0.13519279403E+02  0.16816093261E+02  0.51100000000E-03 0. -1.
         11    1    3    3    0    0 -0.21653317877E+01 -0.97632686631E+01  0.13211435894E+02  0.16569614219E+02  0.51100000000E-03 0.  1.
<mgrwt>
<rscale>  0 0.20001858E+02</rscale>
<asrwt>0</asrwt>
<pdfrwt beam="1">  1        2 0.46243402E-02 0.20001858E+02</pdfrwt>
<pdfrwt beam="2">  1       -2 0.51192248E-03 0.20001858E+02</pdfrwt>
<totfact> 0.43373432E+06</totfact>
</mgrwt>
</event>
<event>
 5    1  0.4046313E-006  0.2000254E+02  0.7818608E-02  0.1745278E+00
          2   -1    0    0  501    0  0.00000000000E+00  0.00000000000E+00  0.23029297645E+02  0.23029297792E+02  0.26000000000E-02 0. -1.
         -2   -1    0    0    0  501 -0.00000000000E+00 -0.00000000000E+00 -0.43433977553E+01  0.43433985335E+01  0.26000000000E-02 0.  1.
       1023    2    1    2    0    0  0.00000000000E+00  0.00000000000E+00  0.18685899890E+02  0.27372696325E+02  0.20002541074E+02 0.  0.
        -11    1    3    3    0    0  0.87068693746E+01 -0.49189347332E+01  0.95360866703E+01  0.13818192446E+02  0.51100000000E-03 0. -1.
         11    1    3    3    0    0 -0.87068693746E+01  0.49189347332E+01  0.91498132194E+01  0.13554503880E+02  0.51100000000E-03 0.  1.
<mgrwt>
<rscale>  0 0.20002541E+02</rscale>
<asrwt>0</asrwt>
<pdfrwt beam="1">  1        2 0.35429689E-02 0.20002541E+02</pdfrwt>
<pdfrwt beam="2">  1       -2 0.66821511E-03 0.20002541E+02</pdfrwt>
<totfact> 0.42207338E+06</totfact>
</mgrwt>
</event>
<event>
 5    1  0.4046313E-006  0.2000096E+02  0.7818608E-02  0.1745309E+00
          2   -1    0    0  501    0  0.00000000000E+00  0.00000000000E+00  0.15973130246E+01  0.15973151407E+01  0.26000000000E-02 0. -1.
         -2   -1    0    0    0  501 -0.00000000000E+00 -0.00000000000E+00 -0.62611102550E+02  0.62611102604E+02  0.26000000000E-02 0.  1.
       1023    2    1    2    0    0  0.00000000000E+00  0.00000000000E+00 -0.61013789526E+02  0.64208417745E+02  0.20000959903E+02 0.  0.
        -11    1    3    3    0    0  0.95942223591E+01  0.28207456191E+01 -0.30707130846E+02  0.32294482402E+02  0.51100000000E-03 0.  1.
         11    1    3    3    0    0 -0.95942223591E+01 -0.28207456191E+01 -0.30306658679E+02  0.31913935343E+02  0.51100000000E-03 0. -1.
<mgrwt>
<rscale>  0 0.20000960E+02</rscale>
<asrwt>0</asrwt>
<pdfrwt beam="1">  1        2 0.24574068E-03 0.20000960E+02</pdfrwt>
<pdfrwt beam="2">  1       -2 0.96324756E-02 0.20000960E+02</pdfrwt>
<totfact> 0.32722055E+06</totfact>
</mgrwt>
</event>
<event>
 5    1  0.4072617E-006  0.2000114E+02  0.7818608E-02  0.1745305E+00
          2   -1    0    0  501    0  0.00000000000E+00  0.00000000000E+00  0.46759519440E+02  0.46759519513E+02  0.26000000000E-02 0. -1.
         -2   -1    0    0    0  501 -0.00000000000E+00 -0.00000000000E+00 -0.21388456718E+01  0.21388472521E+01  0.26000000000E-02 0.  1.
       1023    2    1    2    0    0  0.00000000000E+00  0.00000000000E+00  0.44620673769E+02  0.48898366765E+02  0.20001143585E+02 0.  0.
        -11    1    3    3    0    0  0.99891776003E+01  0.47666994693E+00  0.22252869270E+02  0.24396743110E+02  0.51100000000E-03 0.  1.
         11    1    3    3    0    0 -0.99891776003E+01 -0.47666994693E+00  0.22367804498E+02  0.24501623654E+02  0.51100000000E-03 0. -1.
<mgrwt>
<rscale>  0 0.20001144E+02</rscale>
<asrwt>0</asrwt>
<pdfrwt beam="1">  1        2 0.71937723E-02 0.20001144E+02</pdfrwt>
<pdfrwt beam="2">  1       -2 0.32905331E-03 0.20001144E+02</pdfrwt>
<totfact> 0.45866106E+06</totfact>
</mgrwt>
</event>
<event>
 5    1  0.4744983E-006  0.2000125E+02  0.7818608E-02  0.1745303E+00
          2   -1    0    0  501    0  0.00000000000E+00  0.00000000000E+00  0.25305144798E+02  0.25305144932E+02  0.26000000000E-02 0.  1.
         -2   -1    0    0    0  501 -0.00000000000E+00 -0.00000000000E+00 -0.39522581430E+01  0.39522589982E+01  0.26000000000E-02 0. -1.
       1023    2    1    2    0    0  0.00000000000E+00  0.00000000000E+00  0.21352886655E+02  0.29257403930E+02  0.20001247866E+02 0.  0.
        -11    1    3    3    0    0 -0.99994544123E+01 -0.14861267467E+00  0.10623610435E+02  0.14590143015E+02  0.51100000000E-03 0.  1.
         11    1    3    3    0    0  0.99994544123E+01  0.14861267467E+00  0.10729276220E+02  0.14667260915E+02  0.51100000000E-03 0. -1.
<mgrwt>
<rscale>  0 0.20001248E+02</rscale>
<asrwt>0</asrwt>
<pdfrwt beam="1">  1        2 0.38930992E-02 0.20001248E+02</pdfrwt>
<pdfrwt beam="2">  1       -2 0.60803980E-03 0.20001248E+02</pdfrwt>
<totfact> 0.42602023E+06</totfact>
</mgrwt>
</event>
<event>
 5    1  0.4235885E-006  0.2000168E+02  0.7818608E-02  0.1745295E+00
         -2   -1    0    0    0  501 -0.00000000000E+00  0.00000000000E+00  0.10566184272E+01  0.10566216261E+01  0.26000000000E-02 0.  1.
          2   -1    0    0  501    0  0.00000000000E+00 -0.00000000000E+00 -0.94657287984E+02  0.94657288020E+02  0.26000000000E-02 0. -1.
       1023    2    1    2    0    0  0.00000000000E+00  0.00000000000E+00 -0.93600669557E+02  0.95713909646E+02  0.20001678885E+02 0.  0.
        -11    1    3    3    0    0  0.96183571280E+01  0.27368818343E+01 -0.46244884455E+02  0.47313768128E+02  0.51100000000E-03 0. -1.
         11    1    3    3    0    0 -0.96183571280E+01 -0.27368818343E+01 -0.47355785103E+02  0.48400141518E+02  0.51100000000E-03 0.  1.
<mgrwt>
<rscale>  0 0.20001679E+02</rscale>
<asrwt>0</asrwt>
<pdfrwt beam="2">  1        2 0.14562653E-01 0.20001679E+02</pdfrwt>
<pdfrwt beam="1">  1       -2 0.16255701E-03 0.20001679E+02</pdfrwt>
<totfact> 0.52104057E+06</totfact>
</mgrwt>
</event>
<event>
 5    1  0.4046313E-006  0.2000105E+02  0.7818608E-02  0.1745307E+00
         -2   -1    0    0    0  501 -0.00000000000E+00  0.00000000000E+00  0.36871231895E+01  0.36871241062E+01  0.26000000000E-02 0. -1.
          2   -1    0    0  501    0  0.00000000000E+00 -0.00000000000E+00 -0.27124249475E+02  0.27124249600E+02  0.26000000000E-02 0.  1.
       1023    2    1    2    0    0  0.00000000000E+00  0.00000000000E+00 -0.23437126286E+02  0.30811373706E+02  0.20001046500E+02 0.  0.
        -11    1    3    3    0    0  0.99887630069E+01 -0.48353532984E+00 -0.11663617277E+02  0.15363891469E+02  0.51100000000E-03 0. -1.
         11    1    3    3    0    0 -0.99887630069E+01  0.48353532984E+00 -0.11773509008E+02  0.15447482237E+02  0.51100000000E-03 0.  1.
<mgrwt>
<rscale>  0 0.20001047E+02</rscale>
<asrwt>0</asrwt>
<pdfrwt beam="2">  1        2 0.41729614E-02 0.20001047E+02</pdfrwt>
<pdfrwt beam="1">  1       -2 0.56724982E-03 0.20001047E+02</pdfrwt>
<totfact> 0.42904727E+06</totfact>
</mgrwt>
</event>
<event>
 5    1  0.4046313E-006  0.2000021E+02  0.7818608E-02  0.1745324E+00
          2   -1    0    0  501    0  0.00000000000E+00  0.00000000000E+00  0.31403137531E+02  0.31403137638E+02  0.26000000000E-02 0.  1.
         -2   -1    0    0    0  501 -0.00000000000E+00 -0.00000000000E+00 -0.31844602048E+01  0.31844612662E+01  0.26000000000E-02 0. -1.
       1023    2    1    2    0    0  0.00000000000E+00  0.00000000000E+00  0.28218677326E+02  0.34587598905E+02  0.20000206198E+02 0.  0.
        -11    1    3    3    0    0  0.62985556012E+01  0.77672282364E+01  0.14144973118E+02  0.17322872219E+02  0.51100000000E-03 0.  1.
         11    1    3    3    0    0 -0.62985556012E+01 -0.77672282364E+01  0.14073704208E+02  0.17264726686E+02  0.51100000000E-03 0. -1.
<mgrwt>
<rscale>  0 0.20000206E+02</rscale>
<asrwt>0</asrwt>
<pdfrwt beam="1">  1        2 0.48312519E-02 0.20000206E+02</pdfrwt>
<pdfrwt beam="2">  1       -2 0.48991706E-03 0.20000206E+02</pdfrwt>
<totfact> 0.43593377E+06</totfact>
</mgrwt>
</event>
<event>
 5    1  0.4046313E-006  0.2000875E+02  0.7818608E-02  0.1745154E+00
          2   -1    0    0  501    0  0.00000000000E+00  0.00000000000E+00  0.12091462522E+02  0.12091462802E+02  0.26000000000E-02 0. -1.
         -2   -1    0    0    0  501 -0.00000000000E+00 -0.00000000000E+00 -0.82775349426E+01  0.82775353510E+01  0.26000000000E-02 0.  1.
       1023    2    1    2    0    0  0.00000000000E+00  0.00000000000E+00  0.38139275796E+01  0.20368998153E+02  0.20008749140E+02 0.  0.
        -11    1    3    3    0    0  0.54801842546E+01 -0.83691011756E+01  0.17898431372E+01  0.10162569196E+02  0.51100000000E-03 0.  1.
         11    1    3    3    0    0 -0.54801842546E+01  0.83691011756E+01  0.20240844424E+01  0.10206428956E+02  0.51100000000E-03 0. -1.
<mgrwt>
<rscale>  0 0.20008749E+02</rscale>
<asrwt>0</asrwt>
<pdfrwt beam="1">  1        2 0.18602251E-02 0.20008749E+02</pdfrwt>
<pdfrwt beam="2">  1       -2 0.12734670E-02 0.20008749E+02</pdfrwt>
<totfact> 0.39981700E+06</totfact>
</mgrwt>
</event>
<event>
 5    1  0.4046313E-006  0.2000046E+02  0.7818608E-02  0.1745319E+00
          2   -1    0    0  501    0  0.00000000000E+00  0.00000000000E+00  0.47424187956E+02  0.47424188028E+02  0.26000000000E-02 0.  1.
         -2   -1    0    0    0  501 -0.00000000000E+00 -0.00000000000E+00 -0.21087243499E+01  0.21087259528E+01  0.26000000000E-02 0. -1.
       1023    2    1    2    0    0  0.00000000000E+00  0.00000000000E+00  0.45315463606E+02  0.49532913980E+02  0.20000458133E+02 0.  0.
        -11    1    3    3    0    0 -0.92497211535E+01 -0.38009340129E+01  0.22628393829E+02  0.24739616980E+02  0.51100000000E-03 0. -1.
         11    1    3    3    0    0  0.92497211535E+01  0.38009340129E+01  0.22687069777E+02  0.24793297000E+02  0.51100000000E-03 0.  1.
<mgrwt>
<rscale>  0 0.20000458E+02</rscale>
<asrwt>0</asrwt>
<pdfrwt beam="1">  1        2 0.72960287E-02 0.20000458E+02</pdfrwt>
<pdfrwt beam="2">  1       -2 0.32441927E-03 0.20000458E+02</pdfrwt>
<totfact> 0.45963729E+06</totfact>
</mgrwt>
</event>
<event>
 5    1  0.4046313E-006  0.2000023E+02  0.7818608E-02  0.1745324E+00
         -2   -1    0    0    0  501 -0.00000000000E+00  0.00000000000E+00  0.73625273661E+01  0.73625278251E+01  0.26000000000E-02 0. -1.
          2   -1    0    0  501    0  0.00000000000E+00 -0.00000000000E+00 -0.13582599480E+02  0.13582599729E+02  0.26000000000E-02 0.  1.
       1023    2    1    2    0    0  0.00000000000E+00  0.00000000000E+00 -0.62200721140E+01  0.20945127554E+02  0.20000226778E+02 0.  0.
        -11    1    3    3    0    0 -0.42804758252E+01 -0.90376752554E+01 -0.30944953548E+01  0.10467948656E+02  0.51100000000E-03 0. -1.
         11    1    3    3    0    0  0.42804758252E+01  0.90376752554E+01 -0.31255767592E+01  0.10477178898E+02  0.51100000000E-03 0.  1.
<mgrwt>
<rscale>  0 0.20000227E+02</rscale>
<asrwt>0</asrwt>
<pdfrwt beam="2">  1        2 0.20896307E-02 0.20000227E+02</pdfrwt>
<pdfrwt beam="1">  1       -2 0.11326966E-02 0.20000227E+02</pdfrwt>
<totfact> 0.40375078E+06</totfact>
</mgrwt>
</event>
<event>
 5    1  0.4046313E-006  0.2000018E+02  0.7818608E-02  0.1745324E+00
         -2   -1    0    0    0  501 -0.00000000000E+00  0.00000000000E+00  0.32988276506E+01  0.32988286752E+01  0.26000000000E-02 0. -1.
          2   -1    0    0  501    0  0.00000000000E+00 -0.00000000000E+00 -0.30314341001E+02  0.30314341112E+02  0.26000000000E-02 0.  1.
       1023    2    1    2    0    0  0.00000000000E+00  0.00000000000E+00 -0.27015513350E+02  0.33613169788E+02  0.20000180539E+02 0.  0.
        -11    1    3    3    0    0 -0.92867591197E+01  0.37090142862E+01 -0.13564082396E+02  0.16851854896E+02  0.51100000000E-03 0. -1.
         11    1    3    3    0    0  0.92867591197E+01 -0.37090142862E+01 -0.13451430955E+02  0.16761314892E+02  0.51100000000E-03 0.  1.
<mgrwt>
<rscale>  0 0.20000181E+02</rscale>
<asrwt>0</asrwt>
<pdfrwt beam="2">  1        2 0.46637447E-02 0.20000181E+02</pdfrwt>
<pdfrwt beam="1">  1       -2 0.50751205E-03 0.20000181E+02</pdfrwt>
<totfact> 0.43422155E+06</totfact>
</mgrwt>
</event>
<event>
 5    1  0.4046313E-006  0.2001158E+02  0.7818608E-02  0.1745098E+00
         -2   -1    0    0    0  501 -0.00000000000E+00  0.00000000000E+00  0.87863438597E+00  0.87863823284E+00  0.26000000000E-02 0.  1.
          2   -1    0    0  501    0  0.00000000000E+00 -0.00000000000E+00 -0.11394460436E+03  0.11394460439E+03  0.26000000000E-02 0. -1.
       1023    2    1    2    0    0  0.00000000000E+00  0.00000000000E+00 -0.11306596997E+03  0.11482324262E+03  0.20011583650E+02 0.  0.
        -11    1    3    3    0    0  0.25068790637E+00  0.10002483405E+02 -0.56865140728E+02  0.57738693689E+02  0.51100000000E-03 0.  1.
         11    1    3    3    0    0 -0.25068790637E+00 -0.10002483405E+02 -0.56200829246E+02  0.57084548933E+02  0.51100000000E-03 0. -1.
<mgrwt>
<rscale>  0 0.20011584E+02</rscale>
<asrwt>0</asrwt>
<pdfrwt beam="2">  1        2 0.17529928E-01 0.20011584E+02</pdfrwt>
<pdfrwt beam="1">  1       -2 0.13517491E-03 0.20011584E+02</pdfrwt>
<totfact> 0.54328198E+06</totfact>
</mgrwt>
</event>
<event>
 5    1  0.4046313E-006  0.2000503E+02  0.7818608E-02  0.1745228E+00
         -2   -1    0    0    0  501 -0.00000000000E+00  0.00000000000E+00  0.31161068344E+01  0.31161079190E+01  0.26000000000E-02 0. -1.
          2   -1    0    0  501    0  0.00000000000E+00 -0.00000000000E+00 -0.32107455160E+02  0.32107455265E+02  0.26000000000E-02 0.  1.
       1023    2    1    2    0    0  0.00000000000E+00  0.00000000000E+00 -0.28991348325E+02  0.35223563184E+02  0.20005027509E+02 0.  0.
        -11    1    3    3    0    0  0.48168957135E+01 -0.87660756788E+01 -0.14388369913E+02  0.17523463018E+02  0.51100000000E-03 0.  1.
         11    1    3    3    0    0 -0.48168957135E+01  0.87660756788E+01 -0.14602978412E+02  0.17700100166E+02  0.51100000000E-03 0. -1.
<mgrwt>
<rscale>  0 0.20005028E+02</rscale>
<asrwt>0</asrwt>
<pdfrwt beam="2">  1        2 0.49396083E-02 0.20005028E+02</pdfrwt>
<pdfrwt beam="1">  1       -2 0.47940117E-03 0.20005028E+02</pdfrwt>
<totfact> 0.43679721E+06</totfact>
</mgrwt>
</event>
<event>
 5    1  0.4089962E-006  0.2000142E+02  0.7818608E-02  0.1745300E+00
          2   -1    0    0  501    0  0.00000000000E+00  0.00000000000E+00  0.60485509309E+02  0.60485509365E+02  0.26000000000E-02 0.  1.
         -2   -1    0    0    0  501 -0.00000000000E+00 -0.00000000000E+00 -0.16535219767E+01  0.16535240208E+01  0.26000000000E-02 0. -1.
       1023    2    1    2    0    0  0.00000000000E+00  0.00000000000E+00  0.58831987333E+02  0.62139033386E+02  0.20001418366E+02 0.  0.
        -11    1    3    3    0    0  0.98049706885E+01 -0.19657786152E+01  0.29069371913E+02  0.30741342187E+02  0.51100000000E-03 0.  1.
         11    1    3    3    0    0 -0.98049706885E+01  0.19657786152E+01  0.29762615419E+02  0.31397691199E+02  0.51100000000E-03 0. -1.
<mgrwt>
<rscale>  0 0.20001418E+02</rscale>
<asrwt>0</asrwt>
<pdfrwt beam="1">  1        2 0.93054619E-02 0.20001418E+02</pdfrwt>
<pdfrwt beam="2">  1       -2 0.25438819E-03 0.20001418E+02</pdfrwt>
<totfact> 0.47755449E+06</totfact>
</mgrwt>
</event>
<event>
 5    1  0.4046313E-006  0.2000136E+02  0.7818608E-02  0.1745301E+00
         -2   -1    0    0    0  501 -0.00000000000E+00  0.00000000000E+00  0.13346716451E+02  0.13346716704E+02  0.26000000000E-02 0.  1.
          2   -1    0    0  501    0  0.00000000000E+00 -0.00000000000E+00 -0.74934951685E+01  0.74934956195E+01  0.26000000000E-02 0. -1.
       1023    2    1    2    0    0  0.00000000000E+00  0.00000000000E+00  0.58532212822E+01  0.20840212323E+02  0.20001356212E+02 0.  0.
        -11    1    3    3    0    0 -0.58377253424E+01 -0.81200077048E+01  0.29264769036E+01  0.10420068600E+02  0.51100000000E-03 0. -1.
         11    1    3    3    0    0  0.58377253424E+01  0.81200077048E+01  0.29267443786E+01  0.10420143723E+02  0.51100000000E-03 0.  1.
<mgrwt>
<rscale>  0 0.20001356E+02</rscale>
<asrwt>0</asrwt>
<pdfrwt beam="2">  1        2 0.11528455E-02 0.20001356E+02</pdfrwt>
<pdfrwt beam="1">  1       -2 0.20533411E-02 0.20001356E+02</pdfrwt>
<totfact> 0.38629535E+06</totfact>
</mgrwt>
</event>
<event>
 5    1  0.4046313E-006  0.2000081E+02  0.7818608E-02  0.1745312E+00
         -2   -1    0    0    0  501 -0.00000000000E+00  0.00000000000E+00  0.11285013247E+02  0.11285013546E+02  0.26000000000E-02 0. -1.
          2   -1    0    0  501    0  0.00000000000E+00 -0.00000000000E+00 -0.88620236220E+01  0.88620240034E+01  0.26000000000E-02 0.  1.
       1023    2    1    2    0    0  0.00000000000E+00  0.00000000000E+00  0.24229896249E+01  0.20147037550E+02  0.20000806067E+02 0.  0.
        -11    1    3    3    0    0  0.48219266001E+01 -0.87611119729E+01  0.12102910376E+01  0.10073374003E+02  0.51100000000E-03 0. -1.
         11    1    3    3    0    0 -0.48219266001E+01  0.87611119729E+01  0.12126985873E+01  0.10073663547E+02  0.51100000000E-03 0.  1.
<mgrwt>
<rscale>  0 0.20000806E+02</rscale>
<asrwt>0</asrwt>
<pdfrwt beam="2">  1        2 0.13633883E-02 0.20000806E+02</pdfrwt>
<pdfrwt beam="1">  1       -2 0.17361559E-02 0.20000806E+02</pdfrwt>
<totfact> 0.39112272E+06</totfact>
</mgrwt>
</event>
<event>
 5    1  0.4193011E-006  0.2000084E+02  0.7818608E-02  0.1745311E+00
         -2   -1    0    0    0  501 -0.00000000000E+00  0.00000000000E+00  0.11345003236E+01  0.11345033029E+01  0.26000000000E-02 0.  1.
          2   -1    0    0  501    0  0.00000000000E+00 -0.00000000000E+00 -0.88151785360E+02  0.88151785398E+02  0.26000000000E-02 0. -1.
       1023    2    1    2    0    0  0.00000000000E+00  0.00000000000E+00 -0.87017285036E+02  0.89286288701E+02  0.20000836356E+02 0.  0.
        -11    1    3    3    0    0 -0.96061666875E+01  0.27792038725E+01 -0.43853013957E+02  0.44978764389E+02  0.51100000000E-03 0. -1.
         11    1    3    3    0    0  0.96061666875E+01 -0.27792038725E+01 -0.43164271079E+02  0.44307524312E+02  0.51100000000E-03 0.  1.
<mgrwt>
<rscale>  0 0.20000836E+02</rscale>
<asrwt>0</asrwt>
<pdfrwt beam="2">  1        2 0.13561808E-01 0.20000836E+02</pdfrwt>
<pdfrwt beam="1">  1       -2 0.17453881E-03 0.20000836E+02</pdfrwt>
<totfact> 0.51312203E+06</totfact>
</mgrwt>
</event>
<event>
 5    1  0.4046313E-006  0.2000097E+02  0.7818608E-02  0.1745309E+00
         -2   -1    0    0    0  501 -0.00000000000E+00  0.00000000000E+00  0.33300808195E+02  0.33300808297E+02  0.26000000000E-02 0. -1.
          2   -1    0    0  501    0  0.00000000000E+00 -0.00000000000E+00 -0.30032204515E+01  0.30032215770E+01  0.26000000000E-02 0.  1.
       1023    2    1    2    0    0  0.00000000000E+00  0.00000000000E+00  0.30297587744E+02  0.36304029874E+02  0.20000969026E+02 0.  0.
        -11    1    3    3    0    0  0.14048009184E+01  0.99011587994E+01  0.15044855130E+02  0.18065272689E+02  0.51100000000E-03 0. -1.
         11    1    3    3    0    0 -0.14048009184E+01 -0.99011587994E+01  0.15252732613E+02  0.18238757184E+02  0.51100000000E-03 0.  1.
<mgrwt>
<rscale>  0 0.20000969E+02</rscale>
<asrwt>0</asrwt>
<pdfrwt beam="2">  1        2 0.46203399E-03 0.20000969E+02</pdfrwt>
<pdfrwt beam="1">  1       -2 0.51232016E-02 0.20000969E+02</pdfrwt>
<totfact> 0.35665173E+06</totfact>
</mgrwt>
</event>
<event>
 4    1  0.4046313E-006  0.2022284E+02  0.7818608E-02  0.1740933E+00
          2   -1    0    0  501    0  0.00000000000E+00  0.00000000000E+00  0.27717389032E+02  0.27717389154E+02  0.26000000000E-02 0. -1.
         -2   -1    0    0    0  501 -0.00000000000E+00 -0.00000000000E+00 -0.36886876840E+01  0.36886886003E+01  0.26000000000E-02 0.  1.
        -11    1    1    2    0    0  0.62901333824E+01  0.79102723590E+01  0.11516854966E+02  0.15322406316E+02  0.51100000000E-03 0.  1.
         11    1    1    2    0    0 -0.62901333824E+01 -0.79102723590E+01  0.12511846382E+02  0.16083671438E+02  0.51100000000E-03 0. -1.
<mgrwt>
<rscale>  0 0.20222839E+02</rscale>
<asrwt>0</asrwt>
<pdfrwt beam="1">  1        2 0.42642137E-02 0.20222839E+02</pdfrwt>
<pdfrwt beam="2">  1       -2 0.56749050E-03 0.20222839E+02</pdfrwt>
<totfact> 0.41949637E+06</totfact>
</mgrwt>
</event>
<event>
 5    1  0.4046313E-006  0.2000044E+02  0.7818608E-02  0.1745319E+00
          2   -1    0    0  501    0  0.00000000000E+00  0.00000000000E+00  0.71404470659E+02  0.71404470706E+02  0.26000000000E-02 0. -1.
         -2   -1    0    0    0  501 -0.00000000000E+00 -0.00000000000E+00 -0.14005324616E+01  0.14005348750E+01  0.26000000000E-02 0.  1.
       1023    2    1    2    0    0  0.00000000000E+00  0.00000000000E+00  0.70003938197E+02  0.72805005581E+02  0.20000436859E+02 0.  0.
        -11    1    3    3    0    0  0.99855085520E+01 -0.54093191009E+00  0.34866742551E+02  0.36272478889E+02  0.51100000000E-03 0. -1.
         11    1    3    3    0    0 -0.99855085520E+01  0.54093191009E+00  0.35137195647E+02  0.36532526692E+02  0.51100000000E-03 0.  1.
<mgrwt>
<rscale>  0 0.20000437E+02</rscale>
<asrwt>0</asrwt>
<pdfrwt beam="1">  1        2 0.10985307E-01 0.20000437E+02</pdfrwt>
<pdfrwt beam="2">  1       -2 0.21546665E-03 0.20000437E+02</pdfrwt>
<totfact> 0.49199663E+06</totfact>
</mgrwt>
</event>
<event>
 5    1  0.4046313E-006  0.2000025E+02  0.7818608E-02  0.1745323E+00
         -2   -1    0    0    0  501 -0.00000000000E+00  0.00000000000E+00  0.87574514390E+00  0.87574900346E+00  0.26000000000E-02 0.  1.
          2   -1    0    0  501    0  0.00000000000E+00 -0.00000000000E+00 -0.11419106039E+03  0.11419106042E+03  0.26000000000E-02 0. -1.
       1023    2    1    2    0    0  0.00000000000E+00  0.00000000000E+00 -0.11331531525E+03  0.11506680943E+03  0.20000249036E+02 0.  0.
        -11    1    3    3    0    0  0.91963768548E+01  0.39278645290E+01 -0.56841681057E+02  0.57714627026E+02  0.51100000000E-03 0.  1.
         11    1    3    3    0    0 -0.91963768548E+01 -0.39278645290E+01 -0.56473634191E+02  0.57352182400E+02  0.51100000000E-03 0. -1.
<mgrwt>
<rscale>  0 0.20000249E+02</rscale>
<asrwt>0</asrwt>
<pdfrwt beam="2">  1        2 0.17567844E-01 0.20000249E+02</pdfrwt>
<pdfrwt beam="1">  1       -2 0.13473041E-03 0.20000249E+02</pdfrwt>
<totfact> 0.54424512E+06</totfact>
</mgrwt>
</event>
<event>
 5    1  0.4046313E-006  0.2000160E+02  0.7818608E-02  0.1745296E+00
         -2   -1    0    0    0  501 -0.00000000000E+00  0.00000000000E+00  0.16122617428E+02  0.16122617638E+02  0.26000000000E-02 0. -1.
          2   -1    0    0  501    0  0.00000000000E+00 -0.00000000000E+00 -0.62034597240E+01  0.62034602689E+01  0.26000000000E-02 0.  1.
       1023    2    1    2    0    0  0.00000000000E+00  0.00000000000E+00  0.99191577043E+01  0.22326077907E+02  0.20001601564E+02 0.  0.
        -11    1    3    3    0    0 -0.61521620029E+01 -0.78846000965E+01  0.49593764526E+01  0.11162949030E+02  0.51100000000E-03 0.  1.
         11    1    3    3    0    0  0.61521620029E+01  0.78846000965E+01  0.49597812516E+01  0.11163128877E+02  0.51100000000E-03 0. -1.
<mgrwt>
<rscale>  0 0.20001602E+02</rscale>
<asrwt>0</asrwt>
<pdfrwt beam="2">  1        2 0.95437849E-03 0.20001602E+02</pdfrwt>
<pdfrwt beam="1">  1       -2 0.24804027E-02 0.20001602E+02</pdfrwt>
<totfact> 0.38079681E+06</totfact>
</mgrwt>
</event>
<event>
 5    1  0.4046313E-006  0.2000003E+02  0.7818608E-02  0.1745327E+00
         -2   -1    0    0    0  501 -0.00000000000E+00  0.00000000000E+00  0.83322696135E+00  0.83323101786E+00  0.26000000000E-02 0. -1.
          2   -1    0    0  501    0  0.00000000000E+00 -0.00000000000E+00 -0.12001539206E+03  0.12001539209E+03  0.26000000000E-02 0.  1.
       1023    2    1    2    0    0  0.00000000000E+00  0.00000000000E+00 -0.11918216510E+03  0.12084862311E+03  0.20000030725E+02 0.  0.
        -11    1    3    3    0    0  0.83428934639E+01 -0.55132926891E+01 -0.59628995279E+02  0.60461701480E+02  0.51100000000E-03 0.  1.
         11    1    3    3    0    0 -0.83428934639E+01  0.55132926891E+01 -0.59553169819E+02  0.60386921626E+02  0.51100000000E-03 0. -1.
<mgrwt>
<rscale>  0 0.20000031E+02</rscale>
<asrwt>0</asrwt>
<pdfrwt beam="2">  1        2 0.18463893E-01 0.20000031E+02</pdfrwt>
<pdfrwt beam="1">  1       -2 0.12818917E-03 0.20000031E+02</pdfrwt>
<totfact> 0.55093836E+06</totfact>
</mgrwt>
</event>
<event>
 5    1  0.4046313E-006  0.2000037E+02  0.7818608E-02  0.1745321E+00
          2   -1    0    0  501    0  0.00000000000E+00  0.00000000000E+00  0.85560669580E+01  0.85560673530E+01  0.26000000000E-02 0.  1.
         -2   -1    0    0    0  501 -0.00000000000E+00 -0.00000000000E+00 -0.11688050131E+02  0.11688050421E+02  0.26000000000E-02 0. -1.
       1023    2    1    2    0    0  0.00000000000E+00  0.00000000000E+00 -0.31319831734E+01  0.20244117774E+02  0.20000374642E+02 0.  0.
        -11    1    3    3    0    0 -0.91646442047E+01  0.40016229259E+01 -0.15583660267E+01  0.10120879130E+02  0.51100000000E-03 0.  1.
         11    1    3    3    0    0  0.91646442047E+01 -0.40016229259E+01 -0.15736171467E+01  0.10123238643E+02  0.51100000000E-03 0. -1.
<mgrwt>
<rscale>  0 0.20000375E+02</rscale>
<asrwt>0</asrwt>
<pdfrwt beam="1">  1        2 0.13163180E-02 0.20000375E+02</pdfrwt>
<pdfrwt beam="2">  1       -2 0.17981616E-02 0.20000375E+02</pdfrwt>
<totfact> 0.39013626E+06</totfact>
</mgrwt>
</event>
<event>
 5    1  0.4046313E-006  0.2000030E+02  0.7818608E-02  0.1745322E+00
         -2   -1    0    0    0  501 -0.00000000000E+00  0.00000000000E+00  0.18966522479E+01  0.18966540300E+01  0.26000000000E-02 0. -1.
          2   -1    0    0  501    0  0.00000000000E+00 -0.00000000000E+00 -0.52726025200E+02  0.52726025264E+02  0.26000000000E-02 0.  1.
       1023    2    1    2    0    0  0.00000000000E+00  0.00000000000E+00 -0.50829372952E+02  0.54622679294E+02  0.20000298462E+02 0.  0.
        -11    1    3    3    0    0  0.97361483779E+01  0.22821987496E+01 -0.25535843970E+02  0.27424083283E+02  0.51100000000E-03 0. -1.
         11    1    3    3    0    0 -0.97361483779E+01 -0.22821987496E+01 -0.25293528982E+02  0.27198596012E+02  0.51100000000E-03 0.  1.
<mgrwt>
<rscale>  0 0.20000298E+02</rscale>
<asrwt>0</asrwt>
<pdfrwt beam="2">  1        2 0.81116952E-02 0.20000298E+02</pdfrwt>
<pdfrwt beam="1">  1       -2 0.29179284E-03 0.20000298E+02</pdfrwt>
<totfact> 0.46705267E+06</totfact>
</mgrwt>
</event>
<event>
 5    1  0.4046313E-006  0.2000121E+02  0.7818608E-02  0.1745304E+00
         -2   -1    0    0    0  501 -0.00000000000E+00  0.00000000000E+00  0.21866540118E+02  0.21866540272E+02  0.26000000000E-02 0.  1.
          2   -1    0    0  501    0  0.00000000000E+00 -0.00000000000E+00 -0.45737493719E+01  0.45737501109E+01  0.26000000000E-02 0. -1.
       1023    2    1    2    0    0  0.00000000000E+00  0.00000000000E+00  0.17292790746E+02  0.26440290383E+02  0.20001208558E+02 0.  0.
        -11    1    3    3    0    0 -0.10166380206E+01  0.99487936022E+01  0.86381740971E+01  0.13214768216E+02  0.51100000000E-03 0. -1.
         11    1    3    3    0    0  0.10166380206E+01 -0.99487936022E+01  0.86546166490E+01  0.13225522168E+02  0.51100000000E-03 0.  1.
<mgrwt>
<rscale>  0 0.20001209E+02</rscale>
<asrwt>0</asrwt>
<pdfrwt beam="2">  1        2 0.70365381E-03 0.20001209E+02</pdfrwt>
<pdfrwt beam="1">  1       -2 0.33640832E-02 0.20001209E+02</pdfrwt>
<totfact> 0.37146287E+06</totfact>
</mgrwt>
</event>
<event>
 5    1  0.4046313E-006  0.2000135E+02  0.7818608E-02  0.1745301E+00
         -2   -1    0    0    0  501 -0.00000000000E+00  0.00000000000E+00  0.47648575333E+01  0.47648582427E+01  0.26000000000E-02 0. -1.
          2   -1    0    0  501    0  0.00000000000E+00 -0.00000000000E+00 -0.20989812286E+02  0.20989812447E+02  0.26000000000E-02 0.  1.
       1023    2    1    2    0    0  0.00000000000E+00  0.00000000000E+00 -0.16224954753E+02  0.25754670690E+02  0.20001347595E+02 0.  0.
        -11    1    3    3    0    0  0.26955152975E+01  0.96304395933E+01 -0.80506346576E+01  0.12838375603E+02  0.51100000000E-03 0.  1.
         11    1    3    3    0    0 -0.26955152975E+01 -0.96304395933E+01 -0.81743200950E+01  0.12916295086E+02  0.51100000000E-03 0. -1.
<mgrwt>
<rscale>  0 0.20001348E+02</rscale>
<asrwt>0</asrwt>
<pdfrwt beam="2">  1        2 0.32292019E-02 0.20001348E+02</pdfrwt>
<pdfrwt beam="1">  1       -2 0.73305508E-03 0.20001348E+02</pdfrwt>
<totfact> 0.41852092E+06</totfact>
</mgrwt>
</event>
<event>
 5    1  0.4046313E-006  0.2000115E+02  0.7818608E-02  0.1745305E+00
         -2   -1    0    0    0  501 -0.00000000000E+00  0.00000000000E+00  0.10119360712E+03  0.10119360716E+03  0.26000000000E-02 0.  1.
          2   -1    0    0  501    0  0.00000000000E+00 -0.00000000000E+00 -0.98831615475E+00  0.98831957470E+00  0.26000000000E-02 0. -1.
       1023    2    1    2    0    0  0.00000000000E+00  0.00000000000E+00  0.10020529097E+03  0.10218192673E+03  0.20001145278E+02 0.  0.
        -11    1    3    3    0    0  0.40327279059E+01  0.91512586649E+01  0.49821738586E+02  0.50815490409E+02  0.51100000000E-03 0.  1.
         11    1    3    3    0    0 -0.40327279059E+01 -0.91512586649E+01  0.50383552382E+02  0.51366436322E+02  0.51100000000E-03 0. -1.
<mgrwt>
<rscale>  0 0.20001145E+02</rscale>
<asrwt>0</asrwt>
<pdfrwt beam="2">  1        2 0.15204884E-03 0.20001145E+02</pdfrwt>
<pdfrwt beam="1">  1       -2 0.15568254E-01 0.20001145E+02</pdfrwt>
<totfact> 0.29640555E+06</totfact>
</mgrwt>
</event>
<event>
 5    1  0.4046313E-006  0.2000392E+02  0.7818608E-02  0.1745250E+00
          2   -1    0    0  501    0  0.00000000000E+00  0.00000000000E+00  0.18679501091E+02  0.18679501272E+02  0.26000000000E-02 0.  1.
         -2   -1    0    0    0  501 -0.00000000000E+00 -0.00000000000E+00 -0.53555586973E+01  0.53555593284E+01  0.26000000000E-02 0. -1.
       1023    2    1    2    0    0  0.00000000000E+00  0.00000000000E+00  0.13323942394E+02  0.24035060600E+02  0.20003917045E+02 0.  0.
        -11    1    3    3    0    0  0.84903243466E+01  0.52842123364E+01  0.68723792154E+01  0.12134170918E+02  0.51100000000E-03 0.  1.
         11    1    3    3    0    0 -0.84903243466E+01 -0.52842123364E+01  0.64515631784E+01  0.11900889682E+02  0.51100000000E-03 0. -1.
<mgrwt>
<rscale>  0 0.20003917E+02</rscale>
<asrwt>0</asrwt>
<pdfrwt beam="1">  1        2 0.28737694E-02 0.20003917E+02</pdfrwt>
<pdfrwt beam="2">  1       -2 0.82393219E-03 0.20003917E+02</pdfrwt>
<totfact> 0.41412439E+06</totfact>
</mgrwt>
</event>
<event>
 5    1  0.4050563E-006  0.2000298E+02  0.7818608E-02  0.1745269E+00
         -2   -1    0    0    0  501 -0.00000000000E+00  0.00000000000E+00  0.11024390732E+01  0.11024421391E+01  0.26000000000E-02 0.  1.
          2   -1    0    0  501    0  0.00000000000E+00 -0.00000000000E+00 -0.90734892612E+02  0.90734892649E+02  0.26000000000E-02 0. -1.
       1023    2    1    2    0    0  0.00000000000E+00  0.00000000000E+00 -0.89632453539E+02  0.91837334788E+02  0.20002983118E+02 0.  0.
        -11    1    3    3    0    0  0.78643459885E+01  0.61782564229E+01 -0.44333761623E+02  0.45447785536E+02  0.51100000000E-03 0. -1.
         11    1    3    3    0    0 -0.78643459885E+01 -0.61782564229E+01 -0.45298691916E+02  0.46389549252E+02  0.51100000000E-03 0.  1.
<mgrwt>
<rscale>  0 0.20002983E+02</rscale>
<asrwt>0</asrwt>
<pdfrwt beam="2">  1        2 0.13959209E-01 0.20002983E+02</pdfrwt>
<pdfrwt beam="1">  1       -2 0.16960632E-03 0.20002983E+02</pdfrwt>
<totfact> 0.51617957E+06</totfact>
</mgrwt>
</event>
<event>
 5    1  0.4221613E-006  0.2000109E+02  0.7818608E-02  0.1745306E+00
         -2   -1    0    0    0  501 -0.00000000000E+00  0.00000000000E+00  0.15066302416E+01  0.15066324850E+01  0.26000000000E-02 0.  1.
          2   -1    0    0  501    0  0.00000000000E+00 -0.00000000000E+00 -0.66380470232E+02  0.66380470282E+02  0.26000000000E-02 0. -1.
       1023    2    1    2    0    0  0.00000000000E+00  0.00000000000E+00 -0.64873839990E+02  0.67887102767E+02  0.20001090148E+02 0.  0.
        -11    1    3    3    0    0 -0.40084025634E+01 -0.91618587326E+01 -0.32650374471E+02  0.34147531388E+02  0.51100000000E-03 0. -1.
         11    1    3    3    0    0  0.40084025634E+01  0.91618587326E+01 -0.32223465519E+02  0.33739571379E+02  0.51100000000E-03 0.  1.
<mgrwt>
<rscale>  0 0.20001090E+02</rscale>
<asrwt>0</asrwt>
<pdfrwt beam="2">  1        2 0.10212378E-01 0.20001090E+02</pdfrwt>
<pdfrwt beam="1">  1       -2 0.23178950E-03 0.20001090E+02</pdfrwt>
<totfact> 0.48540530E+06</totfact>
</mgrwt>
</event>
<event>
 5    1  0.4046313E-006  0.2000103E+02  0.7818608E-02  0.1745308E+00
          2   -1    0    0  501    0  0.00000000000E+00  0.00000000000E+00  0.10490550617E+02  0.10490550939E+02  0.26000000000E-02 0.  1.
         -2   -1    0    0    0  501 -0.00000000000E+00 -0.00000000000E+00 -0.95333692681E+01  0.95333696226E+01  0.26000000000E-02 0. -1.
       1023    2    1    2    0    0  0.00000000000E+00  0.00000000000E+00  0.95718134905E+00  0.20023920562E+02  0.20001029937E+02 0.  0.
        -11    1    3    3    0    0 -0.92479635273E+01  0.38059689002E+01  0.47017260328E+00  0.10011557881E+02  0.51100000000E-03 0. -1.
         11    1    3    3    0    0  0.92479635273E+01 -0.38059689002E+01  0.48700874577E+00  0.10012362681E+02  0.51100000000E-03 0.  1.
<mgrwt>
<rscale>  0 0.20001030E+02</rscale>
<asrwt>0</asrwt>
<pdfrwt beam="1">  1        2 0.16139309E-02 0.20001030E+02</pdfrwt>
<pdfrwt beam="2">  1       -2 0.14666722E-02 0.20001030E+02</pdfrwt>
<totfact> 0.39597483E+06</totfact>
</mgrwt>
</event>
<event>
 5    1  0.4046313E-006  0.2000074E+02  0.7818608E-02  0.1745313E+00
          2   -1    0    0  501    0  0.00000000000E+00  0.00000000000E+00  0.79993951494E+01  0.79993955720E+01  0.26000000000E-02 0. -1.
         -2   -1    0    0    0  501 -0.00000000000E+00 -0.00000000000E+00 -0.12501870880E+02  0.12501871150E+02  0.26000000000E-02 0.  1.
       1023    2    1    2    0    0  0.00000000000E+00  0.00000000000E+00 -0.45024757305E+01  0.20501266722E+02  0.20000741224E+02 0.  0.
        -11    1    3    3    0    0 -0.51345706969E+01 -0.85812520309E+01 -0.21737859787E+01  0.10233623425E+02  0.51100000000E-03 0. -1.
         11    1    3    3    0    0  0.51345706969E+01  0.85812520309E+01 -0.23286897518E+01  0.10267643297E+02  0.51100000000E-03 0.  1.
<mgrwt>
<rscale>  0 0.20000741E+02</rscale>
<asrwt>0</asrwt>
<pdfrwt beam="1">  1        2 0.12306762E-02 0.20000741E+02</pdfrwt>
<pdfrwt beam="2">  1       -2 0.19233648E-02 0.20000741E+02</pdfrwt>
<totfact> 0.38819539E+06</totfact>
</mgrwt>
</event>
<event>
 5    1  0.4046313E-006  0.2000198E+02  0.7818608E-02  0.1745289E+00
         -2   -1    0    0    0  501 -0.00000000000E+00  0.00000000000E+00  0.30708215329E+02  0.30708215439E+02  0.26000000000E-02 0. -1.
          2   -1    0    0  501    0  0.00000000000E+00 -0.00000000000E+00 -0.32571027444E+01  0.32571037821E+01  0.26000000000E-02 0.  1.
       1023    2    1    2    0    0  0.00000000000E+00  0.00000000000E+00  0.27451112584E+02  0.33965319221E+02  0.20001983093E+02 0.  0.
        -11    1    3    3    0    0  0.72608939665E+01 -0.68772966019E+01  0.13802289087E+02  0.17044675827E+02  0.51100000000E-03 0.  1.
         11    1    3    3    0    0 -0.72608939665E+01  0.68772966019E+01  0.13648823497E+02  0.16920643394E+02  0.51100000000E-03 0. -1.
<mgrwt>
<rscale>  0 0.20001983E+02</rscale>
<asrwt>0</asrwt>
<pdfrwt beam="2">  1        2 0.50109282E-03 0.20001983E+02</pdfrwt>
<pdfrwt beam="1">  1       -2 0.47243409E-02 0.20001983E+02</pdfrwt>
<totfact> 0.35969958E+06</totfact>
</mgrwt>
</event>
<event>
 5    1  0.4046313E-006  0.2000060E+02  0.7818608E-02  0.1745316E+00
         -2   -1    0    0    0  501 -0.00000000000E+00  0.00000000000E+00  0.13210406856E+02  0.13210407112E+02  0.26000000000E-02 0. -1.
          2   -1    0    0  501    0  0.00000000000E+00 -0.00000000000E+00 -0.75702400062E+01  0.75702404527E+01  0.26000000000E-02 0.  1.
       1023    2    1    2    0    0  0.00000000000E+00  0.00000000000E+00  0.56401668494E+01  0.20780647564E+02  0.20000595769E+02 0.  0.
        -11    1    3    3    0    0  0.41721956662E+01  0.90882023927E+01  0.28799330280E+01  0.10406567826E+02  0.51100000000E-03 0. -1.
         11    1    3    3    0    0 -0.41721956662E+01 -0.90882023927E+01  0.27602338215E+01  0.10374079738E+02  0.51100000000E-03 0.  1.
<mgrwt>
<rscale>  0 0.20000596E+02</rscale>
<asrwt>0</asrwt>
<pdfrwt beam="2">  1        2 0.11646524E-02 0.20000596E+02</pdfrwt>
<pdfrwt beam="1">  1       -2 0.20323703E-02 0.20000596E+02</pdfrwt>
<totfact> 0.38662188E+06</totfact>
</mgrwt>
</event>
<event>
 5    1  0.4046313E-006  0.2000309E+02  0.7818608E-02  0.1745267E+00
         -2   -1    0    0    0  501 -0.00000000000E+00  0.00000000000E+00  0.63329977413E+02  0.63329977467E+02  0.26000000000E-02 0.  1.
          2   -1    0    0  501    0  0.00000000000E+00 -0.00000000000E+00 -0.15795173177E+01  0.15795194576E+01  0.26000000000E-02 0. -1.
       1023    2    1    2    0    0  0.00000000000E+00  0.00000000000E+00  0.61750460095E+02  0.64909496924E+02  0.20003086486E+02 0.  0.
        -11    1    3    3    0    0  0.90804580411E+01  0.41910770741E+01  0.30534558780E+02  0.32130657096E+02  0.51100000000E-03 0.  1.
         11    1    3    3    0    0 -0.90804580411E+01 -0.41910770741E+01  0.31215901315E+02  0.32778839828E+02  0.51100000000E-03 0. -1.
<mgrwt>
<rscale>  0 0.20003086E+02</rscale>
<asrwt>0</asrwt>
<pdfrwt beam="2">  1        2 0.24300283E-03 0.20003086E+02</pdfrwt>
<pdfrwt beam="1">  1       -2 0.97430738E-02 0.20003086E+02</pdfrwt>
<totfact> 0.32650638E+06</totfact>
</mgrwt>
</event>
<event>
 5    1  0.4046313E-006  0.2000877E+02  0.7818608E-02  0.1745154E+00
         -2   -1    0    0    0  501 -0.00000000000E+00  0.00000000000E+00  0.48582031233E+01  0.48582038190E+01  0.26000000000E-02 0. -1.
          2   -1    0    0  501    0  0.00000000000E+00 -0.00000000000E+00 -0.20601798853E+02  0.20601799017E+02  0.26000000000E-02 0.  1.
       1023    2    1    2    0    0  0.00000000000E+00  0.00000000000E+00 -0.15743595730E+02  0.25460002836E+02  0.20008771524E+02 0.  0.
        -11    1    3    3    0    0  0.83378725254E+01 -0.55272464465E+01 -0.77050997610E+01  0.12626921007E+02  0.51100000000E-03 0. -1.
         11    1    3    3    0    0 -0.83378725254E+01  0.55272464465E+01 -0.80384959689E+01  0.12833081829E+02  0.51100000000E-03 0.  1.
<mgrwt>
<rscale>  0 0.20008772E+02</rscale>
<asrwt>0</asrwt>
<pdfrwt beam="2">  1        2 0.31695075E-02 0.20008772E+02</pdfrwt>
<pdfrwt beam="1">  1       -2 0.74741594E-03 0.20008772E+02</pdfrwt>
<totfact> 0.41746893E+06</totfact>
</mgrwt>
</event>
<event>
 5    1  0.4046313E-006  0.2000508E+02  0.7818608E-02  0.1745227E+00
          2   -1    0    0  501    0  0.00000000000E+00  0.00000000000E+00  0.26572938552E+01  0.26572951272E+01  0.26000000000E-02 0.  1.
         -2   -1    0    0    0  501 -0.00000000000E+00 -0.00000000000E+00 -0.37651365598E+02  0.37651365688E+02  0.26000000000E-02 0. -1.
       1023    2    1    2    0    0  0.00000000000E+00  0.00000000000E+00 -0.34994071743E+02  0.40308660815E+02  0.20005076344E+02 0.  0.
        -11    1    3    3    0    0 -0.85021902126E+01  0.52688748946E+01 -0.17597551201E+02  0.20241593060E+02  0.51100000000E-03 0. -1.
         11    1    3    3    0    0  0.85021902126E+01 -0.52688748946E+01 -0.17396520542E+02  0.20067067755E+02  0.51100000000E-03 0.  1.
<mgrwt>
<rscale>  0 0.20005076E+02</rscale>
<asrwt>0</asrwt>
<pdfrwt beam="1">  1        2 0.40881457E-03 0.20005076E+02</pdfrwt>
<pdfrwt beam="2">  1       -2 0.57925175E-02 0.20005076E+02</pdfrwt>
<totfact> 0.35156340E+06</totfact>
</mgrwt>
</event>
<event>
 5    1  0.4046313E-006  0.2000194E+02  0.7818608E-02  0.1745290E+00
          2   -1    0    0  501    0  0.00000000000E+00  0.00000000000E+00  0.24402083950E+01  0.24402097802E+01  0.26000000000E-02 0.  1.
         -2   -1    0    0    0  501 -0.00000000000E+00 -0.00000000000E+00 -0.40988039520E+02  0.40988039603E+02  0.26000000000E-02 0. -1.
       1023    2    1    2    0    0  0.00000000000E+00  0.00000000000E+00 -0.38547831125E+02  0.43428249383E+02  0.20001938906E+02 0.  0.
        -11    1    3    3    0    0 -0.93678404704E+01  0.35015723467E+01 -0.19369689022E+02  0.21799135236E+02  0.51100000000E-03 0.  1.
         11    1    3    3    0    0  0.93678404704E+01 -0.35015723467E+01 -0.19178142104E+02  0.21629114147E+02  0.51100000000E-03 0. -1.
<mgrwt>
<rscale>  0 0.20001939E+02</rscale>
<asrwt>0</asrwt>
<pdfrwt beam="1">  1        2 0.37541682E-03 0.20001939E+02</pdfrwt>
<pdfrwt beam="2">  1       -2 0.63058518E-02 0.20001939E+02</pdfrwt>
<totfact> 0.34807590E+06</totfact>
</mgrwt>
</event>
<event>
 5    1  0.4046313E-006  0.2000219E+02  0.7818608E-02  0.1745284E+00
          2   -1    0    0  501    0  0.00000000000E+00  0.00000000000E+00  0.93076706868E+01  0.93076710499E+01  0.26000000000E-02 0.  1.
         -2   -1    0    0    0  501 -0.00000000000E+00 -0.00000000000E+00 -0.10746184253E+02  0.10746184568E+02  0.26000000000E-02 0. -1.
       1023    2    1    2    0    0  0.00000000000E+00  0.00000000000E+00 -0.14385135666E+01  0.20053855618E+02  0.20002194976E+02 0.  0.
        -11    1    3    3    0    0  0.83769103106E+01  0.54629368731E+01 -0.79458453529E+00  0.10032331258E+02  0.51100000000E-03 0.  1.
         11    1    3    3    0    0 -0.83769103106E+01 -0.54629368731E+01 -0.64392903132E+00  0.10021524360E+02  0.51100000000E-03 0. -1.
<mgrwt>
<rscale>  0 0.20002195E+02</rscale>
<asrwt>0</asrwt>
<pdfrwt beam="1">  1        2 0.14319494E-02 0.20002195E+02</pdfrwt>
<pdfrwt beam="2">  1       -2 0.16532592E-02 0.20002195E+02</pdfrwt>
<totfact> 0.39246664E+06</totfact>
</mgrwt>
</event>
<event>
 5    1  0.4046313E-006  0.2000060E+02  0.7818608E-02  0.1745316E+00
         -2   -1    0    0    0  501 -0.00000000000E+00  0.00000000000E+00  0.86805473347E+00  0.86805862722E+00  0.26000000000E-02 0. -1.
          2   -1    0    0  501    0  0.00000000000E+00 -0.00000000000E+00 -0.11520673596E+03  0.11520673599E+03  0.26000000000E-02 0.  1.
       1023    2    1    2    0    0  0.00000000000E+00  0.00000000000E+00 -0.11433868122E+03  0.11607479461E+03  0.20000598007E+02 0.  0.
        -11    1    3    3    0    0 -0.88166437741E+01  0.47188780808E+01 -0.57578157147E+02  0.58440099234E+02  0.51100000000E-03 0. -1.
         11    1    3    3    0    0  0.88166437741E+01 -0.47188780808E+01 -0.56760524076E+02  0.57634695379E+02  0.51100000000E-03 0.  1.
<mgrwt>
<rscale>  0 0.20000598E+02</rscale>
<asrwt>0</asrwt>
<pdfrwt beam="2">  1        2 0.17724101E-01 0.20000598E+02</pdfrwt>
<pdfrwt beam="1">  1       -2 0.13354728E-03 0.20000598E+02</pdfrwt>
<totfact> 0.54539565E+06</totfact>
</mgrwt>
</event>
<event>
 5    1  0.4046313E-006  0.2000042E+02  0.7818608E-02  0.1745320E+00
         -2   -1    0    0    0  501 -0.00000000000E+00  0.00000000000E+00  0.12991209800E+01  0.12991235817E+01  0.26000000000E-02 0.  1.
          2   -1    0    0  501    0  0.00000000000E+00 -0.00000000000E+00 -0.76978289294E+02  0.76978289338E+02  0.26000000000E-02 0. -1.
       1023    2    1    2    0    0  0.00000000000E+00  0.00000000000E+00 -0.75679168314E+02  0.78277412920E+02  0.20000421413E+02 0.  0.
        -11    1    3    3    0    0 -0.52819336817E+01 -0.84914839565E+01 -0.37802308922E+02  0.39102668493E+02  0.51100000000E-03 0. -1.
         11    1    3    3    0    0  0.52819336817E+01  0.84914839565E+01 -0.37876859393E+02  0.39174744427E+02  0.51100000000E-03 0.  1.
<mgrwt>
<rscale>  0 0.20000421E+02</rscale>
<asrwt>0</asrwt>
<pdfrwt beam="2">  1        2 0.11842810E-01 0.20000421E+02</pdfrwt>
<pdfrwt beam="1">  1       -2 0.19986503E-03 0.20000421E+02</pdfrwt>
<totfact> 0.49914609E+06</totfact>
</mgrwt>
</event>
<event>
 4    1  0.4046313E-006  0.2001445E+02  0.7818608E-02  0.1745041E+00
          2   -1    0    0  501    0  0.00000000000E+00  0.00000000000E+00  0.59877735080E+02  0.59877735136E+02  0.26000000000E-02 0. -1.
         -2   -1    0    0    0  501 -0.00000000000E+00 -0.00000000000E+00 -0.16724833011E+01  0.16724853220E+01  0.26000000000E-02 0.  1.
        -11    1    1    2    0    0 -0.72483708651E+01  0.68928367961E+01  0.30047977876E+02  0.31669086725E+02  0.51100000000E-03 0. -1.
         11    1    1    2    0    0  0.72483708651E+01 -0.68928367961E+01  0.28157273903E+02  0.29881133733E+02  0.51100000000E-03 0.  1.
<mgrwt>
<rscale>  0 0.20014452E+02</rscale>
<asrwt>0</asrwt>
<pdfrwt beam="1">  1        2 0.92119590E-02 0.20014452E+02</pdfrwt>
<pdfrwt beam="2">  1       -2 0.25730529E-03 0.20014452E+02</pdfrwt>
<totfact> 0.47604806E+06</totfact>
</mgrwt>
</event>
<event>
 5    1  0.4046313E-006  0.2000083E+02  0.7818608E-02  0.1745312E+00
          2   -1    0    0  501    0  0.00000000000E+00  0.00000000000E+00  0.14228581916E+02  0.14228582154E+02  0.26000000000E-02 0. -1.
         -2   -1    0    0    0  501 -0.00000000000E+00 -0.00000000000E+00 -0.70286898594E+01  0.70286903403E+01  0.26000000000E-02 0.  1.
       1023    2    1    2    0    0  0.00000000000E+00  0.00000000000E+00  0.71998920569E+01  0.21257272494E+02  0.20000829689E+02 0.  0.
        -11    1    3    3    0    0  0.92582517413E+01  0.37799789307E+01  0.35260760033E+01  0.10603616282E+02  0.51100000000E-03 0. -1.
         11    1    3    3    0    0 -0.92582517413E+01 -0.37799789307E+01  0.36738160535E+01  0.10653656212E+02  0.51100000000E-03 0.  1.
<mgrwt>
<rscale>  0 0.20000830E+02</rscale>
<asrwt>0</asrwt>
<pdfrwt beam="1">  1        2 0.21890126E-02 0.20000830E+02</pdfrwt>
<pdfrwt beam="2">  1       -2 0.10813370E-02 0.20000830E+02</pdfrwt>
<totfact> 0.40517608E+06</totfact>
</mgrwt>
</event>
<event>
 5    1  0.4046313E-006  0.2000026E+02  0.7818608E-02  0.1745323E+00
         -2   -1    0    0    0  501 -0.00000000000E+00  0.00000000000E+00  0.98744262551E+02  0.98744262585E+02  0.26000000000E-02 0. -1.
          2   -1    0    0  501    0  0.00000000000E+00 -0.00000000000E+00 -0.10127417699E+01  0.10127451074E+01  0.26000000000E-02 0.  1.
       1023    2    1    2    0    0  0.00000000000E+00  0.00000000000E+00  0.97731520781E+02  0.99757007693E+02  0.20000260738E+02 0.  0.
        -11    1    3    3    0    0 -0.99287490624E+01  0.11926840471E+01  0.48902398511E+02  0.49914398059E+02  0.51100000000E-03 0.  1.
         11    1    3    3    0    0  0.99287490624E+01 -0.11926840471E+01  0.48829122270E+02  0.49842609634E+02  0.51100000000E-03 0. -1.
<mgrwt>
<rscale>  0 0.20000261E+02</rscale>
<asrwt>0</asrwt>
<pdfrwt beam="2">  1        2 0.15580667E-03 0.20000261E+02</pdfrwt>
<pdfrwt beam="1">  1       -2 0.15191427E-01 0.20000261E+02</pdfrwt>
<totfact> 0.29821411E+06</totfact>
</mgrwt>
</event>
<event>
 5    1  0.4046313E-006  0.2000077E+02  0.7818608E-02  0.1745313E+00
         -2   -1    0    0    0  501 -0.00000000000E+00  0.00000000000E+00  0.26330883325E+01  0.26330896162E+01  0.26000000000E-02 0.  1.
          2   -1    0    0  501    0  0.00000000000E+00 -0.00000000000E+00 -0.37981125668E+02  0.37981125757E+02  0.26000000000E-02 0. -1.
       1023    2    1    2    0    0  0.00000000000E+00  0.00000000000E+00 -0.35348037336E+02  0.40614215373E+02  0.20000768658E+02 0.  0.
        -11    1    3    3    0    0 -0.98617193678E+01  0.16595433684E+01 -0.17693641876E+02  0.20324186482E+02  0.51100000000E-03 0.  1.
         11    1    3    3    0    0  0.98617193678E+01 -0.16595433684E+01 -0.17654395460E+02  0.20290028891E+02  0.51100000000E-03 0. -1.
<mgrwt>
<rscale>  0 0.20000769E+02</rscale>
<asrwt>0</asrwt>
<pdfrwt beam="2">  1        2 0.58432498E-02 0.20000769E+02</pdfrwt>
<pdfrwt beam="1">  1       -2 0.40509065E-03 0.20000769E+02</pdfrwt>
<totfact> 0.44593753E+06</totfact>
</mgrwt>
</event>
<event>
 5    1  0.4338798E-006  0.2000213E+02  0.7818608E-02  0.1745286E+00
          2   -1    0    0  501    0  0.00000000000E+00  0.00000000000E+00  0.11259095256E+03  0.11259095259E+03  0.26000000000E-02 0. -1.
         -2   -1    0    0    0  501 -0.00000000000E+00 -0.00000000000E+00 -0.88835828384E+00  0.88836208860E+00  0.26000000000E-02 0.  1.
       1023    2    1    2    0    0  0.00000000000E+00  0.00000000000E+00  0.11170259428E+03  0.11347931468E+03  0.20002132184E+02 0.  0.
        -11    1    3    3    0    0 -0.12319600475E+01  0.99246265105E+01  0.56267653353E+02  0.57149494758E+02  0.51100000000E-03 0.  1.
         11    1    3    3    0    0  0.12319600475E+01 -0.99246265105E+01  0.55434940927E+02  0.56329819925E+02  0.51100000000E-03 0. -1.
<mgrwt>
<rscale>  0 0.20002132E+02</rscale>
<asrwt>0</asrwt>
<pdfrwt beam="1">  1        2 0.17321681E-01 0.20002132E+02</pdfrwt>
<pdfrwt beam="2">  1       -2 0.13667083E-03 0.20002132E+02</pdfrwt>
<totfact> 0.54228134E+06</totfact>
</mgrwt>
</event>
<event>
 5    1  0.4046313E-006  0.2000060E+02  0.7818608E-02  0.1745316E+00
          2   -1    0    0  501    0  0.00000000000E+00  0.00000000000E+00  0.21237076744E+01  0.21237092659E+01  0.26000000000E-02 0.  1.
         -2   -1    0    0    0  501 -0.00000000000E+00 -0.00000000000E+00 -0.47090274002E+02  0.47090274073E+02  0.26000000000E-02 0. -1.
       1023    2    1    2    0    0  0.00000000000E+00  0.00000000000E+00 -0.44966566327E+02  0.49213983339E+02  0.20000601713E+02 0.  0.
        -11    1    3    3    0    0 -0.43531953217E+01  0.90030941967E+01 -0.22479525099E+02  0.24603557945E+02  0.51100000000E-03 0.  1.
         11    1    3    3    0    0  0.43531953217E+01 -0.90030941967E+01 -0.22487041228E+02  0.24610425394E+02  0.51100000000E-03 0. -1.
<mgrwt>
<rscale>  0 0.20000602E+02</rscale>
<asrwt>0</asrwt>
<pdfrwt beam="1">  1        2 0.32672442E-03 0.20000602E+02</pdfrwt>
<pdfrwt beam="2">  1       -2 0.72446569E-02 0.20000602E+02</pdfrwt>
<totfact> 0.34183893E+06</totfact>
</mgrwt>
</event>
<event>
 5    1  0.4046313E-006  0.2000032E+02  0.7818608E-02  0.1745322E+00
          2   -1    0    0  501    0  0.00000000000E+00  0.00000000000E+00  0.90907903292E+00  0.90908275096E+00  0.26000000000E-02 0. -1.
         -2   -1    0    0    0  501 -0.00000000000E+00 -0.00000000000E+00 -0.11000469909E+03  0.11000469912E+03  0.26000000000E-02 0.  1.
       1023    2    1    2    0    0  0.00000000000E+00  0.00000000000E+00 -0.10909562005E+03  0.11091378187E+03  0.20000317333E+02 0.  0.
        -11    1    3    3    0    0 -0.77062740986E+01 -0.63730990703E+01 -0.54608774968E+02  0.55516856503E+02  0.51100000000E-03 0. -1.
         11    1    3    3    0    0  0.77062740986E+01  0.63730990703E+01 -0.54486845086E+02  0.55396925365E+02  0.51100000000E-03 0.  1.
<mgrwt>
<rscale>  0 0.20000317E+02</rscale>
<asrwt>0</asrwt>
<pdfrwt beam="1">  1        2 0.13985869E-03 0.20000317E+02</pdfrwt>
<pdfrwt beam="2">  1       -2 0.16923790E-01 0.20000317E+02</pdfrwt>
<totfact> 0.29019038E+06</totfact>
</mgrwt>
</event>
<event>
 5    1  0.4046313E-006  0.2000096E+02  0.7818608E-02  0.1745309E+00
          2   -1    0    0  501    0  0.00000000000E+00  0.00000000000E+00  0.64883195781E+01  0.64883200990E+01  0.26000000000E-02 0. -1.
         -2   -1    0    0    0  501 -0.00000000000E+00 -0.00000000000E+00 -0.15413795372E+02  0.15413795591E+02  0.26000000000E-02 0.  1.
       1023    2    1    2    0    0  0.00000000000E+00  0.00000000000E+00 -0.89254757937E+01  0.21902115690E+02  0.20000963816E+02 0.  0.
        -11    1    3    3    0    0  0.56184768842E+01  0.82727756186E+01 -0.43975919595E+01  0.10924509794E+02  0.51100000000E-03 0.  1.
         11    1    3    3    0    0 -0.56184768842E+01 -0.82727756186E+01 -0.45278838342E+01  0.10977605896E+02  0.51100000000E-03 0. -1.
<mgrwt>
<rscale>  0 0.20000964E+02</rscale>
<asrwt>0</asrwt>
<pdfrwt beam="1">  1        2 0.99820308E-03 0.20000964E+02</pdfrwt>
<pdfrwt beam="2">  1       -2 0.23713532E-02 0.20000964E+02</pdfrwt>
<totfact> 0.38214270E+06</totfact>
</mgrwt>
</event>
<event>
 5    1  0.4046313E-006  0.2000115E+02  0.7818608E-02  0.1745305E+00
         -2   -1    0    0    0  501 -0.00000000000E+00  0.00000000000E+00  0.15536820729E+02  0.15536820947E+02  0.26000000000E-02 0. -1.
          2   -1    0    0  501    0  0.00000000000E+00 -0.00000000000E+00 -0.64370624889E+01  0.64370630139E+01  0.26000000000E-02 0.  1.
       1023    2    1    2    0    0  0.00000000000E+00  0.00000000000E+00  0.90997582401E+01  0.21973883960E+02  0.20001149374E+02 0.  0.
        -11    1    3    3    0    0 -0.35935591088E+01 -0.93324765204E+01  0.46070579559E+01  0.11010620706E+02  0.51100000000E-03 0.  1.
         11    1    3    3    0    0  0.35935591088E+01  0.93324765204E+01  0.44927002843E+01  0.10963263254E+02  0.51100000000E-03 0. -1.
<mgrwt>
<rscale>  0 0.20001149E+02</rscale>
<asrwt>0</asrwt>
<pdfrwt beam="2">  1        2 0.99031738E-03 0.20001149E+02</pdfrwt>
<pdfrwt beam="1">  1       -2 0.23902801E-02 0.20001149E+02</pdfrwt>
<totfact> 0.38190247E+06</totfact>
</mgrwt>
</event>
<event>
 5    1  0.4046313E-006  0.2000244E+02  0.7818608E-02  0.1745280E+00
         -2   -1    0    0    0  501 -0.00000000000E+00  0.00000000000E+00  0.91926798253E+02  0.91926798289E+02  0.26000000000E-02 0. -1.
          2   -1    0    0  501    0  0.00000000000E+00 -0.00000000000E+00 -0.10880859376E+01  0.10880890440E+01  0.26000000000E-02 0.  1.
       1023    2    1    2    0    0  0.00000000000E+00  0.00000000000E+00  0.90838712315E+02  0.93014887333E+02  0.20002440116E+02 0.  0.
        -11    1    3    3    0    0 -0.93784846193E+01  0.34739184795E+01  0.45502414979E+02  0.46588559245E+02  0.51100000000E-03 0.  1.
         11    1    3    3    0    0  0.93784846193E+01 -0.34739184795E+01  0.45336297336E+02  0.46426328088E+02  0.51100000000E-03 0. -1.
<mgrwt>
<rscale>  0 0.20002440E+02</rscale>
<asrwt>0</asrwt>
<pdfrwt beam="2">  1        2 0.16739811E-03 0.20002440E+02</pdfrwt>
<pdfrwt beam="1">  1       -2 0.14142582E-01 0.20002440E+02</pdfrwt>
<totfact> 0.30320890E+06</totfact>
</mgrwt>
</event>
<event>
 5    1  0.4046313E-006  0.2000076E+02  0.7818608E-02  0.1745313E+00
         -2   -1    0    0    0  501 -0.00000000000E+00  0.00000000000E+00  0.19201076620E+01  0.19201094223E+01  0.26000000000E-02 0. -1.
          2   -1    0    0  501    0  0.00000000000E+00 -0.00000000000E+00 -0.52084329863E+02  0.52084329928E+02  0.26000000000E-02 0.  1.
       1023    2    1    2    0    0  0.00000000000E+00  0.00000000000E+00 -0.50164222201E+02  0.54004439350E+02  0.20000756998E+02 0.  0.
        -11    1    3    3    0    0 -0.76280532227E+01  0.64668026189E+01 -0.25003957602E+02  0.26929623616E+02  0.51100000000E-03 0. -1.
         11    1    3    3    0    0  0.76280532227E+01 -0.64668026189E+01 -0.25160264599E+02  0.27074815734E+02  0.51100000000E-03 0.  1.
<mgrwt>
<rscale>  0 0.20000757E+02</rscale>
<asrwt>0</asrwt>
<pdfrwt beam="2">  1        2 0.80129729E-02 0.20000757E+02</pdfrwt>
<pdfrwt beam="1">  1       -2 0.29540136E-03 0.20000757E+02</pdfrwt>
<totfact> 0.46614137E+06</totfact>
</mgrwt>
</event>
<event>
 5    1  0.4046313E-006  0.2001001E+02  0.7818608E-02  0.1745129E+00
         -2   -1    0    0    0  501 -0.00000000000E+00  0.00000000000E+00  0.47819436340E+01  0.47819443408E+01  0.26000000000E-02 0. -1.
          2   -1    0    0  501    0  0.00000000000E+00 -0.00000000000E+00 -0.20932937513E+02  0.20932937674E+02  0.26000000000E-02 0.  1.
       1023    2    1    2    0    0  0.00000000000E+00  0.00000000000E+00 -0.16150993879E+02  0.25714882015E+02  0.20010011339E+02 0.  0.
        -11    1    3    3    0    0 -0.47570233434E+01 -0.87980883352E+01 -0.84018941756E+01  0.13062444467E+02  0.51100000000E-03 0. -1.
         11    1    3    3    0    0  0.47570233434E+01  0.87980883352E+01 -0.77490997029E+01  0.12652437548E+02  0.51100000000E-03 0.  1.
<mgrwt>
<rscale>  0 0.20010011E+02</rscale>
<asrwt>0</asrwt>
<pdfrwt beam="2">  1        2 0.32204519E-02 0.20010011E+02</pdfrwt>
<pdfrwt beam="1">  1       -2 0.73568371E-03 0.20010011E+02</pdfrwt>
<totfact> 0.41801030E+06</totfact>
</mgrwt>
</event>
<event>
 5    1  0.4141800E-006  0.2000139E+02  0.7818608E-02  0.1745300E+00
         -2   -1    0    0    0  501 -0.00000000000E+00  0.00000000000E+00  0.26205567795E+01  0.26205580693E+01  0.26000000000E-02 0.  1.
          2   -1    0    0  501    0  0.00000000000E+00 -0.00000000000E+00 -0.38165135402E+02  0.38165135490E+02  0.26000000000E-02 0. -1.
       1023    2    1    2    0    0  0.00000000000E+00  0.00000000000E+00 -0.35544578622E+02  0.40785693560E+02  0.20001393194E+02 0.  0.
        -11    1    3    3    0    0  0.55467531301E+00 -0.99851022266E+01 -0.17901271907E+02  0.20505254627E+02  0.51100000000E-03 0. -1.
         11    1    3    3    0    0 -0.55467531301E+00  0.99851022266E+01 -0.17643306715E+02  0.20280438932E+02  0.51100000000E-03 0.  1.
<mgrwt>
<rscale>  0 0.20001393E+02</rscale>
<asrwt>0</asrwt>
<pdfrwt beam="2">  1        2 0.58715590E-02 0.20001393E+02</pdfrwt>
<pdfrwt beam="1">  1       -2 0.40316272E-03 0.20001393E+02</pdfrwt>
<totfact> 0.44618024E+06</totfact>
</mgrwt>
</event>
<event>
 5    1  0.4046313E-006  0.2000166E+02  0.7818608E-02  0.1745295E+00
          2   -1    0    0  501    0  0.00000000000E+00  0.00000000000E+00  0.69771012706E+01  0.69771017550E+01  0.26000000000E-02 0. -1.
         -2   -1    0    0    0  501 -0.00000000000E+00 -0.00000000000E+00 -0.14334971462E+02  0.14334971698E+02  0.26000000000E-02 0.  1.
       1023    2    1    2    0    0  0.00000000000E+00  0.00000000000E+00 -0.73578701916E+01  0.21312073453E+02  0.20001655459E+02 0.  0.
        -11    1    3    3    0    0 -0.32738710817E+01  0.94497073233E+01 -0.36397180454E+01  0.10642497266E+02  0.51100000000E-03 0.  1.
         11    1    3    3    0    0  0.32738710817E+01 -0.94497073233E+01 -0.37181521462E+01  0.10669576187E+02  0.51100000000E-03 0. -1.
<mgrwt>
<rscale>  0 0.20001655E+02</rscale>
<asrwt>0</asrwt>
<pdfrwt beam="1">  1        2 0.10734003E-02 0.20001655E+02</pdfrwt>
<pdfrwt beam="2">  1       -2 0.22053803E-02 0.20001655E+02</pdfrwt>
<totfact> 0.38422382E+06</totfact>
</mgrwt>
</event>
<event>
 5    1  0.4046313E-006  0.2000553E+02  0.7818608E-02  0.1745218E+00
          2   -1    0    0  501    0  0.00000000000E+00  0.00000000000E+00  0.24947449714E+01  0.24947463262E+01  0.26000000000E-02 0.  1.
         -2   -1    0    0    0  501 -0.00000000000E+00 -0.00000000000E+00 -0.40106415405E+02  0.40106415489E+02  0.26000000000E-02 0. -1.
       1023    2    1    2    0    0  0.00000000000E+00  0.00000000000E+00 -0.37611670433E+02  0.42601161815E+02  0.20005530116E+02 0.  0.
        -11    1    3    3    0    0 -0.52390542038E+01 -0.85182364970E+01 -0.19268800523E+02  0.21709323246E+02  0.51100000000E-03 0. -1.
         11    1    3    3    0    0  0.52390542038E+01  0.85182364970E+01 -0.18342869911E+02  0.20891838569E+02  0.51100000000E-03 0.  1.
<mgrwt>
<rscale>  0 0.20005530E+02</rscale>
<asrwt>0</asrwt>
<pdfrwt beam="1">  1        2 0.38380706E-03 0.20005530E+02</pdfrwt>
<pdfrwt beam="2">  1       -2 0.61702174E-02 0.20005530E+02</pdfrwt>
<totfact> 0.34888026E+06</totfact>
</mgrwt>
</event>
<event>
 5    1  0.4046313E-006  0.2001026E+02  0.7818608E-02  0.1745124E+00
          2   -1    0    0  501    0  0.00000000000E+00  0.00000000000E+00  0.68087997760E+01  0.68088002724E+01  0.26000000000E-02 0.  1.
         -2   -1    0    0    0  501 -0.00000000000E+00 -0.00000000000E+00 -0.14701951464E+02  0.14701951694E+02  0.26000000000E-02 0. -1.
       1023    2    1    2    0    0  0.00000000000E+00  0.00000000000E+00 -0.78931516884E+01  0.21510751967E+02  0.20010262532E+02 0.  0.
        -11    1    3    3    0    0 -0.87737923126E+01 -0.48053353169E+01 -0.41387920445E+01  0.10825907763E+02  0.51100000000E-03 0. -1.
         11    1    3    3    0    0  0.87737923126E+01  0.48053353169E+01 -0.37543596440E+01  0.10684844203E+02  0.51100000000E-03 0.  1.
<mgrwt>
<rscale>  0 0.20010263E+02</rscale>
<asrwt>0</asrwt>
<pdfrwt beam="1">  1        2 0.10475077E-02 0.20010263E+02</pdfrwt>
<pdfrwt beam="2">  1       -2 0.22618387E-02 0.20010263E+02</pdfrwt>
<totfact> 0.38313539E+06</totfact>
</mgrwt>
</event>
<event>
 5    1  0.4046313E-006  0.2000021E+02  0.7818608E-02  0.1745324E+00
         -2   -1    0    0    0  501 -0.00000000000E+00  0.00000000000E+00  0.45124983147E+01  0.45124990638E+01  0.26000000000E-02 0. -1.
          2   -1    0    0  501    0  0.00000000000E+00 -0.00000000000E+00 -0.22161144902E+02  0.22161145054E+02  0.26000000000E-02 0.  1.
       1023    2    1    2    0    0  0.00000000000E+00  0.00000000000E+00 -0.17648646587E+02  0.26673644118E+02  0.20000214103E+02 0.  0.
        -11    1    3    3    0    0  0.42800405484E+00  0.99908597037E+01 -0.87697292486E+01  0.13300699848E+02  0.51100000000E-03 0. -1.
         11    1    3    3    0    0 -0.42800405484E+00 -0.99908597037E+01 -0.88789173386E+01  0.13372944270E+02  0.51100000000E-03 0.  1.
<mgrwt>
<rscale>  0 0.20000214E+02</rscale>
<asrwt>0</asrwt>
<pdfrwt beam="2">  1        2 0.34094069E-02 0.20000214E+02</pdfrwt>
<pdfrwt beam="1">  1       -2 0.69423059E-03 0.20000214E+02</pdfrwt>
<totfact> 0.42066382E+06</totfact>
</mgrwt>
</event>
<event>
 5    1  0.4046313E-006  0.2000044E+02  0.7818608E-02  0.1745319E+00
         -2   -1    0    0    0  501 -0.00000000000E+00  0.00000000000E+00  0.15638788773E+01  0.15638810386E+01  0.26000000000E-02 0.  1.
          2   -1    0    0  501    0  0.00000000000E+00 -0.00000000000E+00 -0.63946335167E+02  0.63946335219E+02  0.26000000000E-02 0. -1.
       1023    2    1    2    0    0  0.00000000000E+00  0.00000000000E+00 -0.62382456289E+02  0.65510216258E+02  0.20000439533E+02 0.  0.
        -11    1    3    3    0    0  0.39797582245E+01 -0.91740237485E+01 -0.31005714178E+02  0.32578451455E+02  0.51100000000E-03 0. -1.
         11    1    3    3    0    0 -0.39797582245E+01  0.91740237485E+01 -0.31376742112E+02  0.32931764803E+02  0.51100000000E-03 0.  1.
<mgrwt>
<rscale>  0 0.20000440E+02</rscale>
<asrwt>0</asrwt>
<pdfrwt beam="2">  1        2 0.98378959E-02 0.20000440E+02</pdfrwt>
<pdfrwt beam="1">  1       -2 0.24059697E-03 0.20000440E+02</pdfrwt>
<totfact> 0.48222476E+06</totfact>
</mgrwt>
</event>
<event>
 4    1  0.4046313E-006  0.2001952E+02  0.7818608E-02  0.1744940E+00
         -2   -1    0    0    0  501 -0.00000000000E+00  0.00000000000E+00  0.22015441111E+01  0.22015456464E+01  0.26000000000E-02 0.  1.
          2   -1    0    0  501    0  0.00000000000E+00 -0.00000000000E+00 -0.45511358735E+02  0.45511358809E+02  0.26000000000E-02 0. -1.
        -11    1    1    2    0    0  0.19008017060E+01 -0.98186446383E+01 -0.20653708239E+02  0.22947646806E+02  0.51100000000E-03 0.  1.
         11    1    1    2    0    0 -0.19008017060E+01  0.98186446383E+01 -0.22656106385E+02  0.24765257650E+02  0.51100000000E-03 0. -1.
<mgrwt>
<rscale>  0 0.20019521E+02</rscale>
<asrwt>0</asrwt>
<pdfrwt beam="2">  1        2 0.70017469E-02 0.20019521E+02</pdfrwt>
<pdfrwt beam="1">  1       -2 0.33869925E-03 0.20019521E+02</pdfrwt>
<totfact> 0.45595079E+06</totfact>
</mgrwt>
</event>
<event>
 4    1  0.4046313E-006  0.2001819E+02  0.7818608E-02  0.1744967E+00
         -2   -1    0    0    0  501 -0.00000000000E+00  0.00000000000E+00  0.84359206259E+01  0.84359210266E+01  0.26000000000E-02 0. -1.
          2   -1    0    0  501    0  0.00000000000E+00 -0.00000000000E+00 -0.11875639647E+02  0.11875639932E+02  0.26000000000E-02 0.  1.
        -11    1    1    2    0    0 -0.87234991518E+01  0.49031735643E+01 -0.15133785394E+01  0.10120813372E+02  0.51100000000E-03 0. -1.
         11    1    1    2    0    0  0.87234991518E+01 -0.49031735643E+01 -0.19263404821E+01  0.10190747586E+02  0.51100000000E-03 0.  1.
<mgrwt>
<rscale>  0 0.20018188E+02</rscale>
<asrwt>0</asrwt>
<pdfrwt beam="2">  1        2 0.18270215E-02 0.20018188E+02</pdfrwt>
<pdfrwt beam="1">  1       -2 0.12978340E-02 0.20018188E+02</pdfrwt>
<totfact> 0.39885003E+06</totfact>
</mgrwt>
</event>
<event>
 5    1  0.4046313E-006  0.2000360E+02  0.7818608E-02  0.1745256E+00
         -2   -1    0    0    0  501 -0.00000000000E+00  0.00000000000E+00  0.37478866040E+02  0.37478866130E+02  0.26000000000E-02 0.  1.
          2   -1    0    0  501    0  0.00000000000E+00 -0.00000000000E+00 -0.26691304469E+01  0.26691317132E+01  0.26000000000E-02 0. -1.
       1023    2    1    2    0    0  0.00000000000E+00  0.00000000000E+00  0.34809735593E+02  0.40147997844E+02  0.20003600645E+02 0.  0.
        -11    1    3    3    0    0  0.34339735462E+01 -0.93930361549E+01  0.17161470132E+02  0.19862964529E+02  0.51100000000E-03 0.  1.
         11    1    3    3    0    0 -0.34339735462E+01  0.93930361549E+01  0.17648265461E+02  0.20285033314E+02  0.51100000000E-03 0. -1.
<mgrwt>
<rscale>  0 0.20003601E+02</rscale>
<asrwt>0</asrwt>
<pdfrwt beam="2">  1        2 0.41063557E-03 0.20003601E+02</pdfrwt>
<pdfrwt beam="1">  1       -2 0.57659793E-02 0.20003601E+02</pdfrwt>
<totfact> 0.35181024E+06</totfact>
</mgrwt>
</event>
<event>
 5    1  0.4046313E-006  0.2000038E+02  0.7818608E-02  0.1745320E+00
         -2   -1    0    0    0  501 -0.00000000000E+00  0.00000000000E+00  0.11566881264E+03  0.11566881267E+03  0.26000000000E-02 0.  1.
          2   -1    0    0  501    0  0.00000000000E+00 -0.00000000000E+00 -0.86456832552E+00  0.86457223498E+00  0.26000000000E-02 0. -1.
       1023    2    1    2    0    0  0.00000000000E+00  0.00000000000E+00  0.11480424431E+03  0.11653338490E+03  0.20000382112E+02 0.  0.
        -11    1    3    3    0    0 -0.91142452535E+01  0.41151333394E+01  0.57435056387E+02  0.58299137999E+02  0.51100000000E-03 0.  1.
         11    1    3    3    0    0  0.91142452535E+01 -0.41151333394E+01  0.57369187927E+02  0.58234246905E+02  0.51100000000E-03 0. -1.
<mgrwt>
<rscale>  0 0.20000382E+02</rscale>
<asrwt>0</asrwt>
<pdfrwt beam="2">  1        2 0.13301088E-03 0.20000382E+02</pdfrwt>
<pdfrwt beam="1">  1       -2 0.17795194E-01 0.20000382E+02</pdfrwt>
<totfact> 0.28630456E+06</totfact>
</mgrwt>
</event>
<event>
 5    1  0.4046313E-006  0.2000026E+02  0.7818608E-02  0.1745323E+00
          2   -1    0    0  501    0  0.00000000000E+00  0.00000000000E+00  0.13115504243E+02  0.13115504501E+02  0.26000000000E-02 0.  1.
         -2   -1    0    0    0  501 -0.00000000000E+00 -0.00000000000E+00 -0.76247593847E+01  0.76247598280E+01  0.26000000000E-02 0. -1.
       1023    2    1    2    0    0  0.00000000000E+00  0.00000000000E+00  0.54907448584E+01  0.20740264329E+02  0.20000257132E+02 0.  0.
        -11    1    3    3    0    0  0.97748591858E+01 -0.21102296304E+01  0.27872379188E+01  0.10381215568E+02  0.51100000000E-03 0.  1.
         11    1    3    3    0    0 -0.97748591858E+01  0.21102296304E+01  0.27035069396E+01  0.10359048761E+02  0.51100000000E-03 0. -1.
<mgrwt>
<rscale>  0 0.20000257E+02</rscale>
<asrwt>0</asrwt>
<pdfrwt beam="1">  1        2 0.20177699E-02 0.20000257E+02</pdfrwt>
<pdfrwt beam="2">  1       -2 0.11730400E-02 0.20000257E+02</pdfrwt>
<totfact> 0.40267010E+06</totfact>
</mgrwt>
</event>
<event>
 4    1  0.4046313E-006  0.2008580E+02  0.7818608E-02  0.1743627E+00
          2   -1    0    0  501    0  0.00000000000E+00  0.00000000000E+00  0.37331350502E+02  0.37331350593E+02  0.26000000000E-02 0. -1.
         -2   -1    0    0    0  501 -0.00000000000E+00 -0.00000000000E+00 -0.27017468232E+01  0.27017480742E+01  0.26000000000E-02 0.  1.
        -11    1    1    2    0    0 -0.58076212180E+00  0.99932895145E+01  0.15699570501E+02  0.18619334954E+02  0.51100000000E-03 0. -1.
         11    1    1    2    0    0  0.58076212180E+00 -0.99932895145E+01  0.18930033178E+02  0.21413763713E+02  0.51100000000E-03 0.  1.
<mgrwt>
<rscale>  0 0.20085804E+02</rscale>
<asrwt>0</asrwt>
<pdfrwt beam="1">  1        2 0.57432841E-02 0.20085804E+02</pdfrwt>
<pdfrwt beam="2">  1       -2 0.41565351E-03 0.20085804E+02</pdfrwt>
<totfact> 0.44076627E+06</totfact>
</mgrwt>
</event>
<event>
 5    1  0.4092806E-006  0.2000260E+02  0.7818608E-02  0.1745276E+00
         -2   -1    0    0    0  501 -0.00000000000E+00  0.00000000000E+00  0.14822225835E+01  0.14822248638E+01  0.26000000000E-02 0.  1.
          2   -1    0    0  501    0  0.00000000000E+00 -0.00000000000E+00 -0.67483766582E+02  0.67483766632E+02  0.26000000000E-02 0. -1.
       1023    2    1    2    0    0  0.00000000000E+00  0.00000000000E+00 -0.66001543999E+02  0.68965991496E+02  0.20002604151E+02 0.  0.
        -11    1    3    3    0    0  0.60402822107E+01  0.79697523281E+01 -0.33535817874E+02  0.34995043107E+02  0.51100000000E-03 0. -1.
         11    1    3    3    0    0 -0.60402822107E+01 -0.79697523281E+01 -0.32465726125E+02  0.33970948389E+02  0.51100000000E-03 0.  1.
<mgrwt>
<rscale>  0 0.20002604E+02</rscale>
<asrwt>0</asrwt>
<pdfrwt beam="2">  1        2 0.10382116E-01 0.20002604E+02</pdfrwt>
<pdfrwt beam="1">  1       -2 0.22803447E-03 0.20002604E+02</pdfrwt>
<totfact> 0.48677237E+06</totfact>
</mgrwt>
</event>
<event>
 5    1  0.4046313E-006  0.2000147E+02  0.7818608E-02  0.1745299E+00
          2   -1    0    0  501    0  0.00000000000E+00  0.00000000000E+00  0.13339093356E+02  0.13339093610E+02  0.26000000000E-02 0. -1.
         -2   -1    0    0    0  501 -0.00000000000E+00 -0.00000000000E+00 -0.74978664141E+01  0.74978668649E+01  0.26000000000E-02 0.  1.
       1023    2    1    2    0    0  0.00000000000E+00  0.00000000000E+00  0.58412269423E+01  0.20836960475E+02  0.20001474687E+02 0.  0.
        -11    1    3    3    0    0 -0.92210929305E+01 -0.38711815124E+01  0.29080251506E+01  0.10414951352E+02  0.51100000000E-03 0.  1.
         11    1    3    3    0    0  0.92210929305E+01  0.38711815124E+01  0.29332017917E+01  0.10422009122E+02  0.51100000000E-03 0. -1.
<mgrwt>
<rscale>  0 0.20001475E+02</rscale>
<asrwt>0</asrwt>
<pdfrwt beam="1">  1        2 0.20521682E-02 0.20001475E+02</pdfrwt>
<pdfrwt beam="2">  1       -2 0.11535180E-02 0.20001475E+02</pdfrwt>
<totfact> 0.40313421E+06</totfact>
</mgrwt>
</event>
<event>
 5    1  0.4046313E-006  0.2000055E+02  0.7818608E-02  0.1745317E+00
          2   -1    0    0  501    0  0.00000000000E+00  0.00000000000E+00  0.83294192138E+00  0.83294597928E+00  0.26000000000E-02 0.  1.
         -2   -1    0    0    0  501 -0.00000000000E+00 -0.00000000000E+00 -0.12006265806E+03  0.12006265808E+03  0.26000000000E-02 0. -1.
       1023    2    1    2    0    0  0.00000000000E+00  0.00000000000E+00 -0.11922971613E+03  0.12089560406E+03  0.20000546800E+02 0.  0.
        -11    1    3    3    0    0 -0.56333987543E+01  0.82625500772E+01 -0.59472775545E+02  0.60307677344E+02  0.51100000000E-03 0.  1.
         11    1    3    3    0    0  0.56333987543E+01 -0.82625500772E+01 -0.59756940589E+02  0.60587926719E+02  0.51100000000E-03 0. -1.
<mgrwt>
<rscale>  0 0.20000547E+02</rscale>
<asrwt>0</asrwt>
<pdfrwt beam="1">  1        2 0.12814532E-03 0.20000547E+02</pdfrwt>
<pdfrwt beam="2">  1       -2 0.18471165E-01 0.20000547E+02</pdfrwt>
<totfact> 0.28335266E+06</totfact>
</mgrwt>
</event>
<event>
 4    1  0.4046313E-006  0.2009874E+02  0.7818608E-02  0.1743372E+00
         -2   -1    0    0    0  501 -0.00000000000E+00  0.00000000000E+00  0.11162899799E+01  0.11162930078E+01  0.26000000000E-02 0.  1.
          2   -1    0    0  501    0  0.00000000000E+00 -0.00000000000E+00 -0.90469016469E+02  0.90469016506E+02  0.26000000000E-02 0. -1.
        -11    1    1    2    0    0 -0.77489193035E+01 -0.63628830323E+01 -0.41593326097E+02  0.42784773073E+02  0.51100000000E-03 0.  1.
         11    1    1    2    0    0  0.77489193035E+01  0.63628830323E+01 -0.47759400392E+02  0.48800536441E+02  0.51100000000E-03 0. -1.
<mgrwt>
<rscale>  0 0.20098736E+02</rscale>
<asrwt>0</asrwt>
<pdfrwt beam="2">  1        2 0.13918305E-01 0.20098736E+02</pdfrwt>
<pdfrwt beam="1">  1       -2 0.17173723E-03 0.20098736E+02</pdfrwt>
<totfact> 0.51043631E+06</totfact>
</mgrwt>
</event>
<event>
 5    1  0.4046313E-006  0.2000045E+02  0.7818608E-02  0.1745319E+00
          2   -1    0    0  501    0  0.00000000000E+00  0.00000000000E+00  0.29050396088E+02  0.29050396205E+02  0.26000000000E-02 0. -1.
         -2   -1    0    0    0  501 -0.00000000000E+00 -0.00000000000E+00 -0.34424467490E+01  0.34424477309E+01  0.26000000000E-02 0.  1.
       1023    2    1    2    0    0  0.00000000000E+00  0.00000000000E+00  0.25607949339E+02  0.32492843936E+02  0.20000445936E+02 0.  0.
        -11    1    3    3    0    0  0.76672365617E+01  0.64199146043E+01  0.12720514608E+02  0.16180646223E+02  0.51100000000E-03 0. -1.
         11    1    3    3    0    0 -0.76672365617E+01 -0.64199146043E+01  0.12887434731E+02  0.16312197713E+02  0.51100000000E-03 0.  1.
<mgrwt>
<rscale>  0 0.20000446E+02</rscale>
<asrwt>0</asrwt>
<pdfrwt beam="1">  1        2 0.44692920E-02 0.20000446E+02</pdfrwt>
<pdfrwt beam="2">  1       -2 0.52960725E-03 0.20000446E+02</pdfrwt>
<totfact> 0.43219650E+06</totfact>
</mgrwt>
</event>
<event>
 5    1  0.4233157E-006  0.2000132E+02  0.7818608E-02  0.1745302E+00
          2   -1    0    0  501    0  0.00000000000E+00  0.00000000000E+00  0.35261734285E+02  0.35261734380E+02  0.26000000000E-02 0.  1.
         -2   -1    0    0    0  501 -0.00000000000E+00 -0.00000000000E+00 -0.28363103543E+01  0.28363115460E+01  0.26000000000E-02 0. -1.
       1023    2    1    2    0    0  0.00000000000E+00  0.00000000000E+00  0.32425423930E+02  0.38098045926E+02  0.20001324615E+02 0.  0.
        -11    1    3    3    0    0 -0.71851875398E+01  0.69552264497E+01  0.16413856476E+02  0.19220217991E+02  0.51100000000E-03 0.  1.
         11    1    3    3    0    0  0.71851875398E+01 -0.69552264497E+01  0.16011567454E+02  0.18877827935E+02  0.51100000000E-03 0. -1.
<mgrwt>
<rscale>  0 0.20001325E+02</rscale>
<asrwt>0</asrwt>
<pdfrwt beam="1">  1        2 0.54248825E-02 0.20001325E+02</pdfrwt>
<pdfrwt beam="2">  1       -2 0.43635552E-03 0.20001325E+02</pdfrwt>
<totfact> 0.44182302E+06</totfact>
</mgrwt>
</event>
<event>
 5    1  0.4046313E-006  0.2000390E+02  0.7818608E-02  0.1745251E+00
         -2   -1    0    0    0  501 -0.00000000000E+00  0.00000000000E+00  0.32454295650E+02  0.32454295754E+02  0.26000000000E-02 0.  1.
          2   -1    0    0  501    0  0.00000000000E+00 -0.00000000000E+00 -0.30824559187E+01  0.30824570153E+01  0.26000000000E-02 0. -1.
       1023    2    1    2    0    0  0.00000000000E+00  0.00000000000E+00  0.29371839731E+02  0.35536752769E+02  0.20003895325E+02 0.  0.
        -11    1    3    3    0    0  0.16339148276E+01 -0.98675872404E+01  0.14683992395E+02  0.17766783291E+02  0.51100000000E-03 0.  1.
         11    1    3    3    0    0 -0.16339148276E+01  0.98675872404E+01  0.14687847337E+02  0.17769969478E+02  0.51100000000E-03 0. -1.
<mgrwt>
<rscale>  0 0.20003895E+02</rscale>
<asrwt>0</asrwt>
<pdfrwt beam="2">  1        2 0.47422404E-03 0.20003895E+02</pdfrwt>
<pdfrwt beam="1">  1       -2 0.49929690E-02 0.20003895E+02</pdfrwt>
<totfact> 0.35753226E+06</totfact>
</mgrwt>
</event>
<event>
 5    1  0.4046313E-006  0.2000103E+02  0.7818608E-02  0.1745308E+00
         -2   -1    0    0    0  501 -0.00000000000E+00  0.00000000000E+00  0.26746773098E+01  0.26746785735E+01  0.26000000000E-02 0.  1.
          2   -1    0    0  501    0  0.00000000000E+00 -0.00000000000E+00 -0.37391541516E+02  0.37391541607E+02  0.26000000000E-02 0. -1.
       1023    2    1    2    0    0  0.00000000000E+00  0.00000000000E+00 -0.34716864206E+02  0.40066220180E+02  0.20001033453E+02 0.  0.
        -11    1    3    3    0    0  0.99906845423E+01  0.43607862116E+00 -0.17198271310E+02  0.19894332824E+02  0.51100000000E-03 0.  1.
         11    1    3    3    0    0 -0.99906845423E+01 -0.43607862116E+00 -0.17518592897E+02  0.20171887356E+02  0.51100000000E-03 0. -1.
<mgrwt>
<rscale>  0 0.20001033E+02</rscale>
<asrwt>0</asrwt>
<pdfrwt beam="2">  1        2 0.57525446E-02 0.20001033E+02</pdfrwt>
<pdfrwt beam="1">  1       -2 0.41148895E-03 0.20001033E+02</pdfrwt>
<totfact> 0.44504473E+06</totfact>
</mgrwt>
</event>
<event>
 5    1  0.4409186E-006  0.2000065E+02  0.7818608E-02  0.1745315E+00
         -2   -1    0    0    0  501 -0.00000000000E+00  0.00000000000E+00  0.10156128789E+01  0.10156162069E+01  0.26000000000E-02 0.  1.
          2   -1    0    0  501    0  0.00000000000E+00 -0.00000000000E+00 -0.98468987893E+02  0.98468987928E+02  0.26000000000E-02 0. -1.
       1023    2    1    2    0    0  0.00000000000E+00  0.00000000000E+00 -0.97453375015E+02  0.99484604135E+02  0.20000653942E+02 0.  0.
        -11    1    3    3    0    0  0.77956305185E+00 -0.99698458690E+01 -0.48883513739E+02  0.49895926296E+02  0.51100000000E-03 0. -1.
         11    1    3    3    0    0 -0.77956305185E+00  0.99698458690E+01 -0.48569861275E+02  0.49588677838E+02  0.51100000000E-03 0.  1.
<mgrwt>
<rscale>  0 0.20000654E+02</rscale>
<asrwt>0</asrwt>
<pdfrwt beam="2">  1        2 0.15149068E-01 0.20000654E+02</pdfrwt>
<pdfrwt beam="1">  1       -2 0.15624847E-03 0.20000654E+02</pdfrwt>
<totfact> 0.52570456E+06</totfact>
</mgrwt>
</event>
<event>
 5    1  0.4046313E-006  0.2000237E+02  0.7818608E-02  0.1745281E+00
          2   -1    0    0  501    0  0.00000000000E+00  0.00000000000E+00  0.43777963237E+01  0.43777970958E+01  0.26000000000E-02 0. -1.
         -2   -1    0    0    0  501 -0.00000000000E+00 -0.00000000000E+00 -0.22847956426E+02  0.22847956574E+02  0.26000000000E-02 0.  1.
       1023    2    1    2    0    0  0.00000000000E+00  0.00000000000E+00 -0.18470160102E+02  0.27225753670E+02  0.20002371076E+02 0.  0.
        -11    1    3    3    0    0 -0.10000515731E+02  0.97388975701E-01 -0.93202175799E+01  0.13670634787E+02  0.51100000000E-03 0. -1.
         11    1    3    3    0    0  0.10000515731E+02 -0.97388975701E-01 -0.91499425224E+01  0.13555118882E+02  0.51100000000E-03 0.  1.
<mgrwt>
<rscale>  0 0.20002371E+02</rscale>
<asrwt>0</asrwt>
<pdfrwt beam="1">  1        2 0.67350721E-03 0.20002371E+02</pdfrwt>
<pdfrwt beam="2">  1       -2 0.35150702E-02 0.20002371E+02</pdfrwt>
<totfact> 0.36999183E+06</totfact>
</mgrwt>
</event>
<event>
 5    1  0.4046313E-006  0.2000358E+02  0.7818608E-02  0.1745257E+00
         -2   -1    0    0    0  501 -0.00000000000E+00  0.00000000000E+00  0.43087074479E+01  0.43087082324E+01  0.26000000000E-02 0.  1.
          2   -1    0    0  501    0  0.00000000000E+00 -0.00000000000E+00 -0.23217129486E+02  0.23217129632E+02  0.26000000000E-02 0. -1.
       1023    2    1    2    0    0  0.00000000000E+00  0.00000000000E+00 -0.18908422039E+02  0.27525837864E+02  0.20003582833E+02 0.  0.
        -11    1    3    3    0    0 -0.14769836332E+01 -0.98913810025E+01 -0.96223617890E+01  0.13878427341E+02  0.51100000000E-03 0.  1.
         11    1    3    3    0    0  0.14769836332E+01  0.98913810025E+01 -0.92860602496E+01  0.13647410524E+02  0.51100000000E-03 0. -1.
<mgrwt>
<rscale>  0 0.20003583E+02</rscale>
<asrwt>0</asrwt>
<pdfrwt beam="2">  1        2 0.35718661E-02 0.20003583E+02</pdfrwt>
<pdfrwt beam="1">  1       -2 0.66287815E-03 0.20003583E+02</pdfrwt>
<totfact> 0.42234975E+06</totfact>
</mgrwt>
</event>
<event>
 5    1  0.4046313E-006  0.2000088E+02  0.7818608E-02  0.1745311E+00
          2   -1    0    0  501    0  0.00000000000E+00  0.00000000000E+00  0.70505164347E+01  0.70505169141E+01  0.26000000000E-02 0. -1.
         -2   -1    0    0    0  501 -0.00000000000E+00 -0.00000000000E+00 -0.14184601545E+02  0.14184601783E+02  0.26000000000E-02 0.  1.
       1023    2    1    2    0    0  0.00000000000E+00  0.00000000000E+00 -0.71340851105E+01  0.21235118697E+02  0.20000877374E+02 0.  0.
        -11    1    3    3    0    0 -0.18135608837E+01 -0.98345671883E+01 -0.35324951680E+01  0.10605952915E+02  0.51100000000E-03 0. -1.
         11    1    3    3    0    0  0.18135608837E+01  0.98345671883E+01 -0.36015899424E+01  0.10629165783E+02  0.51100000000E-03 0.  1.
<mgrwt>
<rscale>  0 0.20000877E+02</rscale>
<asrwt>0</asrwt>
<pdfrwt beam="1">  1        2 0.10846949E-02 0.20000877E+02</pdfrwt>
<pdfrwt beam="2">  1       -2 0.21822465E-02 0.20000877E+02</pdfrwt>
<totfact> 0.38456099E+06</totfact>
</mgrwt>
</event>
<event>
 4    1  0.4046313E-006  0.2010603E+02  0.7818608E-02  0.1743228E+00
         -2   -1    0    0    0  501 -0.00000000000E+00  0.00000000000E+00  0.29712902503E+01  0.29712913878E+01  0.26000000000E-02 0. -1.
          2   -1    0    0  501    0  0.00000000000E+00 -0.00000000000E+00 -0.34013203939E+02  0.34013204039E+02  0.26000000000E-02 0.  1.
        -11    1    1    2    0    0  0.22659428231E+01  0.97943147188E+01 -0.15530367146E+02  0.18500145990E+02  0.51100000000E-03 0.  1.
         11    1    1    2    0    0 -0.22659428231E+01 -0.97943147188E+01 -0.15511546543E+02  0.18484349437E+02  0.51100000000E-03 0. -1.
<mgrwt>
<rscale>  0 0.20106031E+02</rscale>
<asrwt>0</asrwt>
<pdfrwt beam="2">  1        2 0.52328004E-02 0.20106031E+02</pdfrwt>
<pdfrwt beam="1">  1       -2 0.45712170E-03 0.20106031E+02</pdfrwt>
<totfact> 0.43480672E+06</totfact>
</mgrwt>
</event>
<event>
 5    1  0.4046313E-006  0.2000132E+02  0.7818608E-02  0.1745302E+00
          2   -1    0    0  501    0  0.00000000000E+00  0.00000000000E+00  0.41429461464E+01  0.41429469623E+01  0.26000000000E-02 0. -1.
         -2   -1    0    0    0  501 -0.00000000000E+00 -0.00000000000E+00 -0.24140592239E+02  0.24140592379E+02  0.26000000000E-02 0.  1.
       1023    2    1    2    0    0  0.00000000000E+00  0.00000000000E+00 -0.19997646093E+02  0.28283539342E+02  0.20001318667E+02 0.  0.
        -11    1    3    3    0    0 -0.87371747404E+01 -0.48648211670E+01 -0.10129037167E+02  0.14233836504E+02  0.51100000000E-03 0.  1.
         11    1    3    3    0    0  0.87371747404E+01  0.48648211670E+01 -0.98686089259E+01  0.14049702838E+02  0.51100000000E-03 0. -1.
<mgrwt>
<rscale>  0 0.20001319E+02</rscale>
<asrwt>0</asrwt>
<pdfrwt beam="1">  1        2 0.63737642E-03 0.20001319E+02</pdfrwt>
<pdfrwt beam="2">  1       -2 0.37139373E-02 0.20001319E+02</pdfrwt>
<totfact> 0.36821461E+06</totfact>
</mgrwt>
</event>
<event>
 5    1  0.4046313E-006  0.2000076E+02  0.7818608E-02  0.1745313E+00
         -2   -1    0    0    0  501 -0.00000000000E+00  0.00000000000E+00  0.13181328169E+02  0.13181328426E+02  0.26000000000E-02 0.  1.
          2   -1    0    0  501    0  0.00000000000E+00 -0.00000000000E+00 -0.75870644760E+01  0.75870649215E+01  0.26000000000E-02 0. -1.
       1023    2    1    2    0    0  0.00000000000E+00  0.00000000000E+00  0.55942636933E+01  0.20768393347E+02  0.20000759384E+02 0.  0.
        -11    1    3    3    0    0  0.83024052857E+00  0.99656011086E+01  0.28712065458E+01  0.10404149753E+02  0.51100000000E-03 0.  1.
         11    1    3    3    0    0 -0.83024052857E+00 -0.99656011086E+01  0.27230571476E+01  0.10364243594E+02  0.51100000000E-03 0. -1.
<mgrwt>
<rscale>  0 0.20000759E+02</rscale>
<asrwt>0</asrwt>
<pdfrwt beam="2">  1        2 0.11672408E-02 0.20000759E+02</pdfrwt>
<pdfrwt beam="1">  1       -2 0.20278967E-02 0.20000759E+02</pdfrwt>
<totfact> 0.38667835E+06</totfact>
</mgrwt>
</event>
<event>
 5    1  0.4046313E-006  0.2000047E+02  0.7818608E-02  0.1745319E+00
         -2   -1    0    0    0  501 -0.00000000000E+00  0.00000000000E+00  0.35011152277E+01  0.35011161931E+01  0.26000000000E-02 0. -1.
          2   -1    0    0  501    0  0.00000000000E+00 -0.00000000000E+00 -0.28563671030E+02  0.28563671149E+02  0.26000000000E-02 0.  1.
       1023    2    1    2    0    0  0.00000000000E+00  0.00000000000E+00 -0.25062555803E+02  0.32064787342E+02  0.20000472092E+02 0.  0.
        -11    1    3    3    0    0 -0.55190444684E+01 -0.83392040615E+01 -0.12612148164E+02  0.16095603679E+02  0.51100000000E-03 0.  1.
         11    1    3    3    0    0  0.55190444684E+01  0.83392040615E+01 -0.12450407639E+02  0.15969183663E+02  0.51100000000E-03 0. -1.
<mgrwt>
<rscale>  0 0.20000472E+02</rscale>
<asrwt>0</asrwt>
<pdfrwt beam="2">  1        2 0.43944109E-02 0.20000472E+02</pdfrwt>
<pdfrwt beam="1">  1       -2 0.53863321E-03 0.20000472E+02</pdfrwt>
<totfact> 0.43141329E+06</totfact>
</mgrwt>
</event>
<event>
 5    1  0.4046313E-006  0.2000064E+02  0.7818608E-02  0.1745315E+00
          2   -1    0    0  501    0  0.00000000000E+00  0.00000000000E+00  0.11854818167E+02  0.11854818453E+02  0.26000000000E-02 0. -1.
         -2   -1    0    0    0  501 -0.00000000000E+00 -0.00000000000E+00 -0.84359276498E+01  0.84359280505E+01  0.26000000000E-02 0.  1.
       1023    2    1    2    0    0  0.00000000000E+00  0.00000000000E+00  0.34188905177E+01  0.20290746503E+02  0.20000639522E+02 0.  0.
        -11    1    3    3    0    0 -0.99959871220E+01  0.29432253178E+00  0.17127735294E+01  0.10145934049E+02  0.51100000000E-03 0. -1.
         11    1    3    3    0    0  0.99959871220E+01 -0.29432253178E+00  0.17061169883E+01  0.10144812454E+02  0.51100000000E-03 0.  1.
<mgrwt>
<rscale>  0 0.20000640E+02</rscale>
<asrwt>0</asrwt>
<pdfrwt beam="1">  1        2 0.18238182E-02 0.20000640E+02</pdfrwt>
<pdfrwt beam="2">  1       -2 0.12978351E-02 0.20000640E+02</pdfrwt>
<totfact> 0.39959428E+06</totfact>
</mgrwt>
</event>
<event>
 5    1  0.4046313E-006  0.2000410E+02  0.7818608E-02  0.1745247E+00
          2   -1    0    0  501    0  0.00000000000E+00  0.00000000000E+00  0.70883183886E+02  0.70883183933E+02  0.26000000000E-02 0. -1.
         -2   -1    0    0    0  501 -0.00000000000E+00 -0.00000000000E+00 -0.14113494243E+01  0.14113518191E+01  0.26000000000E-02 0.  1.
       1023    2    1    2    0    0  0.00000000000E+00  0.00000000000E+00  0.69471834461E+02  0.72294535752E+02  0.20004102485E+02 0.  0.
        -11    1    3    3    0    0 -0.96223937123E+01  0.27264821869E+01  0.34266614707E+02  0.35696289018E+02  0.51100000000E-03 0.  1.
         11    1    3    3    0    0  0.96223937123E+01 -0.27264821869E+01  0.35205219754E+02  0.36598246735E+02  0.51100000000E-03 0. -1.
<mgrwt>
<rscale>  0 0.20004102E+02</rscale>
<asrwt>0</asrwt>
<pdfrwt beam="1">  1        2 0.10905103E-01 0.20004102E+02</pdfrwt>
<pdfrwt beam="2">  1       -2 0.21713091E-03 0.20004102E+02</pdfrwt>
<totfact> 0.49112164E+06</totfact>
</mgrwt>
</event>
<event>
 5    1  0.4046313E-006  0.2000105E+02  0.7818608E-02  0.1745307E+00
         -2   -1    0    0    0  501 -0.00000000000E+00  0.00000000000E+00  0.17641135413E+02  0.17641135605E+02  0.26000000000E-02 0. -1.
          2   -1    0    0  501    0  0.00000000000E+00 -0.00000000000E+00 -0.56691649706E+01  0.56691655668E+01  0.26000000000E-02 0.  1.
       1023    2    1    2    0    0  0.00000000000E+00  0.00000000000E+00  0.11971970443E+02  0.23310301172E+02  0.20001051583E+02 0.  0.
        -11    1    3    3    0    0 -0.97174631920E+01 -0.23624836257E+01  0.59974088719E+01  0.11661017675E+02  0.51100000000E-03 0.  1.
         11    1    3    3    0    0  0.97174631920E+01  0.23624836257E+01  0.59745615708E+01  0.11649283497E+02  0.51100000000E-03 0. -1.
<mgrwt>
<rscale>  0 0.20001052E+02</rscale>
<asrwt>0</asrwt>
<pdfrwt beam="2">  1        2 0.87217929E-03 0.20001052E+02</pdfrwt>
<pdfrwt beam="1">  1       -2 0.27140209E-02 0.20001052E+02</pdfrwt>
<totfact> 0.37813944E+06</totfact>
</mgrwt>
</event>
<event>
 5    1  0.4046313E-006  0.2000042E+02  0.7818608E-02  0.1745320E+00
          2   -1    0    0  501    0  0.00000000000E+00  0.00000000000E+00  0.27348028972E+01  0.27348041332E+01  0.26000000000E-02 0.  1.
         -2   -1    0    0    0  501 -0.00000000000E+00 -0.00000000000E+00 -0.36567230548E+02  0.36567230641E+02  0.26000000000E-02 0. -1.
       1023    2    1    2    0    0  0.00000000000E+00  0.00000000000E+00 -0.33832427651E+02  0.39302034774E+02  0.20000419411E+02 0.  0.
        -11    1    3    3    0    0 -0.77100131606E+01  0.63685210327E+01 -0.16832132909E+02  0.19578637889E+02  0.51100000000E-03 0.  1.
         11    1    3    3    0    0  0.77100131606E+01 -0.63685210327E+01 -0.17000294742E+02  0.19723396884E+02  0.51100000000E-03 0. -1.
<mgrwt>
<rscale>  0 0.20000419E+02</rscale>
<asrwt>0</asrwt>
<pdfrwt beam="1">  1        2 0.42073904E-03 0.20000419E+02</pdfrwt>
<pdfrwt beam="2">  1       -2 0.56257275E-02 0.20000419E+02</pdfrwt>
<totfact> 0.35294479E+06</totfact>
</mgrwt>
</event>
<event>
 5    1  0.4046313E-006  0.2000069E+02  0.7818608E-02  0.1745314E+00
          2   -1    0    0  501    0  0.00000000000E+00  0.00000000000E+00  0.47108363019E+02  0.47108363091E+02  0.26000000000E-02 0.  1.
         -2   -1    0    0    0  501 -0.00000000000E+00 -0.00000000000E+00 -0.21229102429E+01  0.21229118350E+01  0.26000000000E-02 0. -1.
       1023    2    1    2    0    0  0.00000000000E+00  0.00000000000E+00  0.44985452776E+02  0.49231274926E+02  0.20000686722E+02 0.  0.
        -11    1    3    3    0    0 -0.96675729522E+01 -0.25582740600E+01  0.22464219415E+02  0.24589588999E+02  0.51100000000E-03 0. -1.
         11    1    3    3    0    0  0.96675729522E+01  0.25582740600E+01  0.22521233362E+02  0.24641685927E+02  0.51100000000E-03 0.  1.
<mgrwt>
<rscale>  0 0.20000687E+02</rscale>
<asrwt>0</asrwt>
<pdfrwt beam="1">  1        2 0.72474402E-02 0.20000687E+02</pdfrwt>
<pdfrwt beam="2">  1       -2 0.32660172E-03 0.20000687E+02</pdfrwt>
<totfact> 0.45917874E+06</totfact>
</mgrwt>
</event>
<event>
 5    1  0.4046313E-006  0.2000019E+02  0.7818608E-02  0.1745324E+00
         -2   -1    0    0    0  501 -0.00000000000E+00  0.00000000000E+00  0.11607858199E+01  0.11607887317E+01  0.26000000000E-02 0. -1.
          2   -1    0    0  501    0  0.00000000000E+00 -0.00000000000E+00 -0.86150053169E+02  0.86150053208E+02  0.26000000000E-02 0.  1.
       1023    2    1    2    0    0  0.00000000000E+00  0.00000000000E+00 -0.84989267349E+02  0.87310841940E+02  0.20000188892E+02 0.  0.
        -11    1    3    3    0    0  0.49751143381E+01  0.86746524686E+01 -0.42394081201E+02  0.43557542163E+02  0.51100000000E-03 0.  1.
         11    1    3    3    0    0 -0.49751143381E+01 -0.86746524686E+01 -0.42595186148E+02  0.43753299777E+02  0.51100000000E-03 0. -1.
<mgrwt>
<rscale>  0 0.20000189E+02</rscale>
<asrwt>0</asrwt>
<pdfrwt beam="2">  1        2 0.13253850E-01 0.20000189E+02</pdfrwt>
<pdfrwt beam="1">  1       -2 0.17858273E-03 0.20000189E+02</pdfrwt>
<totfact> 0.51067905E+06</totfact>
</mgrwt>
</event>
<event>
 5    1  0.4046313E-006  0.2000171E+02  0.7818608E-02  0.1745294E+00
         -2   -1    0    0    0  501 -0.00000000000E+00  0.00000000000E+00  0.33928361813E+02  0.33928361913E+02  0.26000000000E-02 0. -1.
          2   -1    0    0  501    0  0.00000000000E+00 -0.00000000000E+00 -0.29478902190E+01  0.29478913656E+01  0.26000000000E-02 0.  1.
       1023    2    1    2    0    0  0.00000000000E+00  0.00000000000E+00  0.30980471594E+02  0.36876253279E+02  0.20001710818E+02 0.  0.
        -11    1    3    3    0    0 -0.95843169163E+01  0.28562021824E+01  0.15507431712E+02  0.18452573269E+02  0.51100000000E-03 0.  1.
         11    1    3    3    0    0  0.95843169163E+01 -0.28562021824E+01  0.15473039882E+02  0.18423680010E+02  0.51100000000E-03 0. -1.
<mgrwt>
<rscale>  0 0.20001711E+02</rscale>
<asrwt>0</asrwt>
<pdfrwt beam="2">  1        2 0.45352163E-03 0.20001711E+02</pdfrwt>
<pdfrwt beam="1">  1       -2 0.52197485E-02 0.20001711E+02</pdfrwt>
<totfact> 0.35589348E+06</totfact>
</mgrwt>
</event>
<event>
 5    1  0.4046313E-006  0.2000409E+02  0.7818608E-02  0.1745247E+00
         -2   -1    0    0    0  501 -0.00000000000E+00  0.00000000000E+00  0.20127336930E+02  0.20127337098E+02  0.26000000000E-02 0.  1.
          2   -1    0    0  501    0  0.00000000000E+00 -0.00000000000E+00 -0.49703968230E+01  0.49703975030E+01  0.26000000000E-02 0. -1.
       1023    2    1    2    0    0  0.00000000000E+00  0.00000000000E+00  0.15156940107E+02  0.25097734601E+02  0.20004085800E+02 0.  0.
        -11    1    3    3    0    0  0.59361271191E+01  0.80486106667E+01  0.77692525667E+01  0.12664084039E+02  0.51100000000E-03 0.  1.
         11    1    3    3    0    0 -0.59361271191E+01 -0.80486106667E+01  0.73876875401E+01  0.12433650562E+02  0.51100000000E-03 0. -1.
<mgrwt>
<rscale>  0 0.20004086E+02</rscale>
<asrwt>0</asrwt>
<pdfrwt beam="2">  1        2 0.76467651E-03 0.20004086E+02</pdfrwt>
<pdfrwt beam="1">  1       -2 0.30965134E-02 0.20004086E+02</pdfrwt>
<totfact> 0.37397490E+06</totfact>
</mgrwt>
</event>
<event>
 5    1  0.4110222E-006  0.2000260E+02  0.7818608E-02  0.1745276E+00
         -2   -1    0    0    0  501 -0.00000000000E+00  0.00000000000E+00  0.11459906385E+01  0.11459935879E+01  0.26000000000E-02 0.  1.
          2   -1    0    0  501    0  0.00000000000E+00 -0.00000000000E+00 -0.87283349648E+02  0.87283349686E+02  0.26000000000E-02 0. -1.
       1023    2    1    2    0    0  0.00000000000E+00  0.00000000000E+00 -0.86137359009E+02  0.88429343274E+02  0.20002603202E+02 0.  0.
        -11    1    3    3    0    0 -0.15470887290E+01  0.98805167782E+01 -0.43462563700E+02  0.44598346818E+02  0.51100000000E-03 0. -1.
         11    1    3    3    0    0  0.15470887290E+01 -0.98805167782E+01 -0.42674795310E+02  0.43830996456E+02  0.51100000000E-03 0.  1.
<mgrwt>
<rscale>  0 0.20002603E+02</rscale>
<asrwt>0</asrwt>
<pdfrwt beam="2">  1        2 0.13428203E-01 0.20002603E+02</pdfrwt>
<pdfrwt beam="1">  1       -2 0.17630655E-03 0.20002603E+02</pdfrwt>
<totfact> 0.51194798E+06</totfact>
</mgrwt>
</event>
<event>
 5    1  0.4046313E-006  0.2000512E+02  0.7818608E-02  0.1745226E+00
          2   -1    0    0  501    0  0.00000000000E+00  0.00000000000E+00  0.13079923022E+01  0.13079948863E+01  0.26000000000E-02 0.  1.
         -2   -1    0    0    0  501 -0.00000000000E+00 -0.00000000000E+00 -0.76492091207E+02  0.76492091251E+02  0.26000000000E-02 0. -1.
       1023    2    1    2    0    0  0.00000000000E+00  0.00000000000E+00 -0.75184098904E+02  0.77800086137E+02  0.20005116217E+02 0.  0.
        -11    1    3    3    0    0 -0.25142707616E+01 -0.96803026852E+01 -0.37023789228E+02  0.38350890297E+02  0.51100000000E-03 0.  1.
         11    1    3    3    0    0  0.25142707616E+01  0.96803026852E+01 -0.38160309677E+02  0.39449195840E+02  0.51100000000E-03 0. -1.
<mgrwt>
<rscale>  0 0.20005116E+02</rscale>
<asrwt>0</asrwt>
<pdfrwt beam="1">  1        2 0.20122985E-03 0.20005116E+02</pdfrwt>
<pdfrwt beam="2">  1       -2 0.11768011E-01 0.20005116E+02</pdfrwt>
<totfact> 0.31524420E+06</totfact>
</mgrwt>
</event>
<event>
 5    1  0.4046313E-006  0.2000106E+02  0.7818608E-02  0.1745307E+00
          2   -1    0    0  501    0  0.00000000000E+00  0.00000000000E+00  0.76744961674E+01  0.76744966079E+01  0.26000000000E-02 0.  1.
         -2   -1    0    0    0  501 -0.00000000000E+00 -0.00000000000E+00 -0.13031554022E+02  0.13031554281E+02  0.26000000000E-02 0. -1.
       1023    2    1    2    0    0  0.00000000000E+00  0.00000000000E+00 -0.53570578543E+01  0.20706050889E+02  0.20001061836E+02 0.  0.
        -11    1    3    3    0    0 -0.97169043147E+01 -0.23639898073E+01 -0.27435199615E+01  0.10369839888E+02  0.51100000000E-03 0.  1.
         11    1    3    3    0    0  0.97169043147E+01  0.23639898073E+01 -0.26135378928E+01  0.10336211001E+02  0.51100000000E-03 0. -1.
<mgrwt>
<rscale>  0 0.20001062E+02</rscale>
<asrwt>0</asrwt>
<pdfrwt beam="1">  1        2 0.11806918E-02 0.20001062E+02</pdfrwt>
<pdfrwt beam="2">  1       -2 0.20048545E-02 0.20001062E+02</pdfrwt>
<totfact> 0.38699370E+06</totfact>
</mgrwt>
</event>
<event>
 5    1  0.4046313E-006  0.2001090E+02  0.7818608E-02  0.1745111E+00
         -2   -1    0    0    0  501 -0.00000000000E+00  0.00000000000E+00  0.26269773923E+02  0.26269774051E+02  0.26000000000E-02 0. -1.
          2   -1    0    0  501    0  0.00000000000E+00 -0.00000000000E+00 -0.38108073109E+01  0.38108081978E+01  0.26000000000E-02 0.  1.
       1023    2    1    2    0    0  0.00000000000E+00  0.00000000000E+00  0.22458966612E+02  0.30080582249E+02  0.20010903208E+02 0.  0.
        -11    1    3    3    0    0  0.66199405651E+01  0.75006324596E+01  0.11471687436E+02  0.15221127201E+02  0.51100000000E-03 0. -1.
         11    1    3    3    0    0 -0.66199405651E+01 -0.75006324596E+01  0.10987279176E+02  0.14859455048E+02  0.51100000000E-03 0.  1.
<mgrwt>
<rscale>  0 0.20010903E+02</rscale>
<asrwt>0</asrwt>
<pdfrwt beam="2">  1        2 0.58627811E-03 0.20010903E+02</pdfrwt>
<pdfrwt beam="1">  1       -2 0.40415039E-02 0.20010903E+02</pdfrwt>
<totfact> 0.36495782E+06</totfact>
</mgrwt>
</event>
<event>
 4    1  0.4046313E-006  0.2001326E+02  0.7818608E-02  0.1745064E+00
         -2   -1    0    0    0  501 -0.00000000000E+00  0.00000000000E+00  0.63937318676E+01  0.63937323963E+01  0.26000000000E-02 0. -1.
          2   -1    0    0  501    0  0.00000000000E+00 -0.00000000000E+00 -0.15661068894E+02  0.15661069109E+02  0.26000000000E-02 0.  1.
        -11    1    1    2    0    0 -0.98622994501E+01  0.16629506435E+01 -0.42811496815E+01  0.10879273787E+02  0.51100000000E-03 0.  1.
         11    1    1    2    0    0  0.98622994501E+01 -0.16629506435E+01 -0.49861873444E+01  0.11175527718E+02  0.51100000000E-03 0. -1.
<mgrwt>
<rscale>  0 0.20013264E+02</rscale>
<asrwt>0</asrwt>
<pdfrwt beam="2">  1        2 0.24093953E-02 0.20013264E+02</pdfrwt>
<pdfrwt beam="1">  1       -2 0.98365112E-03 0.20013264E+02</pdfrwt>
<totfact> 0.40768377E+06</totfact>
</mgrwt>
</event>
<event>
 5    1  0.4046313E-006  0.2000676E+02  0.7818608E-02  0.1745194E+00
          2   -1    0    0  501    0  0.00000000000E+00  0.00000000000E+00  0.26389525675E+02  0.26389525803E+02  0.26000000000E-02 0. -1.
         -2   -1    0    0    0  501 -0.00000000000E+00 -0.00000000000E+00 -0.37919454370E+01  0.37919463284E+01  0.26000000000E-02 0.  1.
       1023    2    1    2    0    0  0.00000000000E+00  0.00000000000E+00  0.22597580238E+02  0.30181472131E+02  0.20006764541E+02 0.  0.
        -11    1    3    3    0    0  0.99369105710E+01 -0.11512322993E+01  0.11315930023E+02  0.15103569116E+02  0.51100000000E-03 0. -1.
         11    1    3    3    0    0 -0.99369105710E+01  0.11512322993E+01  0.11281650215E+02  0.15077903016E+02  0.51100000000E-03 0.  1.
<mgrwt>
<rscale>  0 0.20006765E+02</rscale>
<asrwt>0</asrwt>
<pdfrwt beam="1">  1        2 0.40599270E-02 0.20006765E+02</pdfrwt>
<pdfrwt beam="2">  1       -2 0.58337631E-03 0.20006765E+02</pdfrwt>
<totfact> 0.42756260E+06</totfact>
</mgrwt>
</event>
<event>
 5    1  0.4046313E-006  0.2000008E+02  0.7818608E-02  0.1745326E+00
         -2   -1    0    0    0  501 -0.00000000000E+00  0.00000000000E+00  0.44513066347E+01  0.44513073940E+01  0.26000000000E-02 0. -1.
          2   -1    0    0  501    0  0.00000000000E+00 -0.00000000000E+00 -0.22465494705E+02  0.22465494855E+02  0.26000000000E-02 0.  1.
       1023    2    1    2    0    0  0.00000000000E+00  0.00000000000E+00 -0.18014188070E+02  0.26916802249E+02  0.20000081787E+02 0.  0.
        -11    1    3    3    0    0 -0.76685144885E+01  0.64182944542E+01 -0.89880871382E+01  0.13445680676E+02  0.51100000000E-03 0.  1.
         11    1    3    3    0    0  0.76685144885E+01 -0.64182944542E+01 -0.90261009321E+01  0.13471121574E+02  0.51100000000E-03 0. -1.
<mgrwt>
<rscale>  0 0.20000082E+02</rscale>
<asrwt>0</asrwt>
<pdfrwt beam="2">  1        2 0.34562300E-02 0.20000082E+02</pdfrwt>
<pdfrwt beam="1">  1       -2 0.68481649E-03 0.20000082E+02</pdfrwt>
<totfact> 0.42120559E+06</totfact>
</mgrwt>
</event>
<event>
 5    1  0.4046313E-006  0.2000533E+02  0.7818608E-02  0.1745222E+00
          2   -1    0    0  501    0  0.00000000000E+00  0.00000000000E+00  0.18917285325E+01  0.18917303192E+01  0.26000000000E-02 0.  1.
         -2   -1    0    0    0  501 -0.00000000000E+00 -0.00000000000E+00 -0.52889869567E+02  0.52889869631E+02  0.26000000000E-02 0. -1.
       1023    2    1    2    0    0  0.00000000000E+00  0.00000000000E+00 -0.50998141034E+02  0.54781599950E+02  0.20005331892E+02 0.  0.
        -11    1    3    3    0    0  0.61864694481E+01 -0.78595216283E+01 -0.25241588302E+02  0.27151100617E+02  0.51100000000E-03 0.  1.
         11    1    3    3    0    0 -0.61864694481E+01  0.78595216283E+01 -0.25756552733E+02  0.27630499333E+02  0.51100000000E-03 0. -1.
<mgrwt>
<rscale>  0 0.20005332E+02</rscale>
<asrwt>0</asrwt>
<pdfrwt beam="1">  1        2 0.29103534E-03 0.20005332E+02</pdfrwt>
<pdfrwt beam="2">  1       -2 0.81369020E-02 0.20005332E+02</pdfrwt>
<totfact> 0.33600484E+06</totfact>
</mgrwt>
</event>
<event>
 5    1  0.4046313E-006  0.2000111E+02  0.7818608E-02  0.1745306E+00
         -2   -1    0    0    0  501 -0.00000000000E+00  0.00000000000E+00  0.40912579940E+01  0.40912588202E+01  0.26000000000E-02 0. -1.
          2   -1    0    0  501    0  0.00000000000E+00 -0.00000000000E+00 -0.24445072989E+02  0.24445073128E+02  0.26000000000E-02 0.  1.
       1023    2    1    2    0    0  0.00000000000E+00  0.00000000000E+00 -0.20353814995E+02  0.28536331948E+02  0.20001111373E+02 0.  0.
        -11    1    3    3    0    0  0.16442498026E+01  0.98644583659E+01 -0.10182878660E+02  0.14272424963E+02  0.51100000000E-03 0.  1.
         11    1    3    3    0    0 -0.16442498026E+01 -0.98644583659E+01 -0.10170936335E+02  0.14263906984E+02  0.51100000000E-03 0. -1.
<mgrwt>
<rscale>  0 0.20001111E+02</rscale>
<asrwt>0</asrwt>
<pdfrwt beam="2">  1        2 0.37607804E-02 0.20001111E+02</pdfrwt>
<pdfrwt beam="1">  1       -2 0.62942440E-03 0.20001111E+02</pdfrwt>
<totfact> 0.42457401E+06</totfact>
</mgrwt>
</event>
<event>
 5    1  0.4046313E-006  0.2001020E+02  0.7818608E-02  0.1745125E+00
         -2   -1    0    0    0  501 -0.00000000000E+00  0.00000000000E+00  0.16493276624E+01  0.16493297118E+01  0.26000000000E-02 0. -1.
          2   -1    0    0  501    0  0.00000000000E+00 -0.00000000000E+00 -0.60692607777E+02  0.60692607832E+02  0.26000000000E-02 0.  1.
       1023    2    1    2    0    0  0.00000000000E+00  0.00000000000E+00 -0.59043280114E+02  0.62341937544E+02  0.20010203650E+02 0.  0.
        -11    1    3    3    0    0  0.57363020066E+01 -0.81914189469E+01 -0.28548537912E+02  0.30249355732E+02  0.51100000000E-03 0.  1.
         11    1    3    3    0    0 -0.57363020066E+01  0.81914189469E+01 -0.30494742203E+02  0.32092581812E+02  0.51100000000E-03 0. -1.
<mgrwt>
<rscale>  0 0.20010204E+02</rscale>
<asrwt>0</asrwt>
<pdfrwt beam="2">  1        2 0.93373227E-02 0.20010204E+02</pdfrwt>
<pdfrwt beam="1">  1       -2 0.25374293E-03 0.20010204E+02</pdfrwt>
<totfact> 0.47736644E+06</totfact>
</mgrwt>
</event>
<event>
 5    1  0.4046313E-006  0.2000032E+02  0.7818608E-02  0.1745322E+00
          2   -1    0    0  501    0  0.00000000000E+00  0.00000000000E+00  0.45468187614E+01  0.45468195047E+01  0.26000000000E-02 0.  1.
         -2   -1    0    0    0  501 -0.00000000000E+00 -0.00000000000E+00 -0.21994100280E+02  0.21994100434E+02  0.26000000000E-02 0. -1.
       1023    2    1    2    0    0  0.00000000000E+00  0.00000000000E+00 -0.17447281519E+02  0.26540919939E+02  0.20000319967E+02 0.  0.
        -11    1    3    3    0    0  0.38149009473E+01 -0.92438281040E+01 -0.86744837889E+01  0.13238145509E+02  0.51100000000E-03 0. -1.
         11    1    3    3    0    0 -0.38149009473E+01  0.92438281040E+01 -0.87727977300E+01  0.13302774430E+02  0.51100000000E-03 0.  1.
<mgrwt>
<rscale>  0 0.20000320E+02</rscale>
<asrwt>0</asrwt>
<pdfrwt beam="1">  1        2 0.69951066E-03 0.20000320E+02</pdfrwt>
<pdfrwt beam="2">  1       -2 0.33837077E-02 0.20000320E+02</pdfrwt>
<totfact> 0.37131133E+06</totfact>
</mgrwt>
</event>
<event>
 5    1  0.4046313E-006  0.2000021E+02  0.7818608E-02  0.1745324E+00
          2   -1    0    0  501    0  0.00000000000E+00  0.00000000000E+00  0.34125718842E+02  0.34125718941E+02  0.26000000000E-02 0.  1.
         -2   -1    0    0    0  501 -0.00000000000E+00 -0.00000000000E+00 -0.29304024088E+01  0.29304035622E+01  0.26000000000E-02 0. -1.
       1023    2    1    2    0    0  0.00000000000E+00  0.00000000000E+00  0.31195316434E+02  0.37056122504E+02  0.20000211189E+02 0.  0.
        -11    1    3    3    0    0 -0.99951864124E+01  0.31333812160E+00  0.15622477527E+02  0.18548955133E+02  0.51100000000E-03 0.  1.
         11    1    3    3    0    0  0.99951864124E+01 -0.31333812160E+00  0.15572838907E+02  0.18507167370E+02  0.51100000000E-03 0. -1.
<mgrwt>
<rscale>  0 0.20000211E+02</rscale>
<asrwt>0</asrwt>
<pdfrwt beam="1">  1        2 0.52501109E-02 0.20000211E+02</pdfrwt>
<pdfrwt beam="2">  1       -2 0.45083122E-03 0.20000211E+02</pdfrwt>
<totfact> 0.44014668E+06</totfact>
</mgrwt>
</event>
<event>
 5    1  0.4087046E-006  0.2000177E+02  0.7818608E-02  0.1745293E+00
          2   -1    0    0  501    0  0.00000000000E+00  0.00000000000E+00  0.70107387762E+02  0.70107387810E+02  0.26000000000E-02 0. -1.
         -2   -1    0    0    0  501 -0.00000000000E+00 -0.00000000000E+00 -0.14266341643E+01  0.14266365335E+01  0.26000000000E-02 0.  1.
       1023    2    1    2    0    0  0.00000000000E+00  0.00000000000E+00  0.68680753598E+02  0.71534024344E+02  0.20001768023E+02 0.  0.
        -11    1    3    3    0    0 -0.84592589493E+01 -0.53343162234E+01  0.34557602340E+02  0.35975573259E+02  0.51100000000E-03 0.  1.
         11    1    3    3    0    0  0.84592589493E+01  0.53343162234E+01  0.34123151258E+02  0.35558451085E+02  0.51100000000E-03 0. -1.
<mgrwt>
<rscale>  0 0.20001768E+02</rscale>
<asrwt>0</asrwt>
<pdfrwt beam="1">  1        2 0.10785753E-01 0.20001768E+02</pdfrwt>
<pdfrwt beam="2">  1       -2 0.21948235E-03 0.20001768E+02</pdfrwt>
<totfact> 0.49024174E+06</totfact>
</mgrwt>
</event>
<event>
 5    1  0.4046313E-006  0.2000085E+02  0.7818608E-02  0.1745311E+00
         -2   -1    0    0    0  501 -0.00000000000E+00  0.00000000000E+00  0.43011274037E+01  0.43011281895E+01  0.26000000000E-02 0. -1.
          2   -1    0    0  501    0  0.00000000000E+00 -0.00000000000E+00 -0.23251680347E+02  0.23251680493E+02  0.26000000000E-02 0.  1.
       1023    2    1    2    0    0  0.00000000000E+00  0.00000000000E+00 -0.18950552944E+02  0.27552808682E+02  0.20000845217E+02 0.  0.
        -11    1    3    3    0    0 -0.86574891096E+01 -0.50053567569E+01 -0.95473615749E+01  0.13825983772E+02  0.51100000000E-03 0.  1.
         11    1    3    3    0    0  0.86574891096E+01  0.50053567569E+01 -0.94031913686E+01  0.13726824911E+02  0.51100000000E-03 0. -1.
<mgrwt>
<rscale>  0 0.20000845E+02</rscale>
<asrwt>0</asrwt>
<pdfrwt beam="2">  1        2 0.35771816E-02 0.20000845E+02</pdfrwt>
<pdfrwt beam="1">  1       -2 0.66171199E-03 0.20000845E+02</pdfrwt>
<totfact> 0.42253961E+06</totfact>
</mgrwt>
</event>
<event>
 5    1  0.4046313E-006  0.2000042E+02  0.7818608E-02  0.1745320E+00
         -2   -1    0    0    0  501 -0.00000000000E+00  0.00000000000E+00  0.29299195791E+02  0.29299195907E+02  0.26000000000E-02 0.  1.
          2   -1    0    0  501    0  0.00000000000E+00 -0.00000000000E+00 -0.34132051049E+01  0.34132060952E+01  0.26000000000E-02 0. -1.
       1023    2    1    2    0    0  0.00000000000E+00  0.00000000000E+00  0.25885990686E+02  0.32712402002E+02  0.20000418269E+02 0.  0.
        -11    1    3    3    0    0 -0.97732470802E+01 -0.21184075481E+01  0.12964535318E+02  0.16373246022E+02  0.51100000000E-03 0. -1.
         11    1    3    3    0    0  0.97732470802E+01  0.21184075481E+01  0.12921455368E+02  0.16339155980E+02  0.51100000000E-03 0.  1.
<mgrwt>
<rscale>  0 0.20000418E+02</rscale>
<asrwt>0</asrwt>
<pdfrwt beam="2">  1        2 0.52510858E-03 0.20000418E+02</pdfrwt>
<pdfrwt beam="1">  1       -2 0.45075685E-02 0.20000418E+02</pdfrwt>
<totfact> 0.36149433E+06</totfact>
</mgrwt>
</event>
<event>
 5    1  0.4046313E-006  0.2000994E+02  0.7818608E-02  0.1745130E+00
         -2   -1    0    0    0  501 -0.00000000000E+00  0.00000000000E+00  0.49167736526E+01  0.49167743401E+01  0.26000000000E-02 0.  1.
          2   -1    0    0  501    0  0.00000000000E+00 -0.00000000000E+00 -0.20358764152E+02  0.20358764318E+02  0.26000000000E-02 0. -1.
       1023    2    1    2    0    0  0.00000000000E+00  0.00000000000E+00 -0.15441990499E+02  0.25275538658E+02  0.20009942126E+02 0.  0.
        -11    1    3    3    0    0 -0.35541580103E+01  0.93484759450E+01 -0.80632225085E+01  0.12846851721E+02  0.51100000000E-03 0.  1.
         11    1    3    3    0    0  0.35541580103E+01 -0.93484759450E+01 -0.73787679905E+01  0.12428686937E+02  0.51100000000E-03 0. -1.
<mgrwt>
<rscale>  0 0.20009942E+02</rscale>
<asrwt>0</asrwt>
<pdfrwt beam="2">  1        2 0.31321176E-02 0.20009942E+02</pdfrwt>
<pdfrwt beam="1">  1       -2 0.75642679E-03 0.20009942E+02</pdfrwt>
<totfact> 0.41697113E+06</totfact>
</mgrwt>
</event>
<event>
 5    1  0.4046313E-006  0.2000340E+02  0.7818608E-02  0.1745260E+00
          2   -1    0    0  501    0  0.00000000000E+00  0.00000000000E+00  0.79776450143E+01  0.79776454380E+01  0.26000000000E-02 0. -1.
         -2   -1    0    0    0  501 -0.00000000000E+00 -0.00000000000E+00 -0.12539288783E+02  0.12539289053E+02  0.26000000000E-02 0.  1.
       1023    2    1    2    0    0  0.00000000000E+00  0.00000000000E+00 -0.45616437690E+01  0.20516934491E+02  0.20003399887E+02 0.  0.
        -11    1    3    3    0    0  0.91501239596E+01 -0.40384670245E+01 -0.22765791288E+01  0.10257523930E+02  0.51100000000E-03 0. -1.
         11    1    3    3    0    0 -0.91501239596E+01  0.40384670245E+01 -0.22850646402E+01  0.10259410561E+02  0.51100000000E-03 0.  1.
<mgrwt>
<rscale>  0 0.20003400E+02</rscale>
<asrwt>0</asrwt>
<pdfrwt beam="1">  1        2 0.12273300E-02 0.20003400E+02</pdfrwt>
<pdfrwt beam="2">  1       -2 0.19291214E-02 0.20003400E+02</pdfrwt>
<totfact> 0.38799894E+06</totfact>
</mgrwt>
</event>
<event>
 5    1  0.4046313E-006  0.2000031E+02  0.7818608E-02  0.1745322E+00
         -2   -1    0    0    0  501 -0.00000000000E+00  0.00000000000E+00  0.64538071262E+01  0.64538076500E+01  0.26000000000E-02 0.  1.
          2   -1    0    0  501    0  0.00000000000E+00 -0.00000000000E+00 -0.15495206638E+02  0.15495206856E+02  0.26000000000E-02 0. -1.
       1023    2    1    2    0    0  0.00000000000E+00  0.00000000000E+00 -0.90413995114E+01  0.21949014506E+02  0.20000308314E+02 0.  0.
        -11    1    3    3    0    0  0.35482818386E+01 -0.93494365828E+01 -0.45520195154E+01  0.10987408719E+02  0.51100000000E-03 0. -1.
         11    1    3    3    0    0 -0.35482818386E+01  0.93494365828E+01 -0.44893799960E+01  0.10961605787E+02  0.51100000000E-03 0.  1.
<mgrwt>
<rscale>  0 0.20000308E+02</rscale>
<asrwt>0</asrwt>
<pdfrwt beam="2">  1        2 0.23838780E-02 0.20000308E+02</pdfrwt>
<pdfrwt beam="1">  1       -2 0.99289347E-03 0.20000308E+02</pdfrwt>
<totfact> 0.40793367E+06</totfact>
</mgrwt>
</event>
<event>
 5    1  0.4046313E-006  0.2000021E+02  0.7818608E-02  0.1745324E+00
         -2   -1    0    0    0  501 -0.00000000000E+00  0.00000000000E+00  0.16981259007E+01  0.16981278911E+01  0.26000000000E-02 0. -1.
          2   -1    0    0  501    0  0.00000000000E+00 -0.00000000000E+00 -0.58889672981E+02  0.58889673039E+02  0.26000000000E-02 0.  1.
       1023    2    1    2    0    0  0.00000000000E+00  0.00000000000E+00 -0.57191547081E+02  0.60587800930E+02  0.20000214100E+02 0.  0.
        -11    1    3    3    0    0  0.76220755222E+01 -0.64734924346E+01 -0.28592482115E+02  0.30290793541E+02  0.51100000000E-03 0.  1.
         11    1    3    3    0    0 -0.76220755222E+01  0.64734924346E+01 -0.28599064966E+02  0.30297007389E+02  0.51100000000E-03 0. -1.
<mgrwt>
<rscale>  0 0.20000214E+02</rscale>
<asrwt>0</asrwt>
<pdfrwt beam="2">  1        2 0.90599483E-02 0.20000214E+02</pdfrwt>
<pdfrwt beam="1">  1       -2 0.26125034E-03 0.20000214E+02</pdfrwt>
<totfact> 0.47546959E+06</totfact>
</mgrwt>
</event>
<event>
 5    1  0.4046313E-006  0.2000055E+02  0.7818608E-02  0.1745317E+00
          2   -1    0    0  501    0  0.00000000000E+00  0.00000000000E+00  0.72369158580E+02  0.72369158626E+02  0.26000000000E-02 0. -1.
         -2   -1    0    0    0  501 -0.00000000000E+00 -0.00000000000E+00 -0.13818788126E+01  0.13818812586E+01  0.26000000000E-02 0.  1.
       1023    2    1    2    0    0  0.00000000000E+00  0.00000000000E+00  0.70987279767E+02  0.73751039885E+02  0.20000549877E+02 0.  0.
        -11    1    3    3    0    0 -0.91288061006E+01 -0.40824578248E+01  0.35724977697E+02  0.37098188560E+02  0.51100000000E-03 0.  1.
         11    1    3    3    0    0  0.91288061006E+01  0.40824578248E+01  0.35262302070E+02  0.36652851325E+02  0.51100000000E-03 0. -1.
<mgrwt>
<rscale>  0 0.20000550E+02</rscale>
<asrwt>0</asrwt>
<pdfrwt beam="1">  1        2 0.11133716E-01 0.20000550E+02</pdfrwt>
<pdfrwt beam="2">  1       -2 0.21259694E-03 0.20000550E+02</pdfrwt>
<totfact> 0.49323639E+06</totfact>
</mgrwt>
</event>
<event>
 5    1  0.4046313E-006  0.2000052E+02  0.7818608E-02  0.1745318E+00
         -2   -1    0    0    0  501 -0.00000000000E+00  0.00000000000E+00  0.35866990873E+01  0.35867000296E+01  0.26000000000E-02 0.  1.
          2   -1    0    0  501    0  0.00000000000E+00 -0.00000000000E+00 -0.27882239007E+02  0.27882239129E+02  0.26000000000E-02 0. -1.
       1023    2    1    2    0    0  0.00000000000E+00  0.00000000000E+00 -0.24295539920E+02  0.31468939158E+02  0.20000521787E+02 0.  0.
        -11    1    3    3    0    0 -0.90575129280E+01  0.42386765639E+01 -0.12174941106E+02  0.15755447015E+02  0.51100000000E-03 0. -1.
         11    1    3    3    0    0  0.90575129280E+01 -0.42386765639E+01 -0.12120598814E+02  0.15713492143E+02  0.51100000000E-03 0.  1.
<mgrwt>
<rscale>  0 0.20000522E+02</rscale>
<asrwt>0</asrwt>
<pdfrwt beam="2">  1        2 0.42895752E-02 0.20000522E+02</pdfrwt>
<pdfrwt beam="1">  1       -2 0.55179996E-03 0.20000522E+02</pdfrwt>
<totfact> 0.43030907E+06</totfact>
</mgrwt>
</event>
<event>
 5    1  0.4047725E-006  0.2000226E+02  0.7818608E-02  0.1745283E+00
         -2   -1    0    0    0  501 -0.00000000000E+00  0.00000000000E+00  0.11933141724E+01  0.11933170049E+01  0.26000000000E-02 0.  1.
          2   -1    0    0  501    0  0.00000000000E+00 -0.00000000000E+00 -0.83819080985E+02  0.83819081025E+02  0.26000000000E-02 0. -1.
       1023    2    1    2    0    0  0.00000000000E+00  0.00000000000E+00 -0.82625766812E+02  0.85012398030E+02  0.20002261809E+02 0.  0.
        -11    1    3    3    0    0 -0.63873949671E+01  0.76955494959E+01 -0.41108054922E+02  0.42307120869E+02  0.51100000000E-03 0. -1.
         11    1    3    3    0    0  0.63873949671E+01 -0.76955494959E+01 -0.41517711891E+02  0.42705277161E+02  0.51100000000E-03 0.  1.
<mgrwt>
<rscale>  0 0.20002262E+02</rscale>
<asrwt>0</asrwt>
<pdfrwt beam="2">  1        2 0.12895239E-01 0.20002262E+02</pdfrwt>
<pdfrwt beam="1">  1       -2 0.18358708E-03 0.20002262E+02</pdfrwt>
<totfact> 0.50765838E+06</totfact>
</mgrwt>
</event>
<event>
 5    1  0.4046313E-006  0.2000111E+02  0.7818608E-02  0.1745306E+00
          2   -1    0    0  501    0  0.00000000000E+00  0.00000000000E+00  0.27863294374E+01  0.27863306504E+01  0.26000000000E-02 0.  1.
         -2   -1    0    0    0  501 -0.00000000000E+00 -0.00000000000E+00 -0.35893483215E+02  0.35893483310E+02  0.26000000000E-02 0. -1.
       1023    2    1    2    0    0  0.00000000000E+00  0.00000000000E+00 -0.33107153778E+02  0.38679813960E+02  0.20001109387E+02 0.  0.
        -11    1    3    3    0    0  0.71307746367E+01 -0.70114516910E+01 -0.16453235002E+02  0.19254021503E+02  0.51100000000E-03 0.  1.
         11    1    3    3    0    0 -0.71307746367E+01  0.70114516910E+01 -0.16653918776E+02  0.19425792457E+02  0.51100000000E-03 0. -1.
<mgrwt>
<rscale>  0 0.20001109E+02</rscale>
<asrwt>0</asrwt>
<pdfrwt beam="1">  1        2 0.42866619E-03 0.20001109E+02</pdfrwt>
<pdfrwt beam="2">  1       -2 0.55220741E-02 0.20001109E+02</pdfrwt>
<totfact> 0.35367388E+06</totfact>
</mgrwt>
</event>
<event>
 5    1  0.4060659E-006  0.2000117E+02  0.7818608E-02  0.1745305E+00
         -2   -1    0    0    0  501 -0.00000000000E+00  0.00000000000E+00  0.16732819664E+01  0.16732839864E+01  0.26000000000E-02 0. -1.
          2   -1    0    0  501    0  0.00000000000E+00 -0.00000000000E+00 -0.59769762754E+02  0.59769762811E+02  0.26000000000E-02 0.  1.
       1023    2    1    2    0    0  0.00000000000E+00  0.00000000000E+00 -0.58096480788E+02  0.61443046797E+02  0.20001172961E+02 0.  0.
        -11    1    3    3    0    0  0.99999225417E+01  0.88638193538E-01 -0.28822035592E+02  0.30507639101E+02  0.51100000000E-03 0.  1.
         11    1    3    3    0    0 -0.99999225417E+01 -0.88638193538E-01 -0.29274445196E+02  0.30935407697E+02  0.51100000000E-03 0. -1.
<mgrwt>
<rscale>  0 0.20001173E+02</rscale>
<asrwt>0</asrwt>
<pdfrwt beam="2">  1        2 0.91953466E-02 0.20001173E+02</pdfrwt>
<pdfrwt beam="1">  1       -2 0.25742820E-03 0.20001173E+02</pdfrwt>
<totfact> 0.47660538E+06</totfact>
</mgrwt>
</event>
<event>
 4    1  0.4046313E-006  0.2001341E+02  0.7818608E-02  0.1745061E+00
          2   -1    0    0  501    0  0.00000000000E+00  0.00000000000E+00  0.45942748965E+02  0.45942749038E+02  0.26000000000E-02 0. -1.
         -2   -1    0    0    0  501 -0.00000000000E+00 -0.00000000000E+00 -0.21795419387E+01  0.21795434894E+01  0.26000000000E-02 0.  1.
        -11    1    1    2    0    0  0.82878426346E+00  0.99722045705E+01  0.21762839189E+02  0.23953140027E+02  0.51100000000E-03 0.  1.
         11    1    1    2    0    0 -0.82878426346E+00 -0.99722045705E+01  0.22000367838E+02  0.24169152501E+02  0.51100000000E-03 0. -1.
<mgrwt>
<rscale>  0 0.20013414E+02</rscale>
<asrwt>0</asrwt>
<pdfrwt beam="1">  1        2 0.70681149E-02 0.20013414E+02</pdfrwt>
<pdfrwt beam="2">  1       -2 0.33531429E-03 0.20013414E+02</pdfrwt>
<totfact> 0.45687522E+06</totfact>
</mgrwt>
</event>
<event>
 5    1  0.4046313E-006  0.2000032E+02  0.7818608E-02  0.1745322E+00
         -2   -1    0    0    0  501 -0.00000000000E+00  0.00000000000E+00  0.84526653010E+00  0.84527052883E+00  0.26000000000E-02 0. -1.
          2   -1    0    0  501    0  0.00000000000E+00 -0.00000000000E+00 -0.11830932367E+03  0.11830932370E+03  0.26000000000E-02 0.  1.
       1023    2    1    2    0    0  0.00000000000E+00  0.00000000000E+00 -0.11746405714E+03  0.11915459423E+03  0.20000315141E+02 0.  0.
        -11    1    3    3    0    0  0.22515949700E+01 -0.97432906997E+01 -0.58482261999E+02  0.59331074172E+02  0.51100000000E-03 0.  1.
         11    1    3    3    0    0 -0.22515949700E+01  0.97432906997E+01 -0.58981795141E+02  0.59823520056E+02  0.51100000000E-03 0. -1.
<mgrwt>
<rscale>  0 0.20000315E+02</rscale>
<asrwt>0</asrwt>
<pdfrwt beam="2">  1        2 0.18201422E-01 0.20000315E+02</pdfrwt>
<pdfrwt beam="1">  1       -2 0.13004141E-03 0.20000315E+02</pdfrwt>
<totfact> 0.54897383E+06</totfact>
</mgrwt>
</event>
<event>
 4    1  0.4121963E-006  0.2020717E+02  0.7818608E-02  0.1741239E+00
         -2   -1    0    0    0  501 -0.00000000000E+00  0.00000000000E+00  0.24418310925E+02  0.24418311064E+02  0.26000000000E-02 0.  1.
          2   -1    0    0  501    0  0.00000000000E+00 -0.00000000000E+00 -0.41805690407E+01  0.41805698492E+01  0.26000000000E-02 0. -1.
        -11    1    1    2    0    0 -0.66871798344E+01 -0.75160092502E+01  0.87959941516E+01  0.13363318546E+02  0.51100000000E-03 0.  1.
         11    1    1    2    0    0  0.66871798344E+01  0.75160092502E+01  0.11441747733E+02  0.15235562367E+02  0.51100000000E-03 0. -1.
<mgrwt>
<rscale>  0 0.20207172E+02</rscale>
<asrwt>0</asrwt>
<pdfrwt beam="2">  1        2 0.64316455E-03 0.20207172E+02</pdfrwt>
<pdfrwt beam="1">  1       -2 0.37566632E-02 0.20207172E+02</pdfrwt>
<totfact> 0.35972335E+06</totfact>
</mgrwt>
</event>
<event>
 5    1  0.4046313E-006  0.2000102E+02  0.7818608E-02  0.1745308E+00
          2   -1    0    0  501    0  0.00000000000E+00  0.00000000000E+00  0.49098750180E+02  0.49098750249E+02  0.26000000000E-02 0.  1.
         -2   -1    0    0    0  501 -0.00000000000E+00 -0.00000000000E+00 -0.20369184244E+01  0.20369200838E+01  0.26000000000E-02 0. -1.
       1023    2    1    2    0    0  0.00000000000E+00  0.00000000000E+00  0.47061831755E+02  0.51135670332E+02  0.20001019278E+02 0.  0.
        -11    1    3    3    0    0 -0.40480063568E+01 -0.91446023290E+01  0.23507267121E+02  0.25546070441E+02  0.51100000000E-03 0. -1.
         11    1    3    3    0    0  0.40480063568E+01  0.91446023290E+01  0.23554564635E+02  0.25589599892E+02  0.51100000000E-03 0.  1.
<mgrwt>
<rscale>  0 0.20001019E+02</rscale>
<asrwt>0</asrwt>
<pdfrwt beam="1">  1        2 0.75536536E-02 0.20001019E+02</pdfrwt>
<pdfrwt beam="2">  1       -2 0.31337222E-03 0.20001019E+02</pdfrwt>
<totfact> 0.46196674E+06</totfact>
</mgrwt>
</event>
<event>
 5    1  0.4046313E-006  0.2000554E+02  0.7818608E-02  0.1745218E+00
          2   -1    0    0  501    0  0.00000000000E+00  0.00000000000E+00  0.51642982529E+02  0.51642982594E+02  0.26000000000E-02 0. -1.
         -2   -1    0    0    0  501 -0.00000000000E+00 -0.00000000000E+00 -0.19374432812E+01  0.19374450257E+01  0.26000000000E-02 0.  1.
       1023    2    1    2    0    0  0.00000000000E+00  0.00000000000E+00  0.49705539248E+02  0.53580427620E+02  0.20005539034E+02 0.  0.
        -11    1    3    3    0    0 -0.87937167313E+01 -0.47636709930E+01  0.25342114608E+02  0.27244169805E+02  0.51100000000E-03 0.  1.
         11    1    3    3    0    0  0.87937167313E+01  0.47636709930E+01  0.24363424640E+02  0.26336257815E+02  0.51100000000E-03 0. -1.
<mgrwt>
<rscale>  0 0.20005539E+02</rscale>
<asrwt>0</asrwt>
<pdfrwt beam="1">  1        2 0.79450729E-02 0.20005539E+02</pdfrwt>
<pdfrwt beam="2">  1       -2 0.29806839E-03 0.20005539E+02</pdfrwt>
<totfact> 0.46528189E+06</totfact>
</mgrwt>
</event>
<event>
 5    1  0.4046313E-006  0.2000088E+02  0.7818608E-02  0.1745311E+00
          2   -1    0    0  501    0  0.00000000000E+00  0.00000000000E+00  0.13445973908E+01  0.13445999046E+01  0.26000000000E-02 0. -1.
         -2   -1    0    0    0  501 -0.00000000000E+00 -0.00000000000E+00 -0.74378204507E+02  0.74378204552E+02  0.26000000000E-02 0.  1.
       1023    2    1    2    0    0  0.00000000000E+00  0.00000000000E+00 -0.73033607116E+02  0.75722804457E+02  0.20000883642E+02 0.  0.
        -11    1    3    3    0    0 -0.92147266091E+01 -0.38852377866E+01 -0.36324603944E+02  0.37676028335E+02  0.51100000000E-03 0.  1.
         11    1    3    3    0    0  0.92147266091E+01  0.38852377866E+01 -0.36709003172E+02  0.38046776122E+02  0.51100000000E-03 0. -1.
<mgrwt>
<rscale>  0 0.20000884E+02</rscale>
<asrwt>0</asrwt>
<pdfrwt beam="1">  1        2 0.20686139E-03 0.20000884E+02</pdfrwt>
<pdfrwt beam="2">  1       -2 0.11442798E-01 0.20000884E+02</pdfrwt>
<totfact> 0.31712970E+06</totfact>
</mgrwt>
</event>
<event>
 5    1  0.4046313E-006  0.2001136E+02  0.7818608E-02  0.1745102E+00
          2   -1    0    0  501    0  0.00000000000E+00  0.00000000000E+00  0.81445486348E+02  0.81445486390E+02  0.26000000000E-02 0. -1.
         -2   -1    0    0    0  501 -0.00000000000E+00 -0.00000000000E+00 -0.12292090216E+01  0.12292117714E+01  0.26000000000E-02 0.  1.
       1023    2    1    2    0    0  0.00000000000E+00  0.00000000000E+00  0.80216277327E+02  0.82674698161E+02  0.20011360970E+02 0.  0.
        -11    1    3    3    0    0  0.99987830169E+01 -0.36397968763E+00  0.39801783480E+02  0.41040103697E+02  0.51100000000E-03 0. -1.
         11    1    3    3    0    0 -0.99987830169E+01  0.36397968763E+00  0.40414493847E+02  0.41634594464E+02  0.51100000000E-03 0.  1.
<mgrwt>
<rscale>  0 0.20011361E+02</rscale>
<asrwt>0</asrwt>
<pdfrwt beam="1">  1        2 0.12530073E-01 0.20011361E+02</pdfrwt>
<pdfrwt beam="2">  1       -2 0.18910933E-03 0.20011361E+02</pdfrwt>
<totfact> 0.50418076E+06</totfact>
</mgrwt>
</event>
<event>
 5    1  0.4046313E-006  0.2000030E+02  0.7818608E-02  0.1745322E+00
         -2   -1    0    0    0  501 -0.00000000000E+00  0.00000000000E+00  0.13302236283E+01  0.13302261693E+01  0.26000000000E-02 0.  1.
          2   -1    0    0  501    0  0.00000000000E+00 -0.00000000000E+00 -0.75177515656E+02  0.75177515701E+02  0.26000000000E-02 0. -1.
       1023    2    1    2    0    0  0.00000000000E+00  0.00000000000E+00 -0.73847292028E+02  0.76507741870E+02  0.20000300654E+02 0.  0.
        -11    1    3    3    0    0 -0.17063511435E+01 -0.98534207764E+01 -0.36776926726E+02  0.38112253605E+02  0.51100000000E-03 0. -1.
         11    1    3    3    0    0  0.17063511435E+01  0.98534207764E+01 -0.37070365302E+02  0.38395488265E+02  0.51100000000E-03 0.  1.
<mgrwt>
<rscale>  0 0.20000301E+02</rscale>
<asrwt>0</asrwt>
<pdfrwt beam="2">  1        2 0.11565769E-01 0.20000301E+02</pdfrwt>
<pdfrwt beam="1">  1       -2 0.20465005E-03 0.20000301E+02</pdfrwt>
<totfact> 0.49685630E+06</totfact>
</mgrwt>
</event>
<event>
 5    1  0.4046313E-006  0.2000949E+02  0.7818608E-02  0.1745140E+00
         -2   -1    0    0    0  501 -0.00000000000E+00  0.00000000000E+00  0.20056236003E+02  0.20056236171E+02  0.26000000000E-02 0.  1.
          2   -1    0    0  501    0  0.00000000000E+00 -0.00000000000E+00 -0.49907107996E+01  0.49907114769E+01  0.26000000000E-02 0. -1.
       1023    2    1    2    0    0  0.00000000000E+00  0.00000000000E+00  0.15065525203E+02  0.25046947648E+02  0.20009486171E+02 0.  0.
        -11    1    3    3    0    0 -0.65692598358E+00  0.99831237403E+01  0.75028096035E+01  0.12505457351E+02  0.51100000000E-03 0.  1.
         11    1    3    3    0    0  0.65692598358E+00 -0.99831237403E+01  0.75627155998E+01  0.12541490297E+02  0.51100000000E-03 0. -1.
<mgrwt>
<rscale>  0 0.20009486E+02</rscale>
<asrwt>0</asrwt>
<pdfrwt beam="2">  1        2 0.76780173E-03 0.20009486E+02</pdfrwt>
<pdfrwt beam="1">  1       -2 0.30855748E-02 0.20009486E+02</pdfrwt>
<totfact> 0.37386645E+06</totfact>
</mgrwt>
</event>
<event>
 5    1  0.4046313E-006  0.2000052E+02  0.7818608E-02  0.1745318E+00
         -2   -1    0    0    0  501 -0.00000000000E+00  0.00000000000E+00  0.10450450173E+03  0.10450450176E+03  0.26000000000E-02 0. -1.
          2   -1    0    0  501    0  0.00000000000E+00 -0.00000000000E+00 -0.95694419198E+00  0.95694772405E+00  0.26000000000E-02 0.  1.
       1023    2    1    2    0    0  0.00000000000E+00  0.00000000000E+00  0.10354755754E+03  0.10546144949E+03  0.20000516386E+02 0.  0.
        -11    1    3    3    0    0 -0.14136012419E+01  0.98997677436E+01  0.51569980409E+02  0.52530624873E+02  0.51100000000E-03 0.  1.
         11    1    3    3    0    0  0.14136012419E+01 -0.98997677436E+01  0.51977577131E+02  0.52930824616E+02  0.51100000000E-03 0. -1.
<mgrwt>
<rscale>  0 0.20000516E+02</rscale>
<asrwt>0</asrwt>
<pdfrwt beam="2">  1        2 0.14722239E-03 0.20000516E+02</pdfrwt>
<pdfrwt beam="1">  1       -2 0.16077623E-01 0.20000516E+02</pdfrwt>
<totfact> 0.29405167E+06</totfact>
</mgrwt>
</event>
<event>
 5    1  0.4046313E-006  0.2000007E+02  0.7818608E-02  0.1745327E+00
         -2   -1    0    0    0  501 -0.00000000000E+00  0.00000000000E+00  0.55079075359E+01  0.55079081496E+01  0.26000000000E-02 0.  1.
          2   -1    0    0  501    0  0.00000000000E+00 -0.00000000000E+00 -0.18155843471E+02  0.18155843657E+02  0.26000000000E-02 0. -1.
       1023    2    1    2    0    0  0.00000000000E+00  0.00000000000E+00 -0.12647935935E+02  0.23663751807E+02  0.20000071654E+02 0.  0.
        -11    1    3    3    0    0  0.22086226408E+01  0.97530670358E+01 -0.63007310485E+01  0.11819456103E+02  0.51100000000E-03 0.  1.
         11    1    3    3    0    0 -0.22086226408E+01 -0.97530670358E+01 -0.63472048867E+01  0.11844295703E+02  0.51100000000E-03 0. -1.
<mgrwt>
<rscale>  0 0.20000072E+02</rscale>
<asrwt>0</asrwt>
<pdfrwt beam="2">  1        2 0.27932067E-02 0.20000072E+02</pdfrwt>
<pdfrwt beam="1">  1       -2 0.84737046E-03 0.20000072E+02</pdfrwt>
<totfact> 0.41329923E+06</totfact>
</mgrwt>
</event>
<event>
 5    1  0.4046313E-006  0.2000068E+02  0.7818608E-02  0.1745315E+00
         -2   -1    0    0    0  501 -0.00000000000E+00  0.00000000000E+00  0.56207687286E+02  0.56207687346E+02  0.26000000000E-02 0. -1.
          2   -1    0    0  501    0  0.00000000000E+00 -0.00000000000E+00 -0.17792355200E+01  0.17792374197E+01  0.26000000000E-02 0.  1.
       1023    2    1    2    0    0  0.00000000000E+00  0.00000000000E+00  0.54428451766E+02  0.57986924766E+02  0.20000677043E+02 0.  0.
        -11    1    3    3    0    0  0.15738270679E+01  0.98755655221E+01  0.27054260464E+02  0.28843313532E+02  0.51100000000E-03 0. -1.
         11    1    3    3    0    0 -0.15738270679E+01 -0.98755655221E+01  0.27374191303E+02  0.29143611234E+02  0.51100000000E-03 0.  1.
<mgrwt>
<rscale>  0 0.20000677E+02</rscale>
<asrwt>0</asrwt>
<pdfrwt beam="2">  1        2 0.27372873E-03 0.20000677E+02</pdfrwt>
<pdfrwt beam="1">  1       -2 0.86473356E-02 0.20000677E+02</pdfrwt>
<totfact> 0.33305462E+06</totfact>
</mgrwt>
</event>
<event>
 5    1  0.4046313E-006  0.2000486E+02  0.7818608E-02  0.1745232E+00
         -2   -1    0    0    0  501 -0.00000000000E+00  0.00000000000E+00  0.48179263750E+01  0.48179270765E+01  0.26000000000E-02 0.  1.
          2   -1    0    0  501    0  0.00000000000E+00 -0.00000000000E+00 -0.20765895087E+02  0.20765895250E+02  0.26000000000E-02 0. -1.
       1023    2    1    2    0    0  0.00000000000E+00  0.00000000000E+00 -0.15947968712E+02  0.25583822327E+02  0.20004855880E+02 0.  0.
        -11    1    3    3    0    0  0.11601520931E-01 -0.10000395804E+02 -0.77165713672E+01  0.12631449828E+02  0.51100000000E-03 0.  1.
         11    1    3    3    0    0 -0.11601520931E-01  0.10000395804E+02 -0.82313973452E+01  0.12952372499E+02  0.51100000000E-03 0. -1.
<mgrwt>
<rscale>  0 0.20004856E+02</rscale>
<asrwt>0</asrwt>
<pdfrwt beam="2">  1        2 0.31947531E-02 0.20004856E+02</pdfrwt>
<pdfrwt beam="1">  1       -2 0.74121952E-03 0.20004856E+02</pdfrwt>
<totfact> 0.41795087E+06</totfact>
</mgrwt>
</event>
<event>
 5    1  0.4046313E-006  0.2000171E+02  0.7818608E-02  0.1745294E+00
         -2   -1    0    0    0  501 -0.00000000000E+00  0.00000000000E+00  0.29802493209E+02  0.29802493322E+02  0.26000000000E-02 0. -1.
          2   -1    0    0  501    0  0.00000000000E+00 -0.00000000000E+00 -0.33559958135E+01  0.33559968207E+01  0.26000000000E-02 0.  1.
       1023    2    1    2    0    0  0.00000000000E+00  0.00000000000E+00  0.26446497395E+02  0.33158490143E+02  0.20001706029E+02 0.  0.
        -11    1    3    3    0    0  0.99947131665E+01  0.33451163966E+00  0.13396099441E+02  0.16717107100E+02  0.51100000000E-03 0.  1.
         11    1    3    3    0    0 -0.99947131665E+01 -0.33451163966E+00  0.13050397954E+02  0.16441383042E+02  0.51100000000E-03 0. -1.
<mgrwt>
<rscale>  0 0.20001706E+02</rscale>
<asrwt>0</asrwt>
<pdfrwt beam="2">  1        2 0.51630713E-03 0.20001706E+02</pdfrwt>
<pdfrwt beam="1">  1       -2 0.45849991E-02 0.20001706E+02</pdfrwt>
<totfact> 0.36081971E+06</totfact>
</mgrwt>
</event>
<event>
 5    1  0.4046313E-006  0.2000076E+02  0.7818608E-02  0.1745313E+00
          2   -1    0    0  501    0  0.00000000000E+00  0.00000000000E+00  0.26893370143E+02  0.26893370269E+02  0.26000000000E-02 0.  1.
         -2   -1    0    0    0  501 -0.00000000000E+00 -0.00000000000E+00 -0.37186722828E+01  0.37186731918E+01  0.26000000000E-02 0. -1.
       1023    2    1    2    0    0  0.00000000000E+00  0.00000000000E+00  0.23174697860E+02  0.30612043461E+02  0.20000764583E+02 0.  0.
        -11    1    3    3    0    0  0.58990075854E+01 -0.80752065745E+01  0.11617729547E+02  0.15329021228E+02  0.51100000000E-03 0.  1.
         11    1    3    3    0    0 -0.58990075854E+01  0.80752065745E+01  0.11556968313E+02  0.15283022232E+02  0.51100000000E-03 0. -1.
<mgrwt>
<rscale>  0 0.20000765E+02</rscale>
<asrwt>0</asrwt>
<pdfrwt beam="1">  1        2 0.41374415E-02 0.20000765E+02</pdfrwt>
<pdfrwt beam="2">  1       -2 0.57210352E-03 0.20000765E+02</pdfrwt>
<totfact> 0.42868174E+06</totfact>
</mgrwt>
</event>
<event>
 5    1  0.4046313E-006  0.2000038E+02  0.7818608E-02  0.1745321E+00
          2   -1    0    0  501    0  0.00000000000E+00  0.00000000000E+00  0.72794350167E+02  0.72794350213E+02  0.26000000000E-02 0. -1.
         -2   -1    0    0    0  501 -0.00000000000E+00 -0.00000000000E+00 -0.13737837210E+01  0.13737861814E+01  0.26000000000E-02 0.  1.
       1023    2    1    2    0    0  0.00000000000E+00  0.00000000000E+00  0.71420566446E+02  0.74168136395E+02  0.20000378617E+02 0.  0.
        -11    1    3    3    0    0 -0.71263023895E+01  0.70156422376E+01  0.35639514323E+02  0.37015920942E+02  0.51100000000E-03 0. -1.
         11    1    3    3    0    0  0.71263023895E+01 -0.70156422376E+01  0.35781052123E+02  0.37152215452E+02  0.51100000000E-03 0.  1.
<mgrwt>
<rscale>  0 0.20000379E+02</rscale>
<asrwt>0</asrwt>
<pdfrwt beam="1">  1        2 0.11199135E-01 0.20000379E+02</pdfrwt>
<pdfrwt beam="2">  1       -2 0.21135147E-03 0.20000379E+02</pdfrwt>
<totfact> 0.49379378E+06</totfact>
</mgrwt>
</event>
<event>
 5    1  0.4046313E-006  0.2000013E+02  0.7818608E-02  0.1745325E+00
         -2   -1    0    0    0  501 -0.00000000000E+00  0.00000000000E+00  0.53874534170E+02  0.53874534233E+02  0.26000000000E-02 0.  1.
          2   -1    0    0  501    0  0.00000000000E+00 -0.00000000000E+00 -0.18561876714E+01  0.18561894923E+01  0.26000000000E-02 0. -1.
       1023    2    1    2    0    0  0.00000000000E+00  0.00000000000E+00  0.52018346499E+02  0.55730723725E+02  0.20000129861E+02 0.  0.
        -11    1    3    3    0    0  0.70594061436E+01 -0.70827383148E+01  0.25925521034E+02  0.27787281952E+02  0.51100000000E-03 0.  1.
         11    1    3    3    0    0 -0.70594061436E+01  0.70827383148E+01  0.26092825465E+02  0.27943441774E+02  0.51100000000E-03 0. -1.
<mgrwt>
<rscale>  0 0.20000130E+02</rscale>
<asrwt>0</asrwt>
<pdfrwt beam="2">  1        2 0.28556748E-03 0.20000130E+02</pdfrwt>
<pdfrwt beam="1">  1       -2 0.82883899E-02 0.20000130E+02</pdfrwt>
<totfact> 0.33526116E+06</totfact>
</mgrwt>
</event>
<event>
 5    1  0.4046313E-006  0.2001132E+02  0.7818608E-02  0.1745103E+00
         -2   -1    0    0    0  501 -0.00000000000E+00  0.00000000000E+00  0.17910170419E+02  0.17910170607E+02  0.26000000000E-02 0.  1.
          2   -1    0    0  501    0  0.00000000000E+00 -0.00000000000E+00 -0.55897387395E+01  0.55897393442E+01  0.26000000000E-02 0. -1.
       1023    2    1    2    0    0  0.00000000000E+00  0.00000000000E+00  0.12320431679E+02  0.23499909952E+02  0.20011315074E+02 0.  0.
        -11    1    3    3    0    0  0.67724499586E+01 -0.73638190078E+01  0.59889338542E+01  0.11660155993E+02  0.51100000000E-03 0.  1.
         11    1    3    3    0    0 -0.67724499586E+01  0.73638190078E+01  0.63314978250E+01  0.11839753958E+02  0.51100000000E-03 0. -1.
<mgrwt>
<rscale>  0 0.20011315E+02</rscale>
<asrwt>0</asrwt>
<pdfrwt beam="2">  1        2 0.85995988E-03 0.20011315E+02</pdfrwt>
<pdfrwt beam="1">  1       -2 0.27554108E-02 0.20011315E+02</pdfrwt>
<totfact> 0.37726375E+06</totfact>
</mgrwt>
</event>
<event>
 5    1  0.4151262E-006  0.2000165E+02  0.7818608E-02  0.1745295E+00
         -2   -1    0    0    0  501 -0.00000000000E+00  0.00000000000E+00  0.15489067601E+01  0.15489089423E+01  0.26000000000E-02 0. -1.
          2   -1    0    0  501    0  0.00000000000E+00 -0.00000000000E+00 -0.64572264716E+02  0.64572264768E+02  0.26000000000E-02 0.  1.
       1023    2    1    2    0    0  0.00000000000E+00  0.00000000000E+00 -0.63023357956E+02  0.66121173711E+02  0.20001649053E+02 0.  0.
        -11    1    3    3    0    0  0.99112550094E+01  0.13335631009E+01 -0.31748326628E+02  0.33286147424E+02  0.51100000000E-03 0. -1.
         11    1    3    3    0    0 -0.99112550094E+01 -0.13335631009E+01 -0.31275031328E+02  0.32835026286E+02  0.51100000000E-03 0.  1.
<mgrwt>
<rscale>  0 0.20001649E+02</rscale>
<asrwt>0</asrwt>
<pdfrwt beam="2">  1        2 0.99341926E-02 0.20001649E+02</pdfrwt>
<pdfrwt beam="1">  1       -2 0.23829357E-03 0.20001649E+02</pdfrwt>
<totfact> 0.48298932E+06</totfact>
</mgrwt>
</event>
<event>
 5    1  0.4046313E-006  0.2000666E+02  0.7818608E-02  0.1745196E+00
         -2   -1    0    0    0  501 -0.00000000000E+00  0.00000000000E+00  0.40549718785E+01  0.40549727120E+01  0.26000000000E-02 0.  1.
          2   -1    0    0  501    0  0.00000000000E+00 -0.00000000000E+00 -0.24677499974E+02  0.24677500111E+02  0.26000000000E-02 0. -1.
       1023    2    1    2    0    0  0.00000000000E+00  0.00000000000E+00 -0.20622528095E+02  0.28732472823E+02  0.20006657129E+02 0.  0.
        -11    1    3    3    0    0  0.27867468559E+01  0.96057946319E+01 -0.10065294781E+02  0.14189693719E+02  0.51100000000E-03 0. -1.
         11    1    3    3    0    0 -0.27867468559E+01 -0.96057946319E+01 -0.10557233315E+02  0.14542779104E+02  0.51100000000E-03 0.  1.
<mgrwt>
<rscale>  0 0.20006657E+02</rscale>
<asrwt>0</asrwt>
<pdfrwt beam="2">  1        2 0.37965385E-02 0.20006657E+02</pdfrwt>
<pdfrwt beam="1">  1       -2 0.62384191E-03 0.20006657E+02</pdfrwt>
<totfact> 0.42470370E+06</totfact>
</mgrwt>
</event>
<event>
 5    1  0.4046313E-006  0.2000017E+02  0.7818608E-02  0.1745325E+00
         -2   -1    0    0    0  501 -0.00000000000E+00  0.00000000000E+00  0.20131946659E+01  0.20131963448E+01  0.26000000000E-02 0. -1.
          2   -1    0    0  501    0  0.00000000000E+00 -0.00000000000E+00 -0.49673123373E+02  0.49673123441E+02  0.26000000000E-02 0.  1.
       1023    2    1    2    0    0  0.00000000000E+00  0.00000000000E+00 -0.47659928707E+02  0.51686319786E+02  0.20000171215E+02 0.  0.
        -11    1    3    3    0    0 -0.53698085802E+01 -0.84359648063E+01 -0.23734467878E+02  0.25755102642E+02  0.51100000000E-03 0.  1.
         11    1    3    3    0    0  0.53698085802E+01  0.84359648063E+01 -0.23925460829E+02  0.25931217144E+02  0.51100000000E-03 0. -1.
<mgrwt>
<rscale>  0 0.20000171E+02</rscale>
<asrwt>0</asrwt>
<pdfrwt beam="2">  1        2 0.76420182E-02 0.20000171E+02</pdfrwt>
<pdfrwt beam="1">  1       -2 0.30972243E-03 0.20000171E+02</pdfrwt>
<totfact> 0.46281518E+06</totfact>
</mgrwt>
</event>
<event>
 4    1  0.4046313E-006  0.2001840E+02  0.7818608E-02  0.1744962E+00
         -2   -1    0    0    0  501 -0.00000000000E+00  0.00000000000E+00  0.41002548180E+01  0.41002556423E+01  0.26000000000E-02 0. -1.
          2   -1    0    0  501    0  0.00000000000E+00 -0.00000000000E+00 -0.24433616182E+02  0.24433616321E+02  0.26000000000E-02 0.  1.
        -11    1    1    2    0    0  0.74950902707E+00 -0.99775981362E+01 -0.10543363688E+02  0.14535361931E+02  0.51100000000E-03 0. -1.
         11    1    1    2    0    0 -0.74950902707E+00  0.99775981362E+01 -0.97899976766E+01  0.13998510032E+02  0.51100000000E-03 0.  1.
<mgrwt>
<rscale>  0 0.20018398E+02</rscale>
<asrwt>0</asrwt>
<pdfrwt beam="2">  1        2 0.37590179E-02 0.20018398E+02</pdfrwt>
<pdfrwt beam="1">  1       -2 0.63080852E-03 0.20018398E+02</pdfrwt>
<totfact> 0.42373092E+06</totfact>
</mgrwt>
</event>
<event>
 5    1  0.4046313E-006  0.2000065E+02  0.7818608E-02  0.1745315E+00
          2   -1    0    0  501    0  0.00000000000E+00  0.00000000000E+00  0.28939666749E+02  0.28939666866E+02  0.26000000000E-02 0.  1.
         -2   -1    0    0    0  501 -0.00000000000E+00 -0.00000000000E+00 -0.34556886186E+01  0.34556895967E+01  0.26000000000E-02 0. -1.
       1023    2    1    2    0    0  0.00000000000E+00  0.00000000000E+00  0.25483978131E+02  0.32395356463E+02  0.20000649464E+02 0.  0.
        -11    1    3    3    0    0 -0.63356840507E+01 -0.77372813024E+01  0.12756489146E+02  0.16209084797E+02  0.51100000000E-03 0. -1.
         11    1    3    3    0    0  0.63356840507E+01  0.77372813024E+01  0.12727488984E+02  0.16186271666E+02  0.51100000000E-03 0.  1.
<mgrwt>
<rscale>  0 0.20000649E+02</rscale>
<asrwt>0</asrwt>
<pdfrwt beam="1">  1        2 0.44522566E-02 0.20000649E+02</pdfrwt>
<pdfrwt beam="2">  1       -2 0.53164448E-03 0.20000649E+02</pdfrwt>
<totfact> 0.43200911E+06</totfact>
</mgrwt>
</event>
<event>
 5    1  0.4046313E-006  0.2000038E+02  0.7818608E-02  0.1745320E+00
          2   -1    0    0  501    0  0.00000000000E+00  0.00000000000E+00  0.29620622770E+01  0.29620634181E+01  0.26000000000E-02 0. -1.
         -2   -1    0    0    0  501 -0.00000000000E+00 -0.00000000000E+00 -0.33761550898E+02  0.33761550999E+02  0.26000000000E-02 0.  1.
       1023    2    1    2    0    0  0.00000000000E+00  0.00000000000E+00 -0.30799488621E+02  0.36723614417E+02  0.20000383908E+02 0.  0.
        -11    1    3    3    0    0 -0.84849365891E+01 -0.52922210746E+01 -0.15483606870E+02  0.18432141352E+02  0.51100000000E-03 0. -1.
         11    1    3    3    0    0  0.84849365891E+01  0.52922210746E+01 -0.15315881751E+02  0.18291473065E+02  0.51100000000E-03 0.  1.
<mgrwt>
<rscale>  0 0.20000384E+02</rscale>
<asrwt>0</asrwt>
<pdfrwt beam="1">  1        2 0.45570201E-03 0.20000384E+02</pdfrwt>
<pdfrwt beam="2">  1       -2 0.51940846E-02 0.20000384E+02</pdfrwt>
<totfact> 0.35613827E+06</totfact>
</mgrwt>
</event>
<event>
 5    1  0.4046313E-006  0.2000416E+02  0.7818608E-02  0.1745245E+00
          2   -1    0    0  501    0  0.00000000000E+00  0.00000000000E+00  0.12953401424E+02  0.12953401685E+02  0.26000000000E-02 0.  1.
         -2   -1    0    0    0  501 -0.00000000000E+00 -0.00000000000E+00 -0.77231892748E+01  0.77231897124E+01  0.26000000000E-02 0. -1.
       1023    2    1    2    0    0  0.00000000000E+00  0.00000000000E+00  0.52302121491E+01  0.20676591397E+02  0.20004157385E+02 0.  0.
        -11    1    3    3    0    0  0.81254689567E+01 -0.58297360784E+01  0.24287415867E+01  0.10291154185E+02  0.51100000000E-03 0. -1.
         11    1    3    3    0    0 -0.81254689567E+01  0.58297360784E+01  0.28014705624E+01  0.10385437212E+02  0.51100000000E-03 0.  1.
<mgrwt>
<rscale>  0 0.20004157E+02</rscale>
<asrwt>0</asrwt>
<pdfrwt beam="1">  1        2 0.19928310E-02 0.20004157E+02</pdfrwt>
<pdfrwt beam="2">  1       -2 0.11881830E-02 0.20004157E+02</pdfrwt>
<totfact> 0.40211094E+06</totfact>
</mgrwt>
</event>
<event>
 5    1  0.4046313E-006  0.2000019E+02  0.7818608E-02  0.1745324E+00
          2   -1    0    0  501    0  0.00000000000E+00  0.00000000000E+00  0.59305768812E+01  0.59305774512E+01  0.26000000000E-02 0.  1.
         -2   -1    0    0    0  501 -0.00000000000E+00 -0.00000000000E+00 -0.16862093147E+02  0.16862093348E+02  0.26000000000E-02 0. -1.
       1023    2    1    2    0    0  0.00000000000E+00  0.00000000000E+00 -0.10931516266E+02  0.22792670799E+02  0.20000194856E+02 0.  0.
        -11    1    3    3    0    0  0.89291357565E+01  0.45023373428E+01 -0.54224914656E+01  0.11375584418E+02  0.51100000000E-03 0. -1.
         11    1    3    3    0    0 -0.89291357565E+01 -0.45023373428E+01 -0.55090248005E+01  0.11417086380E+02  0.51100000000E-03 0.  1.
<mgrwt>
<rscale>  0 0.20000195E+02</rscale>
<asrwt>0</asrwt>
<pdfrwt beam="1">  1        2 0.91239650E-03 0.20000195E+02</pdfrwt>
<pdfrwt beam="2">  1       -2 0.25941682E-02 0.20000195E+02</pdfrwt>
<totfact> 0.37952607E+06</totfact>
</mgrwt>
</event>
<event>
 5    1  0.4046313E-006  0.2000064E+02  0.7818608E-02  0.1745315E+00
         -2   -1    0    0    0  501 -0.00000000000E+00  0.00000000000E+00  0.14315189699E+02  0.14315189936E+02  0.26000000000E-02 0. -1.
          2   -1    0    0  501    0  0.00000000000E+00 -0.00000000000E+00 -0.69860362080E+01  0.69860366918E+01  0.26000000000E-02 0.  1.
       1023    2    1    2    0    0  0.00000000000E+00  0.00000000000E+00  0.73291534914E+01  0.21301226627E+02  0.20000644113E+02 0.  0.
        -11    1    3    3    0    0 -0.49254015521E+01  0.87031723970E+01  0.36213053147E+01  0.10635724830E+02  0.51100000000E-03 0.  1.
         11    1    3    3    0    0  0.49254015521E+01 -0.87031723970E+01  0.37078481767E+01  0.10665501797E+02  0.51100000000E-03 0. -1.
<mgrwt>
<rscale>  0 0.20000644E+02</rscale>
<asrwt>0</asrwt>
<pdfrwt beam="2">  1        2 0.10747749E-02 0.20000644E+02</pdfrwt>
<pdfrwt beam="1">  1       -2 0.22023369E-02 0.20000644E+02</pdfrwt>
<totfact> 0.38430568E+06</totfact>
</mgrwt>
</event>
<event>
 5    1  0.4046313E-006  0.2000025E+02  0.7818608E-02  0.1745323E+00
         -2   -1    0    0    0  501 -0.00000000000E+00  0.00000000000E+00  0.21471873989E+02  0.21471874147E+02  0.26000000000E-02 0. -1.
          2   -1    0    0  501    0  0.00000000000E+00 -0.00000000000E+00 -0.46573713428E+01  0.46573720685E+01  0.26000000000E-02 0.  1.
       1023    2    1    2    0    0  0.00000000000E+00  0.00000000000E+00  0.16814502646E+02  0.26129246215E+02  0.20000250212E+02 0.  0.
        -11    1    3    3    0    0  0.81937595369E+01 -0.57325970360E+01  0.84676558196E+01  0.13103494170E+02  0.51100000000E-03 0.  1.
         11    1    3    3    0    0 -0.81937595369E+01  0.57325970360E+01  0.83468468269E+01  0.13025752045E+02  0.51100000000E-03 0. -1.
<mgrwt>
<rscale>  0 0.20000250E+02</rscale>
<asrwt>0</asrwt>
<pdfrwt beam="2">  1        2 0.71651875E-03 0.20000250E+02</pdfrwt>
<pdfrwt beam="1">  1       -2 0.33033653E-02 0.20000250E+02</pdfrwt>
<totfact> 0.37208578E+06</totfact>
</mgrwt>
</event>
<event>
 5    1  0.4046313E-006  0.2000039E+02  0.7818608E-02  0.1745320E+00
         -2   -1    0    0    0  501 -0.00000000000E+00  0.00000000000E+00  0.14040687568E+01  0.14040711641E+01  0.26000000000E-02 0. -1.
          2   -1    0    0  501    0  0.00000000000E+00 -0.00000000000E+00 -0.71224289991E+02  0.71224290038E+02  0.26000000000E-02 0.  1.
       1023    2    1    2    0    0  0.00000000000E+00  0.00000000000E+00 -0.69820221234E+02  0.72628361202E+02  0.20000388940E+02 0.  0.
        -11    1    3    3    0    0 -0.89262592927E+01  0.45083415461E+01 -0.34818192062E+02  0.36225816032E+02  0.51100000000E-03 0.  1.
         11    1    3    3    0    0  0.89262592927E+01 -0.45083415461E+01 -0.35002029172E+02  0.36402545170E+02  0.51100000000E-03 0. -1.
<mgrwt>
<rscale>  0 0.20000389E+02</rscale>
<asrwt>0</asrwt>
<pdfrwt beam="2">  1        2 0.10957580E-01 0.20000389E+02</pdfrwt>
<pdfrwt beam="1">  1       -2 0.21601082E-03 0.20000389E+02</pdfrwt>
<totfact> 0.49176588E+06</totfact>
</mgrwt>
</event>
<event>
 5    1  0.4291318E-006  0.2000240E+02  0.7818608E-02  0.1745280E+00
         -2   -1    0    0    0  501 -0.00000000000E+00  0.00000000000E+00  0.10928736740E+01  0.10928767668E+01  0.26000000000E-02 0. -1.
          2   -1    0    0  501    0  0.00000000000E+00 -0.00000000000E+00 -0.91523757368E+02  0.91523757405E+02  0.26000000000E-02 0.  1.
       1023    2    1    2    0    0  0.00000000000E+00  0.00000000000E+00 -0.90430883694E+02  0.92616634171E+02  0.20002404846E+02 0.  0.
        -11    1    3    3    0    0  0.93232723618E+01 -0.36185740532E+01 -0.45590577941E+02  0.46674599976E+02  0.51100000000E-03 0. -1.
         11    1    3    3    0    0 -0.93232723618E+01  0.36185740532E+01 -0.44840305753E+02  0.45942034195E+02  0.51100000000E-03 0.  1.
<mgrwt>
<rscale>  0 0.20002405E+02</rscale>
<asrwt>0</asrwt>
<pdfrwt beam="2">  1        2 0.14080572E-01 0.20002405E+02</pdfrwt>
<pdfrwt beam="1">  1       -2 0.16813472E-03 0.20002405E+02</pdfrwt>
<totfact> 0.51717915E+06</totfact>
</mgrwt>
</event>
<event>
 5    1  0.4046313E-006  0.2000171E+02  0.7818608E-02  0.1745294E+00
          2   -1    0    0  501    0  0.00000000000E+00  0.00000000000E+00  0.21204285241E+01  0.21204301181E+01  0.26000000000E-02 0.  1.
         -2   -1    0    0    0  501 -0.00000000000E+00 -0.00000000000E+00 -0.47168302992E+02  0.47168303064E+02  0.26000000000E-02 0. -1.
       1023    2    1    2    0    0  0.00000000000E+00  0.00000000000E+00 -0.45047874468E+02  0.49288733182E+02  0.20001705542E+02 0.  0.
        -11    1    3    3    0    0  0.96658982602E+01  0.25646375911E+01 -0.22771597951E+02  0.24870718298E+02  0.51100000000E-03 0. -1.
         11    1    3    3    0    0 -0.96658982602E+01 -0.25646375911E+01 -0.22276276517E+02  0.24418014884E+02  0.51100000000E-03 0.  1.
<mgrwt>
<rscale>  0 0.20001706E+02</rscale>
<asrwt>0</asrwt>
<pdfrwt beam="1">  1        2 0.32621994E-03 0.20001706E+02</pdfrwt>
<pdfrwt beam="2">  1       -2 0.72566614E-02 0.20001706E+02</pdfrwt>
<totfact> 0.34171968E+06</totfact>
</mgrwt>
</event>
<event>
 5    1  0.4046313E-006  0.2000080E+02  0.7818608E-02  0.1745312E+00
          2   -1    0    0  501    0  0.00000000000E+00  0.00000000000E+00  0.52262391163E+01  0.52262397631E+01  0.26000000000E-02 0. -1.
         -2   -1    0    0    0  501 -0.00000000000E+00 -0.00000000000E+00 -0.19135748970E+02  0.19135749147E+02  0.26000000000E-02 0.  1.
       1023    2    1    2    0    0  0.00000000000E+00  0.00000000000E+00 -0.13909509854E+02  0.24361988910E+02  0.20000800966E+02 0.  0.
        -11    1    3    3    0    0 -0.95140886694E+00  0.99550320071E+01 -0.69705644401E+01  0.12190020917E+02  0.51100000000E-03 0. -1.
         11    1    3    3    0    0  0.95140886694E+00 -0.99550320071E+01 -0.69389454139E+01  0.12171967993E+02  0.51100000000E-03 0.  1.
<mgrwt>
<rscale>  0 0.20000801E+02</rscale>
<asrwt>0</asrwt>
<pdfrwt beam="1">  1        2 0.80403686E-03 0.20000801E+02</pdfrwt>
<pdfrwt beam="2">  1       -2 0.29439614E-02 0.20000801E+02</pdfrwt>
<totfact> 0.37567610E+06</totfact>
</mgrwt>
</event>
<event>
 5    1  0.4046313E-006  0.2000259E+02  0.7818608E-02  0.1745277E+00
         -2   -1    0    0    0  501 -0.00000000000E+00  0.00000000000E+00  0.14796403732E+02  0.14796403960E+02  0.26000000000E-02 0.  1.
          2   -1    0    0  501    0  0.00000000000E+00 -0.00000000000E+00 -0.67601460276E+01  0.67601465276E+01  0.26000000000E-02 0. -1.
       1023    2    1    2    0    0  0.00000000000E+00  0.00000000000E+00  0.80362577041E+01  0.21556550488E+02  0.20002585609E+02 0.  0.
        -11    1    3    3    0    0 -0.72889084763E+01 -0.68465374317E+01  0.41801262864E+01  0.10838667705E+02  0.51100000000E-03 0.  1.
         11    1    3    3    0    0  0.72889084763E+01  0.68465374317E+01  0.38561314177E+01  0.10717882783E+02  0.51100000000E-03 0. -1.
<mgrwt>
<rscale>  0 0.20002586E+02</rscale>
<asrwt>0</asrwt>
<pdfrwt beam="2">  1        2 0.10400225E-02 0.20002586E+02</pdfrwt>
<pdfrwt beam="1">  1       -2 0.22763698E-02 0.20002586E+02</pdfrwt>
<totfact> 0.38326687E+06</totfact>
</mgrwt>
</event>
<event>
 4    1  0.4046313E-006  0.2003295E+02  0.7818608E-02  0.1744674E+00
         -2   -1    0    0    0  501 -0.00000000000E+00  0.00000000000E+00  0.16005255654E+01  0.16005276772E+01  0.26000000000E-02 0. -1.
          2   -1    0    0  501    0  0.00000000000E+00 -0.00000000000E+00 -0.62685503987E+02  0.62685504041E+02  0.26000000000E-02 0.  1.
        -11    1    1    2    0    0  0.25974649941E+00 -0.10009057802E+02 -0.31456437176E+02  0.33011454775E+02  0.51100000000E-03 0.  1.
         11    1    1    2    0    0 -0.25974649941E+00  0.10009057802E+02 -0.29628541246E+02  0.31274576943E+02  0.51100000000E-03 0. -1.
<mgrwt>
<rscale>  0 0.20032955E+02</rscale>
<asrwt>0</asrwt>
<pdfrwt beam="2">  1        2 0.96439220E-02 0.20032955E+02</pdfrwt>
<pdfrwt beam="1">  1       -2 0.24623492E-03 0.20032955E+02</pdfrwt>
<totfact> 0.47881806E+06</totfact>
</mgrwt>
</event>
<event>
 5    1  0.4046313E-006  0.2000134E+02  0.7818608E-02  0.1745301E+00
         -2   -1    0    0    0  501 -0.00000000000E+00  0.00000000000E+00  0.92201814525E+01  0.92201818191E+01  0.26000000000E-02 0. -1.
          2   -1    0    0  501    0  0.00000000000E+00 -0.00000000000E+00 -0.10847230781E+02  0.10847231092E+02  0.26000000000E-02 0.  1.
       1023    2    1    2    0    0  0.00000000000E+00  0.00000000000E+00 -0.16270493284E+01  0.20067412912E+02  0.20001344241E+02 0.  0.
        -11    1    3    3    0    0  0.47394124106E+01  0.88057889884E+01 -0.71577134166E+00  0.10025780697E+02  0.51100000000E-03 0.  1.
         11    1    3    3    0    0 -0.47394124106E+01 -0.88057889884E+01 -0.91127798670E+00  0.10041632215E+02  0.51100000000E-03 0. -1.
<mgrwt>
<rscale>  0 0.20001344E+02</rscale>
<asrwt>0</asrwt>
<pdfrwt beam="2">  1        2 0.16688048E-02 0.20001344E+02</pdfrwt>
<pdfrwt beam="1">  1       -2 0.14184895E-02 0.20001344E+02</pdfrwt>
<totfact> 0.39693717E+06</totfact>
</mgrwt>
</event>
<event>
 5    1  0.4046313E-006  0.2000014E+02  0.7818608E-02  0.1745325E+00
          2   -1    0    0  501    0  0.00000000000E+00  0.00000000000E+00  0.63950208604E+02  0.63950208657E+02  0.26000000000E-02 0.  1.
         -2   -1    0    0    0  501 -0.00000000000E+00 -0.00000000000E+00 -0.15637366051E+01  0.15637387666E+01  0.26000000000E-02 0. -1.
       1023    2    1    2    0    0  0.00000000000E+00  0.00000000000E+00  0.62386471999E+02  0.65513947424E+02  0.20000135463E+02 0.  0.
        -11    1    3    3    0    0  0.96811051827E+01  0.25054927769E+01  0.31167285787E+02  0.32732262299E+02  0.51100000000E-03 0. -1.
         11    1    3    3    0    0 -0.96811051827E+01 -0.25054927769E+01  0.31219186212E+02  0.32781685124E+02  0.51100000000E-03 0.  1.
<mgrwt>
<rscale>  0 0.20000135E+02</rscale>
<asrwt>0</asrwt>
<pdfrwt beam="1">  1        2 0.98384952E-02 0.20000135E+02</pdfrwt>
<pdfrwt beam="2">  1       -2 0.24057500E-03 0.20000135E+02</pdfrwt>
<totfact> 0.48224621E+06</totfact>
</mgrwt>
</event>
<event>
 5    1  0.4046313E-006  0.2000073E+02  0.7818608E-02  0.1745314E+00
          2   -1    0    0  501    0  0.00000000000E+00  0.00000000000E+00  0.11971386180E+02  0.11971386463E+02  0.26000000000E-02 0.  1.
         -2   -1    0    0    0  501 -0.00000000000E+00 -0.00000000000E+00 -0.83538614726E+01  0.83538618772E+01  0.26000000000E-02 0. -1.
       1023    2    1    2    0    0  0.00000000000E+00  0.00000000000E+00  0.36175247077E+01  0.20325248340E+02  0.20000730863E+02 0.  0.
        -11    1    3    3    0    0 -0.68265631775E+01 -0.73078958256E+01  0.18103002882E+01  0.10162897894E+02  0.51100000000E-03 0.  1.
         11    1    3    3    0    0  0.68265631775E+01  0.73078958256E+01  0.18072244196E+01  0.10162350446E+02  0.51100000000E-03 0. -1.
<mgrwt>
<rscale>  0 0.20000731E+02</rscale>
<asrwt>0</asrwt>
<pdfrwt beam="1">  1        2 0.18417518E-02 0.20000731E+02</pdfrwt>
<pdfrwt beam="2">  1       -2 0.12852095E-02 0.20000731E+02</pdfrwt>
<totfact> 0.39988257E+06</totfact>
</mgrwt>
</event>
<event>
 5    1  0.4046313E-006  0.2000020E+02  0.7818608E-02  0.1745324E+00
          2   -1    0    0  501    0  0.00000000000E+00  0.00000000000E+00  0.17921849909E+02  0.17921850098E+02  0.26000000000E-02 0. -1.
         -2   -1    0    0    0  501 -0.00000000000E+00 -0.00000000000E+00 -0.55798924711E+01  0.55798930768E+01  0.26000000000E-02 0.  1.
       1023    2    1    2    0    0  0.00000000000E+00  0.00000000000E+00  0.12341957438E+02  0.23501743175E+02  0.20000200470E+02 0.  0.
        -11    1    3    3    0    0  0.51141247508E+01  0.85934199473E+01  0.62055605369E+01  0.11769032254E+02  0.51100000000E-03 0. -1.
         11    1    3    3    0    0 -0.51141247508E+01 -0.85934199473E+01  0.61363969014E+01  0.11732710921E+02  0.51100000000E-03 0.  1.
<mgrwt>
<rscale>  0 0.20000200E+02</rscale>
<asrwt>0</asrwt>
<pdfrwt beam="1">  1        2 0.27572077E-02 0.20000200E+02</pdfrwt>
<pdfrwt beam="2">  1       -2 0.85844507E-03 0.20000200E+02</pdfrwt>
<totfact> 0.41283961E+06</totfact>
</mgrwt>
</event>
<event>
 4    1  0.4046313E-006  0.2001279E+02  0.7818608E-02  0.1745074E+00
          2   -1    0    0  501    0  0.00000000000E+00  0.00000000000E+00  0.29302696929E+01  0.29302708463E+01  0.26000000000E-02 0. -1.
         -2   -1    0    0    0  501 -0.00000000000E+00 -0.00000000000E+00 -0.34170193078E+02  0.34170193177E+02  0.26000000000E-02 0.  1.
        -11    1    1    2    0    0  0.49410512647E+01  0.87002337478E+01 -0.15358779137E+02  0.18330306918E+02  0.51100000000E-03 0.  1.
         11    1    1    2    0    0 -0.49410512647E+01 -0.87002337478E+01 -0.15881144248E+02  0.18770157106E+02  0.51100000000E-03 0. -1.
<mgrwt>
<rscale>  0 0.20012786E+02</rscale>
<asrwt>0</asrwt>
<pdfrwt beam="1">  1        2 0.45081084E-03 0.20012786E+02</pdfrwt>
<pdfrwt beam="2">  1       -2 0.52569526E-02 0.20012786E+02</pdfrwt>
<totfact> 0.35518494E+06</totfact>
</mgrwt>
</event>
<event>
 5    1  0.4046313E-006  0.2000470E+02  0.7818608E-02  0.1745235E+00
         -2   -1    0    0    0  501 -0.00000000000E+00  0.00000000000E+00  0.13201340945E+01  0.13201366548E+01  0.26000000000E-02 0.  1.
          2   -1    0    0  501    0  0.00000000000E+00 -0.00000000000E+00 -0.75785402160E+02  0.75785402205E+02  0.26000000000E-02 0. -1.
       1023    2    1    2    0    0  0.00000000000E+00  0.00000000000E+00 -0.74465268066E+02  0.77105538860E+02  0.20004698816E+02 0.  0.
        -11    1    3    3    0    0 -0.10464809798E+01 -0.99455663534E+01 -0.37979834438E+02  0.39274383976E+02  0.51100000000E-03 0. -1.
         11    1    3    3    0    0  0.10464809798E+01  0.99455663534E+01 -0.36485433628E+02  0.37831154883E+02  0.51100000000E-03 0.  1.
<mgrwt>
<rscale>  0 0.20004699E+02</rscale>
<asrwt>0</asrwt>
<pdfrwt beam="2">  1        2 0.11659289E-01 0.20004699E+02</pdfrwt>
<pdfrwt beam="1">  1       -2 0.20309781E-03 0.20004699E+02</pdfrwt>
<totfact> 0.49739060E+06</totfact>
</mgrwt>
</event>
<event>
 5    1  0.4046313E-006  0.2000014E+02  0.7818608E-02  0.1745325E+00
          2   -1    0    0  501    0  0.00000000000E+00  0.00000000000E+00  0.15052857935E+02  0.15052858160E+02  0.26000000000E-02 0.  1.
         -2   -1    0    0    0  501 -0.00000000000E+00 -0.00000000000E+00 -0.66433524869E+01  0.66433529957E+01  0.26000000000E-02 0. -1.
       1023    2    1    2    0    0  0.00000000000E+00  0.00000000000E+00  0.84095054481E+01  0.21696211155E+02  0.20000144915E+02 0.  0.
        -11    1    3    3    0    0  0.59110723362E+01 -0.80659838134E+01  0.42308297370E+01  0.10858213093E+02  0.51100000000E-03 0.  1.
         11    1    3    3    0    0 -0.59110723362E+01  0.80659838134E+01  0.41786757111E+01  0.10837998062E+02  0.51100000000E-03 0. -1.
<mgrwt>
<rscale>  0 0.20000145E+02</rscale>
<asrwt>0</asrwt>
<pdfrwt beam="1">  1        2 0.23158243E-02 0.20000145E+02</pdfrwt>
<pdfrwt beam="2">  1       -2 0.10220543E-02 0.20000145E+02</pdfrwt>
<totfact> 0.40700238E+06</totfact>
</mgrwt>
</event>
<event>
 5    1  0.4046313E-006  0.2000376E+02  0.7818608E-02  0.1745253E+00
          2   -1    0    0  501    0  0.00000000000E+00  0.00000000000E+00  0.11406976166E+03  0.11406976169E+03  0.26000000000E-02 0.  1.
         -2   -1    0    0    0  501 -0.00000000000E+00 -0.00000000000E+00 -0.87698457173E+00  0.87698842584E+00  0.26000000000E-02 0. -1.
       1023    2    1    2    0    0  0.00000000000E+00  0.00000000000E+00  0.11319277709E+03  0.11494675011E+03  0.20003764074E+02 0.  0.
        -11    1    3    3    0    0 -0.61618853780E+01  0.78783332287E+01  0.56446748337E+02  0.57326018211E+02  0.51100000000E-03 0.  1.
         11    1    3    3    0    0  0.61618853780E+01 -0.78783332287E+01  0.56746028750E+02  0.57620731903E+02  0.51100000000E-03 0. -1.
<mgrwt>
<rscale>  0 0.20003764E+02</rscale>
<asrwt>0</asrwt>
<pdfrwt beam="1">  1        2 0.17549202E-01 0.20003764E+02</pdfrwt>
<pdfrwt beam="2">  1       -2 0.13492094E-03 0.20003764E+02</pdfrwt>
<totfact> 0.54389460E+06</totfact>
</mgrwt>
</event>
<event>
 5    1  0.4046313E-006  0.2000093E+02  0.7818608E-02  0.1745310E+00
         -2   -1    0    0    0  501 -0.00000000000E+00  0.00000000000E+00  0.13204337619E+02  0.13204337875E+02  0.26000000000E-02 0. -1.
          2   -1    0    0  501    0  0.00000000000E+00 -0.00000000000E+00 -0.75739710250E+01  0.75739714712E+01  0.26000000000E-02 0.  1.
       1023    2    1    2    0    0  0.00000000000E+00  0.00000000000E+00  0.56303665938E+01  0.20778309346E+02  0.20000927761E+02 0.  0.
        -11    1    3    3    0    0 -0.95503108155E+01  0.29665793585E+01  0.28315368092E+01  0.10393586038E+02  0.51100000000E-03 0.  1.
         11    1    3    3    0    0  0.95503108155E+01 -0.29665793585E+01  0.27988297846E+01  0.10384723308E+02  0.51100000000E-03 0. -1.
<mgrwt>
<rscale>  0 0.20000928E+02</rscale>
<asrwt>0</asrwt>
<pdfrwt beam="2">  1        2 0.11652264E-02 0.20000928E+02</pdfrwt>
<pdfrwt beam="1">  1       -2 0.20314366E-02 0.20000928E+02</pdfrwt>
<totfact> 0.38662126E+06</totfact>
</mgrwt>
</event>
<event>
 5    1  0.4046313E-006  0.2000084E+02  0.7818608E-02  0.1745311E+00
         -2   -1    0    0    0  501 -0.00000000000E+00  0.00000000000E+00  0.36123417172E+01  0.36123426529E+01  0.26000000000E-02 0. -1.
          2   -1    0    0  501    0  0.00000000000E+00 -0.00000000000E+00 -0.27685189335E+02  0.27685189457E+02  0.26000000000E-02 0.  1.
       1023    2    1    2    0    0  0.00000000000E+00  0.00000000000E+00 -0.24072847618E+02  0.31297532110E+02  0.20000838076E+02 0.  0.
        -11    1    3    3    0    0  0.99026365971E+01 -0.13950374953E+01 -0.12046257063E+02  0.15656329413E+02  0.51100000000E-03 0.  1.
         11    1    3    3    0    0 -0.99026365971E+01  0.13950374953E+01 -0.12026590555E+02  0.15641202697E+02  0.51100000000E-03 0. -1.
<mgrwt>
<rscale>  0 0.20000838E+02</rscale>
<asrwt>0</asrwt>
<pdfrwt beam="2">  1        2 0.42592598E-02 0.20000838E+02</pdfrwt>
<pdfrwt beam="1">  1       -2 0.55574498E-03 0.20000838E+02</pdfrwt>
<totfact> 0.42997361E+06</totfact>
</mgrwt>
</event>
<event>
 5    1  0.4046313E-006  0.2000076E+02  0.7818608E-02  0.1745313E+00
          2   -1    0    0  501    0  0.00000000000E+00  0.00000000000E+00  0.55986418918E+02  0.55986418978E+02  0.26000000000E-02 0. -1.
         -2   -1    0    0    0  501 -0.00000000000E+00 -0.00000000000E+00 -0.17862814796E+01  0.17862833718E+01  0.26000000000E-02 0.  1.
       1023    2    1    2    0    0  0.00000000000E+00  0.00000000000E+00  0.54200137438E+02  0.57772702350E+02  0.20000755948E+02 0.  0.
        -11    1    3    3    0    0 -0.11905877006E+01  0.99291757894E+01  0.27212996150E+02  0.28992295367E+02  0.51100000000E-03 0. -1.
         11    1    3    3    0    0  0.11905877006E+01 -0.99291757894E+01  0.26987141289E+02  0.28780406983E+02  0.51100000000E-03 0.  1.
<mgrwt>
<rscale>  0 0.20000756E+02</rscale>
<asrwt>0</asrwt>
<pdfrwt beam="1">  1        2 0.86132943E-02 0.20000756E+02</pdfrwt>
<pdfrwt beam="2">  1       -2 0.27481272E-03 0.20000756E+02</pdfrwt>
<totfact> 0.47150263E+06</totfact>
</mgrwt>
</event>
<event>
 4    1  0.4046313E-006  0.2078375E+02  0.7818608E-02  0.1730177E+00
          2   -1    0    0  501    0  0.00000000000E+00  0.00000000000E+00  0.56594264965E+01  0.56594270937E+01  0.26000000000E-02 0.  1.
         -2   -1    0    0    0  501 -0.00000000000E+00 -0.00000000000E+00 -0.19081622325E+02  0.19081622502E+02  0.26000000000E-02 0. -1.
        -11    1    1    2    0    0  0.10074449614E+02 -0.23714385763E+01 -0.78232129444E+01  0.12973855132E+02  0.51100000000E-03 0. -1.
         11    1    1    2    0    0 -0.10074449614E+02  0.23714385763E+01 -0.55989828843E+01  0.11767194464E+02  0.51100000000E-03 0.  1.
<mgrwt>
<rscale>  0 0.20783748E+02</rscale>
<asrwt>0</asrwt>
<pdfrwt beam="1">  1        2 0.87068107E-03 0.20783748E+02</pdfrwt>
<pdfrwt beam="2">  1       -2 0.29356342E-02 0.20783748E+02</pdfrwt>
<totfact> 0.34563116E+06</totfact>
</mgrwt>
</event>
<event>
 5    1  0.4121845E-006  0.2000326E+02  0.7818608E-02  0.1745263E+00
         -2   -1    0    0    0  501 -0.00000000000E+00  0.00000000000E+00  0.94939102791E+00  0.94939458809E+00  0.26000000000E-02 0. -1.
          2   -1    0    0  501    0  0.00000000000E+00 -0.00000000000E+00 -0.10536483317E+03  0.10536483320E+03  0.26000000000E-02 0.  1.
       1023    2    1    2    0    0  0.00000000000E+00  0.00000000000E+00 -0.10441544214E+03  0.10631422779E+03  0.20003261556E+02 0.  0.
        -11    1    3    3    0    0  0.48527043375E+01  0.87454739542E+01 -0.52333929078E+02  0.53281067810E+02  0.51100000000E-03 0. -1.
         11    1    3    3    0    0 -0.48527043375E+01 -0.87454739542E+01 -0.52081513061E+02  0.53033159976E+02  0.51100000000E-03 0.  1.
<mgrwt>
<rscale>  0 0.20003262E+02</rscale>
<asrwt>0</asrwt>
<pdfrwt beam="2">  1        2 0.16209965E-01 0.20003262E+02</pdfrwt>
<pdfrwt beam="1">  1       -2 0.14606052E-03 0.20003262E+02</pdfrwt>
<totfact> 0.53376580E+06</totfact>
</mgrwt>
</event>
<event>
 5    1  0.4046313E-006  0.2000350E+02  0.7818608E-02  0.1745259E+00
         -2   -1    0    0    0  501 -0.00000000000E+00  0.00000000000E+00  0.12007231749E+01  0.12007259899E+01  0.26000000000E-02 0. -1.
          2   -1    0    0  501    0  0.00000000000E+00 -0.00000000000E+00 -0.83312163088E+02  0.83312163129E+02  0.26000000000E-02 0.  1.
       1023    2    1    2    0    0  0.00000000000E+00  0.00000000000E+00 -0.82111439913E+02  0.84512889119E+02  0.20003496258E+02 0.  0.
        -11    1    3    3    0    0  0.55927077120E+01  0.82918454193E+01 -0.41239168820E+02  0.42434680689E+02  0.51100000000E-03 0.  1.
         11    1    3    3    0    0 -0.55927077120E+01 -0.82918454193E+01 -0.40872271093E+02  0.42078208429E+02  0.51100000000E-03 0. -1.
<mgrwt>
<rscale>  0 0.20003496E+02</rscale>
<asrwt>0</asrwt>
<pdfrwt beam="2">  1        2 0.12817252E-01 0.20003496E+02</pdfrwt>
<pdfrwt beam="1">  1       -2 0.18472693E-03 0.20003496E+02</pdfrwt>
<totfact> 0.50695652E+06</totfact>
</mgrwt>
</event>
<event>
 4    1  0.4046313E-006  0.2003299E+02  0.7818608E-02  0.1744673E+00
          2   -1    0    0  501    0  0.00000000000E+00  0.00000000000E+00  0.43844461795E+02  0.43844461872E+02  0.26000000000E-02 0.  1.
         -2   -1    0    0    0  501 -0.00000000000E+00 -0.00000000000E+00 -0.22883196453E+01  0.22883211224E+01  0.26000000000E-02 0. -1.
        -11    1    1    2    0    0  0.42475284783E+01 -0.90663277217E+01  0.20085753098E+02  0.22442755497E+02  0.51100000000E-03 0. -1.
         11    1    1    2    0    0 -0.42475284783E+01  0.90663277217E+01  0.21470389051E+02  0.23690027497E+02  0.51100000000E-03 0.  1.
<mgrwt>
<rscale>  0 0.20032991E+02</rscale>
<asrwt>0</asrwt>
<pdfrwt beam="1">  1        2 0.67453014E-02 0.20032991E+02</pdfrwt>
<pdfrwt beam="2">  1       -2 0.35204932E-03 0.20032991E+02</pdfrwt>
<totfact> 0.45288649E+06</totfact>
</mgrwt>
</event>
<event>
 4    1  0.4046313E-006  0.2003574E+02  0.7818608E-02  0.1744618E+00
         -2   -1    0    0    0  501 -0.00000000000E+00  0.00000000000E+00  0.44198458057E+01  0.44198465705E+01  0.26000000000E-02 0. -1.
          2   -1    0    0  501    0  0.00000000000E+00 -0.00000000000E+00 -0.22706153229E+02  0.22706153378E+02  0.26000000000E-02 0.  1.
        -11    1    1    2    0    0 -0.18568711912E+01  0.98272123821E+01 -0.83587969604E+01  0.13034245690E+02  0.51100000000E-03 0.  1.
         11    1    1    2    0    0  0.18568711912E+01 -0.98272123821E+01 -0.99275104629E+01  0.14091754258E+02  0.51100000000E-03 0. -1.
<mgrwt>
<rscale>  0 0.20035739E+02</rscale>
<asrwt>0</asrwt>
<pdfrwt beam="2">  1        2 0.34932543E-02 0.20035739E+02</pdfrwt>
<pdfrwt beam="1">  1       -2 0.67997636E-03 0.20035739E+02</pdfrwt>
<totfact> 0.41994050E+06</totfact>
</mgrwt>
</event>
<event>
 5    1  0.4046313E-006  0.2000069E+02  0.7818608E-02  0.1745314E+00
          2   -1    0    0  501    0  0.00000000000E+00  0.00000000000E+00  0.35501671876E+02  0.35501671971E+02  0.26000000000E-02 0.  1.
         -2   -1    0    0    0  501 -0.00000000000E+00 -0.00000000000E+00 -0.28169629014E+01  0.28169641012E+01  0.26000000000E-02 0. -1.
       1023    2    1    2    0    0  0.00000000000E+00  0.00000000000E+00  0.32684708974E+02  0.38318636072E+02  0.20000691730E+02 0.  0.
        -11    1    3    3    0    0  0.99255936658E+01 -0.12203713747E+01  0.16369533562E+02  0.19182501016E+02  0.51100000000E-03 0.  1.
         11    1    3    3    0    0 -0.99255936658E+01  0.12203713747E+01  0.16315175412E+02  0.19136135056E+02  0.51100000000E-03 0. -1.
<mgrwt>
<rscale>  0 0.20000692E+02</rscale>
<asrwt>0</asrwt>
<pdfrwt beam="1">  1        2 0.54617960E-02 0.20000692E+02</pdfrwt>
<pdfrwt beam="2">  1       -2 0.43337899E-03 0.20000692E+02</pdfrwt>
<totfact> 0.44221807E+06</totfact>
</mgrwt>
</event>
<event>
 5    1  0.4046313E-006  0.2000120E+02  0.7818608E-02  0.1745304E+00
          2   -1    0    0  501    0  0.00000000000E+00  0.00000000000E+00  0.33657898028E+02  0.33657898128E+02  0.26000000000E-02 0. -1.
         -2   -1    0    0    0  501 -0.00000000000E+00 -0.00000000000E+00 -0.29714269329E+01  0.29714280704E+01  0.26000000000E-02 0.  1.
       1023    2    1    2    0    0  0.00000000000E+00  0.00000000000E+00  0.30686471095E+02  0.36629326199E+02  0.20001200702E+02 0.  0.
        -11    1    3    3    0    0  0.66071931712E+01  0.75066185106E+01  0.15182701179E+02  0.18180174323E+02  0.51100000000E-03 0. -1.
         11    1    3    3    0    0 -0.66071931712E+01 -0.75066185106E+01  0.15503769916E+02  0.18449151875E+02  0.51100000000E-03 0.  1.
<mgrwt>
<rscale>  0 0.20001201E+02</rscale>
<asrwt>0</asrwt>
<pdfrwt beam="1">  1        2 0.51781379E-02 0.20001201E+02</pdfrwt>
<pdfrwt beam="2">  1       -2 0.45714273E-03 0.20001201E+02</pdfrwt>
<totfact> 0.43938073E+06</totfact>
</mgrwt>
</event>
<event>
 5    1  0.4163031E-006  0.2000565E+02  0.7818608E-02  0.1745216E+00
          2   -1    0    0  501    0  0.00000000000E+00  0.00000000000E+00  0.21843001466E+02  0.21843001621E+02  0.26000000000E-02 0. -1.
         -2   -1    0    0    0  501 -0.00000000000E+00 -0.00000000000E+00 -0.45807100228E+01  0.45807107607E+01  0.26000000000E-02 0.  1.
       1023    2    1    2    0    0  0.00000000000E+00  0.00000000000E+00  0.17262291443E+02  0.26423712382E+02  0.20005645957E+02 0.  0.
        -11    1    3    3    0    0 -0.99996262764E+01 -0.25238270058E+00  0.86104894388E+01  0.13198361691E+02  0.51100000000E-03 0. -1.
         11    1    3    3    0    0  0.99996262764E+01  0.25238270058E+00  0.86518020045E+01  0.13225350690E+02  0.51100000000E-03 0.  1.
<mgrwt>
<rscale>  0 0.20005646E+02</rscale>
<asrwt>0</asrwt>
<pdfrwt beam="1">  1        2 0.33604619E-02 0.20005646E+02</pdfrwt>
<pdfrwt beam="2">  1       -2 0.70472468E-03 0.20005646E+02</pdfrwt>
<totfact> 0.41984417E+06</totfact>
</mgrwt>
</event>
<event>
 5    1  0.4046313E-006  0.2000259E+02  0.7818608E-02  0.1745277E+00
          2   -1    0    0  501    0  0.00000000000E+00  0.00000000000E+00  0.40315553292E+01  0.40315561675E+01  0.26000000000E-02 0.  1.
         -2   -1    0    0    0  501 -0.00000000000E+00 -0.00000000000E+00 -0.24810736122E+02  0.24810736258E+02  0.26000000000E-02 0. -1.
       1023    2    1    2    0    0  0.00000000000E+00  0.00000000000E+00 -0.20779180793E+02  0.28842292425E+02  0.20002586781E+02 0.  0.
        -11    1    3    3    0    0 -0.73354539362E+01 -0.67965085913E+01 -0.10615083908E+02  0.14583601068E+02  0.51100000000E-03 0. -1.
         11    1    3    3    0    0  0.73354539362E+01  0.67965085913E+01 -0.10164096884E+02  0.14258691357E+02  0.51100000000E-03 0.  1.
<mgrwt>
<rscale>  0 0.20002587E+02</rscale>
<asrwt>0</asrwt>
<pdfrwt beam="1">  1        2 0.62023937E-03 0.20002587E+02</pdfrwt>
<pdfrwt beam="2">  1       -2 0.38170363E-02 0.20002587E+02</pdfrwt>
<totfact> 0.36724351E+06</totfact>
</mgrwt>
</event>
<event>
 5    1  0.4046313E-006  0.2000116E+02  0.7818608E-02  0.1745305E+00
         -2   -1    0    0    0  501 -0.00000000000E+00  0.00000000000E+00  0.37807527659E+01  0.37807536599E+01  0.26000000000E-02 0.  1.
          2   -1    0    0  501    0  0.00000000000E+00 -0.00000000000E+00 -0.26452830965E+02  0.26452831093E+02  0.26000000000E-02 0. -1.
       1023    2    1    2    0    0  0.00000000000E+00  0.00000000000E+00 -0.22672078199E+02  0.30233584753E+02  0.20001162895E+02 0.  0.
        -11    1    3    3    0    0 -0.18418485107E+01  0.98294672092E+01 -0.11293352524E+02  0.15084781836E+02  0.51100000000E-03 0. -1.
         11    1    3    3    0    0  0.18418485107E+01 -0.98294672092E+01 -0.11378725675E+02  0.15148802917E+02  0.51100000000E-03 0.  1.
<mgrwt>
<rscale>  0 0.20001163E+02</rscale>
<asrwt>0</asrwt>
<pdfrwt beam="2">  1        2 0.40696663E-02 0.20001163E+02</pdfrwt>
<pdfrwt beam="1">  1       -2 0.58165437E-03 0.20001163E+02</pdfrwt>
<totfact> 0.42793622E+06</totfact>
</mgrwt>
</event>
<event>
 5    1  0.4046313E-006  0.2000005E+02  0.7818608E-02  0.1745327E+00
         -2   -1    0    0    0  501 -0.00000000000E+00  0.00000000000E+00  0.16786573827E+02  0.16786574028E+02  0.26000000000E-02 0.  1.
          2   -1    0    0  501    0  0.00000000000E+00 -0.00000000000E+00 -0.59571698512E+01  0.59571704186E+01  0.26000000000E-02 0. -1.
       1023    2    1    2    0    0  0.00000000000E+00  0.00000000000E+00  0.10829403975E+02  0.22743744447E+02  0.20000048025E+02 0.  0.
        -11    1    3    3    0    0  0.66049324909E+01 -0.75083491643E+01  0.54218584164E+01  0.11375279747E+02  0.51100000000E-03 0.  1.
         11    1    3    3    0    0 -0.66049324909E+01  0.75083491643E+01  0.54075455590E+01  0.11368464699E+02  0.51100000000E-03 0. -1.
<mgrwt>
<rscale>  0 0.20000048E+02</rscale>
<asrwt>0</asrwt>
<pdfrwt beam="2">  1        2 0.91648775E-03 0.20000048E+02</pdfrwt>
<pdfrwt beam="1">  1       -2 0.25825498E-02 0.20000048E+02</pdfrwt>
<totfact> 0.37966566E+06</totfact>
</mgrwt>
</event>
<event>
 5    1  0.4046313E-006  0.2000120E+02  0.7818608E-02  0.1745304E+00
         -2   -1    0    0    0  501 -0.00000000000E+00  0.00000000000E+00  0.11294671450E+02  0.11294671749E+02  0.26000000000E-02 0.  1.
          2   -1    0    0  501    0  0.00000000000E+00 -0.00000000000E+00 -0.88547904632E+01  0.88547908449E+01  0.26000000000E-02 0. -1.
       1023    2    1    2    0    0  0.00000000000E+00  0.00000000000E+00  0.24398809864E+01  0.20149462594E+02  0.20001195554E+02 0.  0.
        -11    1    3    3    0    0  0.84088957216E+01 -0.54129540293E+01  0.12688499124E+01  0.10080653696E+02  0.51100000000E-03 0. -1.
         11    1    3    3    0    0 -0.84088957216E+01  0.54129540293E+01  0.11710310741E+01  0.10068808898E+02  0.51100000000E-03 0.  1.
<mgrwt>
<rscale>  0 0.20001196E+02</rscale>
<asrwt>0</asrwt>
<pdfrwt beam="2">  1        2 0.13622755E-02 0.20001196E+02</pdfrwt>
<pdfrwt beam="1">  1       -2 0.17376418E-02 0.20001196E+02</pdfrwt>
<totfact> 0.39108188E+06</totfact>
</mgrwt>
</event>
<event>
 4    1  0.4046313E-006  0.2002461E+02  0.7818608E-02  0.1744839E+00
         -2   -1    0    0    0  501 -0.00000000000E+00  0.00000000000E+00  0.11205578283E+01  0.11205608446E+01  0.26000000000E-02 0. -1.
          2   -1    0    0  501    0  0.00000000000E+00 -0.00000000000E+00 -0.89460943412E+02  0.89460943450E+02  0.26000000000E-02 0.  1.
        -11    1    1    2    0    0 -0.99993710246E+01  0.50636711006E+00 -0.44395006619E+02  0.45510003752E+02  0.51100000000E-03 0.  1.
         11    1    1    2    0    0  0.99993710246E+01 -0.50636711006E+00 -0.43945378965E+02  0.45071500543E+02  0.51100000000E-03 0. -1.
<mgrwt>
<rscale>  0 0.20024615E+02</rscale>
<asrwt>0</asrwt>
<pdfrwt beam="2">  1        2 0.13763217E-01 0.20024615E+02</pdfrwt>
<pdfrwt beam="1">  1       -2 0.17239382E-03 0.20024615E+02</pdfrwt>
<totfact> 0.51338650E+06</totfact>
</mgrwt>
</event>
<event>
 5    1  0.4046313E-006  0.2000034E+02  0.7818608E-02  0.1745321E+00
         -2   -1    0    0    0  501 -0.00000000000E+00  0.00000000000E+00  0.16711207310E+01  0.16711227536E+01  0.26000000000E-02 0.  1.
          2   -1    0    0  501    0  0.00000000000E+00 -0.00000000000E+00 -0.59842107075E+02  0.59842107131E+02  0.26000000000E-02 0. -1.
       1023    2    1    2    0    0  0.00000000000E+00  0.00000000000E+00 -0.58170986344E+02  0.61513229885E+02  0.20000344963E+02 0.  0.
        -11    1    3    3    0    0 -0.44635442375E+01  0.89486237485E+01 -0.28936231060E+02  0.30615462799E+02  0.51100000000E-03 0.  1.
         11    1    3    3    0    0  0.44635442375E+01 -0.89486237485E+01 -0.29234755283E+02  0.30897767086E+02  0.51100000000E-03 0. -1.
<mgrwt>
<rscale>  0 0.20000345E+02</rscale>
<asrwt>0</asrwt>
<pdfrwt beam="2">  1        2 0.92064765E-02 0.20000345E+02</pdfrwt>
<pdfrwt beam="1">  1       -2 0.25709570E-03 0.20000345E+02</pdfrwt>
<totfact> 0.47674660E+06</totfact>
</mgrwt>
</event>
<event>
 5    1  0.4046313E-006  0.2000097E+02  0.7818608E-02  0.1745309E+00
         -2   -1    0    0    0  501 -0.00000000000E+00  0.00000000000E+00  0.23398331030E+01  0.23398345475E+01  0.26000000000E-02 0. -1.
          2   -1    0    0  501    0  0.00000000000E+00 -0.00000000000E+00 -0.42742209438E+02  0.42742209517E+02  0.26000000000E-02 0.  1.
       1023    2    1    2    0    0  0.00000000000E+00  0.00000000000E+00 -0.40402376335E+02  0.45082044064E+02  0.20000967065E+02 0.  0.
        -11    1    3    3    0    0  0.66001093340E+01  0.75128712296E+01 -0.20041913814E+02  0.22398280892E+02  0.51100000000E-03 0. -1.
         11    1    3    3    0    0 -0.66001093340E+01 -0.75128712296E+01 -0.20360462521E+02  0.22683763172E+02  0.51100000000E-03 0.  1.
<mgrwt>
<rscale>  0 0.20000967E+02</rscale>
<asrwt>0</asrwt>
<pdfrwt beam="2">  1        2 0.65757241E-02 0.20000967E+02</pdfrwt>
<pdfrwt beam="1">  1       -2 0.35997447E-03 0.20000967E+02</pdfrwt>
<totfact> 0.45291508E+06</totfact>
</mgrwt>
</event>
<event>
 5    1  0.4046313E-006  0.2000502E+02  0.7818608E-02  0.1745228E+00
          2   -1    0    0  501    0  0.00000000000E+00  0.00000000000E+00  0.30278457648E+02  0.30278457759E+02  0.26000000000E-02 0.  1.
         -2   -1    0    0    0  501 -0.00000000000E+00 -0.00000000000E+00 -0.33043350634E+01  0.33043360863E+01  0.26000000000E-02 0. -1.
       1023    2    1    2    0    0  0.00000000000E+00  0.00000000000E+00  0.26974122584E+02  0.33582793846E+02  0.20005018203E+02 0.  0.
        -11    1    3    3    0    0  0.78248419933E+01  0.62270420936E+01  0.13127084372E+02  0.16502258931E+02  0.51100000000E-03 0. -1.
         11    1    3    3    0    0 -0.78248419933E+01 -0.62270420936E+01  0.13847038213E+02  0.17080534915E+02  0.51100000000E-03 0.  1.
<mgrwt>
<rscale>  0 0.20005018E+02</rscale>
<asrwt>0</asrwt>
<pdfrwt beam="1">  1        2 0.46582245E-02 0.20005018E+02</pdfrwt>
<pdfrwt beam="2">  1       -2 0.50835931E-03 0.20005018E+02</pdfrwt>
<totfact> 0.43392950E+06</totfact>
</mgrwt>
</event>
<event>
 5    1  0.4046313E-006  0.2001036E+02  0.7818608E-02  0.1745122E+00
          2   -1    0    0  501    0  0.00000000000E+00  0.00000000000E+00  0.68882646024E+02  0.68882646073E+02  0.26000000000E-02 0. -1.
         -2   -1    0    0    0  501 -0.00000000000E+00 -0.00000000000E+00 -0.14532471190E+01  0.14532494449E+01  0.26000000000E-02 0.  1.
       1023    2    1    2    0    0  0.00000000000E+00  0.00000000000E+00  0.67429398905E+02  0.70335895518E+02  0.20010356359E+02 0.  0.
        -11    1    3    3    0    0  0.58560202366E+01 -0.81115367257E+01  0.34124447845E+02  0.35560764082E+02  0.51100000000E-03 0. -1.
         11    1    3    3    0    0 -0.58560202366E+01  0.81115367257E+01  0.33304951059E+02  0.34775131436E+02  0.51100000000E-03 0.  1.
<mgrwt>
<rscale>  0 0.20010356E+02</rscale>
<asrwt>0</asrwt>
<pdfrwt beam="1">  1        2 0.10597331E-01 0.20010356E+02</pdfrwt>
<pdfrwt beam="2">  1       -2 0.22357666E-03 0.20010356E+02</pdfrwt>
<totfact> 0.48818183E+06</totfact>
</mgrwt>
</event>
<event>
 4    1  0.4046313E-006  0.2020415E+02  0.7818608E-02  0.1741298E+00
         -2   -1    0    0    0  501 -0.00000000000E+00  0.00000000000E+00  0.45872781198E+02  0.45872781272E+02  0.26000000000E-02 0. -1.
          2   -1    0    0  501    0  0.00000000000E+00 -0.00000000000E+00 -0.22246722693E+01  0.22246737886E+01  0.26000000000E-02 0.  1.
        -11    1    1    2    0    0  0.16289779051E+01 -0.99104822955E+01  0.24410800614E+02  0.26396181830E+02  0.51100000000E-03 0. -1.
         11    1    1    2    0    0 -0.16289779051E+01  0.99104822955E+01  0.19237308315E+02  0.21701273230E+02  0.51100000000E-03 0.  1.
<mgrwt>
<rscale>  0 0.20204152E+02</rscale>
<asrwt>0</asrwt>
<pdfrwt beam="2">  1        2 0.34225737E-03 0.20204152E+02</pdfrwt>
<pdfrwt beam="1">  1       -2 0.70573516E-02 0.20204152E+02</pdfrwt>
<totfact> 0.33555340E+06</totfact>
</mgrwt>
</event>
<event>
 5    1  0.4046313E-006  0.2000070E+02  0.7818608E-02  0.1745314E+00
         -2   -1    0    0    0  501 -0.00000000000E+00  0.00000000000E+00  0.15841784959E+01  0.15841806295E+01  0.26000000000E-02 0.  1.
          2   -1    0    0  501    0  0.00000000000E+00 -0.00000000000E+00 -0.63128604041E+02  0.63128604094E+02  0.26000000000E-02 0. -1.
       1023    2    1    2    0    0  0.00000000000E+00  0.00000000000E+00 -0.61544425545E+02  0.64712784724E+02  0.20000704764E+02 0.  0.
        -11    1    3    3    0    0  0.25421500859E+01  0.96718227853E+01 -0.30710444521E+02  0.32297648304E+02  0.51100000000E-03 0. -1.
         11    1    3    3    0    0 -0.25421500859E+01 -0.96718227853E+01 -0.30833981024E+02  0.32415136419E+02  0.51100000000E-03 0.  1.
<mgrwt>
<rscale>  0 0.20000705E+02</rscale>
<asrwt>0</asrwt>
<pdfrwt beam="2">  1        2 0.97120912E-02 0.20000705E+02</pdfrwt>
<pdfrwt beam="1">  1       -2 0.24371999E-03 0.20000705E+02</pdfrwt>
<totfact> 0.48112437E+06</totfact>
</mgrwt>
</event>
<event>
 4    1  0.4046313E-006  0.2001913E+02  0.7818608E-02  0.1744948E+00
         -2   -1    0    0    0  501 -0.00000000000E+00  0.00000000000E+00  0.44301347612E+01  0.44301355242E+01  0.26000000000E-02 0.  1.
          2   -1    0    0  501    0  0.00000000000E+00 -0.00000000000E+00 -0.22615873140E+02  0.22615873289E+02  0.26000000000E-02 0. -1.
        -11    1    1    2    0    0  0.94273269064E+01 -0.33426836773E+01 -0.96043843037E+01  0.13866947208E+02  0.51100000000E-03 0.  1.
         11    1    1    2    0    0 -0.94273269064E+01  0.33426836773E+01 -0.85813540747E+01  0.13179061605E+02  0.51100000000E-03 0. -1.
<mgrwt>
<rscale>  0 0.20019129E+02</rscale>
<asrwt>0</asrwt>
<pdfrwt beam="2">  1        2 0.34793651E-02 0.20019129E+02</pdfrwt>
<pdfrwt beam="1">  1       -2 0.68155928E-03 0.20019129E+02</pdfrwt>
<totfact> 0.42056739E+06</totfact>
</mgrwt>
</event>
<event>
 5    1  0.4046313E-006  0.2000047E+02  0.7818608E-02  0.1745319E+00
          2   -1    0    0  501    0  0.00000000000E+00  0.00000000000E+00  0.27881954711E+02  0.27881954832E+02  0.26000000000E-02 0. -1.
         -2   -1    0    0    0  501 -0.00000000000E+00 -0.00000000000E+00 -0.35867175153E+01  0.35867184576E+01  0.26000000000E-02 0.  1.
       1023    2    1    2    0    0  0.00000000000E+00  0.00000000000E+00  0.24295237196E+02  0.31468673290E+02  0.20000471200E+02 0.  0.
        -11    1    3    3    0    0 -0.55816761045E+01 -0.82974611213E+01  0.12081937989E+02  0.15683628248E+02  0.51100000000E-03 0.  1.
         11    1    3    3    0    0  0.55816761045E+01  0.82974611213E+01  0.12213299207E+02  0.15785045042E+02  0.51100000000E-03 0. -1.
<mgrwt>
<rscale>  0 0.20000471E+02</rscale>
<asrwt>0</asrwt>
<pdfrwt beam="1">  1        2 0.42895316E-02 0.20000471E+02</pdfrwt>
<pdfrwt beam="2">  1       -2 0.55180277E-03 0.20000471E+02</pdfrwt>
<totfact> 0.43031105E+06</totfact>
</mgrwt>
</event>
<event>
 5    1  0.4046313E-006  0.2000045E+02  0.7818608E-02  0.1745319E+00
          2   -1    0    0  501    0  0.00000000000E+00  0.00000000000E+00  0.32628513985E+02  0.32628514089E+02  0.26000000000E-02 0. -1.
         -2   -1    0    0    0  501 -0.00000000000E+00 -0.00000000000E+00 -0.30649426849E+01  0.30649437877E+01  0.26000000000E-02 0.  1.
       1023    2    1    2    0    0  0.00000000000E+00  0.00000000000E+00  0.29563571301E+02  0.35693457877E+02  0.20000454674E+02 0.  0.
        -11    1    3    3    0    0 -0.57714133935E+01  0.81666888081E+01  0.14822788769E+02  0.17880690306E+02  0.51100000000E-03 0.  1.
         11    1    3    3    0    0  0.57714133935E+01 -0.81666888081E+01  0.14740782531E+02  0.17812767571E+02  0.51100000000E-03 0. -1.
<mgrwt>
<rscale>  0 0.20000455E+02</rscale>
<asrwt>0</asrwt>
<pdfrwt beam="1">  1        2 0.50197715E-02 0.20000455E+02</pdfrwt>
<pdfrwt beam="2">  1       -2 0.47152974E-03 0.20000455E+02</pdfrwt>
<totfact> 0.43782979E+06</totfact>
</mgrwt>
</event>
<event>
 5    1  0.4046313E-006  0.2000545E+02  0.7818608E-02  0.1745220E+00
          2   -1    0    0  501    0  0.00000000000E+00  0.00000000000E+00  0.10754611398E+02  0.10754611713E+02  0.26000000000E-02 0. -1.
         -2   -1    0    0    0  501 -0.00000000000E+00 -0.00000000000E+00 -0.93034071644E+01  0.93034075277E+01  0.26000000000E-02 0.  1.
       1023    2    1    2    0    0  0.00000000000E+00  0.00000000000E+00  0.14512042339E+01  0.20058019240E+02  0.20005452810E+02 0.  0.
        -11    1    3    3    0    0  0.35839432316E+01  0.93386226123E+01  0.72186593424E+00  0.10028739306E+02  0.51100000000E-03 0.  1.
         11    1    3    3    0    0 -0.35839432316E+01 -0.93386226123E+01  0.72933829970E+00  0.10029279934E+02  0.51100000000E-03 0. -1.
<mgrwt>
<rscale>  0 0.20005453E+02</rscale>
<asrwt>0</asrwt>
<pdfrwt beam="1">  1        2 0.16545556E-02 0.20005453E+02</pdfrwt>
<pdfrwt beam="2">  1       -2 0.14312935E-02 0.20005453E+02</pdfrwt>
<totfact> 0.39650042E+06</totfact>
</mgrwt>
</event>
<event>
 5    1  0.4046313E-006  0.2000130E+02  0.7818608E-02  0.1745302E+00
          2   -1    0    0  501    0  0.00000000000E+00  0.00000000000E+00  0.36234631639E+01  0.36234640967E+01  0.26000000000E-02 0.  1.
         -2   -1    0    0    0  501 -0.00000000000E+00 -0.00000000000E+00 -0.27601484096E+02  0.27601484219E+02  0.26000000000E-02 0. -1.
       1023    2    1    2    0    0  0.00000000000E+00  0.00000000000E+00 -0.23978020933E+02  0.31224948316E+02  0.20001297695E+02 0.  0.
        -11    1    3    3    0    0 -0.49672881125E+01  0.86794872830E+01 -0.11872955054E+02  0.15523353783E+02  0.51100000000E-03 0. -1.
         11    1    3    3    0    0  0.49672881125E+01 -0.86794872830E+01 -0.12105065878E+02  0.15701594533E+02  0.51100000000E-03 0.  1.
<mgrwt>
<rscale>  0 0.20001298E+02</rscale>
<asrwt>0</asrwt>
<pdfrwt beam="1">  1        2 0.55745597E-03 0.20001298E+02</pdfrwt>
<pdfrwt beam="2">  1       -2 0.42463821E-02 0.20001298E+02</pdfrwt>
<totfact> 0.36360691E+06</totfact>
</mgrwt>
</event>
<event>
 5    1  0.4046313E-006  0.2000182E+02  0.7818608E-02  0.1745292E+00
         -2   -1    0    0    0  501 -0.00000000000E+00  0.00000000000E+00  0.84709275233E+01  0.84709279223E+01  0.26000000000E-02 0.  1.
          2   -1    0    0  501    0  0.00000000000E+00 -0.00000000000E+00 -0.11807235614E+02  0.11807235900E+02  0.26000000000E-02 0. -1.
       1023    2    1    2    0    0  0.00000000000E+00  0.00000000000E+00 -0.33363080908E+01  0.20278163823E+02  0.20001824325E+02 0.  0.
        -11    1    3    3    0    0  0.31534509644E+01 -0.94902811702E+01 -0.15743875957E+01  0.10123654787E+02  0.51100000000E-03 0. -1.
         11    1    3    3    0    0 -0.31534509644E+01  0.94902811702E+01 -0.17619204950E+01  0.10154509036E+02  0.51100000000E-03 0.  1.
<mgrwt>
<rscale>  0 0.20001824E+02</rscale>
<asrwt>0</asrwt>
<pdfrwt beam="2">  1        2 0.18164978E-02 0.20001824E+02</pdfrwt>
<pdfrwt beam="1">  1       -2 0.13032197E-02 0.20001824E+02</pdfrwt>
<totfact> 0.39942044E+06</totfact>
</mgrwt>
</event>
<event>
 5    1  0.4046313E-006  0.2000033E+02  0.7818608E-02  0.1745322E+00
          2   -1    0    0  501    0  0.00000000000E+00  0.00000000000E+00  0.10843255680E+03  0.10843255683E+03  0.26000000000E-02 0. -1.
         -2   -1    0    0    0  501 -0.00000000000E+00 -0.00000000000E+00 -0.92226040107E+00  0.92226406597E+00  0.26000000000E-02 0.  1.
       1023    2    1    2    0    0  0.00000000000E+00  0.00000000000E+00  0.10751029639E+03  0.10935482089E+03  0.20000325538E+02 0.  0.
        -11    1    3    3    0    0  0.51285259907E+01  0.85847854823E+01  0.53458958126E+02  0.54386216313E+02  0.51100000000E-03 0.  1.
         11    1    3    3    0    0 -0.51285259907E+01 -0.85847854823E+01  0.54051338269E+02  0.54968604580E+02  0.51100000000E-03 0. -1.
<mgrwt>
<rscale>  0 0.20000326E+02</rscale>
<asrwt>0</asrwt>
<pdfrwt beam="1">  1        2 0.16681934E-01 0.20000326E+02</pdfrwt>
<pdfrwt beam="2">  1       -2 0.14188648E-03 0.20000326E+02</pdfrwt>
<totfact> 0.53754451E+06</totfact>
</mgrwt>
</event>
<event>
 5    1  0.4046313E-006  0.2000156E+02  0.7818608E-02  0.1745297E+00
          2   -1    0    0  501    0  0.00000000000E+00  0.00000000000E+00  0.97289614906E+01  0.97289618380E+01  0.26000000000E-02 0.  1.
         -2   -1    0    0    0  501 -0.00000000000E+00 -0.00000000000E+00 -0.10280188869E+02  0.10280189198E+02  0.26000000000E-02 0. -1.
       1023    2    1    2    0    0  0.00000000000E+00  0.00000000000E+00 -0.55122737811E+00  0.20009151036E+02  0.20001556778E+02 0.  0.
        -11    1    3    3    0    0 -0.21934537414E+01 -0.97571987509E+01 -0.31306243203E+00  0.10005607184E+02  0.51100000000E-03 0. -1.
         11    1    3    3    0    0  0.21934537414E+01  0.97571987509E+01 -0.23816494607E+00  0.10003543851E+02  0.51100000000E-03 0.  1.
<mgrwt>
<rscale>  0 0.20001557E+02</rscale>
<asrwt>0</asrwt>
<pdfrwt beam="1">  1        2 0.14967634E-02 0.20001557E+02</pdfrwt>
<pdfrwt beam="2">  1       -2 0.15815676E-02 0.20001557E+02</pdfrwt>
<totfact> 0.39376827E+06</totfact>
</mgrwt>
</event>
<event>
 4    1  0.4046313E-006  0.2005725E+02  0.7818608E-02  0.1744192E+00
         -2   -1    0    0    0  501 -0.00000000000E+00  0.00000000000E+00  0.50386345422E+01  0.50386352131E+01  0.26000000000E-02 0. -1.
          2   -1    0    0  501    0  0.00000000000E+00 -0.00000000000E+00 -0.19960427570E+02  0.19960427739E+02  0.26000000000E-02 0.  1.
        -11    1    1    2    0    0 -0.94346729648E+01  0.33858225707E+01 -0.78480023178E+01  0.12730592644E+02  0.51100000000E-03 0. -1.
         11    1    1    2    0    0  0.94346729648E+01 -0.33858225707E+01 -0.70737907099E+01  0.12268470308E+02  0.51100000000E-03 0.  1.
<mgrwt>
<rscale>  0 0.20057249E+02</rscale>
<asrwt>0</asrwt>
<pdfrwt beam="2">  1        2 0.30708350E-02 0.20057249E+02</pdfrwt>
<pdfrwt beam="1">  1       -2 0.77517462E-03 0.20057249E+02</pdfrwt>
<totfact> 0.41403018E+06</totfact>
</mgrwt>
</event>
<event>
 5    1  0.4046313E-006  0.2000060E+02  0.7818608E-02  0.1745316E+00
          2   -1    0    0  501    0  0.00000000000E+00  0.00000000000E+00  0.76466025673E+01  0.76466030093E+01  0.26000000000E-02 0.  1.
         -2   -1    0    0    0  501 -0.00000000000E+00 -0.00000000000E+00 -0.13078487701E+02  0.13078487959E+02  0.26000000000E-02 0. -1.
       1023    2    1    2    0    0  0.00000000000E+00  0.00000000000E+00 -0.54318851335E+01  0.20725090969E+02  0.20000600480E+02 0.  0.
        -11    1    3    3    0    0  0.19386198084E+01 -0.98105003417E+01 -0.26714825278E+01  0.10350892854E+02  0.51100000000E-03 0.  1.
         11    1    3    3    0    0 -0.19386198084E+01  0.98105003417E+01 -0.27604026057E+01  0.10374198115E+02  0.51100000000E-03 0. -1.
<mgrwt>
<rscale>  0 0.20000600E+02</rscale>
<asrwt>0</asrwt>
<pdfrwt beam="1">  1        2 0.11764005E-02 0.20000600E+02</pdfrwt>
<pdfrwt beam="2">  1       -2 0.20120751E-02 0.20000600E+02</pdfrwt>
<totfact> 0.38690982E+06</totfact>
</mgrwt>
</event>
<event>
 5    1  0.4046313E-006  0.2000175E+02  0.7818608E-02  0.1745293E+00
         -2   -1    0    0    0  501 -0.00000000000E+00  0.00000000000E+00  0.34841650613E+01  0.34841660314E+01  0.26000000000E-02 0.  1.
          2   -1    0    0  501    0  0.00000000000E+00 -0.00000000000E+00 -0.28706293560E+02  0.28706293678E+02  0.26000000000E-02 0. -1.
       1023    2    1    2    0    0  0.00000000000E+00  0.00000000000E+00 -0.25222128498E+02  0.32190459709E+02  0.20001748181E+02 0.  0.
        -11    1    3    3    0    0 -0.93908678683E+01  0.34390746967E+01 -0.12541875421E+02  0.16041018466E+02  0.51100000000E-03 0.  1.
         11    1    3    3    0    0  0.93908678683E+01 -0.34390746967E+01 -0.12680253077E+02  0.16149441243E+02  0.51100000000E-03 0. -1.
<mgrwt>
<rscale>  0 0.20001748E+02</rscale>
<asrwt>0</asrwt>
<pdfrwt beam="2">  1        2 0.44163528E-02 0.20001748E+02</pdfrwt>
<pdfrwt beam="1">  1       -2 0.53602550E-03 0.20001748E+02</pdfrwt>
<totfact> 0.43158109E+06</totfact>
</mgrwt>
</event>
<event>
 5    1  0.4046313E-006  0.2000026E+02  0.7818608E-02  0.1745323E+00
         -2   -1    0    0    0  501 -0.00000000000E+00  0.00000000000E+00  0.22210037691E+01  0.22210052909E+01  0.26000000000E-02 0. -1.
          2   -1    0    0  501    0  0.00000000000E+00 -0.00000000000E+00 -0.45025831646E+02  0.45025831721E+02  0.26000000000E-02 0.  1.
       1023    2    1    2    0    0  0.00000000000E+00  0.00000000000E+00 -0.42804827877E+02  0.47246837012E+02  0.20000257950E+02 0.  0.
        -11    1    3    3    0    0 -0.46860300972E+01 -0.88342346027E+01 -0.21401442290E+02  0.23622538209E+02  0.51100000000E-03 0. -1.
         11    1    3    3    0    0  0.46860300972E+01  0.88342346027E+01 -0.21403385587E+02  0.23624298803E+02  0.51100000000E-03 0.  1.
<mgrwt>
<rscale>  0 0.20000258E+02</rscale>
<asrwt>0</asrwt>
<pdfrwt beam="2">  1        2 0.69270505E-02 0.20000258E+02</pdfrwt>
<pdfrwt beam="1">  1       -2 0.34169304E-03 0.20000258E+02</pdfrwt>
<totfact> 0.45623698E+06</totfact>
</mgrwt>
</event>
<event>
 5    1  0.4046313E-006  0.2000031E+02  0.7818608E-02  0.1745322E+00
         -2   -1    0    0    0  501 -0.00000000000E+00  0.00000000000E+00  0.24924312427E+01  0.24924325988E+01  0.26000000000E-02 0. -1.
          2   -1    0    0  501    0  0.00000000000E+00 -0.00000000000E+00 -0.40122689847E+02  0.40122689932E+02  0.26000000000E-02 0.  1.
       1023    2    1    2    0    0  0.00000000000E+00  0.00000000000E+00 -0.37630258605E+02  0.42615122530E+02  0.20000307638E+02 0.  0.
        -11    1    3    3    0    0 -0.54890467267E+01  0.83589138347E+01 -0.18910458189E+02  0.21391739145E+02  0.51100000000E-03 0. -1.
         11    1    3    3    0    0  0.54890467267E+01 -0.83589138347E+01 -0.18719800415E+02  0.21223383385E+02  0.51100000000E-03 0.  1.
<mgrwt>
<rscale>  0 0.20000308E+02</rscale>
<asrwt>0</asrwt>
<pdfrwt beam="2">  1        2 0.61727211E-02 0.20000308E+02</pdfrwt>
<pdfrwt beam="1">  1       -2 0.38345110E-03 0.20000308E+02</pdfrwt>
<totfact> 0.44912807E+06</totfact>
</mgrwt>
</event>
<event>
 5    1  0.4046313E-006  0.2000115E+02  0.7818608E-02  0.1745305E+00
         -2   -1    0    0    0  501 -0.00000000000E+00  0.00000000000E+00  0.51093414005E+02  0.51093414071E+02  0.26000000000E-02 0.  1.
          2   -1    0    0  501    0  0.00000000000E+00 -0.00000000000E+00 -0.19574229663E+01  0.19574246931E+01  0.26000000000E-02 0. -1.
       1023    2    1    2    0    0  0.00000000000E+00  0.00000000000E+00  0.49135991038E+02  0.53050838764E+02  0.20001146923E+02 0.  0.
        -11    1    3    3    0    0 -0.98593788112E+01  0.16724436618E+01  0.24790716585E+02  0.26731704910E+02  0.51100000000E-03 0. -1.
         11    1    3    3    0    0  0.98593788112E+01 -0.16724436618E+01  0.24345274454E+02  0.26319133854E+02  0.51100000000E-03 0.  1.
<mgrwt>
<rscale>  0 0.20001147E+02</rscale>
<asrwt>0</asrwt>
<pdfrwt beam="2">  1        2 0.30114211E-03 0.20001147E+02</pdfrwt>
<pdfrwt beam="1">  1       -2 0.78605258E-02 0.20001147E+02</pdfrwt>
<totfact> 0.33788247E+06</totfact>
</mgrwt>
</event>
<event>
 5    1  0.4046313E-006  0.2000180E+02  0.7818608E-02  0.1745292E+00
          2   -1    0    0  501    0  0.00000000000E+00  0.00000000000E+00  0.29452482740E+02  0.29452482855E+02  0.26000000000E-02 0. -1.
         -2   -1    0    0    0  501 -0.00000000000E+00 -0.00000000000E+00 -0.33959086938E+01  0.33959096891E+01  0.26000000000E-02 0.  1.
       1023    2    1    2    0    0  0.00000000000E+00  0.00000000000E+00  0.26056574046E+02  0.32848392544E+02  0.20001795962E+02 0.  0.
        -11    1    3    3    0    0  0.36749680658E+01 -0.93006634132E+01  0.13194391709E+02  0.16555956724E+02  0.51100000000E-03 0. -1.
         11    1    3    3    0    0 -0.36749680658E+01  0.93006634132E+01  0.12862182337E+02  0.16292435820E+02  0.51100000000E-03 0.  1.
<mgrwt>
<rscale>  0 0.20001796E+02</rscale>
<asrwt>0</asrwt>
<pdfrwt beam="1">  1        2 0.45311514E-02 0.20001796E+02</pdfrwt>
<pdfrwt beam="2">  1       -2 0.52244756E-03 0.20001796E+02</pdfrwt>
<totfact> 0.43277393E+06</totfact>
</mgrwt>
</event>
<event>
 5    1  0.4046313E-006  0.2000128E+02  0.7818608E-02  0.1745303E+00
         -2   -1    0    0    0  501 -0.00000000000E+00  0.00000000000E+00  0.11535981062E+02  0.11535981355E+02  0.26000000000E-02 0.  1.
          2   -1    0    0  501    0  0.00000000000E+00 -0.00000000000E+00 -0.86696418807E+01  0.86696422706E+01  0.26000000000E-02 0. -1.
       1023    2    1    2    0    0  0.00000000000E+00  0.00000000000E+00  0.28663391814E+01  0.20205623626E+02  0.20001283104E+02 0.  0.
        -11    1    3    3    0    0  0.94331788515E+01 -0.33202933584E+01  0.13723888180E+01  0.10094189544E+02  0.51100000000E-03 0. -1.
         11    1    3    3    0    0 -0.94331788515E+01  0.33202933584E+01  0.14939503635E+01  0.10111434081E+02  0.51100000000E-03 0.  1.
<mgrwt>
<rscale>  0 0.20001283E+02</rscale>
<asrwt>0</asrwt>
<pdfrwt beam="2">  1        2 0.13337911E-02 0.20001283E+02</pdfrwt>
<pdfrwt beam="1">  1       -2 0.17747664E-02 0.20001283E+02</pdfrwt>
<totfact> 0.39047296E+06</totfact>
</mgrwt>
</event>
<event>
 5    1  0.4331114E-006  0.2000056E+02  0.7818608E-02  0.1745317E+00
         -2   -1    0    0    0  501 -0.00000000000E+00  0.00000000000E+00  0.88436518228E+00  0.88436900423E+00  0.26000000000E-02 0.  1.
          2   -1    0    0  501    0  0.00000000000E+00 -0.00000000000E+00 -0.11308149321E+03  0.11308149324E+03  0.26000000000E-02 0. -1.
       1023    2    1    2    0    0  0.00000000000E+00  0.00000000000E+00 -0.11219712802E+03  0.11396586224E+03  0.20000555476E+02 0.  0.
        -11    1    3    3    0    0 -0.64724162824E+01  0.76231282086E+01 -0.56303883798E+02  0.57185064372E+02  0.51100000000E-03 0.  1.
         11    1    3    3    0    0  0.64724162824E+01 -0.76231282086E+01 -0.55893244225E+02  0.56780797868E+02  0.51100000000E-03 0. -1.
<mgrwt>
<rscale>  0 0.20000555E+02</rscale>
<asrwt>0</asrwt>
<pdfrwt beam="2">  1        2 0.17397142E-01 0.20000555E+02</pdfrwt>
<pdfrwt beam="1">  1       -2 0.13605657E-03 0.20000555E+02</pdfrwt>
<totfact> 0.54294376E+06</totfact>
</mgrwt>
</event>
<event>
 4    1  0.4046313E-006  0.2006224E+02  0.7818608E-02  0.1744093E+00
          2   -1    0    0  501    0  0.00000000000E+00  0.00000000000E+00  0.79865183139E+02  0.79865183182E+02  0.26000000000E-02 0.  1.
         -2   -1    0    0    0  501 -0.00000000000E+00 -0.00000000000E+00 -0.12599140853E+01  0.12599167680E+01  0.26000000000E-02 0. -1.
        -11    1    1    2    0    0  0.15736698943E+01 -0.99013003165E+01  0.37954238284E+02  0.39256036337E+02  0.51100000000E-03 0. -1.
         11    1    1    2    0    0 -0.15736698943E+01  0.99013003165E+01  0.40651030770E+02  0.41869063613E+02  0.51100000000E-03 0.  1.
<mgrwt>
<rscale>  0 0.20062241E+02</rscale>
<asrwt>0</asrwt>
<pdfrwt beam="1">  1        2 0.12286956E-01 0.20062241E+02</pdfrwt>
<pdfrwt beam="2">  1       -2 0.19383307E-03 0.20062241E+02</pdfrwt>
<totfact> 0.49937897E+06</totfact>
</mgrwt>
</event>
<event>
 5    1  0.4046313E-006  0.2000321E+02  0.7818608E-02  0.1745264E+00
          2   -1    0    0  501    0  0.00000000000E+00  0.00000000000E+00  0.11774355113E+01  0.11774383820E+01  0.26000000000E-02 0.  1.
         -2   -1    0    0    0  501 -0.00000000000E+00 -0.00000000000E+00 -0.84957473295E+02  0.84957473334E+02  0.26000000000E-02 0. -1.
       1023    2    1    2    0    0  0.00000000000E+00  0.00000000000E+00 -0.83780037783E+02  0.86134911716E+02  0.20003206878E+02 0.  0.
        -11    1    3    3    0    0  0.94470982329E+01  0.32830606026E+01 -0.42221309655E+02  0.43389689342E+02  0.51100000000E-03 0.  1.
         11    1    3    3    0    0 -0.94470982329E+01 -0.32830606026E+01 -0.41558728129E+02  0.42745222375E+02  0.51100000000E-03 0. -1.
<mgrwt>
<rscale>  0 0.20003207E+02</rscale>
<asrwt>0</asrwt>
<pdfrwt beam="1">  1        2 0.18114421E-03 0.20003207E+02</pdfrwt>
<pdfrwt beam="2">  1       -2 0.13070376E-01 0.20003207E+02</pdfrwt>
<totfact> 0.30854362E+06</totfact>
</mgrwt>
</event>
<event>
 5    1  0.4046313E-006  0.2000066E+02  0.7818608E-02  0.1745315E+00
         -2   -1    0    0    0  501 -0.00000000000E+00  0.00000000000E+00  0.12652441541E+02  0.12652441808E+02  0.26000000000E-02 0. -1.
          2   -1    0    0  501    0  0.00000000000E+00 -0.00000000000E+00 -0.79041301989E+01  0.79041306265E+01  0.26000000000E-02 0.  1.
       1023    2    1    2    0    0  0.00000000000E+00  0.00000000000E+00  0.47483113424E+01  0.20556572435E+02  0.20000655231E+02 0.  0.
        -11    1    3    3    0    0  0.99906700146E+01  0.43564036640E+00  0.23152720276E+01  0.10264684832E+02  0.51100000000E-03 0.  1.
         11    1    3    3    0    0 -0.99906700146E+01 -0.43564036640E+00  0.24330393148E+01  0.10291887603E+02  0.51100000000E-03 0. -1.
<mgrwt>
<rscale>  0 0.20000655E+02</rscale>
<asrwt>0</asrwt>
<pdfrwt beam="2">  1        2 0.12160201E-02 0.20000655E+02</pdfrwt>
<pdfrwt beam="1">  1       -2 0.19465295E-02 0.20000655E+02</pdfrwt>
<totfact> 0.38785632E+06</totfact>
</mgrwt>
</event>
<event>
 5    1  0.4046313E-006  0.2000017E+02  0.7818608E-02  0.1745325E+00
          2   -1    0    0  501    0  0.00000000000E+00  0.00000000000E+00  0.90748719983E+01  0.90748723708E+01  0.26000000000E-02 0. -1.
         -2   -1    0    0    0  501 -0.00000000000E+00 -0.00000000000E+00 -0.11019625107E+02  0.11019625413E+02  0.26000000000E-02 0.  1.
       1023    2    1    2    0    0  0.00000000000E+00  0.00000000000E+00 -0.19447531083E+01  0.20094497784E+02  0.20000169413E+02 0.  0.
        -11    1    3    3    0    0 -0.65754431233E+01 -0.75342676119E+01 -0.97970190420E+00  0.10047957842E+02  0.51100000000E-03 0.  1.
         11    1    3    3    0    0  0.65754431233E+01  0.75342676119E+01 -0.96505120409E+00  0.10046539942E+02  0.51100000000E-03 0. -1.
<mgrwt>
<rscale>  0 0.20000169E+02</rscale>
<asrwt>0</asrwt>
<pdfrwt beam="1">  1        2 0.13961342E-02 0.20000169E+02</pdfrwt>
<pdfrwt beam="2">  1       -2 0.16953270E-02 0.20000169E+02</pdfrwt>
<totfact> 0.39183128E+06</totfact>
</mgrwt>
</event>
<event>
 5    1  0.4216357E-006  0.2000046E+02  0.7818608E-02  0.1745319E+00
         -2   -1    0    0    0  501 -0.00000000000E+00  0.00000000000E+00  0.92495150111E+00  0.92495515535E+00  0.26000000000E-02 0.  1.
          2   -1    0    0  501    0  0.00000000000E+00 -0.00000000000E+00 -0.10811850723E+03  0.10811850726E+03  0.26000000000E-02 0. -1.
       1023    2    1    2    0    0  0.00000000000E+00  0.00000000000E+00 -0.10719355573E+03  0.10904346242E+03  0.20000457645E+02 0.  0.
        -11    1    3    3    0    0  0.44417793677E+01 -0.89595873349E+01 -0.53766325075E+02  0.54688402075E+02  0.51100000000E-03 0. -1.
         11    1    3    3    0    0 -0.44417793677E+01  0.89595873349E+01 -0.53427230657E+02  0.54355060345E+02  0.51100000000E-03 0.  1.
<mgrwt>
<rscale>  0 0.20000458E+02</rscale>
<asrwt>0</asrwt>
<pdfrwt beam="2">  1        2 0.16633607E-01 0.20000458E+02</pdfrwt>
<pdfrwt beam="1">  1       -2 0.14230060E-03 0.20000458E+02</pdfrwt>
<totfact> 0.53716871E+06</totfact>
</mgrwt>
</event>
<event>
 5    1  0.4046313E-006  0.2000927E+02  0.7818608E-02  0.1745144E+00
          2   -1    0    0  501    0  0.00000000000E+00  0.00000000000E+00  0.11345935442E+01  0.11345965232E+01  0.26000000000E-02 0.  1.
         -2   -1    0    0    0  501 -0.00000000000E+00 -0.00000000000E+00 -0.88218923270E+02  0.88218923309E+02  0.26000000000E-02 0. -1.
       1023    2    1    2    0    0  0.00000000000E+00  0.00000000000E+00 -0.87084329726E+02  0.89353519832E+02  0.20009273412E+02 0.  0.
        -11    1    3    3    0    0 -0.20381784561E+00  0.10001563657E+02 -0.42911611631E+02  0.44062219989E+02  0.51100000000E-03 0. -1.
         11    1    3    3    0    0  0.20381784561E+00 -0.10001563657E+02 -0.44172718095E+02  0.45291299843E+02  0.51100000000E-03 0.  1.
<mgrwt>
<rscale>  0 0.20009273E+02</rscale>
<asrwt>0</asrwt>
<pdfrwt beam="1">  1        2 0.17455316E-03 0.20009273E+02</pdfrwt>
<pdfrwt beam="2">  1       -2 0.13572137E-01 0.20009273E+02</pdfrwt>
<totfact> 0.30580897E+06</totfact>
</mgrwt>
</event>
<event>
 4    1  0.4046313E-006  0.2005015E+02  0.7818608E-02  0.1744333E+00
          2   -1    0    0  501    0  0.00000000000E+00  0.00000000000E+00  0.20328414038E+01  0.20328430665E+01  0.26000000000E-02 0. -1.
         -2   -1    0    0    0  501 -0.00000000000E+00 -0.00000000000E+00 -0.49439224699E+02  0.49439224767E+02  0.26000000000E-02 0.  1.
        -11    1    1    2    0    0 -0.20661868442E+01 -0.98017322269E+01 -0.22679331613E+02  0.24793046714E+02  0.51100000000E-03 0.  1.
         11    1    1    2    0    0  0.20661868442E+01  0.98017322269E+01 -0.24727051682E+02  0.26679021119E+02  0.51100000000E-03 0. -1.
<mgrwt>
<rscale>  0 0.20050152E+02</rscale>
<asrwt>0</asrwt>
<pdfrwt beam="1">  1        2 0.31274500E-03 0.20050152E+02</pdfrwt>
<pdfrwt beam="2">  1       -2 0.76060338E-02 0.20050152E+02</pdfrwt>
<totfact> 0.33768214E+06</totfact>
</mgrwt>
</event>
<event>
 5    1  0.4046313E-006  0.2000009E+02  0.7818608E-02  0.1745326E+00
         -2   -1    0    0    0  501 -0.00000000000E+00  0.00000000000E+00  0.18479321993E+01  0.18479340284E+01  0.26000000000E-02 0.  1.
          2   -1    0    0  501    0  0.00000000000E+00 -0.00000000000E+00 -0.54115012644E+02  0.54115012706E+02  0.26000000000E-02 0. -1.
       1023    2    1    2    0    0  0.00000000000E+00  0.00000000000E+00 -0.52267080445E+02  0.55962946735E+02  0.20000092726E+02 0.  0.
        -11    1    3    3    0    0  0.92345592103E+01  0.38371494500E+01 -0.26101971184E+02  0.27951989189E+02  0.51100000000E-03 0.  1.
         11    1    3    3    0    0 -0.92345592103E+01 -0.38371494500E+01 -0.26165109261E+02  0.28010957545E+02  0.51100000000E-03 0. -1.
<mgrwt>
<rscale>  0 0.20000093E+02</rscale>
<asrwt>0</asrwt>
<pdfrwt beam="2">  1        2 0.83253855E-02 0.20000093E+02</pdfrwt>
<pdfrwt beam="1">  1       -2 0.28429745E-03 0.20000093E+02</pdfrwt>
<totfact> 0.46897649E+06</totfact>
</mgrwt>
</event>
<event>
 5    1  0.4046313E-006  0.2000322E+02  0.7818608E-02  0.1745264E+00
          2   -1    0    0  501    0  0.00000000000E+00  0.00000000000E+00  0.36055840047E+02  0.36055840141E+02  0.26000000000E-02 0.  1.
         -2   -1    0    0    0  501 -0.00000000000E+00 -0.00000000000E+00 -0.27743685864E+01  0.27743698047E+01  0.26000000000E-02 0. -1.
       1023    2    1    2    0    0  0.00000000000E+00  0.00000000000E+00  0.33281471460E+02  0.38830209945E+02  0.20003221286E+02 0.  0.
        -11    1    3    3    0    0 -0.11187014937E+01 -0.99384174702E+01  0.16460922242E+02  0.19260986376E+02  0.51100000000E-03 0. -1.
         11    1    3    3    0    0  0.11187014937E+01  0.99384174702E+01  0.16820549218E+02  0.19569223569E+02  0.51100000000E-03 0.  1.
<mgrwt>
<rscale>  0 0.20003221E+02</rscale>
<asrwt>0</asrwt>
<pdfrwt beam="1">  1        2 0.55470520E-02 0.20003221E+02</pdfrwt>
<pdfrwt beam="2">  1       -2 0.42682607E-03 0.20003221E+02</pdfrwt>
<totfact> 0.44293054E+06</totfact>
</mgrwt>
</event>
<event>
 5    1  0.4046313E-006  0.2000020E+02  0.7818608E-02  0.1745324E+00
         -2   -1    0    0    0  501 -0.00000000000E+00  0.00000000000E+00  0.44949430547E+02  0.44949430622E+02  0.26000000000E-02 0. -1.
          2   -1    0    0  501    0  0.00000000000E+00 -0.00000000000E+00 -0.22247669635E+01  0.22247684828E+01  0.26000000000E-02 0.  1.
       1023    2    1    2    0    0  0.00000000000E+00  0.00000000000E+00  0.42724663583E+02  0.47174199105E+02  0.20000204571E+02 0.  0.
        -11    1    3    3    0    0  0.30032122778E+01  0.95384748663E+01  0.21400269026E+02  0.23621458495E+02  0.51100000000E-03 0. -1.
         11    1    3    3    0    0 -0.30032122778E+01 -0.95384748663E+01  0.21324394557E+02  0.23552740610E+02  0.51100000000E-03 0.  1.
<mgrwt>
<rscale>  0 0.20000205E+02</rscale>
<asrwt>0</asrwt>
<pdfrwt beam="2">  1        2 0.34227198E-03 0.20000205E+02</pdfrwt>
<pdfrwt beam="1">  1       -2 0.69152967E-02 0.20000205E+02</pdfrwt>
<totfact> 0.34401730E+06</totfact>
</mgrwt>
</event>
<event>
 5    1  0.4046313E-006  0.2000085E+02  0.7818608E-02  0.1745311E+00
         -2   -1    0    0    0  501 -0.00000000000E+00  0.00000000000E+00  0.85550215880E+01  0.85550219831E+01  0.26000000000E-02 0. -1.
          2   -1    0    0  501    0  0.00000000000E+00 -0.00000000000E+00 -0.11690033045E+02  0.11690033334E+02  0.26000000000E-02 0.  1.
       1023    2    1    2    0    0  0.00000000000E+00  0.00000000000E+00 -0.31350114568E+01  0.20245055317E+02  0.20000849181E+02 0.  0.
        -11    1    3    3    0    0 -0.35256041970E+01 -0.93583185373E+01 -0.15453079152E+01  0.10119090256E+02  0.51100000000E-03 0.  1.
         11    1    3    3    0    0  0.35256041970E+01  0.93583185373E+01 -0.15897035417E+01  0.10125965061E+02  0.51100000000E-03 0. -1.
<mgrwt>
<rscale>  0 0.20000849E+02</rscale>
<asrwt>0</asrwt>
<pdfrwt beam="2">  1        2 0.17984667E-02 0.20000849E+02</pdfrwt>
<pdfrwt beam="1">  1       -2 0.13161572E-02 0.20000849E+02</pdfrwt>
<totfact> 0.39916762E+06</totfact>
</mgrwt>
</event>
<event>
 5    1  0.4046313E-006  0.2000038E+02  0.7818608E-02  0.1745321E+00
          2   -1    0    0  501    0  0.00000000000E+00  0.00000000000E+00  0.16664649372E+02  0.16664649574E+02  0.26000000000E-02 0.  1.
         -2   -1    0    0    0  501 -0.00000000000E+00 -0.00000000000E+00 -0.60009539373E+01  0.60009545006E+01  0.26000000000E-02 0. -1.
       1023    2    1    2    0    0  0.00000000000E+00  0.00000000000E+00  0.10663695434E+02  0.22665604075E+02  0.20000380191E+02 0.  0.
        -11    1    3    3    0    0 -0.78590092665E+01 -0.61836825781E+01  0.52831729362E+01  0.11309901565E+02  0.51100000000E-03 0.  1.
         11    1    3    3    0    0  0.78590092665E+01  0.61836825781E+01  0.53805224981E+01  0.11355702510E+02  0.51100000000E-03 0. -1.
<mgrwt>
<rscale>  0 0.20000380E+02</rscale>
<asrwt>0</asrwt>
<pdfrwt beam="1">  1        2 0.25637923E-02 0.20000380E+02</pdfrwt>
<pdfrwt beam="2">  1       -2 0.92322374E-03 0.20000380E+02</pdfrwt>
<totfact> 0.41034042E+06</totfact>
</mgrwt>
</event>
<event>
 5    1  0.4046313E-006  0.2000876E+02  0.7818608E-02  0.1745154E+00
         -2   -1    0    0    0  501 -0.00000000000E+00  0.00000000000E+00  0.88129213304E+01  0.88129217139E+01  0.26000000000E-02 0.  1.
          2   -1    0    0  501    0  0.00000000000E+00 -0.00000000000E+00 -0.11356916219E+02  0.11356916517E+02  0.26000000000E-02 0. -1.
       1023    2    1    2    0    0  0.00000000000E+00  0.00000000000E+00 -0.25439948889E+01  0.20169838231E+02  0.20008759688E+02 0.  0.
        -11    1    3    3    0    0 -0.98655516826E+01  0.16509911096E+01 -0.14543798076E+01  0.10107922761E+02  0.51100000000E-03 0. -1.
         11    1    3    3    0    0  0.98655516826E+01 -0.16509911096E+01 -0.10896150813E+01  0.10061915470E+02  0.51100000000E-03 0.  1.
<mgrwt>
<rscale>  0 0.20008760E+02</rscale>
<asrwt>0</asrwt>
<pdfrwt beam="2">  1        2 0.17472179E-02 0.20008760E+02</pdfrwt>
<pdfrwt beam="1">  1       -2 0.13558341E-02 0.20008760E+02</pdfrwt>
<totfact> 0.39795196E+06</totfact>
</mgrwt>
</event>
<event>
 4    1  0.4046313E-006  0.2008455E+02  0.7818608E-02  0.1743652E+00
          2   -1    0    0  501    0  0.00000000000E+00  0.00000000000E+00  0.40856126711E+02  0.40856126794E+02  0.26000000000E-02 0. -1.
         -2   -1    0    0    0  501 -0.00000000000E+00 -0.00000000000E+00 -0.24683501591E+01  0.24683515285E+01  0.26000000000E-02 0.  1.
        -11    1    1    2    0    0 -0.29039292023E+00 -0.10029315616E+02  0.18289553547E+02  0.20860950817E+02  0.51100000000E-03 0.  1.
         11    1    1    2    0    0  0.29039292023E+00  0.10029315616E+02  0.20098223004E+02  0.22463527505E+02  0.51100000000E-03 0. -1.
<mgrwt>
<rscale>  0 0.20084547E+02</rscale>
<asrwt>0</asrwt>
<pdfrwt beam="1">  1        2 0.62855574E-02 0.20084547E+02</pdfrwt>
<pdfrwt beam="2">  1       -2 0.37974633E-03 0.20084547E+02</pdfrwt>
<totfact> 0.44599664E+06</totfact>
</mgrwt>
</event>
<event>
 5    1  0.4046313E-006  0.2000033E+02  0.7818608E-02  0.1745321E+00
         -2   -1    0    0    0  501 -0.00000000000E+00  0.00000000000E+00  0.59003453659E+01  0.59003459388E+01  0.26000000000E-02 0. -1.
          2   -1    0    0  501    0  0.00000000000E+00 -0.00000000000E+00 -0.16948722879E+02  0.16948723078E+02  0.26000000000E-02 0.  1.
       1023    2    1    2    0    0  0.00000000000E+00  0.00000000000E+00 -0.11048377513E+02  0.22849069017E+02  0.20000332729E+02 0.  0.
        -11    1    3    3    0    0  0.86821379682E+01 -0.49622003576E+01 -0.55463110552E+01  0.11435231466E+02  0.51100000000E-03 0. -1.
         11    1    3    3    0    0 -0.86821379682E+01  0.49622003576E+01 -0.55020664578E+01  0.11413837552E+02  0.51100000000E-03 0.  1.
<mgrwt>
<rscale>  0 0.20000333E+02</rscale>
<asrwt>0</asrwt>
<pdfrwt beam="2">  1        2 0.26074959E-02 0.20000333E+02</pdfrwt>
<pdfrwt beam="1">  1       -2 0.90774551E-03 0.20000333E+02</pdfrwt>
<totfact> 0.41091382E+06</totfact>
</mgrwt>
</event>
<event>
 5    1  0.4046313E-006  0.2000027E+02  0.7818608E-02  0.1745323E+00
          2   -1    0    0  501    0  0.00000000000E+00  0.00000000000E+00  0.52037053144E+02  0.52037053209E+02  0.26000000000E-02 0. -1.
         -2   -1    0    0    0  501 -0.00000000000E+00 -0.00000000000E+00 -0.19217585410E+01  0.19217602998E+01  0.26000000000E-02 0.  1.
       1023    2    1    2    0    0  0.00000000000E+00  0.00000000000E+00  0.50115294603E+02  0.53958813508E+02  0.20000270051E+02 0.  0.
        -11    1    3    3    0    0 -0.94288601136E+01  0.33313060137E+01  0.24946492649E+02  0.26876169715E+02  0.51100000000E-03 0.  1.
         11    1    3    3    0    0  0.94288601136E+01 -0.33313060137E+01  0.25168801953E+02  0.27082643793E+02  0.51100000000E-03 0. -1.
<mgrwt>
<rscale>  0 0.20000270E+02</rscale>
<asrwt>0</asrwt>
<pdfrwt beam="1">  1        2 0.80056998E-02 0.20000270E+02</pdfrwt>
<pdfrwt beam="2">  1       -2 0.29565533E-03 0.20000270E+02</pdfrwt>
<totfact> 0.46610116E+06</totfact>
</mgrwt>
</event>
<event>
 5    1  0.4319536E-006  0.2000060E+02  0.7818608E-02  0.1745316E+00
         -2   -1    0    0    0  501 -0.00000000000E+00  0.00000000000E+00  0.93994198035E+00  0.93994557631E+00  0.26000000000E-02 0. -1.
          2   -1    0    0  501    0  0.00000000000E+00 -0.00000000000E+00 -0.10639566941E+03  0.10639566944E+03  0.26000000000E-02 0.  1.
       1023    2    1    2    0    0  0.00000000000E+00  0.00000000000E+00 -0.10545572743E+03  0.10733561501E+03  0.20000595081E+02 0.  0.
        -11    1    3    3    0    0 -0.45053308519E+01  0.89278961748E+01 -0.52594836368E+02  0.53537110018E+02  0.51100000000E-03 0. -1.
         11    1    3    3    0    0  0.45053308519E+01 -0.89278961748E+01 -0.52860891057E+02  0.53798504996E+02  0.51100000000E-03 0.  1.
<mgrwt>
<rscale>  0 0.20000595E+02</rscale>
<asrwt>0</asrwt>
<pdfrwt beam="2">  1        2 0.16368555E-01 0.20000595E+02</pdfrwt>
<pdfrwt beam="1">  1       -2 0.14460682E-03 0.20000595E+02</pdfrwt>
<totfact> 0.53513739E+06</totfact>
</mgrwt>
</event>
<event>
 5    1  0.4046313E-006  0.2000300E+02  0.7818608E-02  0.1745268E+00
         -2   -1    0    0    0  501 -0.00000000000E+00  0.00000000000E+00  0.36834983758E+02  0.36834983850E+02  0.26000000000E-02 0.  1.
          2   -1    0    0  501    0  0.00000000000E+00 -0.00000000000E+00 -0.27156254296E+01  0.27156266743E+01  0.26000000000E-02 0. -1.
       1023    2    1    2    0    0  0.00000000000E+00  0.00000000000E+00  0.34119358328E+02  0.39550610524E+02  0.20003004276E+02 0.  0.
        -11    1    3    3    0    0  0.27287334338E+00 -0.99973779532E+01  0.17236737726E+02  0.19928049415E+02  0.51100000000E-03 0.  1.
         11    1    3    3    0    0 -0.27287334338E+00  0.99973779532E+01  0.16882620602E+02  0.19622561109E+02  0.51100000000E-03 0. -1.
<mgrwt>
<rscale>  0 0.20003004E+02</rscale>
<asrwt>0</asrwt>
<pdfrwt beam="2">  1        2 0.41778863E-03 0.20003004E+02</pdfrwt>
<pdfrwt beam="1">  1       -2 0.56669206E-02 0.20003004E+02</pdfrwt>
<totfact> 0.35254679E+06</totfact>
</mgrwt>
</event>
<event>
 5    1  0.4046313E-006  0.2000061E+02  0.7818608E-02  0.1745316E+00
          2   -1    0    0  501    0  0.00000000000E+00  0.00000000000E+00  0.70998951058E+01  0.70998955819E+01  0.26000000000E-02 0.  1.
         -2   -1    0    0    0  501 -0.00000000000E+00 -0.00000000000E+00 -0.14085578754E+02  0.14085578994E+02  0.26000000000E-02 0. -1.
       1023    2    1    2    0    0  0.00000000000E+00  0.00000000000E+00 -0.69856836482E+01  0.21185474576E+02  0.20000613915E+02 0.  0.
        -11    1    3    3    0    0 -0.94285161853E+01  0.33330249133E+01 -0.35065077886E+01  0.10597243494E+02  0.51100000000E-03 0.  1.
         11    1    3    3    0    0  0.94285161853E+01 -0.33330249133E+01 -0.34791758596E+01  0.10588231082E+02  0.51100000000E-03 0. -1.
<mgrwt>
<rscale>  0 0.20000614E+02</rscale>
<asrwt>0</asrwt>
<pdfrwt beam="1">  1        2 0.10922916E-02 0.20000614E+02</pdfrwt>
<pdfrwt beam="2">  1       -2 0.21670122E-02 0.20000614E+02</pdfrwt>
<totfact> 0.38477429E+06</totfact>
</mgrwt>
</event>
<event>
 5    1  0.4046313E-006  0.2000040E+02  0.7818608E-02  0.1745320E+00
         -2   -1    0    0    0  501 -0.00000000000E+00  0.00000000000E+00  0.16871911492E+02  0.16871911692E+02  0.26000000000E-02 0. -1.
          2   -1    0    0  501    0  0.00000000000E+00 -0.00000000000E+00 -0.59272444672E+01  0.59272450374E+01  0.26000000000E-02 0.  1.
       1023    2    1    2    0    0  0.00000000000E+00  0.00000000000E+00  0.10944667024E+02  0.22799156729E+02  0.20000395278E+02 0.  0.
        -11    1    3    3    0    0 -0.10860355513E+01 -0.99410364066E+01  0.54912202226E+01  0.11408644874E+02  0.51100000000E-03 0.  1.
         11    1    3    3    0    0  0.10860355513E+01  0.99410364066E+01  0.54534468018E+01  0.11390511856E+02  0.51100000000E-03 0. -1.
<mgrwt>
<rscale>  0 0.20000395E+02</rscale>
<asrwt>0</asrwt>
<pdfrwt beam="2">  1        2 0.91188382E-03 0.20000395E+02</pdfrwt>
<pdfrwt beam="1">  1       -2 0.25956788E-02 0.20000395E+02</pdfrwt>
<totfact> 0.37950052E+06</totfact>
</mgrwt>
</event>
<event>
 5    1  0.4268323E-006  0.2000168E+02  0.7818608E-02  0.1745295E+00
         -2   -1    0    0    0  501 -0.00000000000E+00  0.00000000000E+00  0.12744299485E+01  0.12744326007E+01  0.26000000000E-02 0. -1.
          2   -1    0    0  501    0  0.00000000000E+00 -0.00000000000E+00 -0.78479556569E+02  0.78479556612E+02  0.26000000000E-02 0.  1.
       1023    2    1    2    0    0  0.00000000000E+00  0.00000000000E+00 -0.77205126620E+02  0.79753989213E+02  0.20001680401E+02 0.  0.
        -11    1    3    3    0    0  0.99070621079E+01 -0.13635240215E+01 -0.38953068051E+02  0.40216297545E+02  0.51100000000E-03 0. -1.
         11    1    3    3    0    0 -0.99070621079E+01  0.13635240215E+01 -0.38252058569E+02  0.39537691667E+02  0.51100000000E-03 0.  1.
<mgrwt>
<rscale>  0 0.20001680E+02</rscale>
<asrwt>0</asrwt>
<pdfrwt beam="2">  1        2 0.12073774E-01 0.20001680E+02</pdfrwt>
<pdfrwt beam="1">  1       -2 0.19606642E-03 0.20001680E+02</pdfrwt>
<totfact> 0.50098148E+06</totfact>
</mgrwt>
</event>
<event>
 5    1  0.4046313E-006  0.2000126E+02  0.7818608E-02  0.1745303E+00
          2   -1    0    0  501    0  0.00000000000E+00  0.00000000000E+00  0.48467711516E+02  0.48467711586E+02  0.26000000000E-02 0. -1.
         -2   -1    0    0    0  501 -0.00000000000E+00 -0.00000000000E+00 -0.20634893003E+01  0.20634909383E+01  0.26000000000E-02 0.  1.
       1023    2    1    2    0    0  0.00000000000E+00  0.00000000000E+00  0.46404222216E+02  0.50531202524E+02  0.20001264687E+02 0.  0.
        -11    1    3    3    0    0 -0.54350003834E+01  0.83948427196E+01  0.23216745001E+02  0.25279039977E+02  0.51100000000E-03 0.  1.
         11    1    3    3    0    0  0.54350003834E+01 -0.83948427196E+01  0.23187477215E+02  0.25252162547E+02  0.51100000000E-03 0. -1.
<mgrwt>
<rscale>  0 0.20001265E+02</rscale>
<asrwt>0</asrwt>
<pdfrwt beam="1">  1        2 0.74565713E-02 0.20001265E+02</pdfrwt>
<pdfrwt beam="2">  1       -2 0.31746002E-03 0.20001265E+02</pdfrwt>
<totfact> 0.46106761E+06</totfact>
</mgrwt>
</event>
<event>
 5    1  0.4186916E-006  0.2000054E+02  0.7818608E-02  0.1745317E+00
          2   -1    0    0  501    0  0.00000000000E+00  0.00000000000E+00  0.91048764205E+02  0.91048764242E+02  0.26000000000E-02 0. -1.
         -2   -1    0    0    0  501 -0.00000000000E+00 -0.00000000000E+00 -0.10983703971E+01  0.10983734744E+01  0.26000000000E-02 0.  1.
       1023    2    1    2    0    0  0.00000000000E+00  0.00000000000E+00  0.89950393808E+02  0.92147137716E+02  0.20000541071E+02 0.  0.
        -11    1    3    3    0    0 -0.62741048970E+01  0.77870986966E+01  0.45186937019E+02  0.46280261190E+02  0.51100000000E-03 0. -1.
         11    1    3    3    0    0  0.62741048970E+01 -0.77870986966E+01  0.44763456788E+02  0.45866876526E+02  0.51100000000E-03 0.  1.
<mgrwt>
<rscale>  0 0.20000541E+02</rscale>
<asrwt>0</asrwt>
<pdfrwt beam="1">  1        2 0.14007506E-01 0.20000541E+02</pdfrwt>
<pdfrwt beam="2">  1       -2 0.16898025E-03 0.20000541E+02</pdfrwt>
<totfact> 0.51670383E+06</totfact>
</mgrwt>
</event>
<event>
 5    1  0.4046313E-006  0.2000336E+02  0.7818608E-02  0.1745261E+00
         -2   -1    0    0    0  501 -0.00000000000E+00  0.00000000000E+00  0.11403091930E+01  0.11403121571E+01  0.26000000000E-02 0.  1.
          2   -1    0    0  501    0  0.00000000000E+00 -0.00000000000E+00 -0.87724855290E+02  0.87724855328E+02  0.26000000000E-02 0. -1.
       1023    2    1    2    0    0  0.00000000000E+00  0.00000000000E+00 -0.86584546097E+02  0.88865167485E+02  0.20003358953E+02 0.  0.
        -11    1    3    3    0    0  0.18994348064E+01 -0.98192877252E+01 -0.42911975360E+02  0.44062045953E+02  0.51100000000E-03 0.  1.
         11    1    3    3    0    0 -0.18994348064E+01  0.98192877252E+01 -0.43672570736E+02  0.44803121532E+02  0.51100000000E-03 0. -1.
<mgrwt>
<rscale>  0 0.20003359E+02</rscale>
<asrwt>0</asrwt>
<pdfrwt beam="2">  1        2 0.13496127E-01 0.20003359E+02</pdfrwt>
<pdfrwt beam="1">  1       -2 0.17543248E-03 0.20003359E+02</pdfrwt>
<totfact> 0.51245144E+06</totfact>
</mgrwt>
</event>
<event>
 5    1  0.4046313E-006  0.2001012E+02  0.7818608E-02  0.1745127E+00
          2   -1    0    0  501    0  0.00000000000E+00  0.00000000000E+00  0.20107027141E+01  0.20107043951E+01  0.26000000000E-02 0.  1.
         -2   -1    0    0    0  501 -0.00000000000E+00 -0.00000000000E+00 -0.49784164089E+02  0.49784164157E+02  0.26000000000E-02 0. -1.
       1023    2    1    2    0    0  0.00000000000E+00  0.00000000000E+00 -0.47773461375E+02  0.51794868552E+02  0.20010117356E+02 0.  0.
        -11    1    3    3    0    0  0.99304872973E+01  0.12158122057E+01 -0.24124269467E+02  0.26116530299E+02  0.51100000000E-03 0.  1.
         11    1    3    3    0    0 -0.99304872973E+01 -0.12158122057E+01 -0.23649191908E+02  0.25678338253E+02  0.51100000000E-03 0. -1.
<mgrwt>
<rscale>  0 0.20010117E+02</rscale>
<asrwt>0</asrwt>
<pdfrwt beam="1">  1        2 0.30933905E-03 0.20010117E+02</pdfrwt>
<pdfrwt beam="2">  1       -2 0.76591014E-02 0.20010117E+02</pdfrwt>
<totfact> 0.33882293E+06</totfact>
</mgrwt>
</event>
<event>
 5    1  0.4229614E-006  0.2000039E+02  0.7818608E-02  0.1745320E+00
         -2   -1    0    0    0  501 -0.00000000000E+00  0.00000000000E+00  0.93571899835E+00  0.93572261054E+00  0.26000000000E-02 0.  1.
          2   -1    0    0  501    0  0.00000000000E+00 -0.00000000000E+00 -0.10687369785E+03  0.10687369788E+03  0.26000000000E-02 0. -1.
       1023    2    1    2    0    0  0.00000000000E+00  0.00000000000E+00 -0.10593797885E+03  0.10780942049E+03  0.20000394588E+02 0.  0.
        -11    1    3    3    0    0  0.11408045777E+01 -0.99347235251E+01 -0.53300356662E+02  0.54230325347E+02  0.51100000000E-03 0.  1.
         11    1    3    3    0    0 -0.11408045777E+01  0.99347235251E+01 -0.52637622185E+02  0.53579095142E+02  0.51100000000E-03 0. -1.
<mgrwt>
<rscale>  0 0.20000395E+02</rscale>
<asrwt>0</asrwt>
<pdfrwt beam="2">  1        2 0.16442098E-01 0.20000395E+02</pdfrwt>
<pdfrwt beam="1">  1       -2 0.14395713E-03 0.20000395E+02</pdfrwt>
<totfact> 0.53571145E+06</totfact>
</mgrwt>
</event>
<event>
 4    1  0.5682197E-006  0.2060843E+02  0.7818608E-02  0.1733493E+00
         -2   -1    0    0    0  501 -0.00000000000E+00  0.00000000000E+00  0.34215270763E+01  0.34215280642E+01  0.26000000000E-02 0. -1.
          2   -1    0    0  501    0  0.00000000000E+00 -0.00000000000E+00 -0.31031990947E+02  0.31031991056E+02  0.26000000000E-02 0.  1.
        -11    1    1    2    0    0 -0.37570994484E+01 -0.94108101089E+01 -0.10678588709E+02  0.14721120890E+02  0.51100000000E-03 0. -1.
         11    1    1    2    0    0  0.37570994484E+01  0.94108101089E+01 -0.16931875162E+02  0.19732398231E+02  0.51100000000E-03 0.  1.
<mgrwt>
<rscale>  0 0.20608427E+02</rscale>
<asrwt>0</asrwt>
<pdfrwt beam="2">  1        2 0.47741523E-02 0.20608427E+02</pdfrwt>
<pdfrwt beam="1">  1       -2 0.52638889E-03 0.20608427E+02</pdfrwt>
<totfact> 0.40698940E+06</totfact>
</mgrwt>
</event>
<event>
 5    1  0.4046313E-006  0.2000032E+02  0.7818608E-02  0.1745322E+00
         -2   -1    0    0    0  501 -0.00000000000E+00  0.00000000000E+00  0.28364429822E+01  0.28364441738E+01  0.26000000000E-02 0. -1.
          2   -1    0    0  501    0  0.00000000000E+00 -0.00000000000E+00 -0.35256558523E+02  0.35256558619E+02  0.26000000000E-02 0.  1.
       1023    2    1    2    0    0  0.00000000000E+00  0.00000000000E+00 -0.32420115541E+02  0.38093002793E+02  0.20000324249E+02 0.  0.
        -11    1    3    3    0    0 -0.24227171504E+01  0.97021842593E+01 -0.16278847690E+02  0.19105046982E+02  0.51100000000E-03 0.  1.
         11    1    3    3    0    0  0.24227171504E+01 -0.97021842593E+01 -0.16141267850E+02  0.18987955811E+02  0.51100000000E-03 0. -1.
<mgrwt>
<rscale>  0 0.20000324E+02</rscale>
<asrwt>0</asrwt>
<pdfrwt beam="2">  1        2 0.54240857E-02 0.20000324E+02</pdfrwt>
<pdfrwt beam="1">  1       -2 0.43637597E-03 0.20000324E+02</pdfrwt>
<totfact> 0.44186459E+06</totfact>
</mgrwt>
</event>
<event>
 5    1  0.4046313E-006  0.2000162E+02  0.7818608E-02  0.1745296E+00
         -2   -1    0    0    0  501 -0.00000000000E+00  0.00000000000E+00  0.62043491805E+01  0.62043497253E+01  0.26000000000E-02 0. -1.
          2   -1    0    0  501    0  0.00000000000E+00 -0.00000000000E+00 -0.16120327938E+02  0.16120328147E+02  0.26000000000E-02 0.  1.
       1023    2    1    2    0    0  0.00000000000E+00  0.00000000000E+00 -0.99159787570E+01  0.22324677873E+02  0.20001615120E+02 0.  0.
        -11    1    3    3    0    0 -0.96694859314E+01 -0.25528792817E+01 -0.49589782818E+01  0.11162778179E+02  0.51100000000E-03 0.  1.
         11    1    3    3    0    0  0.96694859314E+01  0.25528792817E+01 -0.49570004752E+01  0.11161899694E+02  0.51100000000E-03 0. -1.
<mgrwt>
<rscale>  0 0.20001615E+02</rscale>
<asrwt>0</asrwt>
<pdfrwt beam="2">  1        2 0.24800505E-02 0.20001615E+02</pdfrwt>
<pdfrwt beam="1">  1       -2 0.95451532E-03 0.20001615E+02</pdfrwt>
<totfact> 0.40917384E+06</totfact>
</mgrwt>
</event>
<event>
 5    1  0.4046313E-006  0.2000064E+02  0.7818608E-02  0.1745315E+00
         -2   -1    0    0    0  501 -0.00000000000E+00  0.00000000000E+00  0.10269502295E+02  0.10269502625E+02  0.26000000000E-02 0. -1.
          2   -1    0    0  501    0  0.00000000000E+00 -0.00000000000E+00 -0.97381957948E+01  0.97381961419E+01  0.26000000000E-02 0.  1.
       1023    2    1    2    0    0  0.00000000000E+00  0.00000000000E+00  0.53130650071E+00  0.20007698766E+02  0.20000643073E+02 0.  0.
        -11    1    3    3    0    0 -0.41309666482E+01 -0.91071823866E+01  0.29348574850E+00  0.10004588478E+02  0.51100000000E-03 0. -1.
         11    1    3    3    0    0  0.41309666482E+01  0.91071823866E+01  0.23782075221E+00  0.10003110288E+02  0.51100000000E-03 0.  1.
<mgrwt>
<rscale>  0 0.20000643E+02</rscale>
<asrwt>0</asrwt>
<pdfrwt beam="2">  1        2 0.14981840E-02 0.20000643E+02</pdfrwt>
<pdfrwt beam="1">  1       -2 0.15799235E-02 0.20000643E+02</pdfrwt>
<totfact> 0.39383673E+06</totfact>
</mgrwt>
</event>
<event>
 5    1  0.4046313E-006  0.2000034E+02  0.7818608E-02  0.1745321E+00
          2   -1    0    0  501    0  0.00000000000E+00  0.00000000000E+00  0.11729874518E+02  0.11729874806E+02  0.26000000000E-02 0.  1.
         -2   -1    0    0    0  501 -0.00000000000E+00 -0.00000000000E+00 -0.85255326248E+01  0.85255330213E+01  0.26000000000E-02 0. -1.
       1023    2    1    2    0    0  0.00000000000E+00  0.00000000000E+00  0.32043418935E+01  0.20255407828E+02  0.20000343480E+02 0.  0.
        -11    1    3    3    0    0  0.94917377356E+01 -0.31478482408E+01  0.16400751734E+01  0.10133700243E+02  0.51100000000E-03 0. -1.
         11    1    3    3    0    0 -0.94917377356E+01  0.31478482408E+01  0.15642667201E+01  0.10121707584E+02  0.51100000000E-03 0.  1.
<mgrwt>
<rscale>  0 0.20000343E+02</rscale>
<asrwt>0</asrwt>
<pdfrwt beam="1">  1        2 0.18045961E-02 0.20000343E+02</pdfrwt>
<pdfrwt beam="2">  1       -2 0.13116205E-02 0.20000343E+02</pdfrwt>
<totfact> 0.39929185E+06</totfact>
</mgrwt>
</event>
<event>
 5    1  0.4101335E-006  0.2000220E+02  0.7818608E-02  0.1745284E+00
         -2   -1    0    0    0  501 -0.00000000000E+00  0.00000000000E+00  0.15108826948E+01  0.15108849319E+01  0.26000000000E-02 0.  1.
          2   -1    0    0  501    0  0.00000000000E+00 -0.00000000000E+00 -0.66201011212E+02  0.66201011263E+02  0.26000000000E-02 0. -1.
       1023    2    1    2    0    0  0.00000000000E+00  0.00000000000E+00 -0.64690128517E+02  0.67711896195E+02  0.20002203847E+02 0.  0.
        -11    1    3    3    0    0 -0.18443651626E+01  0.98290634720E+01 -0.32008786547E+02  0.33534677396E+02  0.51100000000E-03 0. -1.
         11    1    3    3    0    0  0.18443651626E+01 -0.98290634720E+01 -0.32681341970E+02  0.34177218799E+02  0.51100000000E-03 0.  1.
<mgrwt>
<rscale>  0 0.20002204E+02</rscale>
<asrwt>0</asrwt>
<pdfrwt beam="2">  1        2 0.10184769E-01 0.20002204E+02</pdfrwt>
<pdfrwt beam="1">  1       -2 0.23244372E-03 0.20002204E+02</pdfrwt>
<totfact> 0.48510920E+06</totfact>
</mgrwt>
</event>
<event>
 5    1  0.4046313E-006  0.2000474E+02  0.7818608E-02  0.1745234E+00
          2   -1    0    0  501    0  0.00000000000E+00  0.00000000000E+00  0.28133480648E+01  0.28133492662E+01  0.26000000000E-02 0.  1.
         -2   -1    0    0    0  501 -0.00000000000E+00 -0.00000000000E+00 -0.35561692926E+02  0.35561693021E+02  0.26000000000E-02 0. -1.
       1023    2    1    2    0    0  0.00000000000E+00  0.00000000000E+00 -0.32748344861E+02  0.38375042287E+02  0.20004743922E+02 0.  0.
        -11    1    3    3    0    0  0.79274007652E+01 -0.60993318022E+01 -0.16290264423E+02  0.19115916053E+02  0.51100000000E-03 0.  1.
         11    1    3    3    0    0 -0.79274007652E+01  0.60993318022E+01 -0.16458080438E+02  0.19259126234E+02  0.51100000000E-03 0. -1.
<mgrwt>
<rscale>  0 0.20004744E+02</rscale>
<asrwt>0</asrwt>
<pdfrwt beam="1">  1        2 0.43282290E-03 0.20004744E+02</pdfrwt>
<pdfrwt beam="2">  1       -2 0.54710295E-02 0.20004744E+02</pdfrwt>
<totfact> 0.35390807E+06</totfact>
</mgrwt>
</event>
<event>
 5    1  0.4046313E-006  0.2000080E+02  0.7818608E-02  0.1745312E+00
         -2   -1    0    0    0  501 -0.00000000000E+00  0.00000000000E+00  0.81764320295E+01  0.81764324429E+01  0.26000000000E-02 0.  1.
          2   -1    0    0  501    0  0.00000000000E+00 -0.00000000000E+00 -0.12231254355E+02  0.12231254631E+02  0.26000000000E-02 0. -1.
       1023    2    1    2    0    0  0.00000000000E+00  0.00000000000E+00 -0.40548223255E+01  0.20407687074E+02  0.20000802675E+02 0.  0.
        -11    1    3    3    0    0  0.72292452826E+01 -0.69096488870E+01 -0.20813211219E+01  0.10214554957E+02  0.51100000000E-03 0. -1.
         11    1    3    3    0    0 -0.72292452826E+01  0.69096488870E+01 -0.19735012037E+01  0.10193132117E+02  0.51100000000E-03 0.  1.
<mgrwt>
<rscale>  0 0.20000803E+02</rscale>
<asrwt>0</asrwt>
<pdfrwt beam="2">  1        2 0.18817315E-02 0.20000803E+02</pdfrwt>
<pdfrwt beam="1">  1       -2 0.12579127E-02 0.20000803E+02</pdfrwt>
<totfact> 0.40052375E+06</totfact>
</mgrwt>
</event>
<event>
 5    1  0.4046313E-006  0.2000381E+02  0.7818608E-02  0.1745252E+00
          2   -1    0    0  501    0  0.00000000000E+00  0.00000000000E+00  0.15007288811E+02  0.15007289037E+02  0.26000000000E-02 0. -1.
         -2   -1    0    0    0  501 -0.00000000000E+00 -0.00000000000E+00 -0.66659677486E+01  0.66659682556E+01  0.26000000000E-02 0.  1.
       1023    2    1    2    0    0  0.00000000000E+00  0.00000000000E+00  0.83413210628E+01  0.21673257292E+02  0.20003810752E+02 0.  0.
        -11    1    3    3    0    0 -0.53257839019E+01  0.84655212638E+01  0.40673823719E+01  0.10796880293E+02  0.51100000000E-03 0.  1.
         11    1    3    3    0    0  0.53257839019E+01 -0.84655212638E+01  0.42739386909E+01  0.10876376999E+02  0.51100000000E-03 0. -1.
<mgrwt>
<rscale>  0 0.20003811E+02</rscale>
<asrwt>0</asrwt>
<pdfrwt beam="1">  1        2 0.23088137E-02 0.20003811E+02</pdfrwt>
<pdfrwt beam="2">  1       -2 0.10255336E-02 0.20003811E+02</pdfrwt>
<totfact> 0.40673590E+06</totfact>
</mgrwt>
</event>
<event>
 5    1  0.4046313E-006  0.2000030E+02  0.7818608E-02  0.1745322E+00
          2   -1    0    0  501    0  0.00000000000E+00  0.00000000000E+00  0.30406268988E+01  0.30406280104E+01  0.26000000000E-02 0. -1.
         -2   -1    0    0    0  501 -0.00000000000E+00 -0.00000000000E+00 -0.32888922901E+02  0.32888923004E+02  0.26000000000E-02 0.  1.
       1023    2    1    2    0    0  0.00000000000E+00  0.00000000000E+00 -0.29848296002E+02  0.35929551014E+02  0.20000296544E+02 0.  0.
        -11    1    3    3    0    0  0.46514497697E+01  0.88524185787E+01 -0.14997463164E+02  0.18025681714E+02  0.51100000000E-03 0. -1.
         11    1    3    3    0    0 -0.46514497697E+01 -0.88524185787E+01 -0.14850832838E+02  0.17903869300E+02  0.51100000000E-03 0.  1.
<mgrwt>
<rscale>  0 0.20000297E+02</rscale>
<asrwt>0</asrwt>
<pdfrwt beam="1">  1        2 0.46778887E-03 0.20000297E+02</pdfrwt>
<pdfrwt beam="2">  1       -2 0.50598342E-02 0.20000297E+02</pdfrwt>
<totfact> 0.35716032E+06</totfact>
</mgrwt>
</event>
<event>
 5    1  0.4046313E-006  0.2000053E+02  0.7818608E-02  0.1745318E+00
         -2   -1    0    0    0  501 -0.00000000000E+00  0.00000000000E+00  0.10778355926E+03  0.10778355929E+03  0.26000000000E-02 0.  1.
          2   -1    0    0  501    0  0.00000000000E+00 -0.00000000000E+00 -0.92783239936E+00  0.92783604225E+00  0.26000000000E-02 0. -1.
       1023    2    1    2    0    0  0.00000000000E+00  0.00000000000E+00  0.10685572686E+03  0.10871139533E+03  0.20000527804E+02 0.  0.
        -11    1    3    3    0    0 -0.53179187909E+01 -0.84690539840E+01  0.53492679868E+02  0.54419407709E+02  0.51100000000E-03 0. -1.
         11    1    3    3    0    0  0.53179187909E+01  0.84690539840E+01  0.53363046990E+02  0.54291987622E+02  0.51100000000E-03 0.  1.
<mgrwt>
<rscale>  0 0.20000528E+02</rscale>
<asrwt>0</asrwt>
<pdfrwt beam="2">  1        2 0.14274382E-03 0.20000528E+02</pdfrwt>
<pdfrwt beam="1">  1       -2 0.16582076E-01 0.20000528E+02</pdfrwt>
<totfact> 0.29173387E+06</totfact>
</mgrwt>
</event>
<event>
 5    1  0.4046313E-006  0.2000026E+02  0.7818608E-02  0.1745323E+00
         -2   -1    0    0    0  501 -0.00000000000E+00  0.00000000000E+00  0.86727859332E+02  0.86727859371E+02  0.26000000000E-02 0.  1.
          2   -1    0    0  501    0  0.00000000000E+00 -0.00000000000E+00 -0.11530599858E+01  0.11530629171E+01  0.26000000000E-02 0. -1.
       1023    2    1    2    0    0  0.00000000000E+00  0.00000000000E+00  0.85574799347E+02  0.87880922289E+02  0.20000255475E+02 0.  0.
        -11    1    3    3    0    0  0.43743602166E+01  0.89926101277E+01  0.42690106112E+02  0.43845720708E+02  0.51100000000E-03 0.  1.
         11    1    3    3    0    0 -0.43743602166E+01 -0.89926101277E+01  0.42884693234E+02  0.44035201581E+02  0.51100000000E-03 0. -1.
<mgrwt>
<rscale>  0 0.20000255E+02</rscale>
<asrwt>0</asrwt>
<pdfrwt beam="2">  1        2 0.17739414E-03 0.20000255E+02</pdfrwt>
<pdfrwt beam="1">  1       -2 0.13342742E-01 0.20000255E+02</pdfrwt>
<totfact> 0.30726272E+06</totfact>
</mgrwt>
</event>
<event>
 5    1  0.4341167E-006  0.2000066E+02  0.7818608E-02  0.1745315E+00
         -2   -1    0    0    0  501 -0.00000000000E+00  0.00000000000E+00  0.98086041308E+00  0.98086385903E+00  0.26000000000E-02 0.  1.
          2   -1    0    0  501    0  0.00000000000E+00 -0.00000000000E+00 -0.10195789391E+03  0.10195789394E+03  0.26000000000E-02 0. -1.
       1023    2    1    2    0    0  0.00000000000E+00  0.00000000000E+00 -0.10097703349E+03  0.10293875780E+03  0.20000664089E+02 0.  0.
        -11    1    3    3    0    0  0.24172192071E+01 -0.97037638852E+01 -0.50356443739E+02  0.51339822833E+02  0.51100000000E-03 0. -1.
         11    1    3    3    0    0 -0.24172192071E+01  0.97037638852E+01 -0.50620589755E+02  0.51598934966E+02  0.51100000000E-03 0.  1.
<mgrwt>
<rscale>  0 0.20000664E+02</rscale>
<asrwt>0</asrwt>
<pdfrwt beam="2">  1        2 0.15685822E-01 0.20000664E+02</pdfrwt>
<pdfrwt beam="1">  1       -2 0.15090195E-03 0.20000664E+02</pdfrwt>
<totfact> 0.52987940E+06</totfact>
</mgrwt>
</event>
<event>
 5    1  0.4046313E-006  0.2000341E+02  0.7818608E-02  0.1745260E+00
         -2   -1    0    0    0  501 -0.00000000000E+00  0.00000000000E+00  0.23805681632E+01  0.23805695830E+01  0.26000000000E-02 0.  1.
          2   -1    0    0  501    0  0.00000000000E+00 -0.00000000000E+00 -0.42021094154E+02  0.42021094234E+02  0.26000000000E-02 0. -1.
       1023    2    1    2    0    0  0.00000000000E+00  0.00000000000E+00 -0.39640525991E+02  0.44401663817E+02  0.20003410932E+02 0.  0.
        -11    1    3    3    0    0 -0.81273608304E+01 -0.58286484309E+01 -0.19634876148E+02  0.22035323873E+02  0.51100000000E-03 0.  1.
         11    1    3    3    0    0  0.81273608304E+01  0.58286484309E+01 -0.20005649843E+02  0.22366339944E+02  0.51100000000E-03 0. -1.
<mgrwt>
<rscale>  0 0.20003411E+02</rscale>
<asrwt>0</asrwt>
<pdfrwt beam="2">  1        2 0.64647833E-02 0.20003411E+02</pdfrwt>
<pdfrwt beam="1">  1       -2 0.36624140E-03 0.20003411E+02</pdfrwt>
<totfact> 0.45174590E+06</totfact>
</mgrwt>
</event>
<event>
 5    1  0.4046313E-006  0.2000022E+02  0.7818608E-02  0.1745324E+00
          2   -1    0    0  501    0  0.00000000000E+00  0.00000000000E+00  0.79468801721E+02  0.79468801763E+02  0.26000000000E-02 0.  1.
         -2   -1    0    0    0  501 -0.00000000000E+00 -0.00000000000E+00 -0.12583822936E+01  0.12583849796E+01  0.26000000000E-02 0. -1.
       1023    2    1    2    0    0  0.00000000000E+00  0.00000000000E+00  0.78210419427E+02  0.80727186743E+02  0.20000224310E+02 0.  0.
        -11    1    3    3    0    0 -0.89351949158E+01  0.44904502651E+01  0.39025387959E+02  0.40286260156E+02  0.51100000000E-03 0.  1.
         11    1    3    3    0    0  0.89351949158E+01 -0.44904502651E+01  0.39185031468E+02  0.40440926587E+02  0.51100000000E-03 0. -1.
<mgrwt>
<rscale>  0 0.20000224E+02</rscale>
<asrwt>0</asrwt>
<pdfrwt beam="1">  1        2 0.12225969E-01 0.20000224E+02</pdfrwt>
<pdfrwt beam="2">  1       -2 0.19359750E-03 0.20000224E+02</pdfrwt>
<totfact> 0.50231318E+06</totfact>
</mgrwt>
</event>
<event>
 5    1  0.4046313E-006  0.2000085E+02  0.7818608E-02  0.1745311E+00
          2   -1    0    0  501    0  0.00000000000E+00  0.00000000000E+00  0.19120261542E+01  0.19120279219E+01  0.26000000000E-02 0.  1.
         -2   -1    0    0    0  501 -0.00000000000E+00 -0.00000000000E+00 -0.52304959176E+02  0.52304959240E+02  0.26000000000E-02 0. -1.
       1023    2    1    2    0    0  0.00000000000E+00  0.00000000000E+00 -0.50392933021E+02  0.54216987162E+02  0.20000849943E+02 0.  0.
        -11    1    3    3    0    0 -0.46746238929E+01 -0.88405090615E+01 -0.25311164277E+02  0.27215101439E+02  0.51100000000E-03 0. -1.
         11    1    3    3    0    0  0.46746238929E+01  0.88405090615E+01 -0.25081768744E+02  0.27001885723E+02  0.51100000000E-03 0.  1.
<mgrwt>
<rscale>  0 0.20000850E+02</rscale>
<asrwt>0</asrwt>
<pdfrwt beam="1">  1        2 0.29415805E-03 0.20000850E+02</pdfrwt>
<pdfrwt beam="2">  1       -2 0.80469158E-02 0.20000850E+02</pdfrwt>
<totfact> 0.33672798E+06</totfact>
</mgrwt>
</event>
<event>
 5    1  0.4046313E-006  0.2000227E+02  0.7818608E-02  0.1745283E+00
         -2   -1    0    0    0  501 -0.00000000000E+00  0.00000000000E+00  0.15790873848E+02  0.15790874062E+02  0.26000000000E-02 0. -1.
          2   -1    0    0  501    0  0.00000000000E+00 -0.00000000000E+00 -0.63342072639E+01  0.63342077975E+01  0.26000000000E-02 0.  1.
       1023    2    1    2    0    0  0.00000000000E+00  0.00000000000E+00  0.94566665838E+01  0.22125081859E+02  0.20002267481E+02 0.  0.
        -11    1    3    3    0    0  0.41697742519E+01 -0.90903818738E+01  0.47557847876E+01  0.11074274203E+02  0.51100000000E-03 0. -1.
         11    1    3    3    0    0 -0.41697742519E+01  0.90903818738E+01  0.47008817963E+01  0.11050807656E+02  0.51100000000E-03 0.  1.
<mgrwt>
<rscale>  0 0.20002267E+02</rscale>
<asrwt>0</asrwt>
<pdfrwt beam="2">  1        2 0.97449348E-03 0.20002267E+02</pdfrwt>
<pdfrwt beam="1">  1       -2 0.24293653E-02 0.20002267E+02</pdfrwt>
<totfact> 0.38138091E+06</totfact>
</mgrwt>
</event>
<event>
 5    1  0.4046313E-006  0.2000071E+02  0.7818608E-02  0.1745314E+00
          2   -1    0    0  501    0  0.00000000000E+00  0.00000000000E+00  0.10766418860E+02  0.10766419173E+02  0.26000000000E-02 0.  1.
         -2   -1    0    0    0  501 -0.00000000000E+00 -0.00000000000E+00 -0.92887953055E+01  0.92887956694E+01  0.26000000000E-02 0. -1.
       1023    2    1    2    0    0  0.00000000000E+00  0.00000000000E+00  0.14776235541E+01  0.20055214843E+02  0.20000706763E+02 0.  0.
        -11    1    3    3    0    0 -0.12412692177E+01 -0.99228708342E+01  0.79329799220E+00  0.10031621844E+02  0.51100000000E-03 0.  1.
         11    1    3    3    0    0  0.12412692177E+01  0.99228708342E+01  0.68432556187E+00  0.10023592998E+02  0.51100000000E-03 0. -1.
<mgrwt>
<rscale>  0 0.20000707E+02</rscale>
<asrwt>0</asrwt>
<pdfrwt beam="1">  1        2 0.16563722E-02 0.20000707E+02</pdfrwt>
<pdfrwt beam="2">  1       -2 0.14290455E-02 0.20000707E+02</pdfrwt>
<totfact> 0.39674709E+06</totfact>
</mgrwt>
</event>
<event>
 4    1  0.4046313E-006  0.2001259E+02  0.7818608E-02  0.1745078E+00
          2   -1    0    0  501    0  0.00000000000E+00  0.00000000000E+00  0.63510931469E+01  0.63510936791E+01  0.26000000000E-02 0.  1.
         -2   -1    0    0    0  501 -0.00000000000E+00 -0.00000000000E+00 -0.15765155254E+02  0.15765155468E+02  0.26000000000E-02 0. -1.
        -11    1    1    2    0    0 -0.77519151912E+01  0.63266493183E+01 -0.48014312896E+01  0.11098307232E+02  0.51100000000E-03 0. -1.
         11    1    1    2    0    0  0.77519151912E+01 -0.63266493183E+01 -0.46126308174E+01  0.11017941915E+02  0.51100000000E-03 0.  1.
<mgrwt>
<rscale>  0 0.20012594E+02</rscale>
<asrwt>0</asrwt>
<pdfrwt beam="1">  1        2 0.97709132E-03 0.20012594E+02</pdfrwt>
<pdfrwt beam="2">  1       -2 0.24254085E-02 0.20012594E+02</pdfrwt>
<totfact> 0.38100351E+06</totfact>
</mgrwt>
</event>
<event>
 4    1  0.4046313E-006  0.2007100E+02  0.7818608E-02  0.1743920E+00
          2   -1    0    0  501    0  0.00000000000E+00  0.00000000000E+00  0.38439933892E+01  0.38439942685E+01  0.26000000000E-02 0.  1.
         -2   -1    0    0    0  501 -0.00000000000E+00 -0.00000000000E+00 -0.26199649424E+02  0.26199649553E+02  0.26000000000E-02 0. -1.
        -11    1    1    2    0    0  0.97276159475E+01  0.23708941933E+01 -0.12197065220E+02  0.15780242442E+02  0.51100000000E-03 0.  1.
         11    1    1    2    0    0 -0.97276159475E+01 -0.23708941933E+01 -0.10158590815E+02  0.14263401379E+02  0.51100000000E-03 0. -1.
<mgrwt>
<rscale>  0 0.20071003E+02</rscale>
<asrwt>0</asrwt>
<pdfrwt beam="1">  1        2 0.59138369E-03 0.20071003E+02</pdfrwt>
<pdfrwt beam="2">  1       -2 0.40307153E-02 0.20071003E+02</pdfrwt>
<totfact> 0.36267413E+06</totfact>
</mgrwt>
</event>
<event>
 5    1  0.4242358E-006  0.2000129E+02  0.7818608E-02  0.1745302E+00
         -2   -1    0    0    0  501 -0.00000000000E+00  0.00000000000E+00  0.11759096758E+01  0.11759125501E+01  0.26000000000E-02 0. -1.
          2   -1    0    0  501    0  0.00000000000E+00 -0.00000000000E+00 -0.85051432493E+02  0.85051432533E+02  0.26000000000E-02 0.  1.
       1023    2    1    2    0    0  0.00000000000E+00  0.00000000000E+00 -0.83875522817E+02  0.86227345083E+02  0.20001292763E+02 0.  0.
        -11    1    3    3    0    0 -0.94950520917E+01  0.31392213929E+01 -0.42140089030E+02  0.43310481744E+02  0.51100000000E-03 0. -1.
         11    1    3    3    0    0  0.94950520917E+01 -0.31392213929E+01 -0.41735433787E+02  0.42916863338E+02  0.51100000000E-03 0.  1.
<mgrwt>
<rscale>  0 0.20001293E+02</rscale>
<asrwt>0</asrwt>
<pdfrwt beam="2">  1        2 0.13084831E-01 0.20001293E+02</pdfrwt>
<pdfrwt beam="1">  1       -2 0.18090947E-03 0.20001293E+02</pdfrwt>
<totfact> 0.50925020E+06</totfact>
</mgrwt>
</event>
<event>
 5    1  0.4046313E-006  0.2000045E+02  0.7818608E-02  0.1745319E+00
         -2   -1    0    0    0  501 -0.00000000000E+00  0.00000000000E+00  0.18409403859E+01  0.18409422219E+01  0.26000000000E-02 0.  1.
          2   -1    0    0  501    0  0.00000000000E+00 -0.00000000000E+00 -0.54322480109E+02  0.54322480171E+02  0.26000000000E-02 0. -1.
       1023    2    1    2    0    0  0.00000000000E+00  0.00000000000E+00 -0.52481539723E+02  0.56163422393E+02  0.20000450075E+02 0.  0.
        -11    1    3    3    0    0  0.93254856072E+01  0.36106540944E+01 -0.26087072755E+02  0.27938089949E+02  0.51100000000E-03 0.  1.
         11    1    3    3    0    0 -0.93254856072E+01 -0.36106540944E+01 -0.26394466968E+02  0.28225332444E+02  0.51100000000E-03 0. -1.
<mgrwt>
<rscale>  0 0.20000450E+02</rscale>
<asrwt>0</asrwt>
<pdfrwt beam="2">  1        2 0.83573035E-02 0.20000450E+02</pdfrwt>
<pdfrwt beam="1">  1       -2 0.28322179E-03 0.20000450E+02</pdfrwt>
<totfact> 0.46924268E+06</totfact>
</mgrwt>
</event>
<event>
 5    1  0.4046313E-006  0.2000047E+02  0.7818608E-02  0.1745319E+00
          2   -1    0    0  501    0  0.00000000000E+00  0.00000000000E+00  0.16375004584E+02  0.16375004791E+02  0.26000000000E-02 0.  1.
         -2   -1    0    0    0  501 -0.00000000000E+00 -0.00000000000E+00 -0.61071540209E+01  0.61071545743E+01  0.26000000000E-02 0. -1.
       1023    2    1    2    0    0  0.00000000000E+00  0.00000000000E+00  0.10267850563E+02  0.22482159365E+02  0.20000468358E+02 0.  0.
        -11    1    3    3    0    0  0.85998776794E+01  0.51035147281E+01  0.51681071494E+01  0.11256690919E+02  0.51100000000E-03 0.  1.
         11    1    3    3    0    0 -0.85998776794E+01 -0.51035147281E+01  0.50997434141E+01  0.11225468446E+02  0.51100000000E-03 0. -1.
<mgrwt>
<rscale>  0 0.20000468E+02</rscale>
<asrwt>0</asrwt>
<pdfrwt beam="1">  1        2 0.25192315E-02 0.20000468E+02</pdfrwt>
<pdfrwt beam="2">  1       -2 0.93956223E-03 0.20000468E+02</pdfrwt>
<totfact> 0.40974850E+06</totfact>
</mgrwt>
</event>
<event>
 5    1  0.4594069E-006  0.2000168E+02  0.7818608E-02  0.1745295E+00
         -2   -1    0    0    0  501 -0.00000000000E+00  0.00000000000E+00  0.94540427273E+00  0.94540784791E+00  0.26000000000E-02 0. -1.
          2   -1    0    0  501    0  0.00000000000E+00 -0.00000000000E+00 -0.10579246854E+03  0.10579246857E+03  0.26000000000E-02 0.  1.
       1023    2    1    2    0    0  0.00000000000E+00  0.00000000000E+00 -0.10484706427E+03  0.10673787642E+03  0.20001684358E+02 0.  0.
        -11    1    3    3    0    0 -0.85393690684E+01 -0.52053698811E+01 -0.52487645940E+02  0.53431916270E+02  0.51100000000E-03 0.  1.
         11    1    3    3    0    0  0.85393690684E+01  0.52053698811E+01 -0.52359418329E+02  0.53305960152E+02  0.51100000000E-03 0. -1.
<mgrwt>
<rscale>  0 0.20001684E+02</rscale>
<asrwt>0</asrwt>
<pdfrwt beam="2">  1        2 0.16275755E-01 0.20001684E+02</pdfrwt>
<pdfrwt beam="1">  1       -2 0.14544717E-03 0.20001684E+02</pdfrwt>
<totfact> 0.53436282E+06</totfact>
</mgrwt>
</event>
<event>
 5    1  0.4339769E-006  0.2000340E+02  0.7818608E-02  0.1745261E+00
         -2   -1    0    0    0  501 -0.00000000000E+00  0.00000000000E+00  0.10460824815E+01  0.10460857126E+01  0.26000000000E-02 0. -1.
          2   -1    0    0  501    0  0.00000000000E+00 -0.00000000000E+00 -0.95627090799E+02  0.95627090835E+02  0.26000000000E-02 0.  1.
       1023    2    1    2    0    0  0.00000000000E+00  0.00000000000E+00 -0.94581008318E+02  0.96673176547E+02  0.20003397944E+02 0.  0.
        -11    1    3    3    0    0 -0.70477562964E+01 -0.70962802883E+01 -0.47662328919E+02  0.48700366128E+02  0.51100000000E-03 0.  1.
         11    1    3    3    0    0  0.70477562964E+01  0.70962802883E+01 -0.46918679399E+02  0.47972810419E+02  0.51100000000E-03 0. -1.
<mgrwt>
<rscale>  0 0.20003398E+02</rscale>
<asrwt>0</asrwt>
<pdfrwt beam="2">  1        2 0.14711853E-01 0.20003398E+02</pdfrwt>
<pdfrwt beam="1">  1       -2 0.16093609E-03 0.20003398E+02</pdfrwt>
<totfact> 0.52211735E+06</totfact>
</mgrwt>
</event>
<event>
 5    1  0.4046313E-006  0.2000142E+02  0.7818608E-02  0.1745300E+00
          2   -1    0    0  501    0  0.00000000000E+00  0.00000000000E+00  0.12471090205E+02  0.12471090477E+02  0.26000000000E-02 0. -1.
         -2   -1    0    0    0  501 -0.00000000000E+00 -0.00000000000E+00 -0.80196819208E+01  0.80196823423E+01  0.26000000000E-02 0.  1.
       1023    2    1    2    0    0  0.00000000000E+00  0.00000000000E+00  0.44514082847E+01  0.20490772819E+02  0.20001418325E+02 0.  0.
        -11    1    3    3    0    0 -0.94550097867E+01 -0.32569261467E+01  0.23250588347E+01  0.10266970188E+02  0.51100000000E-03 0. -1.
         11    1    3    3    0    0  0.94550097867E+01  0.32569261467E+01  0.21263494500E+01  0.10223802631E+02  0.51100000000E-03 0.  1.
<mgrwt>
<rscale>  0 0.20001418E+02</rscale>
<asrwt>0</asrwt>
<pdfrwt beam="1">  1        2 0.19186293E-02 0.20001418E+02</pdfrwt>
<pdfrwt beam="2">  1       -2 0.12337973E-02 0.20001418E+02</pdfrwt>
<totfact> 0.40108164E+06</totfact>
</mgrwt>
</event>
<event>
 5    1  0.4046313E-006  0.2000142E+02  0.7818608E-02  0.1745300E+00
         -2   -1    0    0    0  501 -0.00000000000E+00  0.00000000000E+00  0.57583648278E+02  0.57583648337E+02  0.26000000000E-02 0.  1.
          2   -1    0    0  501    0  0.00000000000E+00 -0.00000000000E+00 -0.17368489614E+01  0.17368509074E+01  0.26000000000E-02 0. -1.
       1023    2    1    2    0    0  0.00000000000E+00  0.00000000000E+00  0.55846799317E+02  0.59320499244E+02  0.20001415866E+02 0.  0.
        -11    1    3    3    0    0  0.86377283448E+01 -0.50401635619E+01  0.27853264795E+02  0.29594221728E+02  0.51100000000E-03 0.  1.
         11    1    3    3    0    0 -0.86377283448E+01  0.50401635619E+01  0.27993534522E+02  0.29726277516E+02  0.51100000000E-03 0. -1.
<mgrwt>
<rscale>  0 0.20001416E+02</rscale>
<asrwt>0</asrwt>
<pdfrwt beam="2">  1        2 0.26720769E-03 0.20001416E+02</pdfrwt>
<pdfrwt beam="1">  1       -2 0.88590227E-02 0.20001416E+02</pdfrwt>
<totfact> 0.33175604E+06</totfact>
</mgrwt>
</event>
<event>
 5    1  0.4046313E-006  0.2000953E+02  0.7818608E-02  0.1745139E+00
         -2   -1    0    0    0  501 -0.00000000000E+00  0.00000000000E+00  0.87278207912E+02  0.87278207951E+02  0.26000000000E-02 0.  1.
          2   -1    0    0  501    0  0.00000000000E+00 -0.00000000000E+00 -0.11468525688E+01  0.11468555160E+01  0.26000000000E-02 0. -1.
       1023    2    1    2    0    0  0.00000000000E+00  0.00000000000E+00  0.86131355343E+02  0.88425063467E+02  0.20009534623E+02 0.  0.
        -11    1    3    3    0    0 -0.80160388845E+01 -0.59816860781E+01  0.44129223686E+02  0.45248489822E+02  0.51100000000E-03 0. -1.
         11    1    3    3    0    0  0.80160388845E+01  0.59816860781E+01  0.42002131657E+02  0.43176573645E+02  0.51100000000E-03 0.  1.
<mgrwt>
<rscale>  0 0.20009535E+02</rscale>
<asrwt>0</asrwt>
<pdfrwt beam="2">  1        2 0.17643907E-03 0.20009535E+02</pdfrwt>
<pdfrwt beam="1">  1       -2 0.13427418E-01 0.20009535E+02</pdfrwt>
<totfact> 0.30652571E+06</totfact>
</mgrwt>
</event>
<event>
 5    1  0.4429497E-006  0.2000249E+02  0.7818608E-02  0.1745279E+00
          2   -1    0    0  501    0  0.00000000000E+00  0.00000000000E+00  0.11157405021E+03  0.11157405024E+03  0.26000000000E-02 0.  1.
         -2   -1    0    0    0  501 -0.00000000000E+00 -0.00000000000E+00 -0.89648661677E+00  0.89649038703E+00  0.26000000000E-02 0. -1.
       1023    2    1    2    0    0  0.00000000000E+00  0.00000000000E+00  0.11067756360E+03  0.11247054063E+03  0.20002485498E+02 0.  0.
        -11    1    3    3    0    0 -0.66170708884E+01  0.74992769871E+01  0.55387081837E+02  0.56282800367E+02  0.51100000000E-03 0.  1.
         11    1    3    3    0    0  0.66170708884E+01 -0.74992769871E+01  0.55290481760E+02  0.56187740264E+02  0.51100000000E-03 0. -1.
<mgrwt>
<rscale>  0 0.20002485E+02</rscale>
<asrwt>0</asrwt>
<pdfrwt beam="1">  1        2 0.17165237E-01 0.20002485E+02</pdfrwt>
<pdfrwt beam="2">  1       -2 0.13792132E-03 0.20002485E+02</pdfrwt>
<totfact> 0.54108027E+06</totfact>
</mgrwt>
</event>
<event>
 5    1  0.4046313E-006  0.2000270E+02  0.7818608E-02  0.1745274E+00
          2   -1    0    0  501    0  0.00000000000E+00  0.00000000000E+00  0.89472035257E+01  0.89472039034E+01  0.26000000000E-02 0. -1.
         -2   -1    0    0    0  501 -0.00000000000E+00 -0.00000000000E+00 -0.11179696351E+02  0.11179696653E+02  0.26000000000E-02 0.  1.
       1023    2    1    2    0    0  0.00000000000E+00  0.00000000000E+00 -0.22324928254E+01  0.20126900557E+02  0.20002702363E+02 0.  0.
        -11    1    3    3    0    0  0.48822069983E+01  0.87280953558E+01 -0.10086644626E+01  0.10051517198E+02  0.51100000000E-03 0.  1.
         11    1    3    3    0    0 -0.48822069983E+01 -0.87280953558E+01 -0.12238283627E+01  0.10075383359E+02  0.51100000000E-03 0. -1.
<mgrwt>
<rscale>  0 0.20002702E+02</rscale>
<asrwt>0</asrwt>
<pdfrwt beam="1">  1        2 0.13764929E-02 0.20002702E+02</pdfrwt>
<pdfrwt beam="2">  1       -2 0.17199533E-02 0.20002702E+02</pdfrwt>
<totfact> 0.39131180E+06</totfact>
</mgrwt>
</event>
<event>
 5    1  0.4046313E-006  0.2000617E+02  0.7818608E-02  0.1745205E+00
          2   -1    0    0  501    0  0.00000000000E+00  0.00000000000E+00  0.92219593160E+00  0.92219959676E+00  0.26000000000E-02 0. -1.
         -2   -1    0    0    0  501 -0.00000000000E+00 -0.00000000000E+00 -0.10850352751E+03  0.10850352754E+03  0.26000000000E-02 0.  1.
       1023    2    1    2    0    0  0.00000000000E+00  0.00000000000E+00 -0.10758133158E+03  0.10942572714E+03  0.20006170435E+02 0.  0.
        -11    1    3    3    0    0 -0.99496826439E+01  0.10213109741E+01 -0.54610244379E+02  0.55518627975E+02  0.51100000000E-03 0.  1.
         11    1    3    3    0    0  0.99496826439E+01 -0.10213109741E+01 -0.52971087199E+02  0.53907099162E+02  0.51100000000E-03 0. -1.
<mgrwt>
<rscale>  0 0.20006170E+02</rscale>
<asrwt>0</asrwt>
<pdfrwt beam="1">  1        2 0.14187667E-03 0.20006170E+02</pdfrwt>
<pdfrwt beam="2">  1       -2 0.16692840E-01 0.20006170E+02</pdfrwt>
<totfact> 0.29105063E+06</totfact>
</mgrwt>
</event>
<event>
 5    1  0.4046313E-006  0.2000075E+02  0.7818608E-02  0.1745313E+00
          2   -1    0    0  501    0  0.00000000000E+00  0.00000000000E+00  0.13778497624E+01  0.13778522155E+01  0.26000000000E-02 0.  1.
         -2   -1    0    0    0  501 -0.00000000000E+00 -0.00000000000E+00 -0.72582221388E+02  0.72582221435E+02  0.26000000000E-02 0. -1.
       1023    2    1    2    0    0  0.00000000000E+00  0.00000000000E+00 -0.71204371626E+02  0.73960073650E+02  0.20000748879E+02 0.  0.
        -11    1    3    3    0    0  0.97075781999E+01  0.24019276676E+01 -0.35728002420E+02  0.37101165591E+02  0.51100000000E-03 0.  1.
         11    1    3    3    0    0 -0.97075781999E+01 -0.24019276676E+01 -0.35476369206E+02  0.36858908059E+02  0.51100000000E-03 0. -1.
<mgrwt>
<rscale>  0 0.20000749E+02</rscale>
<asrwt>0</asrwt>
<pdfrwt beam="1">  1        2 0.21197713E-03 0.20000749E+02</pdfrwt>
<pdfrwt beam="2">  1       -2 0.11166493E-01 0.20000749E+02</pdfrwt>
<totfact> 0.31862941E+06</totfact>
</mgrwt>
</event>
<event>
 4    1  0.4046313E-006  0.2002533E+02  0.7818608E-02  0.1744825E+00
          2   -1    0    0  501    0  0.00000000000E+00  0.00000000000E+00  0.11795223011E+01  0.11795251667E+01  0.26000000000E-02 0. -1.
         -2   -1    0    0    0  501 -0.00000000000E+00 -0.00000000000E+00 -0.84994888874E+02  0.84994888913E+02  0.26000000000E-02 0.  1.
        -11    1    1    2    0    0  0.84712113910E+01  0.53373777437E+01 -0.42195334162E+02  0.43366983396E+02  0.51100000000E-03 0. -1.
         11    1    1    2    0    0 -0.84712113910E+01 -0.53373777437E+01 -0.41620032411E+02  0.42807430684E+02  0.51100000000E-03 0.  1.
<mgrwt>
<rscale>  0 0.20025333E+02</rscale>
<asrwt>0</asrwt>
<pdfrwt beam="1">  1        2 0.18146526E-03 0.20025333E+02</pdfrwt>
<pdfrwt beam="2">  1       -2 0.13076132E-01 0.20025333E+02</pdfrwt>
<totfact> 0.30777071E+06</totfact>
</mgrwt>
</event>
<event>
 5    1  0.4046313E-006  0.2000085E+02  0.7818608E-02  0.1745311E+00
         -2   -1    0    0    0  501 -0.00000000000E+00  0.00000000000E+00  0.16298932306E+01  0.16298953044E+01  0.26000000000E-02 0.  1.
          2   -1    0    0  501    0  0.00000000000E+00 -0.00000000000E+00 -0.61358884675E+02  0.61358884730E+02  0.26000000000E-02 0. -1.
       1023    2    1    2    0    0  0.00000000000E+00  0.00000000000E+00 -0.59728991444E+02  0.62988780035E+02  0.20000849764E+02 0.  0.
        -11    1    3    3    0    0 -0.51851632012E+01 -0.85511594775E+01 -0.29814529653E+02  0.31447009786E+02  0.51100000000E-03 0. -1.
         11    1    3    3    0    0  0.51851632012E+01  0.85511594775E+01 -0.29914461792E+02  0.31541770248E+02  0.51100000000E-03 0.  1.
<mgrwt>
<rscale>  0 0.20000850E+02</rscale>
<asrwt>0</asrwt>
<pdfrwt beam="2">  1        2 0.94398268E-02 0.20000850E+02</pdfrwt>
<pdfrwt beam="1">  1       -2 0.25075302E-03 0.20000850E+02</pdfrwt>
<totfact> 0.47875538E+06</totfact>
</mgrwt>
</event>
<event>
 5    1  0.4046313E-006  0.2000076E+02  0.7818608E-02  0.1745313E+00
          2   -1    0    0  501    0  0.00000000000E+00  0.00000000000E+00  0.16313137054E+02  0.16313137261E+02  0.26000000000E-02 0. -1.
         -2   -1    0    0    0  501 -0.00000000000E+00 -0.00000000000E+00 -0.61304961068E+01  0.61304966582E+01  0.26000000000E-02 0.  1.
       1023    2    1    2    0    0  0.00000000000E+00  0.00000000000E+00  0.10182640947E+02  0.22443633919E+02  0.20000763156E+02 0.  0.
        -11    1    3    3    0    0  0.93029356526E+01 -0.36691511970E+01  0.51122893341E+01  0.11231330498E+02  0.51100000000E-03 0. -1.
         11    1    3    3    0    0 -0.93029356526E+01  0.36691511970E+01  0.50703516126E+01  0.11212303421E+02  0.51100000000E-03 0.  1.
<mgrwt>
<rscale>  0 0.20000763E+02</rscale>
<asrwt>0</asrwt>
<pdfrwt beam="1">  1        2 0.25097134E-02 0.20000763E+02</pdfrwt>
<pdfrwt beam="2">  1       -2 0.94315332E-03 0.20000763E+02</pdfrwt>
<totfact> 0.40960856E+06</totfact>
</mgrwt>
</event>
<event>
 5    1  0.4369044E-006  0.2000071E+02  0.7818608E-02  0.1745314E+00
          2   -1    0    0  501    0  0.00000000000E+00  0.00000000000E+00  0.92186204714E+02  0.92186204751E+02  0.26000000000E-02 0. -1.
         -2   -1    0    0    0  501 -0.00000000000E+00 -0.00000000000E+00 -0.10848360172E+01  0.10848391329E+01  0.26000000000E-02 0.  1.
       1023    2    1    2    0    0  0.00000000000E+00  0.00000000000E+00  0.91101368697E+02  0.93271043884E+02  0.20000706205E+02 0.  0.
        -11    1    3    3    0    0 -0.86071345655E+01  0.50915904518E+01  0.45558967222E+02  0.46643612139E+02  0.51100000000E-03 0.  1.
         11    1    3    3    0    0  0.86071345655E+01 -0.50915904518E+01  0.45542401475E+02  0.46627431745E+02  0.51100000000E-03 0. -1.
<mgrwt>
<rscale>  0 0.20000706E+02</rscale>
<asrwt>0</asrwt>
<pdfrwt beam="1">  1        2 0.14182490E-01 0.20000706E+02</pdfrwt>
<pdfrwt beam="2">  1       -2 0.16689813E-03 0.20000706E+02</pdfrwt>
<totfact> 0.51808651E+06</totfact>
</mgrwt>
</event>
<event>
 5    1  0.4046313E-006  0.2000006E+02  0.7818608E-02  0.1745327E+00
         -2   -1    0    0    0  501 -0.00000000000E+00  0.00000000000E+00  0.75589038115E+01  0.75589042587E+01  0.26000000000E-02 0.  1.
          2   -1    0    0  501    0  0.00000000000E+00 -0.00000000000E+00 -0.13229512915E+02  0.13229513170E+02  0.26000000000E-02 0. -1.
       1023    2    1    2    0    0  0.00000000000E+00  0.00000000000E+00 -0.56706091034E+01  0.20788417429E+02  0.20000062290E+02 0.  0.
        -11    1    3    3    0    0  0.99011830093E+01  0.14025613352E+01 -0.28307314385E+01  0.10392961273E+02  0.51100000000E-03 0. -1.
         11    1    3    3    0    0 -0.99011830093E+01 -0.14025613352E+01 -0.28398776649E+01  0.10395456156E+02  0.51100000000E-03 0.  1.
<mgrwt>
<rscale>  0 0.20000062E+02</rscale>
<asrwt>0</asrwt>
<pdfrwt beam="2">  1        2 0.20353097E-02 0.20000062E+02</pdfrwt>
<pdfrwt beam="1">  1       -2 0.11629083E-02 0.20000062E+02</pdfrwt>
<totfact> 0.40294481E+06</totfact>
</mgrwt>
</event>
<event>
 5    1  0.4046313E-006  0.2000200E+02  0.7818608E-02  0.1745288E+00
         -2   -1    0    0    0  501 -0.00000000000E+00  0.00000000000E+00  0.78904193604E+01  0.78904197888E+01  0.26000000000E-02 0. -1.
          2   -1    0    0  501    0  0.00000000000E+00 -0.00000000000E+00 -0.12676126289E+02  0.12676126556E+02  0.26000000000E-02 0.  1.
       1023    2    1    2    0    0  0.00000000000E+00  0.00000000000E+00 -0.47857069287E+01  0.20566546345E+02  0.20001995844E+02 0.  0.
        -11    1    3    3    0    0  0.90669475704E+01 -0.42193913766E+01 -0.23058645611E+01  0.10263031398E+02  0.51100000000E-03 0. -1.
         11    1    3    3    0    0 -0.90669475704E+01  0.42193913766E+01 -0.24798423676E+01  0.10303514947E+02  0.51100000000E-03 0.  1.
<mgrwt>
<rscale>  0 0.20001996E+02</rscale>
<asrwt>0</asrwt>
<pdfrwt beam="2">  1        2 0.19501733E-02 0.20001996E+02</pdfrwt>
<pdfrwt beam="1">  1       -2 0.12139107E-02 0.20001996E+02</pdfrwt>
<totfact> 0.40154981E+06</totfact>
</mgrwt>
</event>
<event>
 4    1  0.4046313E-006  0.2001887E+02  0.7818608E-02  0.1744953E+00
          2   -1    0    0  501    0  0.00000000000E+00  0.00000000000E+00  0.23597614098E+01  0.23597628422E+01  0.26000000000E-02 0.  1.
         -2   -1    0    0    0  501 -0.00000000000E+00 -0.00000000000E+00 -0.42457136125E+02  0.42457136204E+02  0.26000000000E-02 0. -1.
        -11    1    1    2    0    0  0.62870112976E+01 -0.77817119446E+01 -0.20781656863E+02  0.23064232354E+02  0.51100000000E-03 0. -1.
         11    1    1    2    0    0 -0.62870112976E+01  0.77817119446E+01 -0.19315717852E+02  0.21752666692E+02  0.51100000000E-03 0.  1.
<mgrwt>
<rscale>  0 0.20018866E+02</rscale>
<asrwt>0</asrwt>
<pdfrwt beam="1">  1        2 0.36304037E-03 0.20018866E+02</pdfrwt>
<pdfrwt beam="2">  1       -2 0.65318666E-02 0.20018866E+02</pdfrwt>
<totfact> 0.34588750E+06</totfact>
</mgrwt>
</event>
<event>
 5    1  0.4046313E-006  0.2000197E+02  0.7818608E-02  0.1745289E+00
          2   -1    0    0  501    0  0.00000000000E+00  0.00000000000E+00  0.16877586993E+01  0.16877607020E+01  0.26000000000E-02 0. -1.
         -2   -1    0    0    0  501 -0.00000000000E+00 -0.00000000000E+00 -0.59261798558E+02  0.59261798615E+02  0.26000000000E-02 0.  1.
       1023    2    1    2    0    0  0.00000000000E+00  0.00000000000E+00 -0.57574039859E+02  0.60949559317E+02  0.20001967786E+02 0.  0.
        -11    1    3    3    0    0 -0.95978575933E+01  0.28105531450E+01 -0.28665163272E+02  0.30359671689E+02  0.51100000000E-03 0.  1.
         11    1    3    3    0    0  0.95978575933E+01 -0.28105531450E+01 -0.28908876587E+02  0.30589887628E+02  0.51100000000E-03 0. -1.
<mgrwt>
<rscale>  0 0.20001968E+02</rscale>
<asrwt>0</asrwt>
<pdfrwt beam="1">  1        2 0.25965539E-03 0.20001968E+02</pdfrwt>
<pdfrwt beam="2">  1       -2 0.91171983E-02 0.20001968E+02</pdfrwt>
<totfact> 0.33019940E+06</totfact>
</mgrwt>
</event>
<event>
 5    1  0.4046313E-006  0.2000321E+02  0.7818608E-02  0.1745264E+00
          2   -1    0    0  501    0  0.00000000000E+00  0.00000000000E+00  0.12520134736E+02  0.12520135006E+02  0.26000000000E-02 0. -1.
         -2   -1    0    0    0  501 -0.00000000000E+00 -0.00000000000E+00 -0.79897012092E+01  0.79897016323E+01  0.26000000000E-02 0.  1.
       1023    2    1    2    0    0  0.00000000000E+00  0.00000000000E+00  0.45304335272E+01  0.20509836639E+02  0.20003214017E+02 0.  0.
        -11    1    3    3    0    0  0.82427782987E+01  0.56632034703E+01  0.21320234130E+01  0.10225497138E+02  0.51100000000E-03 0. -1.
         11    1    3    3    0    0 -0.82427782987E+01 -0.56632034703E+01  0.23984101142E+01  0.10284339501E+02  0.51100000000E-03 0.  1.
<mgrwt>
<rscale>  0 0.20003214E+02</rscale>
<asrwt>0</asrwt>
<pdfrwt beam="1">  1        2 0.19261746E-02 0.20003214E+02</pdfrwt>
<pdfrwt beam="2">  1       -2 0.12291848E-02 0.20003214E+02</pdfrwt>
<totfact> 0.40111861E+06</totfact>
</mgrwt>
</event>
<event>
 5    1  0.4046313E-006  0.2000050E+02  0.7818608E-02  0.1745318E+00
         -2   -1    0    0    0  501 -0.00000000000E+00  0.00000000000E+00  0.14041068297E+02  0.14041068538E+02  0.26000000000E-02 0.  1.
          2   -1    0    0  501    0  0.00000000000E+00 -0.00000000000E+00 -0.71223214085E+01  0.71223218831E+01  0.26000000000E-02 0. -1.
       1023    2    1    2    0    0  0.00000000000E+00  0.00000000000E+00  0.69187468889E+01  0.21163390421E+02  0.20000500884E+02 0.  0.
        -11    1    3    3    0    0 -0.74830550701E+00 -0.99719951779E+01  0.35292403908E+01  0.10604536150E+02  0.51100000000E-03 0.  1.
         11    1    3    3    0    0  0.74830550701E+00  0.99719951779E+01  0.33895064982E+01  0.10558854271E+02  0.51100000000E-03 0. -1.
<mgrwt>
<rscale>  0 0.20000501E+02</rscale>
<asrwt>0</asrwt>
<pdfrwt beam="2">  1        2 0.10957418E-02 0.20000501E+02</pdfrwt>
<pdfrwt beam="1">  1       -2 0.21601644E-02 0.20000501E+02</pdfrwt>
<totfact> 0.38487036E+06</totfact>
</mgrwt>
</event>
<event>
 5    1  0.4046313E-006  0.2000018E+02  0.7818608E-02  0.1745325E+00
          2   -1    0    0  501    0  0.00000000000E+00  0.00000000000E+00  0.51132855935E+01  0.51132862546E+01  0.26000000000E-02 0.  1.
         -2   -1    0    0    0  501 -0.00000000000E+00 -0.00000000000E+00 -0.19557241037E+02  0.19557241209E+02  0.26000000000E-02 0. -1.
       1023    2    1    2    0    0  0.00000000000E+00  0.00000000000E+00 -0.14443955443E+02  0.24670527464E+02  0.20000176912E+02 0.  0.
        -11    1    3    3    0    0 -0.45600743384E+01  0.88998583024E+01 -0.72264410792E+01  0.12337876912E+02  0.51100000000E-03 0. -1.
         11    1    3    3    0    0  0.45600743384E+01 -0.88998583024E+01 -0.72175143638E+01  0.12332650552E+02  0.51100000000E-03 0.  1.
<mgrwt>
<rscale>  0 0.20000177E+02</rscale>
<asrwt>0</asrwt>
<pdfrwt beam="1">  1        2 0.78665939E-03 0.20000177E+02</pdfrwt>
<pdfrwt beam="2">  1       -2 0.30088064E-02 0.20000177E+02</pdfrwt>
<totfact> 0.37502831E+06</totfact>
</mgrwt>
</event>
<event>
 5    1  0.4291393E-006  0.2000049E+02  0.7818608E-02  0.1745318E+00
          2   -1    0    0  501    0  0.00000000000E+00  0.00000000000E+00  0.95815981249E+02  0.95815981284E+02  0.26000000000E-02 0.  1.
         -2   -1    0    0    0  501 -0.00000000000E+00 -0.00000000000E+00 -0.10437172184E+01  0.10437204568E+01  0.26000000000E-02 0. -1.
       1023    2    1    2    0    0  0.00000000000E+00  0.00000000000E+00  0.94772264030E+02  0.96859701741E+02  0.20000494791E+02 0.  0.
        -11    1    3    3    0    0 -0.76962312373E+01  0.63853237263E+01  0.47266192593E+02  0.48312496281E+02  0.51100000000E-03 0. -1.
         11    1    3    3    0    0  0.76962312373E+01 -0.63853237263E+01  0.47506071437E+02  0.48547205460E+02  0.51100000000E-03 0.  1.
<mgrwt>
<rscale>  0 0.20000495E+02</rscale>
<asrwt>0</asrwt>
<pdfrwt beam="1">  1        2 0.14740920E-01 0.20000495E+02</pdfrwt>
<pdfrwt beam="2">  1       -2 0.16057214E-03 0.20000495E+02</pdfrwt>
<totfact> 0.52251347E+06</totfact>
</mgrwt>
</event>
<event>
 5    1  0.4046313E-006  0.2000057E+02  0.7818608E-02  0.1745317E+00
          2   -1    0    0  501    0  0.00000000000E+00  0.00000000000E+00  0.60166611411E+01  0.60166617029E+01  0.26000000000E-02 0.  1.
         -2   -1    0    0    0  501 -0.00000000000E+00 -0.00000000000E+00 -0.16621466004E+02  0.16621466207E+02  0.26000000000E-02 0. -1.
       1023    2    1    2    0    0  0.00000000000E+00  0.00000000000E+00 -0.10604804862E+02  0.22638127910E+02  0.20000573719E+02 0.  0.
        -11    1    3    3    0    0 -0.92991448718E+01  0.36784048016E+01 -0.53378317346E+01  0.11335660771E+02  0.51100000000E-03 0. -1.
         11    1    3    3    0    0  0.92991448718E+01 -0.36784048016E+01 -0.52669731279E+01  0.11302467139E+02  0.51100000000E-03 0.  1.
<mgrwt>
<rscale>  0 0.20000574E+02</rscale>
<asrwt>0</asrwt>
<pdfrwt beam="1">  1        2 0.92564024E-03 0.20000574E+02</pdfrwt>
<pdfrwt beam="2">  1       -2 0.25571487E-02 0.20000574E+02</pdfrwt>
<totfact> 0.37993771E+06</totfact>
</mgrwt>
</event>
<event>
 5    1  0.4046313E-006  0.2000210E+02  0.7818608E-02  0.1745286E+00
          2   -1    0    0  501    0  0.00000000000E+00  0.00000000000E+00  0.17760595910E+02  0.17760596100E+02  0.26000000000E-02 0. -1.
         -2   -1    0    0    0  501 -0.00000000000E+00 -0.00000000000E+00 -0.56316220203E+01  0.56316226204E+01  0.26000000000E-02 0.  1.
       1023    2    1    2    0    0  0.00000000000E+00  0.00000000000E+00  0.12128973890E+02  0.23392218721E+02  0.20002097117E+02 0.  0.
        -11    1    3    3    0    0 -0.52725823815E+00  0.99862615772E+01  0.62194186241E+01  0.11776442155E+02  0.51100000000E-03 0. -1.
         11    1    3    3    0    0  0.52725823815E+00 -0.99862615772E+01  0.59095552658E+01  0.11615776566E+02  0.51100000000E-03 0.  1.
<mgrwt>
<rscale>  0 0.20002097E+02</rscale>
<asrwt>0</asrwt>
<pdfrwt beam="1">  1        2 0.27323994E-02 0.20002097E+02</pdfrwt>
<pdfrwt beam="2">  1       -2 0.86640346E-03 0.20002097E+02</pdfrwt>
<totfact> 0.41243695E+06</totfact>
</mgrwt>
</event>
<event>
 4    1  0.4046313E-006  0.2044353E+02  0.7818608E-02  0.1736649E+00
         -2   -1    0    0    0  501 -0.00000000000E+00  0.00000000000E+00  0.27398380119E+02  0.27398380242E+02  0.26000000000E-02 0.  1.
          2   -1    0    0  501    0  0.00000000000E+00 -0.00000000000E+00 -0.38135270127E+01  0.38135278990E+01  0.26000000000E-02 0. -1.
        -11    1    1    2    0    0  0.17358515526E+01 -0.10040192736E+02  0.13038217777E+02  0.16547319234E+02  0.51100000000E-03 0.  1.
         11    1    1    2    0    0 -0.17358515526E+01  0.10040192736E+02  0.10546635329E+02  0.14664588907E+02  0.51100000000E-03 0. -1.
<mgrwt>
<rscale>  0 0.20443530E+02</rscale>
<asrwt>0</asrwt>
<pdfrwt beam="2">  1        2 0.58669655E-03 0.20443530E+02</pdfrwt>
<pdfrwt beam="1">  1       -2 0.42151355E-02 0.20443530E+02</pdfrwt>
<totfact> 0.34690266E+06</totfact>
</mgrwt>
</event>
<event>
 5    1  0.4046313E-006  0.2000736E+02  0.7818608E-02  0.1745182E+00
         -2   -1    0    0    0  501 -0.00000000000E+00  0.00000000000E+00  0.18007545366E+01  0.18007564136E+01  0.26000000000E-02 0.  1.
          2   -1    0    0  501    0  0.00000000000E+00 -0.00000000000E+00 -0.55573117747E+02  0.55573117808E+02  0.26000000000E-02 0. -1.
       1023    2    1    2    0    0  0.00000000000E+00  0.00000000000E+00 -0.53772363210E+02  0.57373874221E+02  0.20007358595E+02 0.  0.
        -11    1    3    3    0    0  0.56668916454E+01  0.82404392542E+01 -0.27559308714E+02  0.29317810237E+02  0.51100000000E-03 0.  1.
         11    1    3    3    0    0 -0.56668916454E+01 -0.82404392542E+01 -0.26213054496E+02  0.28056063984E+02  0.51100000000E-03 0. -1.
<mgrwt>
<rscale>  0 0.20007359E+02</rscale>
<asrwt>0</asrwt>
<pdfrwt beam="2">  1        2 0.85497092E-02 0.20007359E+02</pdfrwt>
<pdfrwt beam="1">  1       -2 0.27703935E-03 0.20007359E+02</pdfrwt>
<totfact> 0.47059308E+06</totfact>
</mgrwt>
</event>
<event>
 5    1  0.4046313E-006  0.2000052E+02  0.7818608E-02  0.1745318E+00
         -2   -1    0    0    0  501 -0.00000000000E+00  0.00000000000E+00  0.14743987043E+01  0.14744009967E+01  0.26000000000E-02 0. -1.
          2   -1    0    0  501    0  0.00000000000E+00 -0.00000000000E+00 -0.67827730872E+02  0.67827730922E+02  0.26000000000E-02 0.  1.
       1023    2    1    2    0    0  0.00000000000E+00  0.00000000000E+00 -0.66353332168E+02  0.69302131919E+02  0.20000519961E+02 0.  0.
        -11    1    3    3    0    0  0.78605276086E+01 -0.61816975179E+01 -0.33393635997E+02  0.34858803821E+02  0.51100000000E-03 0. -1.
         11    1    3    3    0    0 -0.78605276086E+01  0.61816975179E+01 -0.32959696171E+02  0.34443328097E+02  0.51100000000E-03 0.  1.
<mgrwt>
<rscale>  0 0.20000520E+02</rscale>
<asrwt>0</asrwt>
<pdfrwt beam="2">  1        2 0.10435033E-01 0.20000520E+02</pdfrwt>
<pdfrwt beam="1">  1       -2 0.22683080E-03 0.20000520E+02</pdfrwt>
<totfact> 0.48733555E+06</totfact>
</mgrwt>
</event>
<event>
 5    1  0.4046313E-006  0.2000156E+02  0.7818608E-02  0.1745297E+00
         -2   -1    0    0    0  501 -0.00000000000E+00  0.00000000000E+00  0.37621310810E+02  0.37621310900E+02  0.26000000000E-02 0. -1.
          2   -1    0    0  501    0  0.00000000000E+00 -0.00000000000E+00 -0.26584821437E+01  0.26584834151E+01  0.26000000000E-02 0.  1.
       1023    2    1    2    0    0  0.00000000000E+00  0.00000000000E+00  0.34962828666E+02  0.40279794315E+02  0.20001560981E+02 0.  0.
        -11    1    3    3    0    0  0.84704645636E+01  0.53165283798E+01  0.17555850614E+02  0.20204507789E+02  0.51100000000E-03 0.  1.
         11    1    3    3    0    0 -0.84704645636E+01 -0.53165283798E+01  0.17406978052E+02  0.20075286526E+02  0.51100000000E-03 0. -1.
<mgrwt>
<rscale>  0 0.20001561E+02</rscale>
<asrwt>0</asrwt>
<pdfrwt beam="2">  1        2 0.40899733E-03 0.20001561E+02</pdfrwt>
<pdfrwt beam="1">  1       -2 0.57878944E-02 0.20001561E+02</pdfrwt>
<totfact> 0.35173142E+06</totfact>
</mgrwt>
</event>
<event>
 5    1  0.4046313E-006  0.2000019E+02  0.7818608E-02  0.1745324E+00
         -2   -1    0    0    0  501 -0.00000000000E+00  0.00000000000E+00  0.13433114896E+01  0.13433140058E+01  0.26000000000E-02 0. -1.
          2   -1    0    0  501    0  0.00000000000E+00 -0.00000000000E+00 -0.74444274795E+02  0.74444274841E+02  0.26000000000E-02 0.  1.
       1023    2    1    2    0    0  0.00000000000E+00  0.00000000000E+00 -0.73100963305E+02  0.75787588846E+02  0.20000194673E+02 0.  0.
        -11    1    3    3    0    0  0.51926674114E+01  0.85461247154E+01 -0.36715828100E+02  0.38053279436E+02  0.51100000000E-03 0. -1.
         11    1    3    3    0    0 -0.51926674114E+01 -0.85461247154E+01 -0.36385135205E+02  0.37734309410E+02  0.51100000000E-03 0.  1.
<mgrwt>
<rscale>  0 0.20000195E+02</rscale>
<asrwt>0</asrwt>
<pdfrwt beam="2">  1        2 0.11452962E-01 0.20000195E+02</pdfrwt>
<pdfrwt beam="1">  1       -2 0.20666356E-03 0.20000195E+02</pdfrwt>
<totfact> 0.49592351E+06</totfact>
</mgrwt>
</event>
<event>
 4    1  0.4046313E-006  0.2001780E+02  0.7818608E-02  0.1744974E+00
         -2   -1    0    0    0  501 -0.00000000000E+00  0.00000000000E+00  0.10705059854E+01  0.10705091428E+01  0.26000000000E-02 0. -1.
          2   -1    0    0  501    0  0.00000000000E+00 -0.00000000000E+00 -0.93579983610E+02  0.93579983646E+02  0.26000000000E-02 0.  1.
        -11    1    1    2    0    0 -0.52623818845E+01  0.85137881192E+01 -0.46391140964E+02  0.47458563099E+02  0.51100000000E-03 0. -1.
         11    1    1    2    0    0  0.52623818845E+01 -0.85137881192E+01 -0.46118336661E+02  0.47191929691E+02  0.51100000000E-03 0.  1.
<mgrwt>
<rscale>  0 0.20017800E+02</rscale>
<asrwt>0</asrwt>
<pdfrwt beam="2">  1        2 0.14396914E-01 0.20017800E+02</pdfrwt>
<pdfrwt beam="1">  1       -2 0.16469355E-03 0.20017800E+02</pdfrwt>
<totfact> 0.51880675E+06</totfact>
</mgrwt>
</event>
<event>
 5    1  0.4046313E-006  0.2000042E+02  0.7818608E-02  0.1745320E+00
         -2   -1    0    0    0  501 -0.00000000000E+00  0.00000000000E+00  0.45406094846E+01  0.45406102290E+01  0.26000000000E-02 0. -1.
          2   -1    0    0  501    0  0.00000000000E+00 -0.00000000000E+00 -0.22024398240E+02  0.22024398393E+02  0.26000000000E-02 0.  1.
       1023    2    1    2    0    0  0.00000000000E+00  0.00000000000E+00 -0.17483788755E+02  0.26565008622E+02  0.20000420342E+02 0.  0.
        -11    1    3    3    0    0  0.68594857662E+00  0.99766467600E+01 -0.87605454304E+01  0.13294779521E+02  0.51100000000E-03 0. -1.
         11    1    3    3    0    0 -0.68594857662E+00 -0.99766467600E+01 -0.87232433247E+01  0.13270229101E+02  0.51100000000E-03 0.  1.
<mgrwt>
<rscale>  0 0.20000420E+02</rscale>
<asrwt>0</asrwt>
<pdfrwt beam="2">  1        2 0.33883690E-02 0.20000420E+02</pdfrwt>
<pdfrwt beam="1">  1       -2 0.69855538E-03 0.20000420E+02</pdfrwt>
<totfact> 0.42041250E+06</totfact>
</mgrwt>
</event>
<event>
 5    1  0.4046313E-006  0.2000044E+02  0.7818608E-02  0.1745319E+00
          2   -1    0    0  501    0  0.00000000000E+00  0.00000000000E+00  0.33105802614E+02  0.33105802716E+02  0.26000000000E-02 0. -1.
         -2   -1    0    0    0  501 -0.00000000000E+00 -0.00000000000E+00 -0.30207504487E+01  0.30207515676E+01  0.26000000000E-02 0.  1.
       1023    2    1    2    0    0  0.00000000000E+00  0.00000000000E+00  0.30085052165E+02  0.36126554283E+02  0.20000439011E+02 0.  0.
        -11    1    3    3    0    0 -0.52820586687E+01 -0.84913984956E+01  0.15078547991E+02  0.18093275048E+02  0.51100000000E-03 0. -1.
         11    1    3    3    0    0  0.52820586687E+01  0.84913984956E+01  0.15006504174E+02  0.18033279235E+02  0.51100000000E-03 0.  1.
<mgrwt>
<rscale>  0 0.20000439E+02</rscale>
<asrwt>0</asrwt>
<pdfrwt beam="1">  1        2 0.50932007E-02 0.20000439E+02</pdfrwt>
<pdfrwt beam="2">  1       -2 0.46473092E-03 0.20000439E+02</pdfrwt>
<totfact> 0.43856836E+06</totfact>
</mgrwt>
</event>
<event>
 5    1  0.4046313E-006  0.2000058E+02  0.7818608E-02  0.1745317E+00
         -2   -1    0    0    0  501 -0.00000000000E+00  0.00000000000E+00  0.32339523583E+01  0.32339534034E+01  0.26000000000E-02 0.  1.
          2   -1    0    0  501    0  0.00000000000E+00 -0.00000000000E+00 -0.30923702189E+02  0.30923702298E+02  0.26000000000E-02 0. -1.
       1023    2    1    2    0    0  0.00000000000E+00  0.00000000000E+00 -0.27689749831E+02  0.34157655702E+02  0.20000579925E+02 0.  0.
        -11    1    3    3    0    0  0.97766303959E+01  0.21022059896E+01 -0.13953253792E+02  0.17166684699E+02  0.51100000000E-03 0. -1.
         11    1    3    3    0    0 -0.97766303959E+01 -0.21022059896E+01 -0.13736496039E+02  0.16990971002E+02  0.51100000000E-03 0.  1.
<mgrwt>
<rscale>  0 0.20000580E+02</rscale>
<asrwt>0</asrwt>
<pdfrwt beam="2">  1        2 0.47574925E-02 0.20000580E+02</pdfrwt>
<pdfrwt beam="1">  1       -2 0.49753124E-03 0.20000580E+02</pdfrwt>
<totfact> 0.43516321E+06</totfact>
</mgrwt>
</event>
<event>
 5    1  0.4046313E-006  0.2000782E+02  0.7818608E-02  0.1745173E+00
          2   -1    0    0  501    0  0.00000000000E+00  0.00000000000E+00  0.81894592525E+01  0.81894596652E+01  0.26000000000E-02 0.  1.
         -2   -1    0    0    0  501 -0.00000000000E+00 -0.00000000000E+00 -0.12220367955E+02  0.12220368231E+02  0.26000000000E-02 0. -1.
       1023    2    1    2    0    0  0.00000000000E+00  0.00000000000E+00 -0.40309087023E+01  0.20409827897E+02  0.20007819716E+02 0.  0.
        -11    1    3    3    0    0  0.60204859677E+01 -0.79869609257E+01 -0.18103775027E+01  0.10164411595E+02  0.51100000000E-03 0.  1.
         11    1    3    3    0    0 -0.60204859677E+01  0.79869609257E+01 -0.22205311996E+01  0.10245416301E+02  0.51100000000E-03 0. -1.
<mgrwt>
<rscale>  0 0.20007820E+02</rscale>
<asrwt>0</asrwt>
<pdfrwt beam="1">  1        2 0.12599169E-02 0.20007820E+02</pdfrwt>
<pdfrwt beam="2">  1       -2 0.18800566E-02 0.20007820E+02</pdfrwt>
<totfact> 0.38855135E+06</totfact>
</mgrwt>
</event>
<event>
 5    1  0.4046313E-006  0.2000061E+02  0.7818608E-02  0.1745316E+00
         -2   -1    0    0    0  501 -0.00000000000E+00  0.00000000000E+00  0.84991491839E+02  0.84991491878E+02  0.26000000000E-02 0.  1.
          2   -1    0    0  501    0  0.00000000000E+00 -0.00000000000E+00 -0.11766584555E+01  0.11766613281E+01  0.26000000000E-02 0. -1.
       1023    2    1    2    0    0  0.00000000000E+00  0.00000000000E+00  0.83814833383E+02  0.86168153207E+02  0.20000608290E+02 0.  0.
        -11    1    3    3    0    0 -0.60847649154E+01 -0.79357403612E+01  0.41580907903E+02  0.42766485026E+02  0.51100000000E-03 0. -1.
         11    1    3    3    0    0  0.60847649154E+01  0.79357403612E+01  0.42233925480E+02  0.43401668181E+02  0.51100000000E-03 0.  1.
<mgrwt>
<rscale>  0 0.20000608E+02</rscale>
<asrwt>0</asrwt>
<pdfrwt beam="2">  1        2 0.18102461E-03 0.20000608E+02</pdfrwt>
<pdfrwt beam="1">  1       -2 0.13075614E-01 0.20000608E+02</pdfrwt>
<totfact> 0.30860446E+06</totfact>
</mgrwt>
</event>
<event>
 5    1  0.4046313E-006  0.2000162E+02  0.7818608E-02  0.1745296E+00
         -2   -1    0    0    0  501 -0.00000000000E+00  0.00000000000E+00  0.55671150418E+02  0.55671150479E+02  0.26000000000E-02 0. -1.
          2   -1    0    0  501    0  0.00000000000E+00 -0.00000000000E+00 -0.17965516154E+01  0.17965534968E+01  0.26000000000E-02 0.  1.
       1023    2    1    2    0    0  0.00000000000E+00  0.00000000000E+00  0.53874598802E+02  0.57467703975E+02  0.20001615037E+02 0.  0.
        -11    1    3    3    0    0  0.82884879750E+01  0.55957676490E+01  0.26744513958E+02  0.28553120243E+02  0.51100000000E-03 0.  1.
         11    1    3    3    0    0 -0.82884879750E+01 -0.55957676490E+01  0.27130084845E+02  0.28914583733E+02  0.51100000000E-03 0. -1.
<mgrwt>
<rscale>  0 0.20001615E+02</rscale>
<asrwt>0</asrwt>
<pdfrwt beam="2">  1        2 0.27639275E-03 0.20001615E+02</pdfrwt>
<pdfrwt beam="1">  1       -2 0.85647910E-02 0.20001615E+02</pdfrwt>
<totfact> 0.33351986E+06</totfact>
</mgrwt>
</event>
<event>
 5    1  0.4109659E-006  0.2000101E+02  0.7818608E-02  0.1745308E+00
          2   -1    0    0  501    0  0.00000000000E+00  0.00000000000E+00  0.72033032718E+02  0.72033032765E+02  0.26000000000E-02 0. -1.
         -2   -1    0    0    0  501 -0.00000000000E+00 -0.00000000000E+00 -0.13883905211E+01  0.13883929556E+01  0.26000000000E-02 0.  1.
       1023    2    1    2    0    0  0.00000000000E+00  0.00000000000E+00  0.70644642197E+02  0.73421425720E+02  0.20001007067E+02 0.  0.
        -11    1    3    3    0    0  0.68494380544E+01  0.72866375042E+01  0.35272677394E+02  0.36662946671E+02  0.51100000000E-03 0.  1.
         11    1    3    3    0    0 -0.68494380544E+01 -0.72866375042E+01  0.35371964803E+02  0.36758479050E+02  0.51100000000E-03 0. -1.
<mgrwt>
<rscale>  0 0.20001007E+02</rscale>
<asrwt>0</asrwt>
<pdfrwt beam="1">  1        2 0.11082005E-01 0.20001007E+02</pdfrwt>
<pdfrwt beam="2">  1       -2 0.21359875E-03 0.20001007E+02</pdfrwt>
<totfact> 0.49277772E+06</totfact>
</mgrwt>
</event>
<event>
 5    1  0.4046313E-006  0.2000082E+02  0.7818608E-02  0.1745312E+00
         -2   -1    0    0    0  501 -0.00000000000E+00  0.00000000000E+00  0.91988212242E+02  0.91988212279E+02  0.26000000000E-02 0. -1.
          2   -1    0    0  501    0  0.00000000000E+00 -0.00000000000E+00 -0.10871831294E+01  0.10871862383E+01  0.26000000000E-02 0.  1.
       1023    2    1    2    0    0  0.00000000000E+00  0.00000000000E+00  0.90901029112E+02  0.93075398517E+02  0.20000817868E+02 0.  0.
        -11    1    3    3    0    0 -0.80033293901E+01  0.59955904382E+01  0.45039717696E+02  0.46136499178E+02  0.51100000000E-03 0.  1.
         11    1    3    3    0    0  0.80033293901E+01 -0.59955904382E+01  0.45861311416E+02  0.46938899338E+02  0.51100000000E-03 0. -1.
<mgrwt>
<rscale>  0 0.20000818E+02</rscale>
<asrwt>0</asrwt>
<pdfrwt beam="2">  1        2 0.16725917E-03 0.20000818E+02</pdfrwt>
<pdfrwt beam="1">  1       -2 0.14152034E-01 0.20000818E+02</pdfrwt>
<totfact> 0.30321614E+06</totfact>
</mgrwt>
</event>
<event>
 5    1  0.4046313E-006  0.2000017E+02  0.7818608E-02  0.1745325E+00
         -2   -1    0    0    0  501 -0.00000000000E+00  0.00000000000E+00  0.87310745622E+02  0.87310745660E+02  0.26000000000E-02 0.  1.
          2   -1    0    0  501    0  0.00000000000E+00 -0.00000000000E+00 -0.11453519483E+01  0.11453548994E+01  0.26000000000E-02 0. -1.
       1023    2    1    2    0    0  0.00000000000E+00  0.00000000000E+00  0.86165393673E+02  0.88456100560E+02  0.20000166483E+02 0.  0.
        -11    1    3    3    0    0 -0.60461607726E+01  0.79651809003E+01  0.42911534418E+02  0.44061320376E+02  0.51100000000E-03 0.  1.
         11    1    3    3    0    0  0.60461607726E+01 -0.79651809003E+01  0.43253859255E+02  0.44394780184E+02  0.51100000000E-03 0. -1.
<mgrwt>
<rscale>  0 0.20000166E+02</rscale>
<asrwt>0</asrwt>
<pdfrwt beam="2">  1        2 0.17620815E-03 0.20000166E+02</pdfrwt>
<pdfrwt beam="1">  1       -2 0.13432428E-01 0.20000166E+02</pdfrwt>
<totfact> 0.30681396E+06</totfact>
</mgrwt>
</event>
<event>
 4    1  0.4046313E-006  0.2001276E+02  0.7818608E-02  0.1745074E+00
          2   -1    0    0  501    0  0.00000000000E+00  0.00000000000E+00  0.22846874409E+02  0.22846874557E+02  0.26000000000E-02 0.  1.
         -2   -1    0    0    0  501 -0.00000000000E+00 -0.00000000000E+00 -0.43825537366E+01  0.43825545078E+01  0.26000000000E-02 0. -1.
        -11    1    1    2    0    0 -0.15656655921E+01 -0.98793306119E+01  0.96052360955E+01  0.13867697819E+02  0.51100000000E-03 0.  1.
         11    1    1    2    0    0  0.15656655921E+01  0.98793306119E+01  0.88590845773E+01  0.13361731246E+02  0.51100000000E-03 0. -1.
<mgrwt>
<rscale>  0 0.20012763E+02</rscale>
<asrwt>0</asrwt>
<pdfrwt beam="1">  1        2 0.35149038E-02 0.20012763E+02</pdfrwt>
<pdfrwt beam="2">  1       -2 0.67423911E-03 0.20012763E+02</pdfrwt>
<totfact> 0.42127148E+06</totfact>
</mgrwt>
</event>
<event>
 5    1  0.4046313E-006  0.2000448E+02  0.7818608E-02  0.1745239E+00
         -2   -1    0    0    0  501 -0.00000000000E+00  0.00000000000E+00  0.39992277794E+01  0.39992286245E+01  0.26000000000E-02 0.  1.
          2   -1    0    0  501    0  0.00000000000E+00 -0.00000000000E+00 -0.25016017422E+02  0.25016017557E+02  0.26000000000E-02 0. -1.
       1023    2    1    2    0    0  0.00000000000E+00  0.00000000000E+00 -0.21016789643E+02  0.29015246182E+02  0.20004476102E+02 0.  0.
        -11    1    3    3    0    0 -0.28181646238E+01 -0.95961039722E+01 -0.10700283249E+02  0.14646614802E+02  0.51100000000E-03 0.  1.
         11    1    3    3    0    0  0.28181646238E+01  0.95961039722E+01 -0.10316506394E+02  0.14368631380E+02  0.51100000000E-03 0. -1.
<mgrwt>
<rscale>  0 0.20004476E+02</rscale>
<asrwt>0</asrwt>
<pdfrwt beam="2">  1        2 0.38486180E-02 0.20004476E+02</pdfrwt>
<pdfrwt beam="1">  1       -2 0.61526590E-03 0.20004476E+02</pdfrwt>
<totfact> 0.42537959E+06</totfact>
</mgrwt>
</event>
<event>
 5    1  0.4046313E-006  0.2000032E+02  0.7818608E-02  0.1745322E+00
         -2   -1    0    0    0  501 -0.00000000000E+00  0.00000000000E+00  0.36089855226E+02  0.36089855320E+02  0.26000000000E-02 0.  1.
          2   -1    0    0  501    0  0.00000000000E+00 -0.00000000000E+00 -0.27709489836E+01  0.27709502034E+01  0.26000000000E-02 0. -1.
       1023    2    1    2    0    0  0.00000000000E+00  0.00000000000E+00  0.33318906243E+02  0.38860805523E+02  0.20000317315E+02 0.  0.
        -11    1    3    3    0    0  0.99729364730E+01 -0.73641796747E+00  0.16732143483E+02  0.19492726826E+02  0.51100000000E-03 0. -1.
         11    1    3    3    0    0 -0.99729364730E+01  0.73641796747E+00  0.16586762760E+02  0.19368078698E+02  0.51100000000E-03 0.  1.
<mgrwt>
<rscale>  0 0.20000317E+02</rscale>
<asrwt>0</asrwt>
<pdfrwt beam="2">  1        2 0.42629996E-03 0.20000317E+02</pdfrwt>
<pdfrwt beam="1">  1       -2 0.55522854E-02 0.20000317E+02</pdfrwt>
<totfact> 0.35348351E+06</totfact>
</mgrwt>
</event>
<event>
 5    1  0.4046313E-006  0.2000206E+02  0.7818608E-02  0.1745287E+00
         -2   -1    0    0    0  501 -0.00000000000E+00  0.00000000000E+00  0.10459430298E+02  0.10459430621E+02  0.26000000000E-02 0.  1.
          2   -1    0    0  501    0  0.00000000000E+00 -0.00000000000E+00 -0.95627200216E+01  0.95627203751E+01  0.26000000000E-02 0. -1.
       1023    2    1    2    0    0  0.00000000000E+00  0.00000000000E+00  0.89671027592E+00  0.20022150996E+02  0.20002060923E+02 0.  0.
        -11    1    3    3    0    0 -0.80192035974E+01 -0.59758865627E+01  0.40631907072E+00  0.10009192874E+02  0.51100000000E-03 0.  1.
         11    1    3    3    0    0  0.80192035974E+01  0.59758865627E+01  0.49039120520E+00  0.10012958121E+02  0.51100000000E-03 0. -1.
<mgrwt>
<rscale>  0 0.20002061E+02</rscale>
<asrwt>0</asrwt>
<pdfrwt beam="2">  1        2 0.14711878E-02 0.20002061E+02</pdfrwt>
<pdfrwt beam="1">  1       -2 0.16091432E-02 0.20002061E+02</pdfrwt>
<totfact> 0.39324935E+06</totfact>
</mgrwt>
</event>
<event>
 5    1  0.4128068E-006  0.2000872E+02  0.7818608E-02  0.1745155E+00
          2   -1    0    0  501    0  0.00000000000E+00  0.00000000000E+00  0.74709220199E+02  0.74709220244E+02  0.26000000000E-02 0. -1.
         -2   -1    0    0    0  501 -0.00000000000E+00 -0.00000000000E+00 -0.13396890796E+01  0.13396916025E+01  0.26000000000E-02 0.  1.
       1023    2    1    2    0    0  0.00000000000E+00  0.00000000000E+00  0.73369531119E+02  0.76048911847E+02  0.20008720509E+02 0.  0.
        -11    1    3    3    0    0 -0.10001997590E+02 -0.20802744266E+00  0.36444603960E+02  0.37792755778E+02  0.51100000000E-03 0. -1.
         11    1    3    3    0    0  0.10001997590E+02  0.20802744266E+00  0.36924927159E+02  0.38256156069E+02  0.51100000000E-03 0.  1.
<mgrwt>
<rscale>  0 0.20008721E+02</rscale>
<asrwt>0</asrwt>
<pdfrwt beam="1">  1        2 0.11493728E-01 0.20008721E+02</pdfrwt>
<pdfrwt beam="2">  1       -2 0.20610617E-03 0.20008721E+02</pdfrwt>
<totfact> 0.49579463E+06</totfact>
</mgrwt>
</event>
<event>
 5    1  0.4046313E-006  0.2000115E+02  0.7818608E-02  0.1745305E+00
          2   -1    0    0  501    0  0.00000000000E+00  0.00000000000E+00  0.12040001776E+03  0.12040001779E+03  0.26000000000E-02 0.  1.
         -2   -1    0    0    0  501 -0.00000000000E+00 -0.00000000000E+00 -0.83065804421E+00  0.83066211326E+00  0.26000000000E-02 0. -1.
       1023    2    1    2    0    0  0.00000000000E+00  0.00000000000E+00  0.11956935972E+03  0.12123067990E+03  0.20001149130E+02 0.  0.
        -11    1    3    3    0    0  0.80383342343E+01 -0.59492982582E+01  0.59480149034E+02  0.60314982354E+02  0.51100000000E-03 0.  1.
         11    1    3    3    0    0 -0.80383342343E+01  0.59492982582E+01  0.60089210684E+02  0.60915697549E+02  0.51100000000E-03 0. -1.
<mgrwt>
<rscale>  0 0.20001149E+02</rscale>
<asrwt>0</asrwt>
<pdfrwt beam="1">  1        2 0.18523071E-01 0.20001149E+02</pdfrwt>
<pdfrwt beam="2">  1       -2 0.12779392E-03 0.20001149E+02</pdfrwt>
<totfact> 0.55130848E+06</totfact>
</mgrwt>
</event>
<event>
 4    1  0.4046313E-006  0.2001315E+02  0.7818608E-02  0.1745067E+00
          2   -1    0    0  501    0  0.00000000000E+00  0.00000000000E+00  0.15750731642E+02  0.15750731856E+02  0.26000000000E-02 0.  1.
         -2   -1    0    0    0  501 -0.00000000000E+00 -0.00000000000E+00 -0.63572634329E+01  0.63572639646E+01  0.26000000000E-02 0. -1.
        -11    1    1    2    0    0 -0.64620163052E+01  0.76347407451E+01  0.43753570639E+01  0.10917447993E+02  0.51100000000E-03 0.  1.
         11    1    1    2    0    0  0.64620163052E+01 -0.76347407451E+01  0.50181111451E+01  0.11190547828E+02  0.51100000000E-03 0. -1.
<mgrwt>
<rscale>  0 0.20013152E+02</rscale>
<asrwt>0</asrwt>
<pdfrwt beam="1">  1        2 0.24231895E-02 0.20013152E+02</pdfrwt>
<pdfrwt beam="2">  1       -2 0.97804060E-03 0.20013152E+02</pdfrwt>
<totfact> 0.40787597E+06</totfact>
</mgrwt>
</event>
<event>
 5    1  0.4046313E-006  0.2000260E+02  0.7818608E-02  0.1745276E+00
         -2   -1    0    0    0  501 -0.00000000000E+00  0.00000000000E+00  0.62468624989E+01  0.62468630400E+01  0.26000000000E-02 0.  1.
          2   -1    0    0  501    0  0.00000000000E+00 -0.00000000000E+00 -0.16012197178E+02  0.16012197389E+02  0.26000000000E-02 0. -1.
       1023    2    1    2    0    0  0.00000000000E+00  0.00000000000E+00 -0.97653346792E+01  0.22259060429E+02  0.20002600076E+02 0.  0.
        -11    1    3    3    0    0 -0.85899160369E+01 -0.51222031339E+01 -0.48283818929E+01  0.11105714494E+02  0.51100000000E-03 0.  1.
         11    1    3    3    0    0  0.85899160369E+01  0.51222031339E+01 -0.49369527863E+01  0.11153345935E+02  0.51100000000E-03 0. -1.
<mgrwt>
<rscale>  0 0.20002600E+02</rscale>
<asrwt>0</asrwt>
<pdfrwt beam="2">  1        2 0.24634150E-02 0.20002600E+02</pdfrwt>
<pdfrwt beam="1">  1       -2 0.96105583E-03 0.20002600E+02</pdfrwt>
<totfact> 0.40890541E+06</totfact>
</mgrwt>
</event>
<event>
 5    1  0.4046313E-006  0.2000076E+02  0.7818608E-02  0.1745313E+00
         -2   -1    0    0    0  501 -0.00000000000E+00  0.00000000000E+00  0.17416447253E+01  0.17416466660E+01  0.26000000000E-02 0.  1.
          2   -1    0    0  501    0  0.00000000000E+00 -0.00000000000E+00 -0.57421305984E+02  0.57421306043E+02  0.26000000000E-02 0. -1.
       1023    2    1    2    0    0  0.00000000000E+00  0.00000000000E+00 -0.55679661259E+02  0.59162952709E+02  0.20000757369E+02 0.  0.
        -11    1    3    3    0    0 -0.19252366421E+01 -0.98129275335E+01 -0.27583816658E+02  0.29340535520E+02  0.51100000000E-03 0.  1.
         11    1    3    3    0    0  0.19252366421E+01  0.98129275335E+01 -0.28095844601E+02  0.29822417189E+02  0.51100000000E-03 0. -1.
<mgrwt>
<rscale>  0 0.20000757E+02</rscale>
<asrwt>0</asrwt>
<pdfrwt beam="2">  1        2 0.88340458E-02 0.20000757E+02</pdfrwt>
<pdfrwt beam="1">  1       -2 0.26794554E-03 0.20000757E+02</pdfrwt>
<totfact> 0.47345351E+06</totfact>
</mgrwt>
</event>
<event>
 5    1  0.4046313E-006  0.2000587E+02  0.7818608E-02  0.1745211E+00
         -2   -1    0    0    0  501 -0.00000000000E+00  0.00000000000E+00  0.37407585697E+01  0.37407594732E+01  0.26000000000E-02 0.  1.
          2   -1    0    0  501    0  0.00000000000E+00 -0.00000000000E+00 -0.26748227730E+02  0.26748227857E+02  0.26000000000E-02 0. -1.
       1023    2    1    2    0    0  0.00000000000E+00  0.00000000000E+00 -0.23007469161E+02  0.30488987330E+02  0.20005866920E+02 0.  0.
        -11    1    3    3    0    0 -0.86542059254E+01  0.50119202500E+01 -0.11183865578E+02  0.15003115487E+02  0.51100000000E-03 0.  1.
         11    1    3    3    0    0  0.86542059254E+01 -0.50119202500E+01 -0.11823603583E+02  0.15485871843E+02  0.51100000000E-03 0. -1.
<mgrwt>
<rscale>  0 0.20005867E+02</rscale>
<asrwt>0</asrwt>
<pdfrwt beam="2">  1        2 0.41151119E-02 0.20005867E+02</pdfrwt>
<pdfrwt beam="1">  1       -2 0.57550142E-03 0.20005867E+02</pdfrwt>
<totfact> 0.42819760E+06</totfact>
</mgrwt>
</event>
<event>
 5    1  0.4046313E-006  0.2000024E+02  0.7818608E-02  0.1745323E+00
         -2   -1    0    0    0  501 -0.00000000000E+00  0.00000000000E+00  0.12197142743E+01  0.12197170454E+01  0.26000000000E-02 0.  1.
          2   -1    0    0  501    0  0.00000000000E+00 -0.00000000000E+00 -0.81988256035E+02  0.81988256076E+02  0.26000000000E-02 0. -1.
       1023    2    1    2    0    0  0.00000000000E+00  0.00000000000E+00 -0.80768541761E+02  0.83207973122E+02  0.20000236320E+02 0.  0.
        -11    1    3    3    0    0  0.20993824103E+01 -0.97772024439E+01 -0.40236077153E+02  0.41460137471E+02  0.51100000000E-03 0.  1.
         11    1    3    3    0    0 -0.20993824103E+01  0.97772024439E+01 -0.40532464607E+02  0.41747835651E+02  0.51100000000E-03 0. -1.
<mgrwt>
<rscale>  0 0.20000236E+02</rscale>
<asrwt>0</asrwt>
<pdfrwt beam="2">  1        2 0.12613574E-01 0.20000236E+02</pdfrwt>
<pdfrwt beam="1">  1       -2 0.18764863E-03 0.20000236E+02</pdfrwt>
<totfact> 0.50548251E+06</totfact>
</mgrwt>
</event>
<event>
 5    1  0.4046313E-006  0.2000152E+02  0.7818608E-02  0.1745298E+00
          2   -1    0    0  501    0  0.00000000000E+00  0.00000000000E+00  0.22322564272E+01  0.22322579413E+01  0.26000000000E-02 0. -1.
         -2   -1    0    0    0  501 -0.00000000000E+00 -0.00000000000E+00 -0.44804510367E+02  0.44804510443E+02  0.26000000000E-02 0.  1.
       1023    2    1    2    0    0  0.00000000000E+00  0.00000000000E+00 -0.42572253940E+02  0.47036768384E+02  0.20001519304E+02 0.  0.
        -11    1    3    3    0    0  0.18492345582E+01  0.98280225629E+01 -0.21111764310E+02  0.23360571236E+02  0.51100000000E-03 0. -1.
         11    1    3    3    0    0 -0.18492345582E+01 -0.98280225629E+01 -0.21460489631E+02  0.23676197148E+02  0.51100000000E-03 0.  1.
<mgrwt>
<rscale>  0 0.20001519E+02</rscale>
<asrwt>0</asrwt>
<pdfrwt beam="1">  1        2 0.34342422E-03 0.20001519E+02</pdfrwt>
<pdfrwt beam="2">  1       -2 0.68930011E-02 0.20001519E+02</pdfrwt>
<totfact> 0.34411593E+06</totfact>
</mgrwt>
</event>
<event>
 4    1  0.4046313E-006  0.2001262E+02  0.7818608E-02  0.1745077E+00
         -2   -1    0    0    0  501 -0.00000000000E+00  0.00000000000E+00  0.22529266614E+01  0.22529281617E+01  0.26000000000E-02 0.  1.
          2   -1    0    0  501    0  0.00000000000E+00 -0.00000000000E+00 -0.44442738630E+02  0.44442738706E+02  0.26000000000E-02 0. -1.
        -11    1    1    2    0    0 -0.62762669637E+01  0.77914784986E+01 -0.20707245427E+02  0.22997579821E+02  0.51100000000E-03 0.  1.
         11    1    1    2    0    0  0.62762669637E+01 -0.77914784986E+01 -0.21482566541E+02  0.23698087046E+02  0.51100000000E-03 0. -1.
<mgrwt>
<rscale>  0 0.20012623E+02</rscale>
<asrwt>0</asrwt>
<pdfrwt beam="2">  1        2 0.68373439E-02 0.20012623E+02</pdfrwt>
<pdfrwt beam="1">  1       -2 0.34660426E-03 0.20012623E+02</pdfrwt>
<totfact> 0.45477424E+06</totfact>
</mgrwt>
</event>
<event>
 5    1  0.4046313E-006  0.2001013E+02  0.7818608E-02  0.1745127E+00
          2   -1    0    0  501    0  0.00000000000E+00  0.00000000000E+00  0.50821249827E+02  0.50821249894E+02  0.26000000000E-02 0.  1.
         -2   -1    0    0    0  501 -0.00000000000E+00 -0.00000000000E+00 -0.19696738220E+01  0.19696755381E+01  0.26000000000E-02 0. -1.
       1023    2    1    2    0    0  0.00000000000E+00  0.00000000000E+00  0.48851576005E+02  0.52790925432E+02  0.20010130678E+02 0.  0.
        -11    1    3    3    0    0 -0.90113887908E+01  0.43410583114E+01  0.23827565680E+02  0.25841880769E+02  0.51100000000E-03 0.  1.
         11    1    3    3    0    0  0.90113887908E+01 -0.43410583114E+01  0.25024010325E+02  0.26949044663E+02  0.51100000000E-03 0. -1.
<mgrwt>
<rscale>  0 0.20010131E+02</rscale>
<asrwt>0</asrwt>
<pdfrwt beam="1">  1        2 0.78186528E-02 0.20010131E+02</pdfrwt>
<pdfrwt beam="2">  1       -2 0.30302692E-03 0.20010131E+02</pdfrwt>
<totfact> 0.46390323E+06</totfact>
</mgrwt>
</event>
<event>
 5    1  0.4046313E-006  0.2000042E+02  0.7818608E-02  0.1745320E+00
         -2   -1    0    0    0  501 -0.00000000000E+00  0.00000000000E+00  0.43766217430E+01  0.43766225153E+01  0.26000000000E-02 0. -1.
          2   -1    0    0  501    0  0.00000000000E+00 -0.00000000000E+00 -0.22849626493E+02  0.22849626640E+02  0.26000000000E-02 0.  1.
       1023    2    1    2    0    0  0.00000000000E+00  0.00000000000E+00 -0.18473004750E+02  0.27226249156E+02  0.20000418461E+02 0.  0.
        -11    1    3    3    0    0  0.87465492649E+01 -0.48475275862E+01 -0.91555471768E+01  0.13558196492E+02  0.51100000000E-03 0. -1.
         11    1    3    3    0    0 -0.87465492649E+01  0.48475275862E+01 -0.93174575727E+01  0.13668052664E+02  0.51100000000E-03 0.  1.
<mgrwt>
<rscale>  0 0.20000418E+02</rscale>
<asrwt>0</asrwt>
<pdfrwt beam="2">  1        2 0.35153272E-02 0.20000418E+02</pdfrwt>
<pdfrwt beam="1">  1       -2 0.67332651E-03 0.20000418E+02</pdfrwt>
<totfact> 0.42186143E+06</totfact>
</mgrwt>
</event>
<event>
 5    1  0.4273642E-006  0.2000215E+02  0.7818608E-02  0.1745285E+00
         -2   -1    0    0    0  501 -0.00000000000E+00  0.00000000000E+00  0.99915728440E+00  0.99916066724E+00  0.26000000000E-02 0.  1.
          2   -1    0    0  501    0  0.00000000000E+00 -0.00000000000E+00 -0.10010568691E+03  0.10010568695E+03  0.26000000000E-02 0. -1.
       1023    2    1    2    0    0  0.00000000000E+00  0.00000000000E+00 -0.99106529627E+02  0.10110484761E+03  0.20002149785E+02 0.  0.
        -11    1    3    3    0    0 -0.26477178189E+00  0.99975619900E+01 -0.49491584389E+02  0.50491962483E+02  0.51100000000E-03 0. -1.
         11    1    3    3    0    0  0.26477178189E+00 -0.99975619900E+01 -0.49614945238E+02  0.50612885129E+02  0.51100000000E-03 0.  1.
<mgrwt>
<rscale>  0 0.20002150E+02</rscale>
<asrwt>0</asrwt>
<pdfrwt beam="2">  1        2 0.15400867E-01 0.20002150E+02</pdfrwt>
<pdfrwt beam="1">  1       -2 0.15371685E-03 0.20002150E+02</pdfrwt>
<totfact> 0.52758090E+06</totfact>
</mgrwt>
</event>
<event>
 5    1  0.4046313E-006  0.2000121E+02  0.7818608E-02  0.1745304E+00
          2   -1    0    0  501    0  0.00000000000E+00  0.00000000000E+00  0.12553950990E+02  0.12553951260E+02  0.26000000000E-02 0. -1.
         -2   -1    0    0    0  501 -0.00000000000E+00 -0.00000000000E+00 -0.79665812492E+01  0.79665816735E+01  0.26000000000E-02 0.  1.
       1023    2    1    2    0    0  0.00000000000E+00  0.00000000000E+00  0.45873697411E+01  0.20520532933E+02  0.20001207731E+02 0.  0.
        -11    1    3    3    0    0  0.34912812437E+01  0.93713229992E+01  0.22561572850E+01  0.10251877166E+02  0.51100000000E-03 0.  1.
         11    1    3    3    0    0 -0.34912812437E+01 -0.93713229992E+01  0.23312124561E+01  0.10268655767E+02  0.51100000000E-03 0. -1.
<mgrwt>
<rscale>  0 0.20001208E+02</rscale>
<asrwt>0</asrwt>
<pdfrwt beam="1">  1        2 0.19313771E-02 0.20001208E+02</pdfrwt>
<pdfrwt beam="2">  1       -2 0.12256279E-02 0.20001208E+02</pdfrwt>
<totfact> 0.40129178E+06</totfact>
</mgrwt>
</event>
<event>
 5    1  0.4046313E-006  0.2000118E+02  0.7818608E-02  0.1745305E+00
          2   -1    0    0  501    0  0.00000000000E+00  0.00000000000E+00  0.14298781927E+01  0.14298805566E+01  0.26000000000E-02 0.  1.
         -2   -1    0    0    0  501 -0.00000000000E+00 -0.00000000000E+00 -0.69944242562E+02  0.69944242611E+02  0.26000000000E-02 0. -1.
       1023    2    1    2    0    0  0.00000000000E+00  0.00000000000E+00 -0.68514364370E+02  0.71374123167E+02  0.20001183288E+02 0.  0.
        -11    1    3    3    0    0 -0.87871850170E+01 -0.47745351916E+01 -0.34142870566E+02  0.35577330107E+02  0.51100000000E-03 0. -1.
         11    1    3    3    0    0  0.87871850170E+01  0.47745351916E+01 -0.34371493804E+02  0.35796793060E+02  0.51100000000E-03 0.  1.
<mgrwt>
<rscale>  0 0.20001183E+02</rscale>
<asrwt>0</asrwt>
<pdfrwt beam="1">  1        2 0.21998150E-03 0.20001183E+02</pdfrwt>
<pdfrwt beam="2">  1       -2 0.10760650E-01 0.20001183E+02</pdfrwt>
<totfact> 0.32083820E+06</totfact>
</mgrwt>
</event>
<event>
 5    1  0.4046313E-006  0.2000010E+02  0.7818608E-02  0.1745326E+00
         -2   -1    0    0    0  501 -0.00000000000E+00  0.00000000000E+00  0.92914927670E+00  0.92915291442E+00  0.26000000000E-02 0.  1.
          2   -1    0    0  501    0  0.00000000000E+00 -0.00000000000E+00 -0.10762624747E+03  0.10762624750E+03  0.26000000000E-02 0. -1.
       1023    2    1    2    0    0  0.00000000000E+00  0.00000000000E+00 -0.10669709819E+03  0.10855540042E+03  0.20000104914E+02 0.  0.
        -11    1    3    3    0    0  0.59854408402E+01 -0.80109409370E+01 -0.53453254371E+02  0.54380613089E+02  0.51100000000E-03 0. -1.
         11    1    3    3    0    0 -0.59854408402E+01  0.80109409370E+01 -0.53243843821E+02  0.54174787326E+02  0.51100000000E-03 0.  1.
<mgrwt>
<rscale>  0 0.20000105E+02</rscale>
<asrwt>0</asrwt>
<pdfrwt beam="2">  1        2 0.16557875E-01 0.20000105E+02</pdfrwt>
<pdfrwt beam="1">  1       -2 0.14294641E-03 0.20000105E+02</pdfrwt>
<totfact> 0.53661236E+06</totfact>
</mgrwt>
</event>
<event>
 5    1  0.4046313E-006  0.2000145E+02  0.7818608E-02  0.1745299E+00
          2   -1    0    0  501    0  0.00000000000E+00  0.00000000000E+00  0.26068597484E+01  0.26068610450E+01  0.26000000000E-02 0.  1.
         -2   -1    0    0    0  501 -0.00000000000E+00 -0.00000000000E+00 -0.38365883282E+02  0.38365883370E+02  0.26000000000E-02 0. -1.
       1023    2    1    2    0    0  0.00000000000E+00  0.00000000000E+00 -0.35759023534E+02  0.40972744415E+02  0.20001450468E+02 0.  0.
        -11    1    3    3    0    0 -0.94988499702E+01 -0.31264678539E+01 -0.18099692849E+02  0.20678535574E+02  0.51100000000E-03 0.  1.
         11    1    3    3    0    0  0.94988499702E+01  0.31264678539E+01 -0.17659330685E+02  0.20294208841E+02  0.51100000000E-03 0. -1.
<mgrwt>
<rscale>  0 0.20001450E+02</rscale>
<asrwt>0</asrwt>
<pdfrwt beam="1">  1        2 0.40105548E-03 0.20001450E+02</pdfrwt>
<pdfrwt beam="2">  1       -2 0.59024433E-02 0.20001450E+02</pdfrwt>
<totfact> 0.35091862E+06</totfact>
</mgrwt>
</event>
<event>
 4    1  0.4046313E-006  0.2002022E+02  0.7818608E-02  0.1744926E+00
          2   -1    0    0  501    0  0.00000000000E+00  0.00000000000E+00  0.27595781110E+01  0.27595793358E+01  0.26000000000E-02 0.  1.
         -2   -1    0    0    0  501 -0.00000000000E+00 -0.00000000000E+00 -0.36310736085E+02  0.36310736178E+02  0.26000000000E-02 0. -1.
        -11    1    1    2    0    0 -0.86531345313E+01  0.50146920263E+01 -0.15951148415E+02  0.18827188037E+02  0.51100000000E-03 0.  1.
         11    1    1    2    0    0  0.86531345313E+01 -0.50146920263E+01 -0.17600009558E+02  0.20243127477E+02  0.51100000000E-03 0. -1.
<mgrwt>
<rscale>  0 0.20020224E+02</rscale>
<asrwt>0</asrwt>
<pdfrwt beam="1">  1        2 0.42455061E-03 0.20020224E+02</pdfrwt>
<pdfrwt beam="2">  1       -2 0.55862668E-02 0.20020224E+02</pdfrwt>
<totfact> 0.35246948E+06</totfact>
</mgrwt>
</event>
<event>
 5    1  0.4046313E-006  0.2000143E+02  0.7818608E-02  0.1745300E+00
         -2   -1    0    0    0  501 -0.00000000000E+00  0.00000000000E+00  0.61864661996E+02  0.61864662051E+02  0.26000000000E-02 0.  1.
          2   -1    0    0  501    0  0.00000000000E+00 -0.00000000000E+00 -0.16166616057E+01  0.16166636964E+01  0.26000000000E-02 0. -1.
       1023    2    1    2    0    0  0.00000000000E+00  0.00000000000E+00  0.60248000390E+02  0.63481325747E+02  0.20001429138E+02 0.  0.
        -11    1    3    3    0    0  0.60097934742E+01  0.79934626199E+01  0.30012717786E+02  0.31635048465E+02  0.51100000000E-03 0.  1.
         11    1    3    3    0    0 -0.60097934742E+01 -0.79934626199E+01  0.30235282605E+02  0.31846277282E+02  0.51100000000E-03 0. -1.
<mgrwt>
<rscale>  0 0.20001429E+02</rscale>
<asrwt>0</asrwt>
<pdfrwt beam="2">  1        2 0.24871729E-03 0.20001429E+02</pdfrwt>
<pdfrwt beam="1">  1       -2 0.95176420E-02 0.20001429E+02</pdfrwt>
<totfact> 0.32786976E+06</totfact>
</mgrwt>
</event>
<event>
 5    1  0.4046313E-006  0.2000114E+02  0.7818608E-02  0.1745305E+00
         -2   -1    0    0    0  501 -0.00000000000E+00  0.00000000000E+00  0.76660185486E+02  0.76660185530E+02  0.26000000000E-02 0.  1.
          2   -1    0    0  501    0  0.00000000000E+00 -0.00000000000E+00 -0.13046057336E+01  0.13046083244E+01  0.26000000000E-02 0. -1.
       1023    2    1    2    0    0  0.00000000000E+00  0.00000000000E+00  0.75355579753E+02  0.77964793855E+02  0.20001141992E+02 0.  0.
        -11    1    3    3    0    0 -0.19884894544E+01 -0.98005979172E+01  0.37385825164E+02  0.38700203272E+02  0.51100000000E-03 0. -1.
         11    1    3    3    0    0  0.19884894544E+01  0.98005979172E+01  0.37969754588E+02  0.39264590582E+02  0.51100000000E-03 0.  1.
<mgrwt>
<rscale>  0 0.20001142E+02</rscale>
<asrwt>0</asrwt>
<pdfrwt beam="2">  1        2 0.20070877E-03 0.20001142E+02</pdfrwt>
<pdfrwt beam="1">  1       -2 0.11793875E-01 0.20001142E+02</pdfrwt>
<totfact> 0.31524351E+06</totfact>
</mgrwt>
</event>
<event>
 5    1  0.4046313E-006  0.2000127E+02  0.7818608E-02  0.1745303E+00
          2   -1    0    0  501    0  0.00000000000E+00  0.00000000000E+00  0.28724189813E+02  0.28724189931E+02  0.26000000000E-02 0. -1.
         -2   -1    0    0    0  501 -0.00000000000E+00 -0.00000000000E+00 -0.34818288211E+01  0.34818297919E+01  0.26000000000E-02 0.  1.
       1023    2    1    2    0    0  0.00000000000E+00  0.00000000000E+00  0.25242360992E+02  0.32206019723E+02  0.20001272908E+02 0.  0.
        -11    1    3    3    0    0  0.48861561273E+01 -0.87256162778E+01  0.12690026474E+02  0.16156969806E+02  0.51100000000E-03 0.  1.
         11    1    3    3    0    0 -0.48861561273E+01  0.87256162778E+01  0.12552334518E+02  0.16049049917E+02  0.51100000000E-03 0. -1.
<mgrwt>
<rscale>  0 0.20001273E+02</rscale>
<asrwt>0</asrwt>
<pdfrwt beam="1">  1        2 0.44191061E-02 0.20001273E+02</pdfrwt>
<pdfrwt beam="2">  1       -2 0.53566607E-03 0.20001273E+02</pdfrwt>
<totfact> 0.43163286E+06</totfact>
</mgrwt>
</event>
<event>
 5    1  0.4046313E-006  0.2000023E+02  0.7818608E-02  0.1745324E+00
         -2   -1    0    0    0  501 -0.00000000000E+00  0.00000000000E+00  0.25029178130E+01  0.25029191634E+01  0.26000000000E-02 0. -1.
          2   -1    0    0  501    0  0.00000000000E+00 -0.00000000000E+00 -0.39954268421E+02  0.39954268506E+02  0.26000000000E-02 0.  1.
       1023    2    1    2    0    0  0.00000000000E+00  0.00000000000E+00 -0.37451350608E+02  0.42457187669E+02  0.20000228059E+02 0.  0.
        -11    1    3    3    0    0  0.89476201141E+01 -0.44656860725E+01 -0.18715597925E+02  0.21219704611E+02  0.51100000000E-03 0.  1.
         11    1    3    3    0    0 -0.89476201141E+01  0.44656860725E+01 -0.18735752683E+02  0.21237483059E+02  0.51100000000E-03 0. -1.
<mgrwt>
<rscale>  0 0.20000228E+02</rscale>
<asrwt>0</asrwt>
<pdfrwt beam="2">  1        2 0.61468102E-02 0.20000228E+02</pdfrwt>
<pdfrwt beam="1">  1       -2 0.38506442E-03 0.20000228E+02</pdfrwt>
<totfact> 0.44888444E+06</totfact>
</mgrwt>
</event>
<event>
 5    1  0.4046313E-006  0.2000216E+02  0.7818608E-02  0.1745285E+00
         -2   -1    0    0    0  501 -0.00000000000E+00  0.00000000000E+00  0.67652596013E+01  0.67652601009E+01  0.26000000000E-02 0.  1.
          2   -1    0    0  501    0  0.00000000000E+00 -0.00000000000E+00 -0.14784589072E+02  0.14784589300E+02  0.26000000000E-02 0. -1.
       1023    2    1    2    0    0  0.00000000000E+00  0.00000000000E+00 -0.80193294705E+01  0.21549849401E+02  0.20002158985E+02 0.  0.
        -11    1    3    3    0    0  0.69812821243E+01 -0.71607543303E+01 -0.40990809614E+01  0.10808199095E+02  0.51100000000E-03 0. -1.
         11    1    3    3    0    0 -0.69812821243E+01  0.71607543303E+01 -0.39202485091E+01  0.10741650307E+02  0.51100000000E-03 0.  1.
<mgrwt>
<rscale>  0 0.20002159E+02</rscale>
<asrwt>0</asrwt>
<pdfrwt beam="2">  1        2 0.22745522E-02 0.20002159E+02</pdfrwt>
<pdfrwt beam="1">  1       -2 0.10408092E-02 0.20002159E+02</pdfrwt>
<totfact> 0.40633230E+06</totfact>
</mgrwt>
</event>
<event>
 5    1  0.4046313E-006  0.2000138E+02  0.7818608E-02  0.1745301E+00
          2   -1    0    0  501    0  0.00000000000E+00  0.00000000000E+00  0.62421178318E+01  0.62421183733E+01  0.26000000000E-02 0.  1.
         -2   -1    0    0    0  501 -0.00000000000E+00 -0.00000000000E+00 -0.16022416959E+02  0.16022417170E+02  0.26000000000E-02 0. -1.
       1023    2    1    2    0    0  0.00000000000E+00  0.00000000000E+00 -0.97802991270E+01  0.22264535543E+02  0.20001382251E+02 0.  0.
        -11    1    3    3    0    0 -0.18972664211E+01 -0.98185947436E+01 -0.47822250388E+01  0.11084859006E+02  0.51100000000E-03 0. -1.
         11    1    3    3    0    0  0.18972664211E+01  0.98185947436E+01 -0.49980740882E+01  0.11179676537E+02  0.51100000000E-03 0.  1.
<mgrwt>
<rscale>  0 0.20001382E+02</rscale>
<asrwt>0</asrwt>
<pdfrwt beam="1">  1        2 0.96032588E-03 0.20001382E+02</pdfrwt>
<pdfrwt beam="2">  1       -2 0.24649873E-02 0.20001382E+02</pdfrwt>
<totfact> 0.38098947E+06</totfact>
</mgrwt>
</event>
<event>
 5    1  0.4046313E-006  0.2000557E+02  0.7818608E-02  0.1745217E+00
         -2   -1    0    0    0  501 -0.00000000000E+00  0.00000000000E+00  0.97538948257E+02  0.97538948292E+02  0.26000000000E-02 0.  1.
          2   -1    0    0  501    0  0.00000000000E+00 -0.00000000000E+00 -0.10258007298E+01  0.10258040248E+01  0.26000000000E-02 0. -1.
       1023    2    1    2    0    0  0.00000000000E+00  0.00000000000E+00  0.96513147527E+02  0.98564752317E+02  0.20005568065E+02 0.  0.
        -11    1    3    3    0    0 -0.73167552106E+01  0.68193061021E+01  0.48914741257E+02  0.49926844032E+02  0.51100000000E-03 0.  1.
         11    1    3    3    0    0  0.73167552106E+01 -0.68193061021E+01  0.47598406271E+02  0.48637908285E+02  0.51100000000E-03 0. -1.
<mgrwt>
<rscale>  0 0.20005568E+02</rscale>
<asrwt>0</asrwt>
<pdfrwt beam="2">  1        2 0.15781571E-03 0.20005568E+02</pdfrwt>
<pdfrwt beam="1">  1       -2 0.15005996E-01 0.20005568E+02</pdfrwt>
<totfact> 0.29892461E+06</totfact>
</mgrwt>
</event>
<event>
 4    1  0.4078446E-006  0.2063097E+02  0.7818608E-02  0.1733064E+00
          2   -1    0    0  501    0  0.00000000000E+00  0.00000000000E+00  0.66237517806E+02  0.66237517857E+02  0.26000000000E-02 0.  1.
         -2   -1    0    0    0  501 -0.00000000000E+00 -0.00000000000E+00 -0.16064791740E+01  0.16064812780E+01  0.26000000000E-02 0. -1.
        -11    1    1    2    0    0 -0.64776879877E+01 -0.79113631880E+01  0.27831683475E+02  0.29650509515E+02  0.51100000000E-03 0.  1.
         11    1    1    2    0    0  0.64776879877E+01  0.79113631880E+01  0.36799355157E+02  0.38193489620E+02  0.51100000000E-03 0. -1.
<mgrwt>
<rscale>  0 0.20630973E+02</rscale>
<asrwt>0</asrwt>
<pdfrwt beam="1">  1        2 0.10190387E-01 0.20630973E+02</pdfrwt>
<pdfrwt beam="2">  1       -2 0.24715083E-03 0.20630973E+02</pdfrwt>
<totfact> 0.45285434E+06</totfact>
</mgrwt>
</event>
<event>
 5    1  0.4046313E-006  0.2000162E+02  0.7818608E-02  0.1745296E+00
         -2   -1    0    0    0  501 -0.00000000000E+00  0.00000000000E+00  0.27524778651E+01  0.27524790930E+01  0.26000000000E-02 0. -1.
          2   -1    0    0  501    0  0.00000000000E+00 -0.00000000000E+00 -0.36336767189E+02  0.36336767282E+02  0.26000000000E-02 0.  1.
       1023    2    1    2    0    0  0.00000000000E+00  0.00000000000E+00 -0.33584289324E+02  0.39089246375E+02  0.20001617254E+02 0.  0.
        -11    1    3    3    0    0 -0.94364594381E+01  0.33102775850E+01 -0.16582855946E+02  0.19364808701E+02  0.51100000000E-03 0. -1.
         11    1    3    3    0    0  0.94364594381E+01 -0.33102775850E+01 -0.17001433378E+02  0.19724437675E+02  0.51100000000E-03 0.  1.
<mgrwt>
<rscale>  0 0.20001617E+02</rscale>
<asrwt>0</asrwt>
<pdfrwt beam="2">  1        2 0.55902716E-02 0.20001617E+02</pdfrwt>
<pdfrwt beam="1">  1       -2 0.42345826E-03 0.20001617E+02</pdfrwt>
<totfact> 0.44343338E+06</totfact>
</mgrwt>
</event>
<event>
 5    1  0.4046313E-006  0.2000378E+02  0.7818608E-02  0.1745253E+00
         -2   -1    0    0    0  501 -0.00000000000E+00  0.00000000000E+00  0.12078535648E+02  0.12078535928E+02  0.26000000000E-02 0.  1.
          2   -1    0    0  501    0  0.00000000000E+00 -0.00000000000E+00 -0.82822762354E+01  0.82822766435E+01  0.26000000000E-02 0. -1.
       1023    2    1    2    0    0  0.00000000000E+00  0.00000000000E+00  0.37962594123E+01  0.20360812571E+02  0.20003777219E+02 0.  0.
        -11    1    3    3    0    0 -0.70734771150E+01 -0.70705454664E+01  0.17909709666E+01  0.10160426613E+02  0.51100000000E-03 0.  1.
         11    1    3    3    0    0  0.70734771150E+01  0.70705454664E+01  0.20052884457E+01  0.10200385958E+02  0.51100000000E-03 0. -1.
<mgrwt>
<rscale>  0 0.20003777E+02</rscale>
<asrwt>0</asrwt>
<pdfrwt beam="2">  1        2 0.12741964E-02 0.20003777E+02</pdfrwt>
<pdfrwt beam="1">  1       -2 0.18582363E-02 0.20003777E+02</pdfrwt>
<totfact> 0.38905397E+06</totfact>
</mgrwt>
</event>
<event>
 5    1  0.4046313E-006  0.2000082E+02  0.7818608E-02  0.1745312E+00
         -2   -1    0    0    0  501 -0.00000000000E+00  0.00000000000E+00  0.46127926647E+01  0.46127933974E+01  0.26000000000E-02 0. -1.
          2   -1    0    0  501    0  0.00000000000E+00 -0.00000000000E+00 -0.21680626966E+02  0.21680627121E+02  0.26000000000E-02 0.  1.
       1023    2    1    2    0    0  0.00000000000E+00  0.00000000000E+00 -0.17067834301E+02  0.26293420519E+02  0.20000824854E+02 0.  0.
        -11    1    3    3    0    0 -0.98635140265E+01  0.16487915474E+01 -0.84961362470E+01  0.13122185561E+02  0.51100000000E-03 0.  1.
         11    1    3    3    0    0  0.98635140265E+01 -0.16487915474E+01 -0.85716980539E+01  0.13171234957E+02  0.51100000000E-03 0. -1.
<mgrwt>
<rscale>  0 0.20000825E+02</rscale>
<asrwt>0</asrwt>
<pdfrwt beam="2">  1        2 0.33354811E-02 0.20000825E+02</pdfrwt>
<pdfrwt beam="1">  1       -2 0.70966049E-03 0.20000825E+02</pdfrwt>
<totfact> 0.41978344E+06</totfact>
</mgrwt>
</event>
<event>
 5    1  0.4046313E-006  0.2000052E+02  0.7818608E-02  0.1745318E+00
          2   -1    0    0  501    0  0.00000000000E+00  0.00000000000E+00  0.38001447525E+02  0.38001447614E+02  0.26000000000E-02 0. -1.
         -2   -1    0    0    0  501 -0.00000000000E+00 -0.00000000000E+00 -0.26316149421E+01  0.26316162265E+01  0.26000000000E-02 0.  1.
       1023    2    1    2    0    0  0.00000000000E+00  0.00000000000E+00  0.35369832583E+02  0.40633063841E+02  0.20000520496E+02 0.  0.
        -11    1    3    3    0    0  0.75142645284E+01 -0.65984221443E+01  0.17597331610E+02  0.20240292149E+02  0.51100000000E-03 0. -1.
         11    1    3    3    0    0 -0.75142645284E+01  0.65984221443E+01  0.17772500973E+02  0.20392771692E+02  0.51100000000E-03 0.  1.
<mgrwt>
<rscale>  0 0.20000520E+02</rscale>
<asrwt>0</asrwt>
<pdfrwt beam="1">  1        2 0.58463761E-02 0.20000520E+02</pdfrwt>
<pdfrwt beam="2">  1       -2 0.40486398E-03 0.20000520E+02</pdfrwt>
<totfact> 0.44598016E+06</totfact>
</mgrwt>
</event>
<event>
 5    1  0.4046313E-006  0.2000426E+02  0.7818608E-02  0.1745243E+00
         -2   -1    0    0    0  501 -0.00000000000E+00  0.00000000000E+00  0.15883945405E+01  0.15883966685E+01  0.26000000000E-02 0. -1.
          2   -1    0    0  501    0  0.00000000000E+00 -0.00000000000E+00 -0.62983423439E+02  0.62983423492E+02  0.26000000000E-02 0.  1.
       1023    2    1    2    0    0  0.00000000000E+00  0.00000000000E+00 -0.61395028898E+02  0.64571820161E+02  0.20004259183E+02 0.  0.
        -11    1    3    3    0    0  0.11326500306E+01 -0.99365210453E+01 -0.31210431597E+02  0.32773592835E+02  0.51100000000E-03 0. -1.
         11    1    3    3    0    0 -0.11326500306E+01  0.99365210453E+01 -0.30184597301E+02  0.31798227326E+02  0.51100000000E-03 0.  1.
<mgrwt>
<rscale>  0 0.20004259E+02</rscale>
<asrwt>0</asrwt>
<pdfrwt beam="2">  1        2 0.96897557E-02 0.20004259E+02</pdfrwt>
<pdfrwt beam="1">  1       -2 0.24436861E-03 0.20004259E+02</pdfrwt>
<totfact> 0.48074147E+06</totfact>
</mgrwt>
</event>
<event>
 5    1  0.4046313E-006  0.2000013E+02  0.7818608E-02  0.1745325E+00
          2   -1    0    0  501    0  0.00000000000E+00  0.00000000000E+00  0.41318068306E+02  0.41318068387E+02  0.26000000000E-02 0. -1.
         -2   -1    0    0    0  501 -0.00000000000E+00 -0.00000000000E+00 -0.24202799200E+01  0.24202813166E+01  0.26000000000E-02 0.  1.
       1023    2    1    2    0    0  0.00000000000E+00  0.00000000000E+00  0.38897788386E+02  0.43738349704E+02  0.20000132338E+02 0.  0.
        -11    1    3    3    0    0  0.43935119547E+01  0.89832042860E+01  0.19493529670E+02  0.21908870482E+02  0.51100000000E-03 0.  1.
         11    1    3    3    0    0 -0.43935119547E+01 -0.89832042860E+01  0.19404258715E+02  0.21829479222E+02  0.51100000000E-03 0. -1.
<mgrwt>
<rscale>  0 0.20000132E+02</rscale>
<asrwt>0</asrwt>
<pdfrwt beam="1">  1        2 0.63566256E-02 0.20000132E+02</pdfrwt>
<pdfrwt beam="2">  1       -2 0.37235089E-03 0.20000132E+02</pdfrwt>
<totfact> 0.45088734E+06</totfact>
</mgrwt>
</event>
<event>
 5    1  0.4046313E-006  0.2000799E+02  0.7818608E-02  0.1745169E+00
         -2   -1    0    0    0  501 -0.00000000000E+00  0.00000000000E+00  0.34789888199E+02  0.34789888296E+02  0.26000000000E-02 0. -1.
          2   -1    0    0  501    0  0.00000000000E+00 -0.00000000000E+00 -0.28766940928E+01  0.28766952678E+01  0.26000000000E-02 0.  1.
       1023    2    1    2    0    0  0.00000000000E+00  0.00000000000E+00  0.31913194106E+02  0.37666583564E+02  0.20007987388E+02 0.  0.
        -11    1    3    3    0    0 -0.90179247718E+01 -0.43223130371E+01  0.15442641757E+02  0.18397840685E+02  0.51100000000E-03 0. -1.
         11    1    3    3    0    0  0.90179247718E+01  0.43223130371E+01  0.16470552350E+02  0.19268742879E+02  0.51100000000E-03 0.  1.
<mgrwt>
<rscale>  0 0.20007987E+02</rscale>
<asrwt>0</asrwt>
<pdfrwt beam="2">  1        2 0.44256838E-03 0.20007987E+02</pdfrwt>
<pdfrwt beam="1">  1       -2 0.53522910E-02 0.20007987E+02</pdfrwt>
<totfact> 0.35465994E+06</totfact>
</mgrwt>
</event>
<event>
 5    1  0.4046313E-006  0.2000224E+02  0.7818608E-02  0.1745284E+00
          2   -1    0    0  501    0  0.00000000000E+00  0.00000000000E+00  0.35402581570E+02  0.35402581666E+02  0.26000000000E-02 0.  1.
         -2   -1    0    0    0  501 -0.00000000000E+00 -0.00000000000E+00 -0.28252836147E+01  0.28252848110E+01  0.26000000000E-02 0. -1.
       1023    2    1    2    0    0  0.00000000000E+00  0.00000000000E+00  0.32577297956E+02  0.38227866477E+02  0.20002235707E+02 0.  0.
        -11    1    3    3    0    0  0.33729896893E+01  0.94150651748E+01  0.16206526772E+02  0.19043949747E+02  0.51100000000E-03 0. -1.
         11    1    3    3    0    0 -0.33729896893E+01 -0.94150651748E+01  0.16370771184E+02  0.19183916730E+02  0.51100000000E-03 0.  1.
<mgrwt>
<rscale>  0 0.20002236E+02</rscale>
<asrwt>0</asrwt>
<pdfrwt beam="1">  1        2 0.54465511E-02 0.20002236E+02</pdfrwt>
<pdfrwt beam="2">  1       -2 0.43465912E-03 0.20002236E+02</pdfrwt>
<totfact> 0.44199158E+06</totfact>
</mgrwt>
</event>
<event>
 5    1  0.4089003E-006  0.2000196E+02  0.7818608E-02  0.1745289E+00
         -2   -1    0    0    0  501 -0.00000000000E+00  0.00000000000E+00  0.11811130910E+01  0.11811159527E+01  0.26000000000E-02 0. -1.
          2   -1    0    0  501    0  0.00000000000E+00 -0.00000000000E+00 -0.84682391666E+02  0.84682391706E+02  0.26000000000E-02 0.  1.
       1023    2    1    2    0    0  0.00000000000E+00  0.00000000000E+00 -0.83501278575E+02  0.85863507659E+02  0.20001960498E+02 0.  0.
        -11    1    3    3    0    0  0.63784537838E+00 -0.99803464852E+01 -0.41433934348E+02  0.42623761900E+02  0.51100000000E-03 0.  1.
         11    1    3    3    0    0 -0.63784537838E+00  0.99803464852E+01 -0.42067344227E+02  0.43239745758E+02  0.51100000000E-03 0. -1.
<mgrwt>
<rscale>  0 0.20001960E+02</rscale>
<asrwt>0</asrwt>
<pdfrwt beam="2">  1        2 0.13028056E-01 0.20001960E+02</pdfrwt>
<pdfrwt beam="1">  1       -2 0.18171000E-03 0.20001960E+02</pdfrwt>
<totfact> 0.50875268E+06</totfact>
</mgrwt>
</event>
<event>
 5    1  0.4046313E-006  0.2000044E+02  0.7818608E-02  0.1745319E+00
          2   -1    0    0  501    0  0.00000000000E+00  0.00000000000E+00  0.16221382669E+01  0.16221403506E+01  0.26000000000E-02 0.  1.
         -2   -1    0    0    0  501 -0.00000000000E+00 -0.00000000000E+00 -0.61649687799E+02  0.61649687854E+02  0.26000000000E-02 0. -1.
       1023    2    1    2    0    0  0.00000000000E+00  0.00000000000E+00 -0.60027549532E+02  0.63271828205E+02  0.20000438533E+02 0.  0.
        -11    1    3    3    0    0 -0.88655679276E+01 -0.46266609372E+01 -0.30045252284E+02  0.31665777603E+02  0.51100000000E-03 0. -1.
         11    1    3    3    0    0  0.88655679276E+01  0.46266609372E+01 -0.29982297248E+02  0.31606050602E+02  0.51100000000E-03 0.  1.
<mgrwt>
<rscale>  0 0.20000439E+02</rscale>
<asrwt>0</asrwt>
<pdfrwt beam="1">  1        2 0.24955994E-03 0.20000439E+02</pdfrwt>
<pdfrwt beam="2">  1       -2 0.94845657E-02 0.20000439E+02</pdfrwt>
<totfact> 0.32809771E+06</totfact>
</mgrwt>
</event>
<event>
 5    1  0.4046313E-006  0.2000349E+02  0.7818608E-02  0.1745259E+00
         -2   -1    0    0    0  501 -0.00000000000E+00  0.00000000000E+00  0.11714760171E+01  0.11714789023E+01  0.26000000000E-02 0. -1.
          2   -1    0    0  501    0  0.00000000000E+00 -0.00000000000E+00 -0.85392098917E+02  0.85392098957E+02  0.26000000000E-02 0.  1.
       1023    2    1    2    0    0  0.00000000000E+00  0.00000000000E+00 -0.84220622900E+02  0.86563577859E+02  0.20003491947E+02 0.  0.
        -11    1    3    3    0    0  0.18349061619E+01 -0.98315917784E+01 -0.41727029246E+02  0.42908880753E+02  0.51100000000E-03 0.  1.
         11    1    3    3    0    0 -0.18349061619E+01  0.98315917784E+01 -0.42493593654E+02  0.43654697106E+02  0.51100000000E-03 0. -1.
<mgrwt>
<rscale>  0 0.20003492E+02</rscale>
<asrwt>0</asrwt>
<pdfrwt beam="2">  1        2 0.13137241E-01 0.20003492E+02</pdfrwt>
<pdfrwt beam="1">  1       -2 0.18022737E-03 0.20003492E+02</pdfrwt>
<totfact> 0.50955049E+06</totfact>
</mgrwt>
</event>
<event>
 5    1  0.4046313E-006  0.2000302E+02  0.7818608E-02  0.1745268E+00
          2   -1    0    0  501    0  0.00000000000E+00  0.00000000000E+00  0.41472767324E+02  0.41472767406E+02  0.26000000000E-02 0.  1.
         -2   -1    0    0    0  501 -0.00000000000E+00 -0.00000000000E+00 -0.24119490644E+01  0.24119504658E+01  0.26000000000E-02 0. -1.
       1023    2    1    2    0    0  0.00000000000E+00  0.00000000000E+00  0.39060818260E+02  0.43884717872E+02  0.20003023260E+02 0.  0.
        -11    1    3    3    0    0 -0.62742843926E+01 -0.77886657658E+01  0.19493989502E+02  0.21909942629E+02  0.51100000000E-03 0. -1.
         11    1    3    3    0    0  0.62742843926E+01  0.77886657658E+01  0.19566828758E+02  0.21974775242E+02  0.51100000000E-03 0.  1.
<mgrwt>
<rscale>  0 0.20003023E+02</rscale>
<asrwt>0</asrwt>
<pdfrwt beam="1">  1        2 0.63804262E-02 0.20003023E+02</pdfrwt>
<pdfrwt beam="2">  1       -2 0.37106918E-03 0.20003023E+02</pdfrwt>
<totfact> 0.45096746E+06</totfact>
</mgrwt>
</event>
<event>
 5    1  0.4046313E-006  0.2000055E+02  0.7818608E-02  0.1745317E+00
          2   -1    0    0  501    0  0.00000000000E+00  0.00000000000E+00  0.29994765808E+02  0.29994765920E+02  0.26000000000E-02 0. -1.
         -2   -1    0    0    0  501 -0.00000000000E+00 -0.00000000000E+00 -0.33340960972E+01  0.33340971110E+01  0.26000000000E-02 0.  1.
       1023    2    1    2    0    0  0.00000000000E+00  0.00000000000E+00  0.26660669711E+02  0.33328863031E+02  0.20000545031E+02 0.  0.
        -11    1    3    3    0    0 -0.61229723021E+01  0.79063270593E+01  0.13444001575E+02  0.16755356636E+02  0.51100000000E-03 0.  1.
         11    1    3    3    0    0  0.61229723021E+01 -0.79063270593E+01  0.13216668136E+02  0.16573506396E+02  0.51100000000E-03 0. -1.
<mgrwt>
<rscale>  0 0.20000545E+02</rscale>
<asrwt>0</asrwt>
<pdfrwt beam="1">  1        2 0.46145795E-02 0.20000545E+02</pdfrwt>
<pdfrwt beam="2">  1       -2 0.51293794E-03 0.20000545E+02</pdfrwt>
<totfact> 0.43369750E+06</totfact>
</mgrwt>
</event>
<event>
 5    1  0.4046313E-006  0.2000337E+02  0.7818608E-02  0.1745261E+00
          2   -1    0    0  501    0  0.00000000000E+00  0.00000000000E+00  0.86746305105E+01  0.86746309001E+01  0.26000000000E-02 0. -1.
         -2   -1    0    0    0  501 -0.00000000000E+00 -0.00000000000E+00 -0.11531753330E+02  0.11531753623E+02  0.26000000000E-02 0.  1.
       1023    2    1    2    0    0  0.00000000000E+00  0.00000000000E+00 -0.28571228192E+01  0.20206384523E+02  0.20003370333E+02 0.  0.
        -11    1    3    3    0    0 -0.96820326762E+01 -0.25038960615E+01 -0.15799277121E+01  0.10124595008E+02  0.51100000000E-03 0. -1.
         11    1    3    3    0    0  0.96820326762E+01  0.25038960615E+01 -0.12771951071E+01  0.10081789515E+02  0.51100000000E-03 0.  1.
<mgrwt>
<rscale>  0 0.20003370E+02</rscale>
<asrwt>0</asrwt>
<pdfrwt beam="1">  1        2 0.13345586E-02 0.20003370E+02</pdfrwt>
<pdfrwt beam="2">  1       -2 0.17741160E-02 0.20003370E+02</pdfrwt>
<totfact> 0.39039602E+06</totfact>
</mgrwt>
</event>
<event>
 5    1  0.4046313E-006  0.2000076E+02  0.7818608E-02  0.1745313E+00
         -2   -1    0    0    0  501 -0.00000000000E+00  0.00000000000E+00  0.10513317024E+03  0.10513317028E+03  0.26000000000E-02 0. -1.
          2   -1    0    0  501    0  0.00000000000E+00 -0.00000000000E+00 -0.95124549720E+00  0.95124905043E+00  0.26000000000E-02 0.  1.
       1023    2    1    2    0    0  0.00000000000E+00  0.00000000000E+00  0.10418192475E+03  0.10608441933E+03  0.20000764483E+02 0.  0.
        -11    1    3    3    0    0 -0.79343882054E+01 -0.60870405710E+01  0.52264104908E+02  0.53212247098E+02  0.51100000000E-03 0. -1.
         11    1    3    3    0    0  0.79343882054E+01  0.60870405710E+01  0.51917819838E+02  0.52872172228E+02  0.51100000000E-03 0.  1.
<mgrwt>
<rscale>  0 0.20000764E+02</rscale>
<asrwt>0</asrwt>
<pdfrwt beam="2">  1        2 0.14634575E-03 0.20000764E+02</pdfrwt>
<pdfrwt beam="1">  1       -2 0.16174333E-01 0.20000764E+02</pdfrwt>
<totfact> 0.29359672E+06</totfact>
</mgrwt>
</event>
<event>
 5    1  0.4046313E-006  0.2000074E+02  0.7818608E-02  0.1745313E+00
         -2   -1    0    0    0  501 -0.00000000000E+00  0.00000000000E+00  0.99309268700E+01  0.99309272103E+01  0.26000000000E-02 0. -1.
          2   -1    0    0  501    0  0.00000000000E+00 -0.00000000000E+00 -0.10070294928E+02  0.10070295264E+02  0.26000000000E-02 0.  1.
       1023    2    1    2    0    0  0.00000000000E+00  0.00000000000E+00 -0.13936805802E+00  0.20001222474E+02  0.20000736911E+02 0.  0.
        -11    1    3    3    0    0 -0.88364462273E+01  0.46817900214E+01 -0.14336929839E+00  0.10001124674E+02  0.51100000000E-03 0.  1.
         11    1    3    3    0    0  0.88364462273E+01 -0.46817900214E+01  0.40012403729E-02  0.10000097800E+02  0.51100000000E-03 0. -1.
<mgrwt>
<rscale>  0 0.20000737E+02</rscale>
<asrwt>0</asrwt>
<pdfrwt beam="2">  1        2 0.15492762E-02 0.20000737E+02</pdfrwt>
<pdfrwt beam="1">  1       -2 0.15278350E-02 0.20000737E+02</pdfrwt>
<totfact> 0.39480109E+06</totfact>
</mgrwt>
</event>
<event>
 5    1  0.4046313E-006  0.2000504E+02  0.7818608E-02  0.1745228E+00
         -2   -1    0    0    0  501 -0.00000000000E+00  0.00000000000E+00  0.45385599976E+01  0.45385607424E+01  0.26000000000E-02 0.  1.
          2   -1    0    0  501    0  0.00000000000E+00 -0.00000000000E+00 -0.22044525137E+02  0.22044525290E+02  0.26000000000E-02 0. -1.
       1023    2    1    2    0    0  0.00000000000E+00  0.00000000000E+00 -0.17505965139E+02  0.26583086033E+02  0.20005040554E+02 0.  0.
        -11    1    3    3    0    0  0.90034060463E+01  0.43569715333E+01 -0.88549667635E+01  0.13358703456E+02  0.51100000000E-03 0.  1.
         11    1    3    3    0    0 -0.90034060463E+01 -0.43569715333E+01 -0.86509983758E+01  0.13224382577E+02  0.51100000000E-03 0. -1.
<mgrwt>
<rscale>  0 0.20005041E+02</rscale>
<asrwt>0</asrwt>
<pdfrwt beam="2">  1        2 0.33914654E-02 0.20005041E+02</pdfrwt>
<pdfrwt beam="1">  1       -2 0.69824008E-03 0.20005041E+02</pdfrwt>
<totfact> 0.42022957E+06</totfact>
</mgrwt>
</event>
<event>
 5    1  0.4046313E-006  0.2000096E+02  0.7818608E-02  0.1745309E+00
          2   -1    0    0  501    0  0.00000000000E+00  0.00000000000E+00  0.37111082190E+02  0.37111082282E+02  0.26000000000E-02 0. -1.
         -2   -1    0    0    0  501 -0.00000000000E+00 -0.00000000000E+00 -0.26948713688E+01  0.26948726230E+01  0.26000000000E-02 0.  1.
       1023    2    1    2    0    0  0.00000000000E+00  0.00000000000E+00  0.34416210822E+02  0.39805954905E+02  0.20000961940E+02 0.  0.
        -11    1    3    3    0    0 -0.57865612984E+01  0.81562379161E+01  0.17274435333E+02  0.19960326273E+02  0.51100000000E-03 0.  1.
         11    1    3    3    0    0  0.57865612984E+01 -0.81562379161E+01  0.17141775489E+02  0.19845628631E+02  0.51100000000E-03 0. -1.
<mgrwt>
<rscale>  0 0.20000962E+02</rscale>
<asrwt>0</asrwt>
<pdfrwt beam="1">  1        2 0.57093973E-02 0.20000962E+02</pdfrwt>
<pdfrwt beam="2">  1       -2 0.41459570E-03 0.20000962E+02</pdfrwt>
<totfact> 0.44462864E+06</totfact>
</mgrwt>
</event>
<event>
 5    1  0.4046313E-006  0.2000043E+02  0.7818608E-02  0.1745319E+00
          2   -1    0    0  501    0  0.00000000000E+00  0.00000000000E+00  0.24816452926E+02  0.24816453063E+02  0.26000000000E-02 0. -1.
         -2   -1    0    0    0  501 -0.00000000000E+00 -0.00000000000E+00 -0.40297589551E+01  0.40297597938E+01  0.26000000000E-02 0.  1.
       1023    2    1    2    0    0  0.00000000000E+00  0.00000000000E+00  0.20786693971E+02  0.28846212856E+02  0.20000433743E+02 0.  0.
        -11    1    3    3    0    0  0.91901445489E+01 -0.39427878669E+01  0.10396310370E+02  0.14425241854E+02  0.51100000000E-03 0. -1.
         11    1    3    3    0    0 -0.91901445489E+01  0.39427878669E+01  0.10390383602E+02  0.14420971002E+02  0.51100000000E-03 0.  1.
<mgrwt>
<rscale>  0 0.20000434E+02</rscale>
<asrwt>0</asrwt>
<pdfrwt beam="1">  1        2 0.38179160E-02 0.20000434E+02</pdfrwt>
<pdfrwt beam="2">  1       -2 0.61996298E-03 0.20000434E+02</pdfrwt>
<totfact> 0.42523589E+06</totfact>
</mgrwt>
</event>
<event>
 5    1  0.4046313E-006  0.2000041E+02  0.7818608E-02  0.1745320E+00
          2   -1    0    0  501    0  0.00000000000E+00  0.00000000000E+00  0.11628866256E+01  0.11628895321E+01  0.26000000000E-02 0.  1.
         -2   -1    0    0    0  501 -0.00000000000E+00 -0.00000000000E+00 -0.85996308984E+02  0.85996309023E+02  0.26000000000E-02 0. -1.
       1023    2    1    2    0    0  0.00000000000E+00  0.00000000000E+00 -0.84833422358E+02  0.87159198555E+02  0.20000408591E+02 0.  0.
        -11    1    3    3    0    0  0.95348202671E+01 -0.30145600274E+01 -0.42682362707E+02  0.43838162099E+02  0.51100000000E-03 0. -1.
         11    1    3    3    0    0 -0.95348202671E+01  0.30145600274E+01 -0.42151059651E+02  0.43321036456E+02  0.51100000000E-03 0.  1.
<mgrwt>
<rscale>  0 0.20000409E+02</rscale>
<asrwt>0</asrwt>
<pdfrwt beam="1">  1        2 0.17890593E-03 0.20000409E+02</pdfrwt>
<pdfrwt beam="2">  1       -2 0.13230197E-01 0.20000409E+02</pdfrwt>
<totfact> 0.30782639E+06</totfact>
</mgrwt>
</event>
<event>
 5    1  0.4046313E-006  0.2000030E+02  0.7818608E-02  0.1745322E+00
         -2   -1    0    0    0  501 -0.00000000000E+00  0.00000000000E+00  0.15404605314E+01  0.15404627256E+01  0.26000000000E-02 0. -1.
          2   -1    0    0  501    0  0.00000000000E+00 -0.00000000000E+00 -0.64917549772E+02  0.64917549824E+02  0.26000000000E-02 0.  1.
       1023    2    1    2    0    0  0.00000000000E+00  0.00000000000E+00 -0.63377089241E+02  0.66458012550E+02  0.20000299784E+02 0.  0.
        -11    1    3    3    0    0  0.51253933099E+01 -0.85866515130E+01 -0.31514077110E+02  0.33062626894E+02  0.51100000000E-03 0. -1.
         11    1    3    3    0    0 -0.51253933099E+01  0.85866515130E+01 -0.31863012131E+02  0.33395385656E+02  0.51100000000E-03 0.  1.
<mgrwt>
<rscale>  0 0.20000300E+02</rscale>
<asrwt>0</asrwt>
<pdfrwt beam="2">  1        2 0.99873134E-02 0.20000300E+02</pdfrwt>
<pdfrwt beam="1">  1       -2 0.23699415E-03 0.20000300E+02</pdfrwt>
<totfact> 0.48351843E+06</totfact>
</mgrwt>
</event>
<event>
 4    1  0.4449208E-005  0.2128200E+02  0.7818608E-02  0.1720974E+00
          2   -1    0    0  501    0  0.00000000000E+00  0.00000000000E+00  0.10120149010E+03  0.10120149013E+03  0.26000000000E-02 0.  1.
         -2   -1    0    0    0  501 -0.00000000000E+00 -0.00000000000E+00 -0.11188643944E+01  0.11188674153E+01  0.26000000000E-02 0. -1.
        -11    1    1    2    0    0 -0.91758997983E+01 -0.49079542820E+01  0.39349150440E+02  0.40701852451E+02  0.51100000000E-03 0.  1.
         11    1    1    2    0    0  0.91758997983E+01  0.49079542820E+01  0.60733475262E+02  0.61618505094E+02  0.51100000000E-03 0. -1.
<mgrwt>
<rscale>  0 0.21282002E+02</rscale>
<asrwt>0</asrwt>
<pdfrwt beam="1">  1        2 0.15569459E-01 0.21282002E+02</pdfrwt>
<pdfrwt beam="2">  1       -2 0.17213324E-03 0.21282002E+02</pdfrwt>
<totfact> 0.46090049E+06</totfact>
</mgrwt>
</event>
<event>
 4    1  0.4046313E-006  0.2001381E+02  0.7818608E-02  0.1745054E+00
          2   -1    0    0  501    0  0.00000000000E+00  0.00000000000E+00  0.18878151900E+01  0.18878169804E+01  0.26000000000E-02 0. -1.
         -2   -1    0    0    0  501 -0.00000000000E+00 -0.00000000000E+00 -0.53044418277E+02  0.53044418341E+02  0.26000000000E-02 0.  1.
        -11    1    1    2    0    0 -0.97243195084E+01 -0.23609353825E+01 -0.25465019102E+02  0.27360621410E+02  0.51100000000E-03 0. -1.
         11    1    1    2    0    0  0.97243195084E+01  0.23609353825E+01 -0.25691583985E+02  0.27571613911E+02  0.51100000000E-03 0.  1.
<mgrwt>
<rscale>  0 0.20013806E+02</rscale>
<asrwt>0</asrwt>
<pdfrwt beam="1">  1        2 0.29043329E-03 0.20013806E+02</pdfrwt>
<pdfrwt beam="2">  1       -2 0.81606787E-02 0.20013806E+02</pdfrwt>
<totfact> 0.33554710E+06</totfact>
</mgrwt>
</event>
<event>
 5    1  0.4046313E-006  0.2000753E+02  0.7818608E-02  0.1745178E+00
          2   -1    0    0  501    0  0.00000000000E+00  0.00000000000E+00  0.22105863158E+02  0.22105863310E+02  0.26000000000E-02 0. -1.
         -2   -1    0    0    0  501 -0.00000000000E+00 -0.00000000000E+00 -0.45270909612E+01  0.45270917079E+01  0.26000000000E-02 0.  1.
       1023    2    1    2    0    0  0.00000000000E+00  0.00000000000E+00  0.17578772196E+02  0.26632955018E+02  0.20007525111E+02 0.  0.
        -11    1    3    3    0    0  0.57440509397E+01 -0.81870719428E+01  0.84829422791E+01  0.13114212831E+02  0.51100000000E-03 0.  1.
         11    1    3    3    0    0 -0.57440509397E+01  0.81870719428E+01  0.90958299172E+01  0.13518742188E+02  0.51100000000E-03 0. -1.
<mgrwt>
<rscale>  0 0.20007525E+02</rscale>
<asrwt>0</asrwt>
<pdfrwt beam="1">  1        2 0.34009021E-02 0.20007525E+02</pdfrwt>
<pdfrwt beam="2">  1       -2 0.69647560E-03 0.20007525E+02</pdfrwt>
<totfact> 0.42022044E+06</totfact>
</mgrwt>
</event>
<event>
 5    1  0.4046313E-006  0.2000021E+02  0.7818608E-02  0.1745324E+00
          2   -1    0    0  501    0  0.00000000000E+00  0.00000000000E+00  0.91724997026E+00  0.91725365518E+00  0.26000000000E-02 0. -1.
         -2   -1    0    0    0  501 -0.00000000000E+00 -0.00000000000E+00 -0.10902363768E+03  0.10902363771E+03  0.26000000000E-02 0.  1.
       1023    2    1    2    0    0  0.00000000000E+00  0.00000000000E+00 -0.10810638771E+03  0.10994089137E+03  0.20000213267E+02 0.  0.
        -11    1    3    3    0    0 -0.35585872679E+01 -0.93454557645E+01 -0.53875441822E+02  0.54795659669E+02  0.51100000000E-03 0. -1.
         11    1    3    3    0    0  0.35585872679E+01  0.93454557645E+01 -0.54230945888E+02  0.55145231697E+02  0.51100000000E-03 0.  1.
<mgrwt>
<rscale>  0 0.20000213E+02</rscale>
<asrwt>0</asrwt>
<pdfrwt beam="1">  1        2 0.14111575E-03 0.20000213E+02</pdfrwt>
<pdfrwt beam="2">  1       -2 0.16772857E-01 0.20000213E+02</pdfrwt>
<totfact> 0.29087645E+06</totfact>
</mgrwt>
</event>
<event>
 5    1  0.4046313E-006  0.2000505E+02  0.7818608E-02  0.1745228E+00
         -2   -1    0    0    0  501 -0.00000000000E+00  0.00000000000E+00  0.70315863196E+02  0.70315863244E+02  0.26000000000E-02 0.  1.
          2   -1    0    0  501    0  0.00000000000E+00 -0.00000000000E+00 -0.14228712146E+01  0.14228735901E+01  0.26000000000E-02 0. -1.
       1023    2    1    2    0    0  0.00000000000E+00  0.00000000000E+00  0.68892991981E+02  0.71738736834E+02  0.20005049823E+02 0.  0.
        -11    1    3    3    0    0 -0.86155188186E+01 -0.50816142705E+01  0.34363455140E+02  0.35789621645E+02  0.51100000000E-03 0. -1.
         11    1    3    3    0    0  0.86155188186E+01  0.50816142705E+01  0.34529536841E+02  0.35949115189E+02  0.51100000000E-03 0.  1.
<mgrwt>
<rscale>  0 0.20005050E+02</rscale>
<asrwt>0</asrwt>
<pdfrwt beam="2">  1        2 0.21890347E-03 0.20005050E+02</pdfrwt>
<pdfrwt beam="1">  1       -2 0.10817824E-01 0.20005050E+02</pdfrwt>
<totfact> 0.32038758E+06</totfact>
</mgrwt>
</event>
<event>
 5    1  0.4046313E-006  0.2000017E+02  0.7818608E-02  0.1745325E+00
          2   -1    0    0  501    0  0.00000000000E+00  0.00000000000E+00  0.76777787554E+01  0.76777791956E+01  0.26000000000E-02 0.  1.
         -2   -1    0    0    0  501 -0.00000000000E+00 -0.00000000000E+00 -0.13024825891E+02  0.13024826150E+02  0.26000000000E-02 0. -1.
       1023    2    1    2    0    0  0.00000000000E+00  0.00000000000E+00 -0.53470471353E+01  0.20702605346E+02  0.20000173875E+02 0.  0.
        -11    1    3    3    0    0 -0.96443303525E+01  0.26433551090E+01 -0.27109073216E+01  0.10360958110E+02  0.51100000000E-03 0. -1.
         11    1    3    3    0    0  0.96443303525E+01 -0.26433551090E+01 -0.26361398137E+01  0.10341647236E+02  0.51100000000E-03 0.  1.
<mgrwt>
<rscale>  0 0.20000174E+02</rscale>
<asrwt>0</asrwt>
<pdfrwt beam="1">  1        2 0.11811968E-02 0.20000174E+02</pdfrwt>
<pdfrwt beam="2">  1       -2 0.20038194E-02 0.20000174E+02</pdfrwt>
<totfact> 0.38704549E+06</totfact>
</mgrwt>
</event>
<event>
 5    1  0.4046313E-006  0.2000045E+02  0.7818608E-02  0.1745319E+00
         -2   -1    0    0    0  501 -0.00000000000E+00  0.00000000000E+00  0.29874727133E+01  0.29874738447E+01  0.26000000000E-02 0.  1.
          2   -1    0    0  501    0  0.00000000000E+00 -0.00000000000E+00 -0.33474602144E+02  0.33474602245E+02  0.26000000000E-02 0. -1.
       1023    2    1    2    0    0  0.00000000000E+00  0.00000000000E+00 -0.30487129430E+02  0.36462076089E+02  0.20000448291E+02 0.  0.
        -11    1    3    3    0    0  0.93058214398E+01 -0.36614382167E+01 -0.15232003637E+02  0.18221371451E+02  0.51100000000E-03 0. -1.
         11    1    3    3    0    0 -0.93058214398E+01  0.36614382167E+01 -0.15255125793E+02  0.18240704639E+02  0.51100000000E-03 0.  1.
<mgrwt>
<rscale>  0 0.20000448E+02</rscale>
<asrwt>0</asrwt>
<pdfrwt beam="2">  1        2 0.51499386E-02 0.20000448E+02</pdfrwt>
<pdfrwt beam="1">  1       -2 0.45961130E-03 0.20000448E+02</pdfrwt>
<totfact> 0.43913601E+06</totfact>
</mgrwt>
</event>
<event>
 5    1  0.4046313E-006  0.2000143E+02  0.7818608E-02  0.1745300E+00
          2   -1    0    0  501    0  0.00000000000E+00  0.00000000000E+00  0.84229056744E+01  0.84229060757E+01  0.26000000000E-02 0.  1.
         -2   -1    0    0    0  501 -0.00000000000E+00 -0.00000000000E+00 -0.11874085344E+02  0.11874085628E+02  0.26000000000E-02 0. -1.
       1023    2    1    2    0    0  0.00000000000E+00  0.00000000000E+00 -0.34511796692E+01  0.20296991704E+02  0.20001430727E+02 0.  0.
        -11    1    3    3    0    0  0.98701395755E+01 -0.16076908801E+01 -0.18269777546E+01  0.10165735250E+02  0.51100000000E-03 0.  1.
         11    1    3    3    0    0 -0.98701395755E+01  0.16076908801E+01 -0.16242019145E+01  0.10131256453E+02  0.51100000000E-03 0. -1.
<mgrwt>
<rscale>  0 0.20001431E+02</rscale>
<asrwt>0</asrwt>
<pdfrwt beam="1">  1        2 0.12958317E-02 0.20001431E+02</pdfrwt>
<pdfrwt beam="2">  1       -2 0.18267824E-02 0.20001431E+02</pdfrwt>
<totfact> 0.38964032E+06</totfact>
</mgrwt>
</event>
<event>
 5    1  0.4046313E-006  0.2000783E+02  0.7818608E-02  0.1745172E+00
         -2   -1    0    0    0  501 -0.00000000000E+00  0.00000000000E+00  0.14101498350E+01  0.14101522319E+01  0.26000000000E-02 0. -1.
          2   -1    0    0  501    0  0.00000000000E+00 -0.00000000000E+00 -0.70969912335E+02  0.70969912383E+02  0.26000000000E-02 0.  1.
       1023    2    1    2    0    0  0.00000000000E+00  0.00000000000E+00 -0.69559762500E+02  0.72380064615E+02  0.20007828332E+02 0.  0.
        -11    1    3    3    0    0 -0.22322391300E+01  0.97494895546E+01 -0.35528820273E+02  0.36909788787E+02  0.51100000000E-03 0. -1.
         11    1    3    3    0    0  0.22322391300E+01 -0.97494895546E+01 -0.34030942228E+02  0.35470275827E+02  0.51100000000E-03 0.  1.
<mgrwt>
<rscale>  0 0.20007828E+02</rscale>
<asrwt>0</asrwt>
<pdfrwt beam="2">  1        2 0.10918445E-01 0.20007828E+02</pdfrwt>
<pdfrwt beam="1">  1       -2 0.21694637E-03 0.20007828E+02</pdfrwt>
<totfact> 0.49103124E+06</totfact>
</mgrwt>
</event>
<event>
 5    1  0.4046313E-006  0.2000005E+02  0.7818608E-02  0.1745327E+00
          2   -1    0    0  501    0  0.00000000000E+00  0.00000000000E+00  0.61018484737E+02  0.61018484793E+02  0.26000000000E-02 0.  1.
         -2   -1    0    0    0  501 -0.00000000000E+00 -0.00000000000E+00 -0.16388546194E+01  0.16388566818E+01  0.26000000000E-02 0. -1.
       1023    2    1    2    0    0  0.00000000000E+00  0.00000000000E+00  0.59379630118E+02  0.62657341475E+02  0.20000049193E+02 0.  0.
        -11    1    3    3    0    0 -0.94988921019E+01 -0.31259431495E+01  0.29703800825E+02  0.31341924884E+02  0.51100000000E-03 0.  1.
         11    1    3    3    0    0  0.94988921019E+01  0.31259431495E+01  0.29675829293E+02  0.31315416591E+02  0.51100000000E-03 0. -1.
<mgrwt>
<rscale>  0 0.20000049E+02</rscale>
<asrwt>0</asrwt>
<pdfrwt beam="1">  1        2 0.93874575E-02 0.20000049E+02</pdfrwt>
<pdfrwt beam="2">  1       -2 0.25213169E-03 0.20000049E+02</pdfrwt>
<totfact> 0.47834205E+06</totfact>
</mgrwt>
</event>
<event>
 5    1  0.4054708E-006  0.2000140E+02  0.7818608E-02  0.1745300E+00
          2   -1    0    0  501    0  0.00000000000E+00  0.00000000000E+00  0.69871622359E+02  0.69871622407E+02  0.26000000000E-02 0.  1.
         -2   -1    0    0    0  501 -0.00000000000E+00 -0.00000000000E+00 -0.14313949890E+01  0.14313973503E+01  0.26000000000E-02 0. -1.
       1023    2    1    2    0    0  0.00000000000E+00  0.00000000000E+00  0.68440227370E+02  0.71303019758E+02  0.20001397554E+02 0.  0.
        -11    1    3    3    0    0  0.44048456677E+01 -0.89783776163E+01  0.34244236572E+02  0.35674664240E+02  0.51100000000E-03 0.  1.
         11    1    3    3    0    0 -0.44048456677E+01  0.89783776163E+01  0.34195990798E+02  0.35628355518E+02  0.51100000000E-03 0. -1.
<mgrwt>
<rscale>  0 0.20001398E+02</rscale>
<asrwt>0</asrwt>
<pdfrwt beam="1">  1        2 0.10749481E-01 0.20001398E+02</pdfrwt>
<pdfrwt beam="2">  1       -2 0.22021479E-03 0.20001398E+02</pdfrwt>
<totfact> 0.48995533E+06</totfact>
</mgrwt>
</event>
<event>
 5    1  0.4046313E-006  0.2000093E+02  0.7818608E-02  0.1745310E+00
          2   -1    0    0  501    0  0.00000000000E+00  0.00000000000E+00  0.77603610726E+01  0.77603615082E+01  0.26000000000E-02 0. -1.
         -2   -1    0    0    0  501 -0.00000000000E+00 -0.00000000000E+00 -0.12887198321E+02  0.12887198583E+02  0.26000000000E-02 0.  1.
       1023    2    1    2    0    0  0.00000000000E+00  0.00000000000E+00 -0.51268372484E+01  0.20647560092E+02  0.20000931917E+02 0.  0.
        -11    1    3    3    0    0 -0.18292513448E+01 -0.98316556639E+01 -0.25207850981E+01  0.10313194042E+02  0.51100000000E-03 0. -1.
         11    1    3    3    0    0  0.18292513448E+01  0.98316556639E+01 -0.26060521504E+01  0.10334366050E+02  0.51100000000E-03 0.  1.
<mgrwt>
<rscale>  0 0.20000932E+02</rscale>
<asrwt>0</asrwt>
<pdfrwt beam="1">  1        2 0.11939018E-02 0.20000932E+02</pdfrwt>
<pdfrwt beam="2">  1       -2 0.19826460E-02 0.20000932E+02</pdfrwt>
<totfact> 0.38731832E+06</totfact>
</mgrwt>
</event>
<event>
 5    1  0.4046313E-006  0.2000042E+02  0.7818608E-02  0.1745320E+00
          2   -1    0    0  501    0  0.00000000000E+00  0.00000000000E+00  0.22470077387E+01  0.22470092429E+01  0.26000000000E-02 0. -1.
         -2   -1    0    0    0  501 -0.00000000000E+00 -0.00000000000E+00 -0.44505490308E+02  0.44505490383E+02  0.26000000000E-02 0.  1.
       1023    2    1    2    0    0  0.00000000000E+00  0.00000000000E+00 -0.42258482569E+02  0.46752499626E+02  0.20000421803E+02 0.  0.
        -11    1    3    3    0    0 -0.40986096759E+01 -0.91216360701E+01 -0.21215824418E+02  0.23454510267E+02  0.51100000000E-03 0. -1.
         11    1    3    3    0    0  0.40986096759E+01  0.91216360701E+01 -0.21042658151E+02  0.23297989359E+02  0.51100000000E-03 0.  1.
<mgrwt>
<rscale>  0 0.20000422E+02</rscale>
<asrwt>0</asrwt>
<pdfrwt beam="1">  1        2 0.34569365E-03 0.20000422E+02</pdfrwt>
<pdfrwt beam="2">  1       -2 0.68469980E-02 0.20000422E+02</pdfrwt>
<totfact> 0.34446328E+06</totfact>
</mgrwt>
</event>
<event>
 5    1  0.4046313E-006  0.2000034E+02  0.7818608E-02  0.1745321E+00
          2   -1    0    0  501    0  0.00000000000E+00  0.00000000000E+00  0.30164306217E+02  0.30164306329E+02  0.26000000000E-02 0.  1.
         -2   -1    0    0    0  501 -0.00000000000E+00 -0.00000000000E+00 -0.33152874296E+01  0.33152884491E+01  0.26000000000E-02 0. -1.
       1023    2    1    2    0    0  0.00000000000E+00  0.00000000000E+00  0.26849018787E+02  0.33479594778E+02  0.20000336414E+02 0.  0.
        -11    1    3    3    0    0 -0.16452441568E+01 -0.98638487181E+01  0.13370941997E+02  0.16696838923E+02  0.51100000000E-03 0.  1.
         11    1    3    3    0    0  0.16452441568E+01  0.98638487181E+01  0.13478076790E+02  0.16782755855E+02  0.51100000000E-03 0. -1.
<mgrwt>
<rscale>  0 0.20000336E+02</rscale>
<asrwt>0</asrwt>
<pdfrwt beam="1">  1        2 0.46406624E-02 0.20000336E+02</pdfrwt>
<pdfrwt beam="2">  1       -2 0.51004433E-03 0.20000336E+02</pdfrwt>
<totfact> 0.43397645E+06</totfact>
</mgrwt>
</event>
<event>
 5    1  0.4046313E-006  0.2000056E+02  0.7818608E-02  0.1745317E+00
         -2   -1    0    0    0  501 -0.00000000000E+00  0.00000000000E+00  0.58313026846E+02  0.58313026904E+02  0.26000000000E-02 0.  1.
          2   -1    0    0  501    0  0.00000000000E+00 -0.00000000000E+00 -0.17149777132E+01  0.17149796841E+01  0.26000000000E-02 0. -1.
       1023    2    1    2    0    0  0.00000000000E+00  0.00000000000E+00  0.56598049133E+02  0.60028006588E+02  0.20000560224E+02 0.  0.
        -11    1    3    3    0    0  0.73798808742E+01  0.67485378960E+01  0.28256940799E+02  0.29974324163E+02  0.51100000000E-03 0.  1.
         11    1    3    3    0    0 -0.73798808742E+01 -0.67485378960E+01  0.28341108333E+02  0.30053682425E+02  0.51100000000E-03 0. -1.
<mgrwt>
<rscale>  0 0.20000560E+02</rscale>
<asrwt>0</asrwt>
<pdfrwt beam="2">  1        2 0.26384291E-03 0.20000560E+02</pdfrwt>
<pdfrwt beam="1">  1       -2 0.89712339E-02 0.20000560E+02</pdfrwt>
<totfact> 0.33111713E+06</totfact>
</mgrwt>
</event>
<event>
 4    1  0.4046313E-006  0.2005188E+02  0.7818608E-02  0.1744298E+00
          2   -1    0    0  501    0  0.00000000000E+00  0.00000000000E+00  0.14643219089E+02  0.14643219320E+02  0.26000000000E-02 0. -1.
         -2   -1    0    0    0  501 -0.00000000000E+00 -0.00000000000E+00 -0.68645758905E+01  0.68645763829E+01  0.26000000000E-02 0.  1.
        -11    1    1    2    0    0  0.19759347453E+01  0.98089535238E+01  0.45673662953E+01  0.10999123714E+02  0.51100000000E-03 0. -1.
         11    1    1    2    0    0 -0.19759347453E+01 -0.98089535238E+01  0.32112769036E+01  0.10508671989E+02  0.51100000000E-03 0.  1.
<mgrwt>
<rscale>  0 0.20051882E+02</rscale>
<asrwt>0</asrwt>
<pdfrwt beam="1">  1        2 0.22528030E-02 0.20051882E+02</pdfrwt>
<pdfrwt beam="2">  1       -2 0.10560887E-02 0.20051882E+02</pdfrwt>
<totfact> 0.40374747E+06</totfact>
</mgrwt>
</event>
<event>
 5    1  0.4046313E-006  0.2000023E+02  0.7818608E-02  0.1745324E+00
          2   -1    0    0  501    0  0.00000000000E+00  0.00000000000E+00  0.13050445814E+02  0.13050446073E+02  0.26000000000E-02 0.  1.
         -2   -1    0    0    0  501 -0.00000000000E+00 -0.00000000000E+00 -0.76627459631E+01  0.76627464042E+01  0.26000000000E-02 0. -1.
       1023    2    1    2    0    0  0.00000000000E+00  0.00000000000E+00  0.53876998513E+01  0.20713192477E+02  0.20000225822E+02 0.  0.
        -11    1    3    3    0    0  0.92102807346E+01  0.38952458358E+01  0.27009225359E+01  0.10358435892E+02  0.51100000000E-03 0. -1.
         11    1    3    3    0    0 -0.92102807346E+01 -0.38952458358E+01  0.26867773154E+01  0.10354756585E+02  0.51100000000E-03 0.  1.
<mgrwt>
<rscale>  0 0.20000226E+02</rscale>
<asrwt>0</asrwt>
<pdfrwt beam="1">  1        2 0.20077609E-02 0.20000226E+02</pdfrwt>
<pdfrwt beam="2">  1       -2 0.11788841E-02 0.20000226E+02</pdfrwt>
<totfact> 0.40251911E+06</totfact>
</mgrwt>
</event>
<event>
 5    1  0.4046313E-006  0.2000470E+02  0.7818608E-02  0.1745235E+00
          2   -1    0    0  501    0  0.00000000000E+00  0.00000000000E+00  0.14131941173E+01  0.14131965091E+01  0.26000000000E-02 0. -1.
         -2   -1    0    0    0  501 -0.00000000000E+00 -0.00000000000E+00 -0.70794911341E+02  0.70794911389E+02  0.26000000000E-02 0.  1.
       1023    2    1    2    0    0  0.00000000000E+00  0.00000000000E+00 -0.69381717224E+02  0.72208107898E+02  0.20004703479E+02 0.  0.
        -11    1    3    3    0    0 -0.36714615896E+01  0.93026084659E+01 -0.35304330172E+02  0.36693512828E+02  0.51100000000E-03 0. -1.
         11    1    3    3    0    0  0.36714615896E+01 -0.93026084659E+01 -0.34077387052E+02  0.35514595070E+02  0.51100000000E-03 0.  1.
<mgrwt>
<rscale>  0 0.20004703E+02</rscale>
<asrwt>0</asrwt>
<pdfrwt beam="1">  1        2 0.21741472E-03 0.20004703E+02</pdfrwt>
<pdfrwt beam="2">  1       -2 0.10891522E-01 0.20004703E+02</pdfrwt>
<totfact> 0.31999445E+06</totfact>
</mgrwt>
</event>
<event>
 5    1  0.4105707E-006  0.2000115E+02  0.7818608E-02  0.1745305E+00
         -2   -1    0    0    0  501 -0.00000000000E+00  0.00000000000E+00  0.23068300256E+01  0.23068314908E+01  0.26000000000E-02 0.  1.
          2   -1    0    0  501    0  0.00000000000E+00 -0.00000000000E+00 -0.43354490910E+02  0.43354490988E+02  0.26000000000E-02 0. -1.
       1023    2    1    2    0    0  0.00000000000E+00  0.00000000000E+00 -0.41047660884E+02  0.45661322478E+02  0.20001147628E+02 0.  0.
        -11    1    3    3    0    0 -0.90753696367E+01 -0.42006445923E+01 -0.20663207556E+02  0.22955955563E+02  0.51100000000E-03 0. -1.
         11    1    3    3    0    0  0.90753696367E+01  0.42006445923E+01 -0.20384453328E+02  0.22705366915E+02  0.51100000000E-03 0.  1.
<mgrwt>
<rscale>  0 0.20001148E+02</rscale>
<asrwt>0</asrwt>
<pdfrwt beam="2">  1        2 0.66699212E-02 0.20001148E+02</pdfrwt>
<pdfrwt beam="1">  1       -2 0.35489708E-03 0.20001148E+02</pdfrwt>
<totfact> 0.45379082E+06</totfact>
</mgrwt>
</event>
<event>
 5    1  0.4046313E-006  0.2000520E+02  0.7818608E-02  0.1745225E+00
          2   -1    0    0  501    0  0.00000000000E+00  0.00000000000E+00  0.46264006411E+02  0.46264006484E+02  0.26000000000E-02 0.  1.
         -2   -1    0    0    0  501 -0.00000000000E+00 -0.00000000000E+00 -0.21626302747E+01  0.21626318376E+01  0.26000000000E-02 0. -1.
       1023    2    1    2    0    0  0.00000000000E+00  0.00000000000E+00  0.44101376136E+02  0.48426638322E+02  0.20005197375E+02 0.  0.
        -11    1    3    3    0    0 -0.62635433040E+01  0.77974416436E+01  0.21709125778E+02  0.23902263767E+02  0.51100000000E-03 0. -1.
         11    1    3    3    0    0  0.62635433040E+01 -0.77974416436E+01  0.22392250358E+02  0.24524374554E+02  0.51100000000E-03 0.  1.
<mgrwt>
<rscale>  0 0.20005197E+02</rscale>
<asrwt>0</asrwt>
<pdfrwt beam="1">  1        2 0.71175398E-02 0.20005197E+02</pdfrwt>
<pdfrwt beam="2">  1       -2 0.33271246E-03 0.20005197E+02</pdfrwt>
<totfact> 0.45775063E+06</totfact>
</mgrwt>
</event>
<event>
 5    1  0.4141658E-006  0.2000087E+02  0.7818608E-02  0.1745311E+00
          2   -1    0    0  501    0  0.00000000000E+00  0.00000000000E+00  0.76126875084E+02  0.76126875129E+02  0.26000000000E-02 0. -1.
         -2   -1    0    0    0  501 -0.00000000000E+00 -0.00000000000E+00 -0.13137096862E+01  0.13137122590E+01  0.26000000000E-02 0.  1.
       1023    2    1    2    0    0  0.00000000000E+00  0.00000000000E+00  0.74813165398E+02  0.77440587388E+02  0.20000871433E+02 0.  0.
        -11    1    3    3    0    0  0.89220108168E+01  0.45172749608E+01  0.37306799115E+02  0.38623895590E+02  0.51100000000E-03 0. -1.
         11    1    3    3    0    0 -0.89220108168E+01 -0.45172749608E+01  0.37506366283E+02  0.38816691798E+02  0.51100000000E-03 0.  1.
<mgrwt>
<rscale>  0 0.20000871E+02</rscale>
<asrwt>0</asrwt>
<pdfrwt beam="1">  1        2 0.11711827E-01 0.20000871E+02</pdfrwt>
<pdfrwt beam="2">  1       -2 0.20210939E-03 0.20000871E+02</pdfrwt>
<totfact> 0.49803706E+06</totfact>
</mgrwt>
</event>
<event>
 4    1  0.4046313E-006  0.2002924E+02  0.7818608E-02  0.1744747E+00
         -2   -1    0    0    0  501 -0.00000000000E+00  0.00000000000E+00  0.11442541788E+01  0.11442571326E+01  0.26000000000E-02 0. -1.
          2   -1    0    0  501    0  0.00000000000E+00 -0.00000000000E+00 -0.87648741983E+02  0.87648742022E+02  0.26000000000E-02 0.  1.
        -11    1    1    2    0    0 -0.27228512849E+01  0.96373184371E+01 -0.43131153232E+02  0.44278529845E+02  0.51100000000E-03 0.  1.
         11    1    1    2    0    0  0.27228512849E+01 -0.96373184371E+01 -0.43373334572E+02  0.44514469310E+02  0.51100000000E-03 0. -1.
<mgrwt>
<rscale>  0 0.20029236E+02</rscale>
<asrwt>0</asrwt>
<pdfrwt beam="2">  1        2 0.13484417E-01 0.20029236E+02</pdfrwt>
<pdfrwt beam="1">  1       -2 0.17603940E-03 0.20029236E+02</pdfrwt>
<totfact> 0.51089503E+06</totfact>
</mgrwt>
</event>
<event>
 4    1  0.4046313E-006  0.2007828E+02  0.7818608E-02  0.1743776E+00
         -2   -1    0    0    0  501 -0.00000000000E+00  0.00000000000E+00  0.21174464787E+02  0.21174464947E+02  0.26000000000E-02 0.  1.
          2   -1    0    0  501    0  0.00000000000E+00 -0.00000000000E+00 -0.47597125208E+01  0.47597132309E+01  0.26000000000E-02 0. -1.
        -11    1    1    2    0    0 -0.10000401793E+02  0.81676679783E+00  0.86342712361E+01  0.13237287640E+02  0.51100000000E-03 0.  1.
         11    1    1    2    0    0  0.10000401793E+02 -0.81676679783E+00  0.77804810305E+01  0.12696890538E+02  0.51100000000E-03 0. -1.
<mgrwt>
<rscale>  0 0.20078284E+02</rscale>
<asrwt>0</asrwt>
<pdfrwt beam="2">  1        2 0.73226354E-03 0.20078284E+02</pdfrwt>
<pdfrwt beam="1">  1       -2 0.32576100E-02 0.20078284E+02</pdfrwt>
<totfact> 0.36939300E+06</totfact>
</mgrwt>
</event>
<event>
 4    1  0.4046313E-006  0.2001266E+02  0.7818608E-02  0.1745076E+00
          2   -1    0    0  501    0  0.00000000000E+00  0.00000000000E+00  0.50617184511E+01  0.50617191189E+01  0.26000000000E-02 0. -1.
         -2   -1    0    0    0  501 -0.00000000000E+00 -0.00000000000E+00 -0.19781155902E+02  0.19781156073E+02  0.26000000000E-02 0.  1.
        -11    1    1    2    0    0  0.99934072769E+01  0.41326000402E+00 -0.69921444203E+01  0.12203649318E+02  0.51100000000E-03 0. -1.
         11    1    1    2    0    0 -0.99934072769E+01 -0.41326000402E+00 -0.77272930304E+01  0.12639225873E+02  0.51100000000E-03 0.  1.
<mgrwt>
<rscale>  0 0.20012661E+02</rscale>
<asrwt>0</asrwt>
<pdfrwt beam="1">  1        2 0.77872599E-03 0.20012661E+02</pdfrwt>
<pdfrwt beam="2">  1       -2 0.30432548E-02 0.20012661E+02</pdfrwt>
<totfact> 0.37416786E+06</totfact>
</mgrwt>
</event>
<event>
 5    1  0.4046313E-006  0.2001131E+02  0.7818608E-02  0.1745103E+00
          2   -1    0    0  501    0  0.00000000000E+00  0.00000000000E+00  0.52907303291E+01  0.52907309680E+01  0.26000000000E-02 0.  1.
         -2   -1    0    0    0  501 -0.00000000000E+00 -0.00000000000E+00 -0.18922366800E+02  0.18922366979E+02  0.26000000000E-02 0. -1.
       1023    2    1    2    0    0  0.00000000000E+00  0.00000000000E+00 -0.13631636471E+02  0.24213097947E+02  0.20011311784E+02 0.  0.
        -11    1    3    3    0    0  0.98886693897E+01  0.15248291630E+01 -0.68733814017E+01  0.12138956233E+02  0.51100000000E-03 0. -1.
         11    1    3    3    0    0 -0.98886693897E+01 -0.15248291630E+01 -0.67582550691E+01  0.12074141713E+02  0.51100000000E-03 0.  1.
<mgrwt>
<rscale>  0 0.20011312E+02</rscale>
<asrwt>0</asrwt>
<pdfrwt beam="1">  1        2 0.81395858E-03 0.20011312E+02</pdfrwt>
<pdfrwt beam="2">  1       -2 0.29111334E-02 0.20011312E+02</pdfrwt>
<totfact> 0.37559276E+06</totfact>
</mgrwt>
</event>
<event>
 5    1  0.4046313E-006  0.2000148E+02  0.7818608E-02  0.1745299E+00
          2   -1    0    0  501    0  0.00000000000E+00  0.00000000000E+00  0.99438959359E+00  0.99439299265E+00  0.26000000000E-02 0.  1.
         -2   -1    0    0    0  501 -0.00000000000E+00 -0.00000000000E+00 -0.10057888381E+03  0.10057888385E+03  0.26000000000E-02 0. -1.
       1023    2    1    2    0    0  0.00000000000E+00  0.00000000000E+00 -0.99584494220E+02  0.10157327684E+03  0.20001476919E+02 0.  0.
        -11    1    3    3    0    0  0.99603000759E+01  0.89823882804E+00 -0.49888450517E+02  0.50880958185E+02  0.51100000000E-03 0.  1.
         11    1    3    3    0    0 -0.99603000759E+01 -0.89823882804E+00 -0.49696043703E+02  0.50692318655E+02  0.51100000000E-03 0. -1.
<mgrwt>
<rscale>  0 0.20001477E+02</rscale>
<asrwt>0</asrwt>
<pdfrwt beam="1">  1        2 0.15298336E-03 0.20001477E+02</pdfrwt>
<pdfrwt beam="2">  1       -2 0.15473667E-01 0.20001477E+02</pdfrwt>
<totfact> 0.29683961E+06</totfact>
</mgrwt>
</event>
<event>
 5    1  0.4046313E-006  0.2000063E+02  0.7818608E-02  0.1745315E+00
         -2   -1    0    0    0  501 -0.00000000000E+00  0.00000000000E+00  0.85884816761E+00  0.85885210310E+00  0.26000000000E-02 0.  1.
          2   -1    0    0  501    0  0.00000000000E+00 -0.00000000000E+00 -0.11644213406E+03  0.11644213409E+03  0.26000000000E-02 0. -1.
       1023    2    1    2    0    0  0.00000000000E+00  0.00000000000E+00 -0.11558328589E+03  0.11730098619E+03  0.20000634589E+02 0.  0.
        -11    1    3    3    0    0  0.74482383011E+01 -0.66730673892E+01 -0.57886856386E+02  0.58744312275E+02  0.51100000000E-03 0. -1.
         11    1    3    3    0    0 -0.74482383011E+01  0.66730673892E+01 -0.57696429509E+02  0.58556673920E+02  0.51100000000E-03 0.  1.
<mgrwt>
<rscale>  0 0.20000635E+02</rscale>
<asrwt>0</asrwt>
<pdfrwt beam="2">  1        2 0.17914162E-01 0.20000635E+02</pdfrwt>
<pdfrwt beam="1">  1       -2 0.13213088E-03 0.20000635E+02</pdfrwt>
<totfact> 0.54681452E+06</totfact>
</mgrwt>
</event>
<event>
 5    1  0.4211828E-006  0.2000158E+02  0.7818608E-02  0.1745297E+00
         -2   -1    0    0    0  501 -0.00000000000E+00  0.00000000000E+00  0.12604015179E+01  0.12604041996E+01  0.26000000000E-02 0.  1.
          2   -1    0    0  501    0  0.00000000000E+00 -0.00000000000E+00 -0.79352272441E+02  0.79352272484E+02  0.26000000000E-02 0. -1.
       1023    2    1    2    0    0  0.00000000000E+00  0.00000000000E+00 -0.78091870923E+02  0.80612676683E+02  0.20001583381E+02 0.  0.
        -11    1    3    3    0    0 -0.23608636032E+01 -0.97180892729E+01 -0.39166717911E+02  0.40423343853E+02  0.51100000000E-03 0.  1.
         11    1    3    3    0    0  0.23608636032E+01  0.97180892729E+01 -0.38925153012E+02  0.40189332830E+02  0.51100000000E-03 0. -1.
<mgrwt>
<rscale>  0 0.20001583E+02</rscale>
<asrwt>0</asrwt>
<pdfrwt beam="2">  1        2 0.12208038E-01 0.20001583E+02</pdfrwt>
<pdfrwt beam="1">  1       -2 0.19390820E-03 0.20001583E+02</pdfrwt>
<totfact> 0.50209046E+06</totfact>
</mgrwt>
</event>
<event>
 4    1  0.4046313E-006  0.2008264E+02  0.7818608E-02  0.1743690E+00
         -2   -1    0    0    0  501 -0.00000000000E+00  0.00000000000E+00  0.10134002663E+02  0.10134002996E+02  0.26000000000E-02 0. -1.
          2   -1    0    0  501    0  0.00000000000E+00 -0.00000000000E+00 -0.99494847244E+01  0.99494850641E+01  0.26000000000E-02 0.  1.
        -11    1    1    2    0    0  0.11360185982E+01  0.99490214021E+01  0.83696890381E+00  0.10048586086E+02  0.51100000000E-03 0.  1.
         11    1    1    2    0    0 -0.11360185982E+01 -0.99490214021E+01 -0.65245096559E+00  0.10034901975E+02  0.51100000000E-03 0. -1.
<mgrwt>
<rscale>  0 0.20082640E+02</rscale>
<asrwt>0</asrwt>
<pdfrwt beam="2">  1        2 0.15306900E-02 0.20082640E+02</pdfrwt>
<pdfrwt beam="1">  1       -2 0.15590774E-02 0.20082640E+02</pdfrwt>
<totfact> 0.39078533E+06</totfact>
</mgrwt>
</event>
<event>
 5    1  0.4046313E-006  0.2000346E+02  0.7818608E-02  0.1745259E+00
         -2   -1    0    0    0  501 -0.00000000000E+00  0.00000000000E+00  0.83491528780E+01  0.83491532829E+01  0.26000000000E-02 0.  1.
          2   -1    0    0  501    0  0.00000000000E+00 -0.00000000000E+00 -0.11981405999E+02  0.11981406281E+02  0.26000000000E-02 0. -1.
       1023    2    1    2    0    0  0.00000000000E+00  0.00000000000E+00 -0.36322531205E+01  0.20330559563E+02  0.20003459437E+02 0.  0.
        -11    1    3    3    0    0  0.82155970399E+01  0.57030225752E+01 -0.16954590521E+01  0.10143721352E+02  0.51100000000E-03 0. -1.
         11    1    3    3    0    0 -0.82155970399E+01 -0.57030225752E+01 -0.19367940684E+01  0.10186838211E+02  0.51100000000E-03 0.  1.
<mgrwt>
<rscale>  0 0.20003459E+02</rscale>
<asrwt>0</asrwt>
<pdfrwt beam="2">  1        2 0.18432933E-02 0.20003459E+02</pdfrwt>
<pdfrwt beam="1">  1       -2 0.12844851E-02 0.20003459E+02</pdfrwt>
<totfact> 0.39978354E+06</totfact>
</mgrwt>
</event>
<event>
 5    1  0.4046313E-006  0.2000364E+02  0.7818608E-02  0.1745256E+00
          2   -1    0    0  501    0  0.00000000000E+00  0.00000000000E+00  0.12841680235E+02  0.12841680499E+02  0.26000000000E-02 0.  1.
         -2   -1    0    0    0  501 -0.00000000000E+00 -0.00000000000E+00 -0.77899761172E+01  0.77899765511E+01  0.26000000000E-02 0. -1.
       1023    2    1    2    0    0  0.00000000000E+00  0.00000000000E+00  0.50517041182E+01  0.20631657050E+02  0.20003638622E+02 0.  0.
        -11    1    3    3    0    0 -0.71226330648E+01  0.70216737258E+01  0.25008935524E+01  0.10309717383E+02  0.51100000000E-03 0.  1.
         11    1    3    3    0    0  0.71226330648E+01 -0.70216737258E+01  0.25508105657E+01  0.10321939667E+02  0.51100000000E-03 0. -1.
<mgrwt>
<rscale>  0 0.20003639E+02</rscale>
<asrwt>0</asrwt>
<pdfrwt beam="1">  1        2 0.19756432E-02 0.20003639E+02</pdfrwt>
<pdfrwt beam="2">  1       -2 0.11984579E-02 0.20003639E+02</pdfrwt>
<totfact> 0.40187000E+06</totfact>
</mgrwt>
</event>
<event>
 5    1  0.4046313E-006  0.2000073E+02  0.7818608E-02  0.1745314E+00
         -2   -1    0    0    0  501 -0.00000000000E+00  0.00000000000E+00  0.22323050279E+02  0.22323050430E+02  0.26000000000E-02 0.  1.
          2   -1    0    0  501    0  0.00000000000E+00 -0.00000000000E+00 -0.44799995808E+01  0.44800003353E+01  0.26000000000E-02 0. -1.
       1023    2    1    2    0    0  0.00000000000E+00  0.00000000000E+00  0.17843050698E+02  0.26803050765E+02  0.20000726790E+02 0.  0.
        -11    1    3    3    0    0  0.72739542093E+01  0.68621858386E+01  0.90357368589E+01  0.13477557092E+02  0.51100000000E-03 0. -1.
         11    1    3    3    0    0 -0.72739542093E+01 -0.68621858386E+01  0.88073138391E+01  0.13325493674E+02  0.51100000000E-03 0.  1.
<mgrwt>
<rscale>  0 0.20000727E+02</rscale>
<asrwt>0</asrwt>
<pdfrwt beam="2">  1        2 0.68923077E-03 0.20000727E+02</pdfrwt>
<pdfrwt beam="1">  1       -2 0.34343155E-02 0.20000727E+02</pdfrwt>
<totfact> 0.37081487E+06</totfact>
</mgrwt>
</event>
<event>
 5    1  0.4046313E-006  0.2000241E+02  0.7818608E-02  0.1745280E+00
          2   -1    0    0  501    0  0.00000000000E+00  0.00000000000E+00  0.13807542463E+02  0.13807542708E+02  0.26000000000E-02 0.  1.
         -2   -1    0    0    0  501 -0.00000000000E+00 -0.00000000000E+00 -0.72441644441E+01  0.72441649107E+01  0.26000000000E-02 0. -1.
       1023    2    1    2    0    0  0.00000000000E+00  0.00000000000E+00  0.65633780194E+01  0.21051707619E+02  0.20002411421E+02 0.  0.
        -11    1    3    3    0    0 -0.69629374510E+00  0.99765495639E+01  0.33743365684E+01  0.10554738922E+02  0.51100000000E-03 0.  1.
         11    1    3    3    0    0  0.69629374510E+00 -0.99765495639E+01  0.31890414509E+01  0.10496968697E+02  0.51100000000E-03 0. -1.
<mgrwt>
<rscale>  0 0.20002411E+02</rscale>
<asrwt>0</asrwt>
<pdfrwt beam="1">  1        2 0.21242373E-02 0.20002411E+02</pdfrwt>
<pdfrwt beam="2">  1       -2 0.11144869E-02 0.20002411E+02</pdfrwt>
<totfact> 0.40416159E+06</totfact>
</mgrwt>
</event>
<event>
 5    1  0.4046313E-006  0.2000134E+02  0.7818608E-02  0.1745301E+00
         -2   -1    0    0    0  501 -0.00000000000E+00  0.00000000000E+00  0.79089869252E+02  0.79089869295E+02  0.26000000000E-02 0. -1.
          2   -1    0    0  501    0  0.00000000000E+00 -0.00000000000E+00 -0.12645529179E+01  0.12645555908E+01  0.26000000000E-02 0.  1.
       1023    2    1    2    0    0  0.00000000000E+00  0.00000000000E+00  0.77825316334E+02  0.80354424886E+02  0.20001343360E+02 0.  0.
        -11    1    3    3    0    0  0.14698758400E+01  0.98915457685E+01  0.38506495781E+02  0.39783833781E+02  0.51100000000E-03 0.  1.
         11    1    3    3    0    0 -0.14698758400E+01 -0.98915457685E+01  0.39318820553E+02  0.40570591105E+02  0.51100000000E-03 0. -1.
<mgrwt>
<rscale>  0 0.20001343E+02</rscale>
<asrwt>0</asrwt>
<pdfrwt beam="2">  1        2 0.19454674E-03 0.20001343E+02</pdfrwt>
<pdfrwt beam="1">  1       -2 0.12167677E-01 0.20001343E+02</pdfrwt>
<totfact> 0.31326438E+06</totfact>
</mgrwt>
</event>
<event>
 5    1  0.4046313E-006  0.2000073E+02  0.7818608E-02  0.1745314E+00
          2   -1    0    0  501    0  0.00000000000E+00  0.00000000000E+00  0.31145578225E+02  0.31145578334E+02  0.26000000000E-02 0. -1.
         -2   -1    0    0    0  501 -0.00000000000E+00 -0.00000000000E+00 -0.32109612071E+01  0.32109622598E+01  0.26000000000E-02 0.  1.
       1023    2    1    2    0    0  0.00000000000E+00  0.00000000000E+00  0.27934617018E+02  0.34356540593E+02  0.20000726327E+02 0.  0.
        -11    1    3    3    0    0 -0.66835413054E+01  0.74389194114E+01  0.13974338889E+02  0.17183986558E+02  0.51100000000E-03 0. -1.
         11    1    3    3    0    0  0.66835413054E+01 -0.74389194114E+01  0.13960278129E+02  0.17172554035E+02  0.51100000000E-03 0.  1.
<mgrwt>
<rscale>  0 0.20000726E+02</rscale>
<asrwt>0</asrwt>
<pdfrwt beam="1">  1        2 0.47916275E-02 0.20000726E+02</pdfrwt>
<pdfrwt beam="2">  1       -2 0.49399412E-03 0.20000726E+02</pdfrwt>
<totfact> 0.43550464E+06</totfact>
</mgrwt>
</event>
<event>
 5    1  0.4046313E-006  0.2000343E+02  0.7818608E-02  0.1745260E+00
         -2   -1    0    0    0  501 -0.00000000000E+00  0.00000000000E+00  0.58197293583E+02  0.58197293641E+02  0.26000000000E-02 0.  1.
          2   -1    0    0  501    0  0.00000000000E+00 -0.00000000000E+00 -0.17188821624E+01  0.17188841287E+01  0.26000000000E-02 0. -1.
       1023    2    1    2    0    0  0.00000000000E+00  0.00000000000E+00  0.56478411421E+02  0.59916177770E+02  0.20003434754E+02 0.  0.
        -11    1    3    3    0    0 -0.94999081483E+01  0.31233387917E+01  0.27713105515E+02  0.29462174353E+02  0.51100000000E-03 0. -1.
         11    1    3    3    0    0  0.94999081483E+01 -0.31233387917E+01  0.28765305906E+02  0.30454003417E+02  0.51100000000E-03 0.  1.
<mgrwt>
<rscale>  0 0.20003435E+02</rscale>
<asrwt>0</asrwt>
<pdfrwt beam="2">  1        2 0.26444357E-03 0.20003435E+02</pdfrwt>
<pdfrwt beam="1">  1       -2 0.89534299E-02 0.20003435E+02</pdfrwt>
<totfact> 0.33111929E+06</totfact>
</mgrwt>
</event>
<event>
 5    1  0.4046313E-006  0.2000040E+02  0.7818608E-02  0.1745320E+00
         -2   -1    0    0    0  501 -0.00000000000E+00  0.00000000000E+00  0.42369962535E+01  0.42369970512E+01  0.26000000000E-02 0.  1.
          2   -1    0    0  501    0  0.00000000000E+00 -0.00000000000E+00 -0.23602575675E+02  0.23602575818E+02  0.26000000000E-02 0. -1.
       1023    2    1    2    0    0  0.00000000000E+00  0.00000000000E+00 -0.19365579422E+02  0.27839572870E+02  0.20000403776E+02 0.  0.
        -11    1    3    3    0    0  0.99993847327E+01 -0.12292476758E+00 -0.96339321708E+01  0.13885800476E+02  0.51100000000E-03 0. -1.
         11    1    3    3    0    0 -0.99993847327E+01  0.12292476758E+00 -0.97316472509E+01  0.13953772393E+02  0.51100000000E-03 0.  1.
<mgrwt>
<rscale>  0 0.20000404E+02</rscale>
<asrwt>0</asrwt>
<pdfrwt beam="2">  1        2 0.36311655E-02 0.20000404E+02</pdfrwt>
<pdfrwt beam="1">  1       -2 0.65184566E-03 0.20000404E+02</pdfrwt>
<totfact> 0.42316648E+06</totfact>
</mgrwt>
</event>
<event>
 5    1  0.4046313E-006  0.2000073E+02  0.7818608E-02  0.1745314E+00
         -2   -1    0    0    0  501 -0.00000000000E+00  0.00000000000E+00  0.84075373419E+00  0.84075775438E+00  0.26000000000E-02 0. -1.
          2   -1    0    0  501    0  0.00000000000E+00 -0.00000000000E+00 -0.11894929477E+03  0.11894929480E+03  0.26000000000E-02 0.  1.
       1023    2    1    2    0    0  0.00000000000E+00  0.00000000000E+00 -0.11810854103E+03  0.11979005255E+03  0.20000730611E+02 0.  0.
        -11    1    3    3    0    0  0.93376903390E+00 -0.99564659011E+01 -0.59440945361E+02  0.60276273305E+02  0.51100000000E-03 0.  1.
         11    1    3    3    0    0 -0.93376903390E+00  0.99564659011E+01 -0.58667595672E+02  0.59513779246E+02  0.51100000000E-03 0. -1.
<mgrwt>
<rscale>  0 0.20000731E+02</rscale>
<asrwt>0</asrwt>
<pdfrwt beam="2">  1        2 0.18299878E-01 0.20000731E+02</pdfrwt>
<pdfrwt beam="1">  1       -2 0.12934713E-03 0.20000731E+02</pdfrwt>
<totfact> 0.54968005E+06</totfact>
</mgrwt>
</event>
<event>
 5    1  0.4046313E-006  0.2000483E+02  0.7818608E-02  0.1745232E+00
          2   -1    0    0  501    0  0.00000000000E+00  0.00000000000E+00  0.29824217310E+01  0.29824228643E+01  0.26000000000E-02 0. -1.
         -2   -1    0    0    0  501 -0.00000000000E+00 -0.00000000000E+00 -0.33545982908E+02  0.33545983009E+02  0.26000000000E-02 0.  1.
       1023    2    1    2    0    0  0.00000000000E+00  0.00000000000E+00 -0.30563561177E+02  0.36528405874E+02  0.20004828512E+02 0.  0.
        -11    1    3    3    0    0  0.85525102327E+01  0.51837862262E+01 -0.14959146128E+02  0.17994252528E+02  0.51100000000E-03 0. -1.
         11    1    3    3    0    0 -0.85525102327E+01 -0.51837862262E+01 -0.15604415050E+02  0.18534153345E+02  0.51100000000E-03 0.  1.
<mgrwt>
<rscale>  0 0.20004829E+02</rscale>
<asrwt>0</asrwt>
<pdfrwt beam="1">  1        2 0.45883423E-03 0.20004829E+02</pdfrwt>
<pdfrwt beam="2">  1       -2 0.51609203E-02 0.20004829E+02</pdfrwt>
<totfact> 0.35621600E+06</totfact>
</mgrwt>
</event>
<event>
 5    1  0.4046313E-006  0.2000035E+02  0.7818608E-02  0.1745321E+00
          2   -1    0    0  501    0  0.00000000000E+00  0.00000000000E+00  0.29653326677E+01  0.29653338076E+01  0.26000000000E-02 0.  1.
         -2   -1    0    0    0  501 -0.00000000000E+00 -0.00000000000E+00 -0.33724190608E+02  0.33724190708E+02  0.26000000000E-02 0. -1.
       1023    2    1    2    0    0  0.00000000000E+00  0.00000000000E+00 -0.30758857940E+02  0.36689524516E+02  0.20000346682E+02 0.  0.
        -11    1    3    3    0    0  0.94005530372E+01 -0.34107206890E+01 -0.15392855319E+02  0.18356018309E+02  0.51100000000E-03 0.  1.
         11    1    3    3    0    0 -0.94005530372E+01  0.34107206890E+01 -0.15366002621E+02  0.18333506207E+02  0.51100000000E-03 0. -1.
<mgrwt>
<rscale>  0 0.20000347E+02</rscale>
<asrwt>0</asrwt>
<pdfrwt beam="1">  1        2 0.45620514E-03 0.20000347E+02</pdfrwt>
<pdfrwt beam="2">  1       -2 0.51883369E-02 0.20000347E+02</pdfrwt>
<totfact> 0.35618307E+06</totfact>
</mgrwt>
</event>
<event>
 5    1  0.4046313E-006  0.2000053E+02  0.7818608E-02  0.1745318E+00
         -2   -1    0    0    0  501 -0.00000000000E+00  0.00000000000E+00  0.18681227095E+01  0.18681245188E+01  0.26000000000E-02 0.  1.
          2   -1    0    0  501    0  0.00000000000E+00 -0.00000000000E+00 -0.53532490385E+02  0.53532490448E+02  0.26000000000E-02 0. -1.
       1023    2    1    2    0    0  0.00000000000E+00  0.00000000000E+00 -0.51664367675E+02  0.55400614967E+02  0.20000531278E+02 0.  0.
        -11    1    3    3    0    0  0.40384564963E+01 -0.91484908703E+01 -0.25732445607E+02  0.27607295652E+02  0.51100000000E-03 0. -1.
         11    1    3    3    0    0 -0.40384564963E+01  0.91484908703E+01 -0.25931922068E+02  0.27793319314E+02  0.51100000000E-03 0.  1.
<mgrwt>
<rscale>  0 0.20000531E+02</rscale>
<asrwt>0</asrwt>
<pdfrwt beam="2">  1        2 0.82357667E-02 0.20000531E+02</pdfrwt>
<pdfrwt beam="1">  1       -2 0.28740368E-03 0.20000531E+02</pdfrwt>
<totfact> 0.46815262E+06</totfact>
</mgrwt>
</event>
<event>
 5    1  0.4046313E-006  0.2000007E+02  0.7818608E-02  0.1745327E+00
          2   -1    0    0  501    0  0.00000000000E+00  0.00000000000E+00  0.30573408086E+02  0.30573408197E+02  0.26000000000E-02 0. -1.
         -2   -1    0    0    0  501 -0.00000000000E+00 -0.00000000000E+00 -0.32708372763E+01  0.32708383097E+01  0.26000000000E-02 0.  1.
       1023    2    1    2    0    0  0.00000000000E+00  0.00000000000E+00  0.27302570810E+02  0.33844246507E+02  0.20000066219E+02 0.  0.
        -11    1    3    3    0    0  0.73523815534E+01  0.67781289647E+01  0.13669445068E+02  0.16936772877E+02  0.51100000000E-03 0.  1.
         11    1    3    3    0    0 -0.73523815534E+01 -0.67781289647E+01  0.13633125742E+02  0.16907473629E+02  0.51100000000E-03 0. -1.
<mgrwt>
<rscale>  0 0.20000066E+02</rscale>
<asrwt>0</asrwt>
<pdfrwt beam="1">  1        2 0.47036012E-02 0.20000066E+02</pdfrwt>
<pdfrwt beam="2">  1       -2 0.50320584E-03 0.20000066E+02</pdfrwt>
<totfact> 0.43463642E+06</totfact>
</mgrwt>
</event>
<event>
 5    1  0.4093019E-006  0.2000173E+02  0.7818608E-02  0.1745294E+00
          2   -1    0    0  501    0  0.00000000000E+00  0.00000000000E+00  0.82219067205E+02  0.82219067246E+02  0.26000000000E-02 0.  1.
         -2   -1    0    0    0  501 -0.00000000000E+00 -0.00000000000E+00 -0.12164712833E+01  0.12164740619E+01  0.26000000000E-02 0. -1.
       1023    2    1    2    0    0  0.00000000000E+00  0.00000000000E+00  0.81002595922E+02  0.83435541308E+02  0.20001725108E+02 0.  0.
        -11    1    3    3    0    0  0.71901014621E+01 -0.69511853315E+01  0.40389755117E+02  0.41609480353E+02  0.51100000000E-03 0.  1.
         11    1    3    3    0    0 -0.71901014621E+01  0.69511853315E+01  0.40612840805E+02  0.41826060955E+02  0.51100000000E-03 0. -1.
<mgrwt>
<rscale>  0 0.20001725E+02</rscale>
<asrwt>0</asrwt>
<pdfrwt beam="1">  1        2 0.12649088E-01 0.20001725E+02</pdfrwt>
<pdfrwt beam="2">  1       -2 0.18714964E-03 0.20001725E+02</pdfrwt>
<totfact> 0.50568855E+06</totfact>
</mgrwt>
</event>
<event>
 5    1  0.4046313E-006  0.2000115E+02  0.7818608E-02  0.1745305E+00
          2   -1    0    0  501    0  0.00000000000E+00  0.00000000000E+00  0.78676319355E+01  0.78676323651E+01  0.26000000000E-02 0.  1.
         -2   -1    0    0    0  501 -0.00000000000E+00 -0.00000000000E+00 -0.12711760208E+02  0.12711760474E+02  0.26000000000E-02 0. -1.
       1023    2    1    2    0    0  0.00000000000E+00  0.00000000000E+00 -0.48441282722E+01  0.20579392839E+02  0.20001145740E+02 0.  0.
        -11    1    3    3    0    0 -0.50916321379E+01  0.86073628167E+01 -0.24151637929E+01  0.10288072166E+02  0.51100000000E-03 0.  1.
         11    1    3    3    0    0  0.50916321379E+01 -0.86073628167E+01 -0.24289644793E+01  0.10291320673E+02  0.51100000000E-03 0. -1.
<mgrwt>
<rscale>  0 0.20001146E+02</rscale>
<asrwt>0</asrwt>
<pdfrwt beam="1">  1        2 0.12104050E-02 0.20001146E+02</pdfrwt>
<pdfrwt beam="2">  1       -2 0.19556555E-02 0.20001146E+02</pdfrwt>
<totfact> 0.38770196E+06</totfact>
</mgrwt>
</event>
<event>
 5    1  0.4046313E-006  0.2000051E+02  0.7818608E-02  0.1745318E+00
          2   -1    0    0  501    0  0.00000000000E+00  0.00000000000E+00  0.18979601373E+01  0.18979619181E+01  0.26000000000E-02 0. -1.
         -2   -1    0    0    0  501 -0.00000000000E+00 -0.00000000000E+00 -0.52690815937E+02  0.52690816002E+02  0.26000000000E-02 0.  1.
       1023    2    1    2    0    0  0.00000000000E+00  0.00000000000E+00 -0.50792855800E+02  0.54588777920E+02  0.20000511854E+02 0.  0.
        -11    1    3    3    0    0 -0.94913277904E+01 -0.31495551891E+01 -0.25366875893E+02  0.27266891901E+02  0.51100000000E-03 0. -1.
         11    1    3    3    0    0  0.94913277904E+01  0.31495551891E+01 -0.25425979907E+02  0.27321886019E+02  0.51100000000E-03 0.  1.
<mgrwt>
<rscale>  0 0.20000512E+02</rscale>
<asrwt>0</asrwt>
<pdfrwt beam="1">  1        2 0.29199405E-03 0.20000512E+02</pdfrwt>
<pdfrwt beam="2">  1       -2 0.81062784E-02 0.20000512E+02</pdfrwt>
<totfact> 0.33637161E+06</totfact>
</mgrwt>
</event>
<event>
 5    1  0.4046313E-006  0.2000122E+02  0.7818608E-02  0.1745304E+00
          2   -1    0    0  501    0  0.00000000000E+00  0.00000000000E+00  0.94920433715E+00  0.94920789802E+00  0.26000000000E-02 0.  1.
         -2   -1    0    0    0  501 -0.00000000000E+00 -0.00000000000E+00 -0.10536406282E+03  0.10536406285E+03  0.26000000000E-02 0. -1.
       1023    2    1    2    0    0  0.00000000000E+00  0.00000000000E+00 -0.10441485848E+03  0.10631327075E+03  0.20001221602E+02 0.  0.
        -11    1    3    3    0    0 -0.48012228749E+00 -0.99885106686E+01 -0.52773789709E+02  0.53712882470E+02  0.51100000000E-03 0. -1.
         11    1    3    3    0    0  0.48012228749E+00  0.99885106686E+01 -0.51641068774E+02  0.52600388280E+02  0.51100000000E-03 0.  1.
<mgrwt>
<rscale>  0 0.20001222E+02</rscale>
<asrwt>0</asrwt>
<pdfrwt beam="1">  1        2 0.14603180E-03 0.20001222E+02</pdfrwt>
<pdfrwt beam="2">  1       -2 0.16209847E-01 0.20001222E+02</pdfrwt>
<totfact> 0.29341828E+06</totfact>
</mgrwt>
</event>
<event>
 5    1  0.4046313E-006  0.2000026E+02  0.7818608E-02  0.1745323E+00
         -2   -1    0    0    0  501 -0.00000000000E+00  0.00000000000E+00  0.12139165331E+02  0.12139165609E+02  0.26000000000E-02 0. -1.
          2   -1    0    0  501    0  0.00000000000E+00 -0.00000000000E+00 -0.82380105323E+01  0.82380109426E+01  0.26000000000E-02 0.  1.
       1023    2    1    2    0    0  0.00000000000E+00  0.00000000000E+00  0.39011547983E+01  0.20377176552E+02  0.20000257885E+02 0.  0.
        -11    1    3    3    0    0  0.65090958179E+00 -0.99788846779E+01  0.19225655372E+01  0.10183225481E+02  0.51100000000E-03 0.  1.
         11    1    3    3    0    0 -0.65090958179E+00  0.99788846779E+01  0.19785892611E+01  0.10193951070E+02  0.51100000000E-03 0. -1.
<mgrwt>
<rscale>  0 0.20000258E+02</rscale>
<asrwt>0</asrwt>
<pdfrwt beam="2">  1        2 0.12673863E-02 0.20000258E+02</pdfrwt>
<pdfrwt beam="1">  1       -2 0.18675640E-02 0.20000258E+02</pdfrwt>
<totfact> 0.38905785E+06</totfact>
</mgrwt>
</event>
<event>
 4    1  0.4046313E-006  0.2022647E+02  0.7818608E-02  0.1740862E+00
         -2   -1    0    0    0  501 -0.00000000000E+00  0.00000000000E+00  0.16053933567E+02  0.16053933778E+02  0.26000000000E-02 0. -1.
          2   -1    0    0  501    0  0.00000000000E+00 -0.00000000000E+00 -0.63708683585E+01  0.63708688890E+01  0.26000000000E-02 0.  1.
        -11    1    1    2    0    0 -0.89076714429E+01  0.46472670824E+01  0.61219586760E+01  0.11765291333E+02  0.51100000000E-03 0. -1.
         11    1    1    2    0    0  0.89076714429E+01 -0.46472670824E+01  0.35611065329E+01  0.10659511334E+02  0.51100000000E-03 0.  1.
<mgrwt>
<rscale>  0 0.20226468E+02</rscale>
<asrwt>0</asrwt>
<pdfrwt beam="2">  1        2 0.98013366E-03 0.20226468E+02</pdfrwt>
<pdfrwt beam="1">  1       -2 0.24698360E-02 0.20226468E+02</pdfrwt>
<totfact> 0.37182058E+06</totfact>
</mgrwt>
</event>
<event>
 5    1  0.4997857E-006  0.2000209E+02  0.7818608E-02  0.1745287E+00
          2   -1    0    0  501    0  0.00000000000E+00  0.00000000000E+00  0.67713700290E+02  0.67713700340E+02  0.26000000000E-02 0. -1.
         -2   -1    0    0    0  501 -0.00000000000E+00 -0.00000000000E+00 -0.14771131560E+01  0.14771154442E+01  0.26000000000E-02 0.  1.
       1023    2    1    2    0    0  0.00000000000E+00  0.00000000000E+00  0.66236587134E+02  0.69190815784E+02  0.20002087734E+02 0.  0.
        -11    1    3    3    0    0 -0.99960964088E+01 -0.29447797197E+00  0.33500646024E+02  0.34961435110E+02  0.51100000000E-03 0. -1.
         11    1    3    3    0    0  0.99960964088E+01  0.29447797197E+00  0.32735941110E+02  0.34229380674E+02  0.51100000000E-03 0.  1.
<mgrwt>
<rscale>  0 0.20002088E+02</rscale>
<asrwt>0</asrwt>
<pdfrwt beam="1">  1        2 0.10417492E-01 0.20002088E+02</pdfrwt>
<pdfrwt beam="2">  1       -2 0.22724836E-03 0.20002088E+02</pdfrwt>
<totfact> 0.48710152E+06</totfact>
</mgrwt>
</event>
<event>
 5    1  0.4046313E-006  0.2000034E+02  0.7818608E-02  0.1745321E+00
         -2   -1    0    0    0  501 -0.00000000000E+00  0.00000000000E+00  0.25740557833E+01  0.25740570964E+01  0.26000000000E-02 0.  1.
          2   -1    0    0  501    0  0.00000000000E+00 -0.00000000000E+00 -0.38850488565E+02  0.38850488652E+02  0.26000000000E-02 0. -1.
       1023    2    1    2    0    0  0.00000000000E+00  0.00000000000E+00 -0.36276432782E+02  0.41424545749E+02  0.20000335375E+02 0.  0.
        -11    1    3    3    0    0  0.80064815925E+01  0.59916166148E+01 -0.18162402741E+02  0.20733453420E+02  0.51100000000E-03 0. -1.
         11    1    3    3    0    0 -0.80064815925E+01 -0.59916166148E+01 -0.18114030041E+02  0.20691092329E+02  0.51100000000E-03 0.  1.
<mgrwt>
<rscale>  0 0.20000335E+02</rscale>
<asrwt>0</asrwt>
<pdfrwt beam="2">  1        2 0.59769979E-02 0.20000335E+02</pdfrwt>
<pdfrwt beam="1">  1       -2 0.39600872E-03 0.20000335E+02</pdfrwt>
<totfact> 0.44725010E+06</totfact>
</mgrwt>
</event>
<event>
 5    1  0.4046313E-006  0.2000309E+02  0.7818608E-02  0.1745267E+00
          2   -1    0    0  501    0  0.00000000000E+00  0.00000000000E+00  0.37245719062E+02  0.37245719152E+02  0.26000000000E-02 0.  1.
         -2   -1    0    0    0  501 -0.00000000000E+00 -0.00000000000E+00 -0.26857017022E+01  0.26857029607E+01  0.26000000000E-02 0. -1.
       1023    2    1    2    0    0  0.00000000000E+00  0.00000000000E+00  0.34560017359E+02  0.39931422113E+02  0.20003091563E+02 0.  0.
        -11    1    3    3    0    0  0.17079346041E+01 -0.98540850193E+01  0.17488286712E+02  0.20145972415E+02  0.51100000000E-03 0. -1.
         11    1    3    3    0    0 -0.17079346041E+01  0.98540850193E+01  0.17071730647E+02  0.19785449698E+02  0.51100000000E-03 0.  1.
<mgrwt>
<rscale>  0 0.20003092E+02</rscale>
<asrwt>0</asrwt>
<pdfrwt beam="1">  1        2 0.57301108E-02 0.20003092E+02</pdfrwt>
<pdfrwt beam="2">  1       -2 0.41318498E-03 0.20003092E+02</pdfrwt>
<totfact> 0.44472433E+06</totfact>
</mgrwt>
</event>
<event>
 5    1  0.4046313E-006  0.2000205E+02  0.7818608E-02  0.1745287E+00
          2   -1    0    0  501    0  0.00000000000E+00  0.00000000000E+00  0.36161929769E+02  0.36161929863E+02  0.26000000000E-02 0.  1.
         -2   -1    0    0    0  501 -0.00000000000E+00 -0.00000000000E+00 -0.27659065512E+01  0.27659077732E+01  0.26000000000E-02 0. -1.
       1023    2    1    2    0    0  0.00000000000E+00  0.00000000000E+00  0.33396023218E+02  0.38927837636E+02  0.20002054300E+02 0.  0.
        -11    1    3    3    0    0  0.71340113337E+01  0.70085388177E+01  0.16537409754E+02  0.19326139182E+02  0.51100000000E-03 0. -1.
         11    1    3    3    0    0 -0.71340113337E+01 -0.70085388177E+01  0.16858613465E+02  0.19601698454E+02  0.51100000000E-03 0.  1.
<mgrwt>
<rscale>  0 0.20002054E+02</rscale>
<asrwt>0</asrwt>
<pdfrwt beam="1">  1        2 0.55633734E-02 0.20002054E+02</pdfrwt>
<pdfrwt beam="2">  1       -2 0.42552423E-03 0.20002054E+02</pdfrwt>
<totfact> 0.44314832E+06</totfact>
</mgrwt>
</event>
<event>
 5    1  0.4046313E-006  0.2000080E+02  0.7818608E-02  0.1745312E+00
         -2   -1    0    0    0  501 -0.00000000000E+00  0.00000000000E+00  0.84436512214E+02  0.84436512254E+02  0.26000000000E-02 0.  1.
          2   -1    0    0  501    0  0.00000000000E+00 -0.00000000000E+00 -0.11844151879E+01  0.11844180416E+01  0.26000000000E-02 0. -1.
       1023    2    1    2    0    0  0.00000000000E+00  0.00000000000E+00  0.83252097026E+02  0.85620930296E+02  0.20000801120E+02 0.  0.
        -11    1    3    3    0    0 -0.98182298982E+01  0.18993822113E+01  0.41402786134E+02  0.42593379662E+02  0.51100000000E-03 0. -1.
         11    1    3    3    0    0  0.98182298982E+01 -0.18993822113E+01  0.41849310892E+02  0.43027550633E+02  0.51100000000E-03 0.  1.
<mgrwt>
<rscale>  0 0.20000801E+02</rscale>
<asrwt>0</asrwt>
<pdfrwt beam="2">  1        2 0.18221792E-03 0.20000801E+02</pdfrwt>
<pdfrwt beam="1">  1       -2 0.12990234E-01 0.20000801E+02</pdfrwt>
<totfact> 0.30903318E+06</totfact>
</mgrwt>
</event>
<event>
 5    1  0.4046313E-006  0.2000173E+02  0.7818608E-02  0.1745294E+00
         -2   -1    0    0    0  501 -0.00000000000E+00  0.00000000000E+00  0.79569882389E+01  0.79569886637E+01  0.26000000000E-02 0.  1.
          2   -1    0    0  501    0  0.00000000000E+00 -0.00000000000E+00 -0.12569737405E+02  0.12569737674E+02  0.26000000000E-02 0. -1.
       1023    2    1    2    0    0  0.00000000000E+00  0.00000000000E+00 -0.46127491664E+01  0.20526726338E+02  0.20001725907E+02 0.  0.
        -11    1    3    3    0    0  0.21366893343E+01  0.97690979041E+01 -0.24383756877E+01  0.10293026349E+02  0.51100000000E-03 0.  1.
         11    1    3    3    0    0 -0.21366893343E+01 -0.97690979041E+01 -0.21743734787E+01  0.10233699989E+02  0.51100000000E-03 0. -1.
<mgrwt>
<rscale>  0 0.20001726E+02</rscale>
<asrwt>0</asrwt>
<pdfrwt beam="2">  1        2 0.19338058E-02 0.20001726E+02</pdfrwt>
<pdfrwt beam="1">  1       -2 0.12241521E-02 0.20001726E+02</pdfrwt>
<totfact> 0.40130625E+06</totfact>
</mgrwt>
</event>
<event>
 5    1  0.4046313E-006  0.2000085E+02  0.7818608E-02  0.1745311E+00
         -2   -1    0    0    0  501 -0.00000000000E+00  0.00000000000E+00  0.10361408773E+03  0.10361408777E+03  0.26000000000E-02 0.  1.
          2   -1    0    0  501    0  0.00000000000E+00 -0.00000000000E+00 -0.96520039628E+00  0.96520389813E+00  0.26000000000E-02 0. -1.
       1023    2    1    2    0    0  0.00000000000E+00  0.00000000000E+00  0.10264888734E+03  0.10457929166E+03  0.20000854317E+02 0.  0.
        -11    1    3    3    0    0 -0.38451480769E+01  0.92314743534E+01  0.51025872781E+02  0.51996586194E+02  0.51100000000E-03 0. -1.
         11    1    3    3    0    0  0.38451480769E+01 -0.92314743534E+01  0.51623014555E+02  0.52582705470E+02  0.51100000000E-03 0.  1.
<mgrwt>
<rscale>  0 0.20000854E+02</rscale>
<asrwt>0</asrwt>
<pdfrwt beam="2">  1        2 0.14849256E-03 0.20000854E+02</pdfrwt>
<pdfrwt beam="1">  1       -2 0.15940638E-01 0.20000854E+02</pdfrwt>
<totfact> 0.29467622E+06</totfact>
</mgrwt>
</event>
<event>
 5    1  0.4046313E-006  0.2000112E+02  0.7818608E-02  0.1745306E+00
          2   -1    0    0  501    0  0.00000000000E+00  0.00000000000E+00  0.88546884328E+00  0.88547266046E+00  0.26000000000E-02 0. -1.
         -2   -1    0    0    0  501 -0.00000000000E+00 -0.00000000000E+00 -0.11294696534E+03  0.11294696537E+03  0.26000000000E-02 0.  1.
       1023    2    1    2    0    0  0.00000000000E+00  0.00000000000E+00 -0.11206149650E+03  0.11383243803E+03  0.20001123740E+02 0.  0.
        -11    1    3    3    0    0 -0.98188099350E+01  0.18950314917E+01 -0.56629406135E+02  0.57505563317E+02  0.51100000000E-03 0.  1.
         11    1    3    3    0    0  0.98188099350E+01 -0.18950314917E+01 -0.55432090362E+02  0.56326874714E+02  0.51100000000E-03 0. -1.
<mgrwt>
<rscale>  0 0.20001124E+02</rscale>
<asrwt>0</asrwt>
<pdfrwt beam="1">  1        2 0.13622636E-03 0.20001124E+02</pdfrwt>
<pdfrwt beam="2">  1       -2 0.17376445E-01 0.20001124E+02</pdfrwt>
<totfact> 0.28813537E+06</totfact>
</mgrwt>
</event>
<event>
 5    1  0.4046313E-006  0.2000015E+02  0.7818608E-02  0.1745325E+00
          2   -1    0    0  501    0  0.00000000000E+00  0.00000000000E+00  0.10802203368E+03  0.10802203371E+03  0.26000000000E-02 0.  1.
         -2   -1    0    0    0  501 -0.00000000000E+00 -0.00000000000E+00 -0.92574870422E+00  0.92575235532E+00  0.26000000000E-02 0. -1.
       1023    2    1    2    0    0  0.00000000000E+00  0.00000000000E+00  0.10709628498E+03  0.10894778607E+03  0.20000145830E+02 0.  0.
        -11    1    3    3    0    0 -0.47269733807E+01  0.88123016344E+01  0.53672433049E+02  0.54596071353E+02  0.51100000000E-03 0. -1.
         11    1    3    3    0    0  0.47269733807E+01 -0.88123016344E+01  0.53423851926E+02  0.54351714714E+02  0.51100000000E-03 0.  1.
<mgrwt>
<rscale>  0 0.20000146E+02</rscale>
<asrwt>0</asrwt>
<pdfrwt beam="1">  1        2 0.16618760E-01 0.20000146E+02</pdfrwt>
<pdfrwt beam="2">  1       -2 0.14242329E-03 0.20000146E+02</pdfrwt>
<totfact> 0.53707406E+06</totfact>
</mgrwt>
</event>
<event>
 5    1  0.4046313E-006  0.2000241E+02  0.7818608E-02  0.1745280E+00
         -2   -1    0    0    0  501 -0.00000000000E+00  0.00000000000E+00  0.15133201086E+02  0.15133201309E+02  0.26000000000E-02 0.  1.
          2   -1    0    0  501    0  0.00000000000E+00 -0.00000000000E+00 -0.66095791840E+01  0.66095796954E+01  0.26000000000E-02 0. -1.
       1023    2    1    2    0    0  0.00000000000E+00  0.00000000000E+00  0.85236219018E+01  0.21742781005E+02  0.20002409742E+02 0.  0.
        -11    1    3    3    0    0 -0.19006985915E+01 -0.98183278824E+01  0.43802951781E+01  0.10917838781E+02  0.51100000000E-03 0.  1.
         11    1    3    3    0    0  0.19006985915E+01  0.98183278824E+01  0.41433267238E+01  0.10824942224E+02  0.51100000000E-03 0. -1.
<mgrwt>
<rscale>  0 0.20002410E+02</rscale>
<asrwt>0</asrwt>
<pdfrwt beam="2">  1        2 0.10168584E-02 0.20002410E+02</pdfrwt>
<pdfrwt beam="1">  1       -2 0.23281848E-02 0.20002410E+02</pdfrwt>
<totfact> 0.38261927E+06</totfact>
</mgrwt>
</event>
<event>
 5    1  0.4046313E-006  0.2000115E+02  0.7818608E-02  0.1745305E+00
         -2   -1    0    0    0  501 -0.00000000000E+00  0.00000000000E+00  0.28351785033E+01  0.28351796955E+01  0.26000000000E-02 0. -1.
          2   -1    0    0  501    0  0.00000000000E+00 -0.00000000000E+00 -0.35275191565E+02  0.35275191660E+02  0.26000000000E-02 0.  1.
       1023    2    1    2    0    0  0.00000000000E+00  0.00000000000E+00 -0.32440013061E+02  0.38110371356E+02  0.20001148904E+02 0.  0.
        -11    1    3    3    0    0  0.35501515592E+01  0.93489011237E+01 -0.16367115849E+02  0.19180406924E+02  0.51100000000E-03 0.  1.
         11    1    3    3    0    0 -0.35501515592E+01 -0.93489011237E+01 -0.16072897212E+02  0.18929964431E+02  0.51100000000E-03 0. -1.
<mgrwt>
<rscale>  0 0.20001149E+02</rscale>
<asrwt>0</asrwt>
<pdfrwt beam="2">  1        2 0.54269523E-02 0.20001149E+02</pdfrwt>
<pdfrwt beam="1">  1       -2 0.43618143E-03 0.20001149E+02</pdfrwt>
<totfact> 0.44185211E+06</totfact>
</mgrwt>
</event>
<event>
 5    1  0.4046313E-006  0.2000012E+02  0.7818608E-02  0.1745326E+00
         -2   -1    0    0    0  501 -0.00000000000E+00  0.00000000000E+00  0.11106292863E+02  0.11106293168E+02  0.26000000000E-02 0. -1.
          2   -1    0    0  501    0  0.00000000000E+00 -0.00000000000E+00 -0.90040085883E+01  0.90040089637E+01  0.26000000000E-02 0.  1.
       1023    2    1    2    0    0  0.00000000000E+00  0.00000000000E+00  0.21022842751E+01  0.20110302131E+02  0.20000116316E+02 0.  0.
        -11    1    3    3    0    0 -0.71579827255E+01 -0.69830954153E+01  0.10222677105E+01  0.10052132600E+02  0.51100000000E-03 0. -1.
         11    1    3    3    0    0  0.71579827255E+01  0.69830954153E+01  0.10800165645E+01  0.10058169531E+02  0.51100000000E-03 0.  1.
<mgrwt>
<rscale>  0 0.20000116E+02</rscale>
<asrwt>0</asrwt>
<pdfrwt beam="2">  1        2 0.13852321E-02 0.20000116E+02</pdfrwt>
<pdfrwt beam="1">  1       -2 0.17086605E-02 0.20000116E+02</pdfrwt>
<totfact> 0.39160911E+06</totfact>
</mgrwt>
</event>
<event>
 5    1  0.4046313E-006  0.2000943E+02  0.7818608E-02  0.1745141E+00
         -2   -1    0    0    0  501 -0.00000000000E+00  0.00000000000E+00  0.31694821332E+01  0.31694831996E+01  0.26000000000E-02 0.  1.
          2   -1    0    0  501    0  0.00000000000E+00 -0.00000000000E+00 -0.31580650506E+02  0.31580650613E+02  0.26000000000E-02 0. -1.
       1023    2    1    2    0    0  0.00000000000E+00  0.00000000000E+00 -0.28411168373E+02  0.34750133812E+02  0.20009430569E+02 0.  0.
        -11    1    3    3    0    0 -0.99624961679E+01  0.91507218209E+00 -0.14336017047E+02  0.17481706782E+02  0.51100000000E-03 0.  1.
         11    1    3    3    0    0  0.99624961679E+01 -0.91507218209E+00 -0.14075151326E+02  0.17268427030E+02  0.51100000000E-03 0. -1.
<mgrwt>
<rscale>  0 0.20009431E+02</rscale>
<asrwt>0</asrwt>
<pdfrwt beam="2">  1        2 0.48585615E-02 0.20009431E+02</pdfrwt>
<pdfrwt beam="1">  1       -2 0.48761275E-03 0.20009431E+02</pdfrwt>
<totfact> 0.43576114E+06</totfact>
</mgrwt>
</event>
<event>
 5    1  0.4046313E-006  0.2000066E+02  0.7818608E-02  0.1745315E+00
          2   -1    0    0  501    0  0.00000000000E+00  0.00000000000E+00  0.57917212400E+02  0.57917212459E+02  0.26000000000E-02 0. -1.
         -2   -1    0    0    0  501 -0.00000000000E+00 -0.00000000000E+00 -0.17267151187E+01  0.17267170762E+01  0.26000000000E-02 0.  1.
       1023    2    1    2    0    0  0.00000000000E+00  0.00000000000E+00  0.56190497282E+02  0.59643929535E+02  0.20000658629E+02 0.  0.
        -11    1    3    3    0    0 -0.95173858549E+01 -0.30700541185E+01  0.28015211705E+02  0.29746562035E+02  0.51100000000E-03 0.  1.
         11    1    3    3    0    0  0.95173858549E+01  0.30700541185E+01  0.28175285577E+02  0.29897367500E+02  0.51100000000E-03 0. -1.
<mgrwt>
<rscale>  0 0.20000659E+02</rscale>
<asrwt>0</asrwt>
<pdfrwt beam="1">  1        2 0.89103398E-02 0.20000659E+02</pdfrwt>
<pdfrwt beam="2">  1       -2 0.26564866E-03 0.20000659E+02</pdfrwt>
<totfact> 0.47413062E+06</totfact>
</mgrwt>
</event>
<event>
 5    1  0.4046313E-006  0.2000006E+02  0.7818608E-02  0.1745327E+00
         -2   -1    0    0    0  501 -0.00000000000E+00  0.00000000000E+00  0.36580351173E+01  0.36580360413E+01  0.26000000000E-02 0. -1.
          2   -1    0    0  501    0  0.00000000000E+00 -0.00000000000E+00 -0.27337226312E+02  0.27337226436E+02  0.26000000000E-02 0.  1.
       1023    2    1    2    0    0  0.00000000000E+00  0.00000000000E+00 -0.23679191195E+02  0.30995262477E+02  0.20000055010E+02 0.  0.
        -11    1    3    3    0    0  0.12656360963E+01  0.99195915178E+01 -0.11871327026E+02  0.15521872833E+02  0.51100000000E-03 0.  1.
         11    1    3    3    0    0 -0.12656360963E+01 -0.99195915178E+01 -0.11807864169E+02  0.15473389645E+02  0.51100000000E-03 0. -1.
<mgrwt>
<rscale>  0 0.20000055E+02</rscale>
<asrwt>0</asrwt>
<pdfrwt beam="2">  1        2 0.42057271E-02 0.20000055E+02</pdfrwt>
<pdfrwt beam="1">  1       -2 0.56277473E-03 0.20000055E+02</pdfrwt>
<totfact> 0.42944381E+06</totfact>
</mgrwt>
</event>
<event>
 5    1  0.4046313E-006  0.2000870E+02  0.7818608E-02  0.1745155E+00
          2   -1    0    0  501    0  0.00000000000E+00  0.00000000000E+00  0.72745637225E+01  0.72745641871E+01  0.26000000000E-02 0.  1.
         -2   -1    0    0    0  501 -0.00000000000E+00 -0.00000000000E+00 -0.13758488143E+02  0.13758488389E+02  0.26000000000E-02 0. -1.
       1023    2    1    2    0    0  0.00000000000E+00  0.00000000000E+00 -0.64839244204E+01  0.21033052576E+02  0.20008698727E+02 0.  0.
        -11    1    3    3    0    0 -0.63095937642E+00 -0.99833435601E+01 -0.33969825550E+01  0.10564314891E+02  0.51100000000E-03 0.  1.
         11    1    3    3    0    0  0.63095937642E+00  0.99833435601E+01 -0.30869418655E+01  0.10468737685E+02  0.51100000000E-03 0. -1.
<mgrwt>
<rscale>  0 0.20008699E+02</rscale>
<asrwt>0</asrwt>
<pdfrwt beam="1">  1        2 0.11191637E-02 0.20008699E+02</pdfrwt>
<pdfrwt beam="2">  1       -2 0.21166905E-02 0.20008699E+02</pdfrwt>
<totfact> 0.38511638E+06</totfact>
</mgrwt>
</event>
<event>
 5    1  0.4046313E-006  0.2000772E+02  0.7818608E-02  0.1745175E+00
          2   -1    0    0  501    0  0.00000000000E+00  0.00000000000E+00  0.27791994565E+01  0.27792006726E+01  0.26000000000E-02 0.  1.
         -2   -1    0    0    0  501 -0.00000000000E+00 -0.00000000000E+00 -0.36009363138E+02  0.36009363232E+02  0.26000000000E-02 0. -1.
       1023    2    1    2    0    0  0.00000000000E+00  0.00000000000E+00 -0.33230163681E+02  0.38788563904E+02  0.20007721296E+02 0.  0.
        -11    1    3    3    0    0  0.54039050772E+01  0.84178939487E+01 -0.16845279072E+02  0.19591491926E+02  0.51100000000E-03 0.  1.
         11    1    3    3    0    0 -0.54039050772E+01 -0.84178939487E+01 -0.16384884609E+02  0.19197071978E+02  0.51100000000E-03 0. -1.
<mgrwt>
<rscale>  0 0.20007721E+02</rscale>
<asrwt>0</asrwt>
<pdfrwt beam="1">  1        2 0.42756927E-03 0.20007721E+02</pdfrwt>
<pdfrwt beam="2">  1       -2 0.55399018E-02 0.20007721E+02</pdfrwt>
<totfact> 0.35328850E+06</totfact>
</mgrwt>
</event>
<event>
 5    1  0.4046313E-006  0.2000329E+02  0.7818608E-02  0.1745263E+00
         -2   -1    0    0    0  501 -0.00000000000E+00  0.00000000000E+00  0.12297753644E+01  0.12297781128E+01  0.26000000000E-02 0. -1.
          2   -1    0    0  501    0  0.00000000000E+00 -0.00000000000E+00 -0.81342328686E+02  0.81342328728E+02  0.26000000000E-02 0.  1.
       1023    2    1    2    0    0  0.00000000000E+00  0.00000000000E+00 -0.80112553322E+02  0.82572106840E+02  0.20003290438E+02 0.  0.
        -11    1    3    3    0    0  0.16736479437E+01  0.98605487085E+01 -0.40210096714E+02  0.41435291676E+02  0.51100000000E-03 0.  1.
         11    1    3    3    0    0 -0.16736479437E+01 -0.98605487085E+01 -0.39902456608E+02  0.41136815164E+02  0.51100000000E-03 0. -1.
<mgrwt>
<rscale>  0 0.20003290E+02</rscale>
<asrwt>0</asrwt>
<pdfrwt beam="2">  1        2 0.12514200E-01 0.20003290E+02</pdfrwt>
<pdfrwt beam="1">  1       -2 0.18919649E-03 0.20003290E+02</pdfrwt>
<totfact> 0.50450146E+06</totfact>
</mgrwt>
</event>
<event>
 4    1  0.4046313E-006  0.2002069E+02  0.7818608E-02  0.1744917E+00
          2   -1    0    0  501    0  0.00000000000E+00  0.00000000000E+00  0.26029246979E+02  0.26029247109E+02  0.26000000000E-02 0.  1.
         -2   -1    0    0    0  501 -0.00000000000E+00 -0.00000000000E+00 -0.38497860206E+01  0.38497868986E+01  0.26000000000E-02 0. -1.
        -11    1    1    2    0    0  0.85643740799E+01  0.51789422233E+01  0.11377188501E+02  0.15152899537E+02  0.51100000000E-03 0.  1.
         11    1    1    2    0    0 -0.85643740799E+01 -0.51789422233E+01  0.10802272458E+02  0.14726134470E+02  0.51100000000E-03 0. -1.
<mgrwt>
<rscale>  0 0.20020694E+02</rscale>
<asrwt>0</asrwt>
<pdfrwt beam="1">  1        2 0.40044995E-02 0.20020694E+02</pdfrwt>
<pdfrwt beam="2">  1       -2 0.59227487E-03 0.20020694E+02</pdfrwt>
<totfact> 0.42629850E+06</totfact>
</mgrwt>
</event>
<event>
 5    1  0.4046313E-006  0.2000056E+02  0.7818608E-02  0.1745317E+00
         -2   -1    0    0    0  501 -0.00000000000E+00  0.00000000000E+00  0.14951772138E+02  0.14951772364E+02  0.26000000000E-02 0.  1.
          2   -1    0    0  501    0  0.00000000000E+00 -0.00000000000E+00 -0.66885467489E+01  0.66885472543E+01  0.26000000000E-02 0. -1.
       1023    2    1    2    0    0  0.00000000000E+00  0.00000000000E+00  0.82632253889E+01  0.21640319618E+02  0.20000563476E+02 0.  0.
        -11    1    3    3    0    0  0.88219227673E+00  0.99612225201E+01  0.41723457970E+01  0.10835713498E+02  0.51100000000E-03 0.  1.
         11    1    3    3    0    0 -0.88219227673E+00 -0.99612225201E+01  0.40908795920E+01  0.10804606120E+02  0.51100000000E-03 0. -1.
<mgrwt>
<rscale>  0 0.20000563E+02</rscale>
<asrwt>0</asrwt>
<pdfrwt beam="2">  1        2 0.10290073E-02 0.20000563E+02</pdfrwt>
<pdfrwt beam="1">  1       -2 0.23002726E-02 0.20000563E+02</pdfrwt>
<totfact> 0.38304681E+06</totfact>
</mgrwt>
</event>
<event>
 5    1  0.4046313E-006  0.2000103E+02  0.7818608E-02  0.1745308E+00
         -2   -1    0    0    0  501 -0.00000000000E+00  0.00000000000E+00  0.15892661890E+02  0.15892662103E+02  0.26000000000E-02 0. -1.
          2   -1    0    0  501    0  0.00000000000E+00 -0.00000000000E+00 -0.62928589649E+01  0.62928595020E+01  0.26000000000E-02 0.  1.
       1023    2    1    2    0    0  0.00000000000E+00  0.00000000000E+00  0.95998029250E+01  0.22185521605E+02  0.20001028790E+02 0.  0.
        -11    1    3    3    0    0 -0.98645770427E+01 -0.16422286297E+01  0.47343466824E+01  0.11064394872E+02  0.51100000000E-03 0.  1.
         11    1    3    3    0    0  0.98645770427E+01  0.16422286297E+01  0.48654562426E+01  0.11121126733E+02  0.51100000000E-03 0. -1.
<mgrwt>
<rscale>  0 0.20001029E+02</rscale>
<asrwt>0</asrwt>
<pdfrwt beam="2">  1        2 0.96813220E-03 0.20001029E+02</pdfrwt>
<pdfrwt beam="1">  1       -2 0.24450250E-02 0.20001029E+02</pdfrwt>
<totfact> 0.38124321E+06</totfact>
</mgrwt>
</event>
<event>
 5    1  0.4046313E-006  0.2000223E+02  0.7818608E-02  0.1745284E+00
         -2   -1    0    0    0  501 -0.00000000000E+00  0.00000000000E+00  0.22184438353E+02  0.22184438506E+02  0.26000000000E-02 0. -1.
          2   -1    0    0  501    0  0.00000000000E+00 -0.00000000000E+00 -0.45086684326E+01  0.45086691823E+01  0.26000000000E-02 0.  1.
       1023    2    1    2    0    0  0.00000000000E+00  0.00000000000E+00  0.17675769921E+02  0.26693107688E+02  0.20002228770E+02 0.  0.
        -11    1    3    3    0    0  0.70176214603E+01 -0.71253777073E+01  0.89250911217E+01  0.13404300438E+02  0.51100000000E-03 0. -1.
         11    1    3    3    0    0 -0.70176214603E+01  0.71253777073E+01  0.87506787991E+01  0.13288807250E+02  0.51100000000E-03 0.  1.
<mgrwt>
<rscale>  0 0.20002229E+02</rscale>
<asrwt>0</asrwt>
<pdfrwt beam="2">  1        2 0.69364136E-03 0.20002229E+02</pdfrwt>
<pdfrwt beam="1">  1       -2 0.34129906E-02 0.20002229E+02</pdfrwt>
<totfact> 0.37095607E+06</totfact>
</mgrwt>
</event>
<event>
 5    1  0.4046313E-006  0.2000041E+02  0.7818608E-02  0.1745320E+00
          2   -1    0    0  501    0  0.00000000000E+00  0.00000000000E+00  0.10126873161E+03  0.10126873164E+03  0.26000000000E-02 0. -1.
         -2   -1    0    0    0  501 -0.00000000000E+00 -0.00000000000E+00 -0.98751033783E+00  0.98751376057E+00  0.26000000000E-02 0.  1.
       1023    2    1    2    0    0  0.00000000000E+00  0.00000000000E+00  0.10028122127E+03  0.10225624540E+03  0.20000409602E+02 0.  0.
        -11    1    3    3    0    0 -0.94266019297E+01  0.33379761170E+01  0.49964440450E+02  0.50955355148E+02  0.51100000000E-03 0. -1.
         11    1    3    3    0    0  0.94266019297E+01 -0.33379761170E+01  0.50316780820E+02  0.51300890254E+02  0.51100000000E-03 0.  1.
<mgrwt>
<rscale>  0 0.20000410E+02</rscale>
<asrwt>0</asrwt>
<pdfrwt beam="1">  1        2 0.15579810E-01 0.20000410E+02</pdfrwt>
<pdfrwt beam="2">  1       -2 0.15192489E-03 0.20000410E+02</pdfrwt>
<totfact> 0.52907254E+06</totfact>
</mgrwt>
</event>
<event>
 5    1  0.4046313E-006  0.2000025E+02  0.7818608E-02  0.1745323E+00
         -2   -1    0    0    0  501 -0.00000000000E+00  0.00000000000E+00  0.11664500715E+03  0.11664500718E+03  0.26000000000E-02 0.  1.
          2   -1    0    0  501    0  0.00000000000E+00 -0.00000000000E+00 -0.85732102613E+00  0.85732496863E+00  0.26000000000E-02 0. -1.
       1023    2    1    2    0    0  0.00000000000E+00  0.00000000000E+00  0.11578768613E+03  0.11750233215E+03  0.20000245054E+02 0.  0.
        -11    1    3    3    0    0 -0.97177047579E+01  0.23597313844E+01  0.57786742600E+02  0.58645628469E+02  0.51100000000E-03 0. -1.
         11    1    3    3    0    0  0.97177047579E+01 -0.23597313844E+01  0.58000943525E+02  0.58856703680E+02  0.51100000000E-03 0.  1.
<mgrwt>
<rscale>  0 0.20000245E+02</rscale>
<asrwt>0</asrwt>
<pdfrwt beam="2">  1        2 0.13189590E-03 0.20000245E+02</pdfrwt>
<pdfrwt beam="1">  1       -2 0.17945378E-01 0.20000245E+02</pdfrwt>
<totfact> 0.28564924E+06</totfact>
</mgrwt>
</event>
<event>
 4    1  0.4046313E-006  0.2003101E+02  0.7818608E-02  0.1744712E+00
         -2   -1    0    0    0  501 -0.00000000000E+00  0.00000000000E+00  0.35890180918E+02  0.35890181012E+02  0.26000000000E-02 0.  1.
          2   -1    0    0  501    0  0.00000000000E+00 -0.00000000000E+00 -0.27949238382E+01  0.27949250475E+01  0.26000000000E-02 0. -1.
        -11    1    1    2    0    0  0.62876675954E+01 -0.77957616525E+01  0.16626871954E+02  0.19410346075E+02  0.51100000000E-03 0. -1.
         11    1    1    2    0    0 -0.62876675954E+01  0.77957616525E+01  0.16468385125E+02  0.19274759984E+02  0.51100000000E-03 0.  1.
<mgrwt>
<rscale>  0 0.20031011E+02</rscale>
<asrwt>0</asrwt>
<pdfrwt beam="2">  1        2 0.42998838E-03 0.20031011E+02</pdfrwt>
<pdfrwt beam="1">  1       -2 0.55215665E-02 0.20031011E+02</pdfrwt>
<totfact> 0.35252626E+06</totfact>
</mgrwt>
</event>
<event>
 5    1  0.4046313E-006  0.2000150E+02  0.7818608E-02  0.1745298E+00
         -2   -1    0    0    0  501 -0.00000000000E+00  0.00000000000E+00  0.85995326418E+00  0.85995719461E+00  0.26000000000E-02 0. -1.
          2   -1    0    0  501    0  0.00000000000E+00 -0.00000000000E+00 -0.11630259516E+03  0.11630259519E+03  0.26000000000E-02 0.  1.
       1023    2    1    2    0    0  0.00000000000E+00  0.00000000000E+00 -0.11544264189E+03  0.11716255238E+03  0.20001502773E+02 0.  0.
        -11    1    3    3    0    0  0.47191936079E+01 -0.88165947938E+01 -0.58360210824E+02  0.59210787360E+02  0.51100000000E-03 0.  1.
         11    1    3    3    0    0 -0.47191936079E+01  0.88165947938E+01 -0.57082431070E+02  0.57951765022E+02  0.51100000000E-03 0. -1.
<mgrwt>
<rscale>  0 0.20001503E+02</rscale>
<asrwt>0</asrwt>
<pdfrwt beam="2">  1        2 0.17892695E-01 0.20001503E+02</pdfrwt>
<pdfrwt beam="1">  1       -2 0.13230090E-03 0.20001503E+02</pdfrwt>
<totfact> 0.54660197E+06</totfact>
</mgrwt>
</event>
<event>
 5    1  0.4046313E-006  0.2000120E+02  0.7818608E-02  0.1745304E+00
          2   -1    0    0  501    0  0.00000000000E+00  0.00000000000E+00  0.82902733848E+00  0.82903141553E+00  0.26000000000E-02 0. -1.
         -2   -1    0    0    0  501 -0.00000000000E+00 -0.00000000000E+00 -0.12063747149E+03  0.12063747152E+03  0.26000000000E-02 0.  1.
       1023    2    1    2    0    0  0.00000000000E+00  0.00000000000E+00 -0.11980844415E+03  0.12146650293E+03  0.20001201086E+02 0.  0.
        -11    1    3    3    0    0  0.80506888446E+01 -0.59325391436E+01 -0.59550141945E+02  0.60384004650E+02  0.51100000000E-03 0. -1.
         11    1    3    3    0    0 -0.80506888446E+01  0.59325391436E+01 -0.60258302204E+02  0.61082498282E+02  0.51100000000E-03 0.  1.
<mgrwt>
<rscale>  0 0.20001201E+02</rscale>
<asrwt>0</asrwt>
<pdfrwt beam="1">  1        2 0.12754308E-03 0.20001201E+02</pdfrwt>
<pdfrwt beam="2">  1       -2 0.18559597E-01 0.20001201E+02</pdfrwt>
<totfact> 0.28295110E+06</totfact>
</mgrwt>
</event>
<event>
 5    1  0.4046313E-006  0.2000026E+02  0.7818608E-02  0.1745323E+00
          2   -1    0    0  501    0  0.00000000000E+00  0.00000000000E+00  0.43371821757E+02  0.43371821835E+02  0.26000000000E-02 0.  1.
         -2   -1    0    0    0  501 -0.00000000000E+00 -0.00000000000E+00 -0.23057042765E+01  0.23057057425E+01  0.26000000000E-02 0. -1.
       1023    2    1    2    0    0  0.00000000000E+00  0.00000000000E+00  0.41066117481E+02  0.45677527578E+02  0.20000263015E+02 0.  0.
        -11    1    3    3    0    0 -0.68574762669E+01 -0.72785297960E+01  0.20474690377E+02  0.22786288049E+02  0.51100000000E-03 0. -1.
         11    1    3    3    0    0  0.68574762669E+01  0.72785297960E+01  0.20591427103E+02  0.22891239529E+02  0.51100000000E-03 0.  1.
<mgrwt>
<rscale>  0 0.20000263E+02</rscale>
<asrwt>0</asrwt>
<pdfrwt beam="1">  1        2 0.66725876E-02 0.20000263E+02</pdfrwt>
<pdfrwt beam="2">  1       -2 0.35472388E-03 0.20000263E+02</pdfrwt>
<totfact> 0.45386061E+06</totfact>
</mgrwt>
</event>
<event>
 5    1  0.4046313E-006  0.2000144E+02  0.7818608E-02  0.1745299E+00
          2   -1    0    0  501    0  0.00000000000E+00  0.00000000000E+00  0.33523043932E+02  0.33523044033E+02  0.26000000000E-02 0. -1.
         -2   -1    0    0    0  501 -0.00000000000E+00 -0.00000000000E+00 -0.29834507845E+01  0.29834519174E+01  0.26000000000E-02 0.  1.
       1023    2    1    2    0    0  0.00000000000E+00  0.00000000000E+00  0.30539593148E+02  0.36506495951E+02  0.20001437372E+02 0.  0.
        -11    1    3    3    0    0 -0.20079524769E+00 -0.99987024770E+01  0.15266136904E+02  0.18250186470E+02  0.51100000000E-03 0. -1.
         11    1    3    3    0    0  0.20079524769E+00  0.99987024770E+01  0.15273456244E+02  0.18256309481E+02  0.51100000000E-03 0.  1.
<mgrwt>
<rscale>  0 0.20001437E+02</rscale>
<asrwt>0</asrwt>
<pdfrwt beam="1">  1        2 0.51573915E-02 0.20001437E+02</pdfrwt>
<pdfrwt beam="2">  1       -2 0.45899252E-03 0.20001437E+02</pdfrwt>
<totfact> 0.43916189E+06</totfact>
</mgrwt>
</event>
<event>
 5    1  0.4046313E-006  0.2000190E+02  0.7818608E-02  0.1745290E+00
         -2   -1    0    0    0  501 -0.00000000000E+00  0.00000000000E+00  0.46390203106E+02  0.46390203179E+02  0.26000000000E-02 0. -1.
          2   -1    0    0  501    0  0.00000000000E+00 -0.00000000000E+00 -0.21560365134E+01  0.21560380811E+01  0.26000000000E-02 0.  1.
       1023    2    1    2    0    0  0.00000000000E+00  0.00000000000E+00  0.44234166592E+02  0.48546241260E+02  0.20001901068E+02 0.  0.
        -11    1    3    3    0    0 -0.48941598687E+01  0.87211609633E+01  0.22328141052E+02  0.24465431377E+02  0.51100000000E-03 0.  1.
         11    1    3    3    0    0  0.48941598687E+01 -0.87211609633E+01  0.21906025541E+02  0.24080809883E+02  0.51100000000E-03 0. -1.
<mgrwt>
<rscale>  0 0.20001901E+02</rscale>
<asrwt>0</asrwt>
<pdfrwt beam="2">  1        2 0.33169805E-03 0.20001901E+02</pdfrwt>
<pdfrwt beam="1">  1       -2 0.71369545E-02 0.20001901E+02</pdfrwt>
<totfact> 0.34249306E+06</totfact>
</mgrwt>
</event>
<event>
 5    1  0.4046313E-006  0.2000109E+02  0.7818608E-02  0.1745306E+00
          2   -1    0    0  501    0  0.00000000000E+00  0.00000000000E+00  0.24308753456E+01  0.24308767361E+01  0.26000000000E-02 0. -1.
         -2   -1    0    0    0  501 -0.00000000000E+00 -0.00000000000E+00 -0.41141905371E+02  0.41141905453E+02  0.26000000000E-02 0.  1.
       1023    2    1    2    0    0  0.00000000000E+00  0.00000000000E+00 -0.38711030025E+02  0.43572782189E+02  0.20001087522E+02 0.  0.
        -11    1    3    3    0    0 -0.79127377319E+01  0.61152623889E+01 -0.19475289269E+02  0.21892801211E+02  0.51100000000E-03 0.  1.
         11    1    3    3    0    0  0.79127377319E+01 -0.61152623889E+01 -0.19235740756E+02  0.21679980977E+02  0.51100000000E-03 0. -1.
<mgrwt>
<rscale>  0 0.20001088E+02</rscale>
<asrwt>0</asrwt>
<pdfrwt beam="1">  1        2 0.37398097E-03 0.20001088E+02</pdfrwt>
<pdfrwt beam="2">  1       -2 0.63295235E-02 0.20001088E+02</pdfrwt>
<totfact> 0.34794490E+06</totfact>
</mgrwt>
</event>
<event>
 5    1  0.4046313E-006  0.2000018E+02  0.7818608E-02  0.1745325E+00
         -2   -1    0    0    0  501 -0.00000000000E+00  0.00000000000E+00  0.24648832710E+01  0.24648846422E+01  0.26000000000E-02 0. -1.
          2   -1    0    0  501    0  0.00000000000E+00 -0.00000000000E+00 -0.40570585260E+02  0.40570585343E+02  0.26000000000E-02 0.  1.
       1023    2    1    2    0    0  0.00000000000E+00  0.00000000000E+00 -0.38105701989E+02  0.43035469986E+02  0.20000178819E+02 0.  0.
        -11    1    3    3    0    0  0.86483264187E+01 -0.50207467601E+01 -0.19092531155E+02  0.21552869740E+02  0.51100000000E-03 0. -1.
         11    1    3    3    0    0 -0.86483264187E+01  0.50207467601E+01 -0.19013170834E+02  0.21482600246E+02  0.51100000000E-03 0.  1.
<mgrwt>
<rscale>  0 0.20000179E+02</rscale>
<asrwt>0</asrwt>
<pdfrwt beam="2">  1        2 0.62416281E-02 0.20000179E+02</pdfrwt>
<pdfrwt beam="1">  1       -2 0.37921295E-03 0.20000179E+02</pdfrwt>
<totfact> 0.44979185E+06</totfact>
</mgrwt>
</event>
<event>
 5    1  0.4046313E-006  0.2000719E+02  0.7818608E-02  0.1745185E+00
          2   -1    0    0  501    0  0.00000000000E+00  0.00000000000E+00  0.11676248669E+02  0.11676248959E+02  0.26000000000E-02 0.  1.
         -2   -1    0    0    0  501 -0.00000000000E+00 -0.00000000000E+00 -0.85705501159E+01  0.85705505103E+01  0.26000000000E-02 0. -1.
       1023    2    1    2    0    0  0.00000000000E+00  0.00000000000E+00  0.31056985532E+01  0.20246799469E+02  0.20007186840E+02 0.  0.
        -11    1    3    3    0    0  0.51769548718E+01 -0.85567506512E+01  0.17859063387E+01  0.10159148841E+02  0.51100000000E-03 0.  1.
         11    1    3    3    0    0 -0.51769548718E+01  0.85567506512E+01  0.13197922145E+01  0.10087650628E+02  0.51100000000E-03 0. -1.
<mgrwt>
<rscale>  0 0.20007187E+02</rscale>
<asrwt>0</asrwt>
<pdfrwt beam="1">  1        2 0.17963460E-02 0.20007187E+02</pdfrwt>
<pdfrwt beam="2">  1       -2 0.13185462E-02 0.20007187E+02</pdfrwt>
<totfact> 0.39884483E+06</totfact>
</mgrwt>
</event>
<event>
 5    1  0.4124781E-006  0.2000050E+02  0.7818608E-02  0.1745318E+00
         -2   -1    0    0    0  501 -0.00000000000E+00  0.00000000000E+00  0.11107168121E+01  0.11107198551E+01  0.26000000000E-02 0.  1.
          2   -1    0    0  501    0  0.00000000000E+00 -0.00000000000E+00 -0.90036350148E+02  0.90036350185E+02  0.26000000000E-02 0. -1.
       1023    2    1    2    0    0  0.00000000000E+00  0.00000000000E+00 -0.88925633336E+02  0.91147070041E+02  0.20000502814E+02 0.  0.
        -11    1    3    3    0    0  0.74875227672E+01  0.66287991123E+01 -0.44610704456E+02  0.45717818486E+02  0.51100000000E-03 0.  1.
         11    1    3    3    0    0 -0.74875227672E+01 -0.66287991123E+01 -0.44314928880E+02  0.45429251554E+02  0.51100000000E-03 0. -1.
<mgrwt>
<rscale>  0 0.20000503E+02</rscale>
<asrwt>0</asrwt>
<pdfrwt beam="2">  1        2 0.13851741E-01 0.20000503E+02</pdfrwt>
<pdfrwt beam="1">  1       -2 0.17087982E-03 0.20000503E+02</pdfrwt>
<totfact> 0.51546321E+06</totfact>
</mgrwt>
</event>
<event>
 5    1  0.4046313E-006  0.2000163E+02  0.7818608E-02  0.1745296E+00
         -2   -1    0    0    0  501 -0.00000000000E+00  0.00000000000E+00  0.10662877807E+02  0.10662878124E+02  0.26000000000E-02 0.  1.
          2   -1    0    0  501    0  0.00000000000E+00 -0.00000000000E+00 -0.93798611958E+01  0.93798615562E+01  0.26000000000E-02 0. -1.
       1023    2    1    2    0    0  0.00000000000E+00  0.00000000000E+00  0.12830166108E+01  0.20042739680E+02  0.20001631990E+02 0.  0.
        -11    1    3    3    0    0  0.11399652297E+01 -0.99349606388E+01  0.75731693547E+00  0.10028783217E+02  0.51100000000E-03 0.  1.
         11    1    3    3    0    0 -0.11399652297E+01  0.99349606388E+01  0.52569967530E+00  0.10013956462E+02  0.51100000000E-03 0. -1.
<mgrwt>
<rscale>  0 0.20001632E+02</rscale>
<asrwt>0</asrwt>
<pdfrwt beam="2">  1        2 0.14430556E-02 0.20001632E+02</pdfrwt>
<pdfrwt beam="1">  1       -2 0.16404428E-02 0.20001632E+02</pdfrwt>
<totfact> 0.39271371E+06</totfact>
</mgrwt>
</event>
<event>
 5    1  0.4046313E-006  0.2000028E+02  0.7818608E-02  0.1745323E+00
         -2   -1    0    0    0  501 -0.00000000000E+00  0.00000000000E+00  0.14192997861E+01  0.14193021675E+01  0.26000000000E-02 0. -1.
          2   -1    0    0  501    0  0.00000000000E+00 -0.00000000000E+00 -0.70459192140E+02  0.70459192188E+02  0.26000000000E-02 0.  1.
       1023    2    1    2    0    0  0.00000000000E+00  0.00000000000E+00 -0.69039892354E+02  0.71878494355E+02  0.20000280362E+02 0.  0.
        -11    1    3    3    0    0  0.54213048565E+01 -0.84030822427E+01 -0.34597515465E+02  0.36013753125E+02  0.51100000000E-03 0.  1.
         11    1    3    3    0    0 -0.54213048565E+01  0.84030822427E+01 -0.34442376889E+02  0.35864741231E+02  0.51100000000E-03 0. -1.
<mgrwt>
<rscale>  0 0.20000280E+02</rscale>
<asrwt>0</asrwt>
<pdfrwt beam="2">  1        2 0.10839873E-01 0.20000280E+02</pdfrwt>
<pdfrwt beam="1">  1       -2 0.21835406E-03 0.20000280E+02</pdfrwt>
<totfact> 0.49077960E+06</totfact>
</mgrwt>
</event>
<event>
 5    1  0.4046313E-006  0.2000565E+02  0.7818608E-02  0.1745216E+00
          2   -1    0    0  501    0  0.00000000000E+00  0.00000000000E+00  0.46520734890E+01  0.46520742156E+01  0.26000000000E-02 0.  1.
         -2   -1    0    0    0  501 -0.00000000000E+00 -0.00000000000E+00 -0.21507932920E+02  0.21507933077E+02  0.26000000000E-02 0. -1.
       1023    2    1    2    0    0  0.00000000000E+00  0.00000000000E+00 -0.16855859431E+02  0.26160007293E+02  0.20005648812E+02 0.  0.
        -11    1    3    3    0    0  0.87154310737E+01 -0.49089351997E+01 -0.84140760217E+01  0.13071077199E+02  0.51100000000E-03 0. -1.
         11    1    3    3    0    0 -0.87154310737E+01  0.49089351997E+01 -0.84417834094E+01  0.13088930093E+02  0.51100000000E-03 0.  1.
<mgrwt>
<rscale>  0 0.20005649E+02</rscale>
<asrwt>0</asrwt>
<pdfrwt beam="1">  1        2 0.71570369E-03 0.20005649E+02</pdfrwt>
<pdfrwt beam="2">  1       -2 0.33089128E-02 0.20005649E+02</pdfrwt>
<totfact> 0.37181408E+06</totfact>
</mgrwt>
</event>
<event>
 4    1  0.4046313E-006  0.2006119E+02  0.7818608E-02  0.1744114E+00
         -2   -1    0    0    0  501 -0.00000000000E+00  0.00000000000E+00  0.11862929360E+01  0.11862957852E+01  0.26000000000E-02 0. -1.
          2   -1    0    0  501    0  0.00000000000E+00 -0.00000000000E+00 -0.84812720125E+02  0.84812720165E+02  0.26000000000E-02 0.  1.
        -11    1    1    2    0    0 -0.66661720296E+01  0.74948614048E+01 -0.42007674017E+02  0.43188603515E+02  0.51100000000E-03 0. -1.
         11    1    1    2    0    0  0.66661720296E+01 -0.74948614048E+01 -0.41618753172E+02  0.42810412435E+02  0.51100000000E-03 0.  1.
<mgrwt>
<rscale>  0 0.20061192E+02</rscale>
<asrwt>0</asrwt>
<pdfrwt beam="2">  1        2 0.13048106E-01 0.20061192E+02</pdfrwt>
<pdfrwt beam="1">  1       -2 0.18250689E-03 0.20061192E+02</pdfrwt>
<totfact> 0.50559727E+06</totfact>
</mgrwt>
</event>
<event>
 5    1  0.4046313E-006  0.2000038E+02  0.7818608E-02  0.1745321E+00
          2   -1    0    0  501    0  0.00000000000E+00  0.00000000000E+00  0.18559889160E+02  0.18559889342E+02  0.26000000000E-02 0. -1.
         -2   -1    0    0    0  501 -0.00000000000E+00 -0.00000000000E+00 -0.53881673128E+01  0.53881679401E+01  0.26000000000E-02 0.  1.
       1023    2    1    2    0    0  0.00000000000E+00  0.00000000000E+00  0.13171721847E+02  0.23948057282E+02  0.20000379775E+02 0.  0.
        -11    1    3    3    0    0  0.23645303437E+01  0.97165972356E+01  0.66134772048E+01  0.11989217930E+02  0.51100000000E-03 0. -1.
         11    1    3    3    0    0 -0.23645303437E+01 -0.97165972356E+01  0.65582446419E+01  0.11958839351E+02  0.51100000000E-03 0.  1.
<mgrwt>
<rscale>  0 0.20000380E+02</rscale>
<asrwt>0</asrwt>
<pdfrwt beam="1">  1        2 0.28553676E-02 0.20000380E+02</pdfrwt>
<pdfrwt beam="2">  1       -2 0.82894888E-03 0.20000380E+02</pdfrwt>
<totfact> 0.41406138E+06</totfact>
</mgrwt>
</event>
<event>
 5    1  0.4046313E-006  0.2000435E+02  0.7818608E-02  0.1745242E+00
         -2   -1    0    0    0  501 -0.00000000000E+00  0.00000000000E+00  0.37362536471E+02  0.37362536561E+02  0.26000000000E-02 0.  1.
          2   -1    0    0  501    0  0.00000000000E+00 -0.00000000000E+00 -0.26776425074E+01  0.26776437697E+01  0.26000000000E-02 0. -1.
       1023    2    1    2    0    0  0.00000000000E+00  0.00000000000E+00  0.34684893963E+02  0.40040180331E+02  0.20004353818E+02 0.  0.
        -11    1    3    3    0    0  0.21602458882E+01  0.97654007886E+01  0.17577815314E+02  0.20223978499E+02  0.51100000000E-03 0. -1.
         11    1    3    3    0    0 -0.21602458882E+01 -0.97654007886E+01  0.17107078649E+02  0.19816201832E+02  0.51100000000E-03 0.  1.
<mgrwt>
<rscale>  0 0.20004354E+02</rscale>
<asrwt>0</asrwt>
<pdfrwt beam="2">  1        2 0.41194516E-03 0.20004354E+02</pdfrwt>
<pdfrwt beam="1">  1       -2 0.57480819E-02 0.20004354E+02</pdfrwt>
<totfact> 0.35190983E+06</totfact>
</mgrwt>
</event>
<event>
 4    1  0.4046313E-006  0.3656807E+02  0.7818608E-02  0.1535101E+00
         -2   -1    0    0    0  501 -0.00000000000E+00  0.00000000000E+00  0.18138194617E+02  0.18138194803E+02  0.26000000000E-02 0. -1.
          2   -1    0    0  501    0  0.00000000000E+00 -0.00000000000E+00 -0.18431050940E+02  0.18431051123E+02  0.26000000000E-02 0.  1.
        -11    1    1    2    0    0 -0.17888276564E+02  0.37598570499E+01  0.27670711281E+00  0.18281234383E+02  0.51100000000E-03 0. -1.
         11    1    1    2    0    0  0.17888276564E+02 -0.37598570499E+01 -0.56956343571E+00  0.18288011544E+02  0.51100000000E-03 0.  1.
<mgrwt>
<rscale>  0 0.36568073E+02</rscale>
<asrwt>0</asrwt>
<pdfrwt beam="2">  1        2 0.28355463E-02 0.36568073E+02</pdfrwt>
<pdfrwt beam="1">  1       -2 0.27904915E-02 0.36568073E+02</pdfrwt>
<totfact> 0.97977909E+05</totfact>
</mgrwt>
</event>
<event>
 5    1  0.4046313E-006  0.2000176E+02  0.7818608E-02  0.1745293E+00
         -2   -1    0    0    0  501 -0.00000000000E+00  0.00000000000E+00  0.77007759512E+01  0.77007763901E+01  0.26000000000E-02 0. -1.
          2   -1    0    0  501    0  0.00000000000E+00 -0.00000000000E+00 -0.12987993076E+02  0.12987993337E+02  0.26000000000E-02 0.  1.
       1023    2    1    2    0    0  0.00000000000E+00  0.00000000000E+00 -0.52872171252E+01  0.20688769727E+02  0.20001763119E+02 0.  0.
        -11    1    3    3    0    0 -0.98404174692E+01 -0.17840175918E+01 -0.26778667345E+01  0.10353139874E+02  0.51100000000E-03 0.  1.
         11    1    3    3    0    0  0.98404174692E+01  0.17840175918E+01 -0.26093503906E+01  0.10335629853E+02  0.51100000000E-03 0. -1.
<mgrwt>
<rscale>  0 0.20001763E+02</rscale>
<asrwt>0</asrwt>
<pdfrwt beam="2">  1        2 0.19981528E-02 0.20001763E+02</pdfrwt>
<pdfrwt beam="1">  1       -2 0.11847348E-02 0.20001763E+02</pdfrwt>
<totfact> 0.40230188E+06</totfact>
</mgrwt>
</event>
<event>
 5    1  0.4046313E-006  0.2000024E+02  0.7818608E-02  0.1745323E+00
         -2   -1    0    0    0  501 -0.00000000000E+00  0.00000000000E+00  0.34233741257E+01  0.34233751130E+01  0.26000000000E-02 0. -1.
          2   -1    0    0  501    0  0.00000000000E+00 -0.00000000000E+00 -0.29211641578E+02  0.29211641693E+02  0.26000000000E-02 0.  1.
       1023    2    1    2    0    0  0.00000000000E+00  0.00000000000E+00 -0.25788267452E+02  0.32635016806E+02  0.20000239593E+02 0.  0.
        -11    1    3    3    0    0 -0.53193321975E+01  0.84680044939E+01 -0.12895339844E+02  0.16318461480E+02  0.51100000000E-03 0.  1.
         11    1    3    3    0    0  0.53193321975E+01 -0.84680044939E+01 -0.12892927608E+02  0.16316555326E+02  0.51100000000E-03 0. -1.
<mgrwt>
<rscale>  0 0.20000240E+02</rscale>
<asrwt>0</asrwt>
<pdfrwt beam="2">  1        2 0.44940986E-02 0.20000240E+02</pdfrwt>
<pdfrwt beam="1">  1       -2 0.52667305E-03 0.20000240E+02</pdfrwt>
<totfact> 0.43246466E+06</totfact>
</mgrwt>
</event>
<event>
 5    1  0.4046313E-006  0.2000103E+02  0.7818608E-02  0.1745308E+00
         -2   -1    0    0    0  501 -0.00000000000E+00  0.00000000000E+00  0.82258019470E+02  0.82258019511E+02  0.26000000000E-02 0. -1.
          2   -1    0    0  501    0  0.00000000000E+00 -0.00000000000E+00 -0.12158105710E+01  0.12158133510E+01  0.26000000000E-02 0.  1.
       1023    2    1    2    0    0  0.00000000000E+00  0.00000000000E+00  0.81042208899E+02  0.83473832862E+02  0.20001028710E+02 0.  0.
        -11    1    3    3    0    0 -0.80682804492E+00  0.99678406504E+01  0.40681029737E+02  0.41892183036E+02  0.51100000000E-03 0. -1.
         11    1    3    3    0    0  0.80682804492E+00 -0.99678406504E+01  0.40361179161E+02  0.41581649826E+02  0.51100000000E-03 0.  1.
<mgrwt>
<rscale>  0 0.20001029E+02</rscale>
<asrwt>0</asrwt>
<pdfrwt beam="2">  1        2 0.18704802E-03 0.20001029E+02</pdfrwt>
<pdfrwt beam="1">  1       -2 0.12655078E-01 0.20001029E+02</pdfrwt>
<totfact> 0.31074288E+06</totfact>
</mgrwt>
</event>
<event>
 5    1  0.4046313E-006  0.2000700E+02  0.7818608E-02  0.1745189E+00
         -2   -1    0    0    0  501 -0.00000000000E+00  0.00000000000E+00  0.16771565512E+01  0.16771585666E+01  0.26000000000E-02 0.  1.
          2   -1    0    0  501    0  0.00000000000E+00 -0.00000000000E+00 -0.59666440133E+02  0.59666440189E+02  0.26000000000E-02 0. -1.
       1023    2    1    2    0    0  0.00000000000E+00  0.00000000000E+00 -0.57989283581E+02  0.61343598756E+02  0.20007001225E+02 0.  0.
        -11    1    3    3    0    0 -0.66039056279E+01 -0.75110900494E+01 -0.28366419249E+02  0.30077928528E+02  0.51100000000E-03 0.  1.
         11    1    3    3    0    0  0.66039056279E+01  0.75110900494E+01 -0.29622864332E+02  0.31265670228E+02  0.51100000000E-03 0. -1.
<mgrwt>
<rscale>  0 0.20007001E+02</rscale>
<asrwt>0</asrwt>
<pdfrwt beam="2">  1        2 0.91794509E-02 0.20007001E+02</pdfrwt>
<pdfrwt beam="1">  1       -2 0.25802429E-03 0.20007001E+02</pdfrwt>
<totfact> 0.47615790E+06</totfact>
</mgrwt>
</event>
<event>
 5    1  0.4046313E-006  0.2000233E+02  0.7818608E-02  0.1745282E+00
         -2   -1    0    0    0  501 -0.00000000000E+00  0.00000000000E+00  0.59146444985E+01  0.59146450700E+01  0.26000000000E-02 0. -1.
          2   -1    0    0  501    0  0.00000000000E+00 -0.00000000000E+00 -0.16911118576E+02  0.16911118776E+02  0.26000000000E-02 0.  1.
       1023    2    1    2    0    0  0.00000000000E+00  0.00000000000E+00 -0.10996474078E+02  0.22825763846E+02  0.20002326190E+02 0.  0.
        -11    1    3    3    0    0 -0.27356496044E+01  0.96186546726E+01 -0.53329997595E+01  0.11333277688E+02  0.51100000000E-03 0. -1.
         11    1    3    3    0    0  0.27356496044E+01 -0.96186546726E+01 -0.56634743183E+01  0.11492486158E+02  0.51100000000E-03 0.  1.
<mgrwt>
<rscale>  0 0.20002326E+02</rscale>
<asrwt>0</asrwt>
<pdfrwt beam="2">  1        2 0.26017106E-02 0.20002326E+02</pdfrwt>
<pdfrwt beam="1">  1       -2 0.90994537E-03 0.20002326E+02</pdfrwt>
<totfact> 0.41074598E+06</totfact>
</mgrwt>
</event>
<event>
 4    1  0.4046313E-006  0.2002061E+02  0.7818608E-02  0.1744919E+00
          2   -1    0    0  501    0  0.00000000000E+00  0.00000000000E+00  0.40282636459E+02  0.40282636543E+02  0.26000000000E-02 0.  1.
         -2   -1    0    0    0  501 -0.00000000000E+00 -0.00000000000E+00 -0.24875768166E+01  0.24875781753E+01  0.26000000000E-02 0. -1.
        -11    1    1    2    0    0  0.97035428381E+01  0.24477346928E+01  0.19403228262E+02  0.21831981494E+02  0.51100000000E-03 0.  1.
         11    1    1    2    0    0 -0.97035428381E+01 -0.24477346928E+01  0.18391831381E+02  0.20938233224E+02  0.51100000000E-03 0. -1.
<mgrwt>
<rscale>  0 0.20020608E+02</rscale>
<asrwt>0</asrwt>
<pdfrwt beam="1">  1        2 0.61973282E-02 0.20020608E+02</pdfrwt>
<pdfrwt beam="2">  1       -2 0.38270427E-03 0.20020608E+02</pdfrwt>
<totfact> 0.44834598E+06</totfact>
</mgrwt>
</event>
<event>
 4    1  0.4046313E-006  0.2001434E+02  0.7818608E-02  0.1745043E+00
         -2   -1    0    0    0  501 -0.00000000000E+00  0.00000000000E+00  0.11031999249E+03  0.11031999252E+03  0.26000000000E-02 0.  1.
          2   -1    0    0  501    0  0.00000000000E+00 -0.00000000000E+00 -0.90775282360E+00  0.90775654708E+00  0.26000000000E-02 0. -1.
        -11    1    1    2    0    0 -0.10101156257E+01 -0.99527864468E+01  0.56125179942E+02  0.57009772105E+02  0.51100000000E-03 0. -1.
         11    1    1    2    0    0  0.10101156257E+01  0.99527864468E+01  0.53287059719E+02  0.54217976958E+02  0.51100000000E-03 0.  1.
<mgrwt>
<rscale>  0 0.20014344E+02</rscale>
<asrwt>0</asrwt>
<pdfrwt beam="2">  1        2 0.13965453E-03 0.20014344E+02</pdfrwt>
<pdfrwt beam="1">  1       -2 0.16972312E-01 0.20014344E+02</pdfrwt>
<totfact> 0.28952865E+06</totfact>
</mgrwt>
</event>
<event>
 5    1  0.4046313E-006  0.2000150E+02  0.7818608E-02  0.1745298E+00
          2   -1    0    0  501    0  0.00000000000E+00  0.00000000000E+00  0.73613951494E+01  0.73613956085E+01  0.26000000000E-02 0. -1.
         -2   -1    0    0    0  501 -0.00000000000E+00 -0.00000000000E+00 -0.13586415010E+02  0.13586415259E+02  0.26000000000E-02 0.  1.
       1023    2    1    2    0    0  0.00000000000E+00  0.00000000000E+00 -0.62250198611E+01  0.20947810868E+02  0.20001497641E+02 0.  0.
        -11    1    3    3    0    0  0.99801709072E+01  0.63989752088E+00 -0.31556476960E+01  0.10486724599E+02  0.51100000000E-03 0. -1.
         11    1    3    3    0    0 -0.99801709072E+01 -0.63989752088E+00 -0.30693721651E+01  0.10461086269E+02  0.51100000000E-03 0.  1.
<mgrwt>
<rscale>  0 0.20001498E+02</rscale>
<asrwt>0</asrwt>
<pdfrwt beam="1">  1        2 0.11325224E-02 0.20001498E+02</pdfrwt>
<pdfrwt beam="2">  1       -2 0.20902177E-02 0.20001498E+02</pdfrwt>
<totfact> 0.38577762E+06</totfact>
</mgrwt>
</event>
<event>
 5    1  0.4046313E-006  0.2000044E+02  0.7818608E-02  0.1745319E+00
          2   -1    0    0  501    0  0.00000000000E+00  0.00000000000E+00  0.33755172311E+02  0.33755172411E+02  0.26000000000E-02 0. -1.
         -2   -1    0    0    0  501 -0.00000000000E+00 -0.00000000000E+00 -0.29626397152E+01  0.29626408560E+01  0.26000000000E-02 0.  1.
       1023    2    1    2    0    0  0.00000000000E+00  0.00000000000E+00  0.30792532596E+02  0.36717813267E+02  0.20000443682E+02 0.  0.
        -11    1    3    3    0    0 -0.64492048502E+01 -0.76427334614E+01  0.15343739091E+02  0.18314855924E+02  0.51100000000E-03 0. -1.
         11    1    3    3    0    0  0.64492048502E+01  0.76427334614E+01  0.15448793505E+02  0.18402957344E+02  0.51100000000E-03 0.  1.
<mgrwt>
<rscale>  0 0.20000444E+02</rscale>
<asrwt>0</asrwt>
<pdfrwt beam="1">  1        2 0.51931035E-02 0.20000444E+02</pdfrwt>
<pdfrwt beam="2">  1       -2 0.45579083E-03 0.20000444E+02</pdfrwt>
<totfact> 0.43956730E+06</totfact>
</mgrwt>
</event>
<event>
 5    1  0.4046313E-006  0.2000320E+02  0.7818608E-02  0.1745264E+00
         -2   -1    0    0    0  501 -0.00000000000E+00  0.00000000000E+00  0.59425567734E+01  0.59425573422E+01  0.26000000000E-02 0.  1.
          2   -1    0    0  501    0  0.00000000000E+00 -0.00000000000E+00 -0.16833154878E+02  0.16833155079E+02  0.26000000000E-02 0. -1.
       1023    2    1    2    0    0  0.00000000000E+00  0.00000000000E+00 -0.10890598104E+02  0.22775712421E+02  0.20003198474E+02 0.  0.
        -11    1    3    3    0    0  0.93024934679E+01 -0.36692922382E+01 -0.52419481927E+01  0.11290620504E+02  0.51100000000E-03 0.  1.
         11    1    3    3    0    0 -0.93024934679E+01  0.36692922382E+01 -0.56486499116E+01  0.11485091917E+02  0.51100000000E-03 0. -1.
<mgrwt>
<rscale>  0 0.20003198E+02</rscale>
<asrwt>0</asrwt>
<pdfrwt beam="2">  1        2 0.25897162E-02 0.20003198E+02</pdfrwt>
<pdfrwt beam="1">  1       -2 0.91423957E-03 0.20003198E+02</pdfrwt>
<totfact> 0.41054911E+06</totfact>
</mgrwt>
</event>
<event>
 4    1  0.4046313E-006  0.2002673E+02  0.7818608E-02  0.1744797E+00
         -2   -1    0    0    0  501 -0.00000000000E+00  0.00000000000E+00  0.25262153670E+01  0.25262167050E+01  0.26000000000E-02 0.  1.
          2   -1    0    0  501    0  0.00000000000E+00 -0.00000000000E+00 -0.39690792310E+02  0.39690792395E+02  0.26000000000E-02 0. -1.
        -11    1    1    2    0    0  0.65388818084E+01  0.75753494612E+01 -0.17838106735E+02  0.20453384730E+02  0.51100000000E-03 0.  1.
         11    1    1    2    0    0 -0.65388818084E+01 -0.75753494612E+01 -0.19326470208E+02  0.21763624371E+02  0.51100000000E-03 0. -1.
<mgrwt>
<rscale>  0 0.20026734E+02</rscale>
<asrwt>0</asrwt>
<pdfrwt beam="2">  1        2 0.61062754E-02 0.20026734E+02</pdfrwt>
<pdfrwt beam="1">  1       -2 0.38864866E-03 0.20026734E+02</pdfrwt>
<totfact> 0.44717160E+06</totfact>
</mgrwt>
</event>
<event>
 5    1  0.4046313E-006  0.2000169E+02  0.7818608E-02  0.1745294E+00
         -2   -1    0    0    0  501 -0.00000000000E+00  0.00000000000E+00  0.23886223783E+01  0.23886237933E+01  0.26000000000E-02 0. -1.
          2   -1    0    0  501    0  0.00000000000E+00 -0.00000000000E+00 -0.41872216698E+02  0.41872216779E+02  0.26000000000E-02 0.  1.
       1023    2    1    2    0    0  0.00000000000E+00  0.00000000000E+00 -0.39483594320E+02  0.44260840572E+02  0.20001694622E+02 0.  0.
        -11    1    3    3    0    0  0.99981218484E+01  0.23098270755E+00 -0.19666652340E+02  0.22063386142E+02  0.51100000000E-03 0. -1.
         11    1    3    3    0    0 -0.99981218484E+01 -0.23098270755E+00 -0.19816941980E+02  0.22197454430E+02  0.51100000000E-03 0.  1.
<mgrwt>
<rscale>  0 0.20001695E+02</rscale>
<asrwt>0</asrwt>
<pdfrwt beam="2">  1        2 0.64418791E-02 0.20001695E+02</pdfrwt>
<pdfrwt beam="1">  1       -2 0.36748051E-03 0.20001695E+02</pdfrwt>
<totfact> 0.45161598E+06</totfact>
</mgrwt>
</event>
<event>
 5    1  0.4423818E-006  0.2000188E+02  0.7818608E-02  0.1745291E+00
         -2   -1    0    0    0  501 -0.00000000000E+00  0.00000000000E+00  0.93175079232E+00  0.93175441989E+00  0.26000000000E-02 0.  1.
          2   -1    0    0  501    0  0.00000000000E+00 -0.00000000000E+00 -0.10734477662E+03  0.10734477665E+03  0.26000000000E-02 0. -1.
       1023    2    1    2    0    0  0.00000000000E+00  0.00000000000E+00 -0.10641302583E+03  0.10827653107E+03  0.20001877788E+02 0.  0.
        -11    1    3    3    0    0  0.88533194293E+01  0.46507932298E+01 -0.53679548889E+02  0.54603160273E+02  0.51100000000E-03 0. -1.
         11    1    3    3    0    0 -0.88533194293E+01 -0.46507932298E+01 -0.52733476939E+02  0.53673370799E+02  0.51100000000E-03 0.  1.
<mgrwt>
<rscale>  0 0.20001878E+02</rscale>
<asrwt>0</asrwt>
<pdfrwt beam="2">  1        2 0.16514572E-01 0.20001878E+02</pdfrwt>
<pdfrwt beam="1">  1       -2 0.14334664E-03 0.20001878E+02</pdfrwt>
<totfact> 0.53617722E+06</totfact>
</mgrwt>
</event>
<event>
 4    1  0.9677818E-006  0.2191272E+02  0.7818608E-02  0.1709766E+00
          2   -1    0    0  501    0  0.00000000000E+00  0.00000000000E+00  0.26705512026E+01  0.26705524682E+01  0.26000000000E-02 0. -1.
         -2   -1    0    0    0  501 -0.00000000000E+00 -0.00000000000E+00 -0.44950194264E+02  0.44950194340E+02  0.26000000000E-02 0.  1.
        -11    1    1    2    0    0 -0.98216237970E+01  0.32758082644E+01 -0.28929046221E+02  0.30725965067E+02  0.51100000000E-03 0.  1.
         11    1    1    2    0    0  0.98216237970E+01 -0.32758082644E+01 -0.13350596841E+02  0.16894781741E+02  0.51100000000E-03 0. -1.
<mgrwt>
<rscale>  0 0.21912720E+02</rscale>
<asrwt>0</asrwt>
<pdfrwt beam="1">  1        2 0.41085417E-03 0.21912720E+02</pdfrwt>
<pdfrwt beam="2">  1       -2 0.69154140E-02 0.21912720E+02</pdfrwt>
<totfact> 0.28134999E+06</totfact>
</mgrwt>
</event>
<event>
 5    1  0.4046313E-006  0.2000953E+02  0.7818608E-02  0.1745139E+00
         -2   -1    0    0    0  501 -0.00000000000E+00  0.00000000000E+00  0.15501841514E+01  0.15501863318E+01  0.26000000000E-02 0. -1.
          2   -1    0    0  501    0  0.00000000000E+00 -0.00000000000E+00 -0.64569885851E+02  0.64569885904E+02  0.26000000000E-02 0.  1.
       1023    2    1    2    0    0  0.00000000000E+00  0.00000000000E+00 -0.63019701700E+02  0.66120072236E+02  0.20009526483E+02 0.  0.
        -11    1    3    3    0    0 -0.21769326645E+01 -0.97638432047E+01 -0.31002028644E+02  0.32576025697E+02  0.51100000000E-03 0. -1.
         11    1    3    3    0    0  0.21769326645E+01  0.97638432047E+01 -0.32017673056E+02  0.33544046538E+02  0.51100000000E-03 0.  1.
<mgrwt>
<rscale>  0 0.20009526E+02</rscale>
<asrwt>0</asrwt>
<pdfrwt beam="2">  1        2 0.99338267E-02 0.20009526E+02</pdfrwt>
<pdfrwt beam="1">  1       -2 0.23849009E-03 0.20009526E+02</pdfrwt>
<totfact> 0.48256417E+06</totfact>
</mgrwt>
</event>
<event>
 5    1  0.4046313E-006  0.2000064E+02  0.7818608E-02  0.1745315E+00
         -2   -1    0    0    0  501 -0.00000000000E+00  0.00000000000E+00  0.14411581606E+01  0.14411605060E+01  0.26000000000E-02 0. -1.
          2   -1    0    0  501    0  0.00000000000E+00 -0.00000000000E+00 -0.69393030947E+02  0.69393030996E+02  0.26000000000E-02 0.  1.
       1023    2    1    2    0    0  0.00000000000E+00  0.00000000000E+00 -0.67951872787E+02  0.70834191502E+02  0.20000641753E+02 0.  0.
        -11    1    3    3    0    0  0.98709310948E+01  0.16025919250E+01 -0.33787338071E+02  0.35236171696E+02  0.51100000000E-03 0. -1.
         11    1    3    3    0    0 -0.98709310948E+01 -0.16025919250E+01 -0.34164534715E+02  0.35598019806E+02  0.51100000000E-03 0.  1.
<mgrwt>
<rscale>  0 0.20000642E+02</rscale>
<asrwt>0</asrwt>
<pdfrwt beam="2">  1        2 0.10675849E-01 0.20000642E+02</pdfrwt>
<pdfrwt beam="1">  1       -2 0.22171688E-03 0.20000642E+02</pdfrwt>
<totfact> 0.48937335E+06</totfact>
</mgrwt>
</event>
<event>
 5    1  0.4516254E-006  0.2000078E+02  0.7818608E-02  0.1745313E+00
          2   -1    0    0  501    0  0.00000000000E+00  0.00000000000E+00  0.11006862977E+03  0.11006862981E+03  0.26000000000E-02 0.  1.
         -2   -1    0    0    0  501 -0.00000000000E+00 -0.00000000000E+00 -0.90859297606E+00  0.90859669609E+00  0.26000000000E-02 0. -1.
       1023    2    1    2    0    0  0.00000000000E+00  0.00000000000E+00  0.10916003680E+03  0.11097722650E+03  0.20000779187E+02 0.  0.
        -11    1    3    3    0    0  0.73064420172E+01  0.68281532674E+01  0.54604687373E+02  0.55512878284E+02  0.51100000000E-03 0.  1.
         11    1    3    3    0    0 -0.73064420172E+01 -0.68281532674E+01  0.54555349425E+02  0.55464348217E+02  0.51100000000E-03 0. -1.
<mgrwt>
<rscale>  0 0.20000779E+02</rscale>
<asrwt>0</asrwt>
<pdfrwt beam="1">  1        2 0.16933637E-01 0.20000779E+02</pdfrwt>
<pdfrwt beam="2">  1       -2 0.13978381E-03 0.20000779E+02</pdfrwt>
<totfact> 0.53942951E+06</totfact>
</mgrwt>
</event>
<event>
 5    1  0.4046313E-006  0.2000240E+02  0.7818608E-02  0.1745280E+00
          2   -1    0    0  501    0  0.00000000000E+00  0.00000000000E+00  0.44529634677E+02  0.44529634753E+02  0.26000000000E-02 0. -1.
         -2   -1    0    0    0  501 -0.00000000000E+00 -0.00000000000E+00 -0.22462326683E+01  0.22462341731E+01  0.26000000000E-02 0.  1.
       1023    2    1    2    0    0  0.00000000000E+00  0.00000000000E+00  0.42283402009E+02  0.46775868926E+02  0.20002395565E+02 0.  0.
        -11    1    3    3    0    0  0.98101876822E+01 -0.19430219091E+01  0.21361575092E+02  0.23586691315E+02  0.51100000000E-03 0.  1.
         11    1    3    3    0    0 -0.98101876822E+01  0.19430219091E+01  0.20921826917E+02  0.23189177611E+02  0.51100000000E-03 0. -1.
<mgrwt>
<rscale>  0 0.20002396E+02</rscale>
<asrwt>0</asrwt>
<pdfrwt beam="1">  1        2 0.68507123E-02 0.20002396E+02</pdfrwt>
<pdfrwt beam="2">  1       -2 0.34557442E-03 0.20002396E+02</pdfrwt>
<totfact> 0.45541771E+06</totfact>
</mgrwt>
</event>
<event>
 5    1  0.4358175E-006  0.2000475E+02  0.7818608E-02  0.1745234E+00
         -2   -1    0    0    0  501 -0.00000000000E+00  0.00000000000E+00  0.23034081455E+01  0.23034096128E+01  0.26000000000E-02 0.  1.
          2   -1    0    0  501    0  0.00000000000E+00 -0.00000000000E+00 -0.43434552257E+02  0.43434552335E+02  0.26000000000E-02 0. -1.
       1023    2    1    2    0    0  0.00000000000E+00  0.00000000000E+00 -0.41131144112E+02  0.45737961948E+02  0.20004753115E+02 0.  0.
        -11    1    3    3    0    0 -0.99883459297E+01  0.52000645757E+00 -0.20795068021E+02  0.23075361652E+02  0.51100000000E-03 0. -1.
         11    1    3    3    0    0  0.99883459297E+01 -0.52000645757E+00 -0.20336076091E+02  0.22662600296E+02  0.51100000000E-03 0.  1.
<mgrwt>
<rscale>  0 0.20004753E+02</rscale>
<asrwt>0</asrwt>
<pdfrwt beam="2">  1        2 0.66822383E-02 0.20004753E+02</pdfrwt>
<pdfrwt beam="1">  1       -2 0.35437063E-03 0.20004753E+02</pdfrwt>
<totfact> 0.45372379E+06</totfact>
</mgrwt>
</event>
<event>
 5    1  0.4046313E-006  0.2000058E+02  0.7818608E-02  0.1745317E+00
         -2   -1    0    0    0  501 -0.00000000000E+00  0.00000000000E+00  0.16506924389E+02  0.16506924594E+02  0.26000000000E-02 0.  1.
          2   -1    0    0  501    0  0.00000000000E+00 -0.00000000000E+00 -0.60584124707E+01  0.60584130286E+01  0.26000000000E-02 0. -1.
       1023    2    1    2    0    0  0.00000000000E+00  0.00000000000E+00  0.10448511918E+02  0.22565337622E+02  0.20000576509E+02 0.  0.
        -11    1    3    3    0    0 -0.73804241452E+01 -0.67478766990E+01  0.52643742827E+01  0.11301244947E+02  0.51100000000E-03 0.  1.
         11    1    3    3    0    0  0.73804241452E+01  0.67478766990E+01  0.51841376357E+01  0.11264092675E+02  0.51100000000E-03 0. -1.
<mgrwt>
<rscale>  0 0.20000577E+02</rscale>
<asrwt>0</asrwt>
<pdfrwt beam="2">  1        2 0.93206353E-03 0.20000577E+02</pdfrwt>
<pdfrwt beam="1">  1       -2 0.25395268E-02 0.20000577E+02</pdfrwt>
<totfact> 0.38014265E+06</totfact>
</mgrwt>
</event>
<event>
 4    1  0.4046313E-006  0.2004246E+02  0.7818608E-02  0.1744485E+00
         -2   -1    0    0    0  501 -0.00000000000E+00  0.00000000000E+00  0.23012753803E+01  0.23012768490E+01  0.26000000000E-02 0. -1.
          2   -1    0    0  501    0  0.00000000000E+00 -0.00000000000E+00 -0.43638859183E+02  0.43638859260E+02  0.26000000000E-02 0.  1.
        -11    1    1    2    0    0  0.61864155934E+01  0.78808856436E+01 -0.20182711696E+02  0.22532686215E+02  0.51100000000E-03 0. -1.
         11    1    1    2    0    0 -0.61864155934E+01 -0.78808856436E+01 -0.21154872106E+02  0.23407449894E+02  0.51100000000E-03 0.  1.
<mgrwt>
<rscale>  0 0.20042462E+02</rscale>
<asrwt>0</asrwt>
<pdfrwt beam="2">  1        2 0.67136702E-02 0.20042462E+02</pdfrwt>
<pdfrwt beam="1">  1       -2 0.35404252E-03 0.20042462E+02</pdfrwt>
<totfact> 0.45211423E+06</totfact>
</mgrwt>
</event>
<event>
 5    1  0.4046313E-006  0.2000034E+02  0.7818608E-02  0.1745321E+00
          2   -1    0    0  501    0  0.00000000000E+00  0.00000000000E+00  0.14986151275E+02  0.14986151501E+02  0.26000000000E-02 0. -1.
         -2   -1    0    0    0  501 -0.00000000000E+00 -0.00000000000E+00 -0.66730564587E+01  0.66730569653E+01  0.26000000000E-02 0.  1.
       1023    2    1    2    0    0  0.00000000000E+00  0.00000000000E+00  0.83130948165E+01  0.21659208466E+02  0.20000344146E+02 0.  0.
        -11    1    3    3    0    0  0.61133023727E+01  0.79139382898E+01  0.41820844150E+01  0.10839405679E+02  0.51100000000E-03 0. -1.
         11    1    3    3    0    0 -0.61133023727E+01 -0.79139382898E+01  0.41310104015E+01  0.10819802787E+02  0.51100000000E-03 0.  1.
<mgrwt>
<rscale>  0 0.20000344E+02</rscale>
<asrwt>0</asrwt>
<pdfrwt beam="1">  1        2 0.23055618E-02 0.20000344E+02</pdfrwt>
<pdfrwt beam="2">  1       -2 0.10266241E-02 0.20000344E+02</pdfrwt>
<totfact> 0.40685022E+06</totfact>
</mgrwt>
</event>
<event>
 5    1  0.4046313E-006  0.2000057E+02  0.7818608E-02  0.1745317E+00
         -2   -1    0    0    0  501 -0.00000000000E+00  0.00000000000E+00  0.33599396638E+02  0.33599396738E+02  0.26000000000E-02 0.  1.
          2   -1    0    0  501    0  0.00000000000E+00 -0.00000000000E+00 -0.29764143489E+01  0.29764154845E+01  0.26000000000E-02 0. -1.
       1023    2    1    2    0    0  0.00000000000E+00  0.00000000000E+00  0.30622982289E+02  0.36575812223E+02  0.20000574879E+02 0.  0.
        -11    1    3    3    0    0  0.60415421190E+01  0.79688876337E+01  0.15400091919E+02  0.18362086828E+02  0.51100000000E-03 0.  1.
         11    1    3    3    0    0 -0.60415421190E+01 -0.79688876337E+01  0.15222890369E+02  0.18213725395E+02  0.51100000000E-03 0. -1.
<mgrwt>
<rscale>  0 0.20000575E+02</rscale>
<asrwt>0</asrwt>
<pdfrwt beam="2">  1        2 0.45790999E-03 0.20000575E+02</pdfrwt>
<pdfrwt beam="1">  1       -2 0.51691381E-02 0.20000575E+02</pdfrwt>
<totfact> 0.35631916E+06</totfact>
</mgrwt>
</event>
<event>
 5    1  0.4306377E-006  0.2000075E+02  0.7818608E-02  0.1745313E+00
          2   -1    0    0  501    0  0.00000000000E+00  0.00000000000E+00  0.10028602070E+03  0.10028602074E+03  0.26000000000E-02 0. -1.
         -2   -1    0    0    0  501 -0.00000000000E+00 -0.00000000000E+00 -0.99722135106E+00  0.99722474047E+00  0.26000000000E-02 0.  1.
       1023    2    1    2    0    0  0.00000000000E+00  0.00000000000E+00  0.99288799354E+02  0.10128324548E+03  0.20000753427E+02 0.  0.
        -11    1    3    3    0    0  0.46251302926E+00 -0.99894503854E+01  0.49304817176E+02  0.50308727218E+02  0.51100000000E-03 0. -1.
         11    1    3    3    0    0 -0.46251302926E+00  0.99894503854E+01  0.49983982178E+02  0.50974518261E+02  0.51100000000E-03 0.  1.
<mgrwt>
<rscale>  0 0.20000753E+02</rscale>
<asrwt>0</asrwt>
<pdfrwt beam="1">  1        2 0.15428622E-01 0.20000753E+02</pdfrwt>
<pdfrwt beam="2">  1       -2 0.15341890E-03 0.20000753E+02</pdfrwt>
<totfact> 0.52787809E+06</totfact>
</mgrwt>
</event>
<event>
 5    1  0.4046313E-006  0.2000764E+02  0.7818608E-02  0.1745176E+00
          2   -1    0    0  501    0  0.00000000000E+00  0.00000000000E+00  0.13082075052E+02  0.13082075310E+02  0.26000000000E-02 0. -1.
         -2   -1    0    0    0  501 -0.00000000000E+00 -0.00000000000E+00 -0.76498911558E+01  0.76498915977E+01  0.26000000000E-02 0.  1.
       1023    2    1    2    0    0  0.00000000000E+00  0.00000000000E+00  0.54321838959E+01  0.20731966908E+02  0.20007644289E+02 0.  0.
        -11    1    3    3    0    0 -0.94670149963E+01 -0.32328438104E+01  0.27454951362E+01  0.10373687669E+02  0.51100000000E-03 0.  1.
         11    1    3    3    0    0  0.94670149963E+01  0.32328438104E+01  0.26866887597E+01  0.10358279239E+02  0.51100000000E-03 0. -1.
<mgrwt>
<rscale>  0 0.20007644E+02</rscale>
<asrwt>0</asrwt>
<pdfrwt beam="1">  1        2 0.20126270E-02 0.20007644E+02</pdfrwt>
<pdfrwt beam="2">  1       -2 0.11769064E-02 0.20007644E+02</pdfrwt>
<totfact> 0.40225444E+06</totfact>
</mgrwt>
</event>
<event>
 5    1  0.4046313E-006  0.2000118E+02  0.7818608E-02  0.1745305E+00
          2   -1    0    0  501    0  0.00000000000E+00  0.00000000000E+00  0.13159401232E+01  0.13159426917E+01  0.26000000000E-02 0.  1.
         -2   -1    0    0    0  501 -0.00000000000E+00 -0.00000000000E+00 -0.76000167746E+02  0.76000167791E+02  0.26000000000E-02 0. -1.
       1023    2    1    2    0    0  0.00000000000E+00  0.00000000000E+00 -0.74684227623E+02  0.77316110483E+02  0.20001177077E+02 0.  0.
        -11    1    3    3    0    0  0.99030943722E+01 -0.13913310151E+01 -0.37077364841E+02  0.38402318471E+02  0.51100000000E-03 0. -1.
         11    1    3    3    0    0 -0.99030943722E+01  0.13913310151E+01 -0.37606862782E+02  0.38913792012E+02  0.51100000000E-03 0.  1.
<mgrwt>
<rscale>  0 0.20001177E+02</rscale>
<asrwt>0</asrwt>
<pdfrwt beam="1">  1        2 0.20245259E-03 0.20001177E+02</pdfrwt>
<pdfrwt beam="2">  1       -2 0.11692330E-01 0.20001177E+02</pdfrwt>
<totfact> 0.31578275E+06</totfact>
</mgrwt>
</event>
<event>
 5    1  0.4046313E-006  0.2000185E+02  0.7818608E-02  0.1745291E+00
         -2   -1    0    0    0  501 -0.00000000000E+00  0.00000000000E+00  0.12927766539E+02  0.12927766801E+02  0.26000000000E-02 0.  1.
          2   -1    0    0  501    0  0.00000000000E+00 -0.00000000000E+00 -0.77367194952E+01  0.77367199320E+01  0.26000000000E-02 0. -1.
       1023    2    1    2    0    0  0.00000000000E+00  0.00000000000E+00  0.51910470439E+01  0.20664486733E+02  0.20001850977E+02 0.  0.
        -11    1    3    3    0    0 -0.99867933608E+01 -0.53040754126E+00  0.26303535294E+01  0.10340992880E+02  0.51100000000E-03 0. -1.
         11    1    3    3    0    0  0.99867933608E+01  0.53040754126E+00  0.25606935146E+01  0.10323493853E+02  0.51100000000E-03 0.  1.
<mgrwt>
<rscale>  0 0.20001851E+02</rscale>
<asrwt>0</asrwt>
<pdfrwt beam="2">  1        2 0.11902646E-02 0.20001851E+02</pdfrwt>
<pdfrwt beam="1">  1       -2 0.19888872E-02 0.20001851E+02</pdfrwt>
<totfact> 0.38718998E+06</totfact>
</mgrwt>
</event>
<event>
 5    1  0.4046313E-006  0.2000190E+02  0.7818608E-02  0.1745290E+00
          2   -1    0    0  501    0  0.00000000000E+00  0.00000000000E+00  0.26863352364E+02  0.26863352490E+02  0.26000000000E-02 0. -1.
         -2   -1    0    0    0  501 -0.00000000000E+00 -0.00000000000E+00 -0.37232497627E+01  0.37232506705E+01  0.26000000000E-02 0.  1.
       1023    2    1    2    0    0  0.00000000000E+00  0.00000000000E+00  0.23140102602E+02  0.30586603161E+02  0.20001898522E+02 0.  0.
        -11    1    3    3    0    0 -0.99480944072E+01 -0.10237889891E+01  0.11691037130E+02  0.15384832650E+02  0.51100000000E-03 0.  1.
         11    1    3    3    0    0  0.99480944072E+01  0.10237889891E+01  0.11449065472E+02  0.15201770511E+02  0.51100000000E-03 0. -1.
<mgrwt>
<rscale>  0 0.20001899E+02</rscale>
<asrwt>0</asrwt>
<pdfrwt beam="1">  1        2 0.41328235E-02 0.20001899E+02</pdfrwt>
<pdfrwt beam="2">  1       -2 0.57280774E-03 0.20001899E+02</pdfrwt>
<totfact> 0.42857783E+06</totfact>
</mgrwt>
</event>
<event>
 5    1  0.4046313E-006  0.2000151E+02  0.7818608E-02  0.1745298E+00
          2   -1    0    0  501    0  0.00000000000E+00  0.00000000000E+00  0.28245917425E+02  0.28245917545E+02  0.26000000000E-02 0. -1.
         -2   -1    0    0    0  501 -0.00000000000E+00 -0.00000000000E+00 -0.35408690339E+01  0.35408699884E+01  0.26000000000E-02 0.  1.
       1023    2    1    2    0    0  0.00000000000E+00  0.00000000000E+00  0.24705048391E+02  0.31786787533E+02  0.20001511085E+02 0.  0.
        -11    1    3    3    0    0  0.51524051424E+01  0.85710942735E+01  0.12249833580E+02  0.15813581467E+02  0.51100000000E-03 0. -1.
         11    1    3    3    0    0 -0.51524051424E+01 -0.85710942735E+01  0.12455214811E+02  0.15973206067E+02  0.51100000000E-03 0.  1.
<mgrwt>
<rscale>  0 0.20001511E+02</rscale>
<asrwt>0</asrwt>
<pdfrwt beam="1">  1        2 0.43455260E-02 0.20001511E+02</pdfrwt>
<pdfrwt beam="2">  1       -2 0.54474915E-03 0.20001511E+02</pdfrwt>
<totfact> 0.43085035E+06</totfact>
</mgrwt>
</event>
<event>
 5    1  0.4046313E-006  0.2000195E+02  0.7818608E-02  0.1745289E+00
          2   -1    0    0  501    0  0.00000000000E+00  0.00000000000E+00  0.10430000157E+01  0.10430032564E+01  0.26000000000E-02 0. -1.
         -2   -1    0    0    0  501 -0.00000000000E+00 -0.00000000000E+00 -0.95895832555E+02  0.95895832591E+02  0.26000000000E-02 0.  1.
       1023    2    1    2    0    0  0.00000000000E+00  0.00000000000E+00 -0.94852832540E+02  0.96938835847E+02  0.20001951269E+02 0.  0.
        -11    1    3    3    0    0 -0.99784884115E+01 -0.66910268045E+00 -0.47619303811E+02  0.48658154764E+02  0.51100000000E-03 0.  1.
         11    1    3    3    0    0  0.99784884115E+01  0.66910268045E+00 -0.47233528729E+02  0.48280681083E+02  0.51100000000E-03 0. -1.
<mgrwt>
<rscale>  0 0.20001951E+02</rscale>
<asrwt>0</asrwt>
<pdfrwt beam="1">  1        2 0.16046187E-03 0.20001951E+02</pdfrwt>
<pdfrwt beam="2">  1       -2 0.14753198E-01 0.20001951E+02</pdfrwt>
<totfact> 0.30025524E+06</totfact>
</mgrwt>
</event>
<event>
 5    1  0.4046313E-006  0.2000157E+02  0.7818608E-02  0.1745297E+00
          2   -1    0    0  501    0  0.00000000000E+00  0.00000000000E+00  0.12917010958E+02  0.12917011220E+02  0.26000000000E-02 0. -1.
         -2   -1    0    0    0  501 -0.00000000000E+00 -0.00000000000E+00 -0.77429421926E+01  0.77429426291E+01  0.26000000000E-02 0.  1.
       1023    2    1    2    0    0  0.00000000000E+00  0.00000000000E+00  0.51740687656E+01  0.20659953849E+02  0.20001567575E+02 0.  0.
        -11    1    3    3    0    0 -0.98112576082E+01  0.19366019416E+01  0.26561176431E+01  0.10347278103E+02  0.51100000000E-03 0. -1.
         11    1    3    3    0    0  0.98112576082E+01 -0.19366019416E+01  0.25179511225E+01  0.10312675746E+02  0.51100000000E-03 0.  1.
<mgrwt>
<rscale>  0 0.20001568E+02</rscale>
<asrwt>0</asrwt>
<pdfrwt beam="1">  1        2 0.19872325E-02 0.20001568E+02</pdfrwt>
<pdfrwt beam="2">  1       -2 0.11912219E-02 0.20001568E+02</pdfrwt>
<totfact> 0.40214315E+06</totfact>
</mgrwt>
</event>
<event>
 5    1  0.4046313E-006  0.2001058E+02  0.7818608E-02  0.1745118E+00
          2   -1    0    0  501    0  0.00000000000E+00  0.00000000000E+00  0.95145017803E+01  0.95145021355E+01  0.26000000000E-02 0.  1.
         -2   -1    0    0    0  501 -0.00000000000E+00 -0.00000000000E+00 -0.10521389712E+02  0.10521390033E+02  0.26000000000E-02 0. -1.
       1023    2    1    2    0    0  0.00000000000E+00  0.00000000000E+00 -0.10068879314E+01  0.20035892169E+02  0.20010575996E+02 0.  0.
        -11    1    3    3    0    0  0.94676232196E+01  0.32218694023E+01 -0.80291395862E+00  0.10032995712E+02  0.51100000000E-03 0. -1.
         11    1    3    3    0    0 -0.94676232196E+01 -0.32218694023E+01 -0.20397397282E+00  0.10002896456E+02  0.51100000000E-03 0.  1.
<mgrwt>
<rscale>  0 0.20010576E+02</rscale>
<asrwt>0</asrwt>
<pdfrwt beam="1">  1        2 0.14637696E-02 0.20010576E+02</pdfrwt>
<pdfrwt beam="2">  1       -2 0.16186754E-02 0.20010576E+02</pdfrwt>
<totfact> 0.39272150E+06</totfact>
</mgrwt>
</event>
<event>
 5    1  0.4117958E-006  0.2000030E+02  0.7818608E-02  0.1745322E+00
         -2   -1    0    0    0  501 -0.00000000000E+00  0.00000000000E+00  0.89430477355E+00  0.89430855302E+00  0.26000000000E-02 0. -1.
          2   -1    0    0  501    0  0.00000000000E+00 -0.00000000000E+00 -0.11182185709E+03  0.11182185712E+03  0.26000000000E-02 0.  1.
       1023    2    1    2    0    0  0.00000000000E+00  0.00000000000E+00 -0.11092755231E+03  0.11271616567E+03  0.20000303526E+02 0.  0.
        -11    1    3    3    0    0 -0.28752917623E+01  0.95778495796E+01 -0.55593488026E+02  0.56485736398E+02  0.51100000000E-03 0. -1.
         11    1    3    3    0    0  0.28752917623E+01 -0.95778495796E+01 -0.55334064285E+02  0.56230429270E+02  0.51100000000E-03 0.  1.
<mgrwt>
<rscale>  0 0.20000304E+02</rscale>
<asrwt>0</asrwt>
<pdfrwt beam="2">  1        2 0.17203352E-01 0.20000304E+02</pdfrwt>
<pdfrwt beam="1">  1       -2 0.13758573E-03 0.20000304E+02</pdfrwt>
<totfact> 0.54149814E+06</totfact>
</mgrwt>
</event>
<event>
 5    1  0.4046313E-006  0.2000034E+02  0.7818608E-02  0.1745321E+00
         -2   -1    0    0    0  501 -0.00000000000E+00  0.00000000000E+00  0.14549455313E+01  0.14549478545E+01  0.26000000000E-02 0. -1.
          2   -1    0    0  501    0  0.00000000000E+00 -0.00000000000E+00 -0.68733382473E+02  0.68733382522E+02  0.26000000000E-02 0.  1.
       1023    2    1    2    0    0  0.00000000000E+00  0.00000000000E+00 -0.67278436942E+02  0.70188330377E+02  0.20000341091E+02 0.  0.
        -11    1    3    3    0    0  0.17727427143E+01  0.98417292089E+01 -0.33519687691E+02  0.34979589959E+02  0.51100000000E-03 0.  1.
         11    1    3    3    0    0 -0.17727427143E+01 -0.98417292089E+01 -0.33758749250E+02  0.35208740417E+02  0.51100000000E-03 0. -1.
<mgrwt>
<rscale>  0 0.20000341E+02</rscale>
<asrwt>0</asrwt>
<pdfrwt beam="2">  1        2 0.10574364E-01 0.20000341E+02</pdfrwt>
<pdfrwt beam="1">  1       -2 0.22383801E-03 0.20000341E+02</pdfrwt>
<totfact> 0.48852935E+06</totfact>
</mgrwt>
</event>
<event>
 5    1  0.4046313E-006  0.2000233E+02  0.7818608E-02  0.1745282E+00
         -2   -1    0    0    0  501 -0.00000000000E+00  0.00000000000E+00  0.56586195415E+01  0.56586201388E+01  0.26000000000E-02 0.  1.
          2   -1    0    0  501    0  0.00000000000E+00 -0.00000000000E+00 -0.17676279435E+02  0.17676279626E+02  0.26000000000E-02 0. -1.
       1023    2    1    2    0    0  0.00000000000E+00  0.00000000000E+00 -0.12017659894E+02  0.23334899765E+02  0.20002334807E+02 0.  0.
        -11    1    3    3    0    0 -0.37659276818E+01  0.92639851867E+01 -0.61726391337E+01  0.11751812923E+02  0.51100000000E-03 0.  1.
         11    1    3    3    0    0  0.37659276818E+01 -0.92639851867E+01 -0.58450207598E+01  0.11583086842E+02  0.51100000000E-03 0. -1.
<mgrwt>
<rscale>  0 0.20002335E+02</rscale>
<asrwt>0</asrwt>
<pdfrwt beam="2">  1        2 0.27194276E-02 0.20002335E+02</pdfrwt>
<pdfrwt beam="1">  1       -2 0.87055692E-03 0.20002335E+02</pdfrwt>
<totfact> 0.41226098E+06</totfact>
</mgrwt>
</event>
<event>
 5    1  0.4046313E-006  0.2001193E+02  0.7818608E-02  0.1745091E+00
          2   -1    0    0  501    0  0.00000000000E+00  0.00000000000E+00  0.11301259753E+01  0.11301289662E+01  0.26000000000E-02 0. -1.
         -2   -1    0    0    0  501 -0.00000000000E+00 -0.00000000000E+00 -0.88591198177E+02  0.88591198215E+02  0.26000000000E-02 0.  1.
       1023    2    1    2    0    0  0.00000000000E+00  0.00000000000E+00 -0.87461072202E+02  0.89721327181E+02  0.20011931454E+02 0.  0.
        -11    1    3    3    0    0  0.81915931960E+01  0.57451230922E+01 -0.44194549468E+02  0.45312987557E+02  0.51100000000E-03 0.  1.
         11    1    3    3    0    0 -0.81915931960E+01 -0.57451230922E+01 -0.43266522734E+02  0.44408339624E+02  0.51100000000E-03 0. -1.
<mgrwt>
<rscale>  0 0.20011931E+02</rscale>
<asrwt>0</asrwt>
<pdfrwt beam="1">  1        2 0.17386584E-03 0.20011931E+02</pdfrwt>
<pdfrwt beam="2">  1       -2 0.13629410E-01 0.20011931E+02</pdfrwt>
<totfact> 0.30543427E+06</totfact>
</mgrwt>
</event>
<event>
 5    1  0.4046313E-006  0.2000044E+02  0.7818608E-02  0.1745319E+00
         -2   -1    0    0    0  501 -0.00000000000E+00  0.00000000000E+00  0.16724043704E+01  0.16724063915E+01  0.26000000000E-02 0. -1.
          2   -1    0    0  501    0  0.00000000000E+00 -0.00000000000E+00 -0.59796758641E+02  0.59796758698E+02  0.26000000000E-02 0.  1.
       1023    2    1    2    0    0  0.00000000000E+00  0.00000000000E+00 -0.58124354271E+02  0.61469165089E+02  0.20000442429E+02 0.  0.
        -11    1    3    3    0    0 -0.91726332620E+01 -0.39833524491E+01 -0.29096728950E+02  0.30767254241E+02  0.51100000000E-03 0. -1.
         11    1    3    3    0    0  0.91726332620E+01  0.39833524491E+01 -0.29027625321E+02  0.30701910848E+02  0.51100000000E-03 0.  1.
<mgrwt>
<rscale>  0 0.20000442E+02</rscale>
<asrwt>0</asrwt>
<pdfrwt beam="2">  1        2 0.91994999E-02 0.20000442E+02</pdfrwt>
<pdfrwt beam="1">  1       -2 0.25729319E-03 0.20000442E+02</pdfrwt>
<totfact> 0.47668040E+06</totfact>
</mgrwt>
</event>
<event>
 4    1  0.4046313E-006  0.2002001E+02  0.7818608E-02  0.1744930E+00
         -2   -1    0    0    0  501 -0.00000000000E+00  0.00000000000E+00  0.27588576261E+01  0.27588588513E+01  0.26000000000E-02 0. -1.
          2   -1    0    0  501    0  0.00000000000E+00 -0.00000000000E+00 -0.36319446842E+02  0.36319446935E+02  0.26000000000E-02 0.  1.
        -11    1    1    2    0    0 -0.99592963983E+01  0.99723947984E+00 -0.17043172994E+02  0.19764913794E+02  0.51100000000E-03 0. -1.
         11    1    1    2    0    0  0.99592963983E+01 -0.99723947984E+00 -0.16517416222E+02  0.19313391992E+02  0.51100000000E-03 0.  1.
<mgrwt>
<rscale>  0 0.20020011E+02</rscale>
<asrwt>0</asrwt>
<pdfrwt beam="2">  1        2 0.55876070E-02 0.20020011E+02</pdfrwt>
<pdfrwt beam="1">  1       -2 0.42443976E-03 0.20020011E+02</pdfrwt>
<totfact> 0.44249675E+06</totfact>
</mgrwt>
</event>
<event>
 5    1  0.4046313E-006  0.2000157E+02  0.7818608E-02  0.1745297E+00
          2   -1    0    0  501    0  0.00000000000E+00  0.00000000000E+00  0.21662634083E+02  0.21662634239E+02  0.26000000000E-02 0.  1.
         -2   -1    0    0    0  501 -0.00000000000E+00 -0.00000000000E+00 -0.46169674626E+01  0.46169681947E+01  0.26000000000E-02 0. -1.
       1023    2    1    2    0    0  0.00000000000E+00  0.00000000000E+00  0.17045666621E+02  0.26279602434E+02  0.20001568777E+02 0.  0.
        -11    1    3    3    0    0 -0.32181275616E+01  0.94682265448E+01  0.83787301790E+01  0.13046331997E+02  0.51100000000E-03 0.  1.
         11    1    3    3    0    0  0.32181275616E+01 -0.94682265448E+01  0.86669364415E+01  0.13233270437E+02  0.51100000000E-03 0. -1.
<mgrwt>
<rscale>  0 0.20001569E+02</rscale>
<asrwt>0</asrwt>
<pdfrwt beam="1">  1        2 0.33327130E-02 0.20001569E+02</pdfrwt>
<pdfrwt beam="2">  1       -2 0.71030276E-03 0.20001569E+02</pdfrwt>
<totfact> 0.41971626E+06</totfact>
</mgrwt>
</event>
<event>
 5    1  0.4046313E-006  0.2000006E+02  0.7818608E-02  0.1745327E+00
         -2   -1    0    0    0  501 -0.00000000000E+00  0.00000000000E+00  0.18352044015E+01  0.18352062433E+01  0.26000000000E-02 0.  1.
          2   -1    0    0  501    0  0.00000000000E+00 -0.00000000000E+00 -0.54490148251E+02  0.54490148313E+02  0.26000000000E-02 0. -1.
       1023    2    1    2    0    0  0.00000000000E+00  0.00000000000E+00 -0.52654943849E+02  0.56325354556E+02  0.20000061353E+02 0.  0.
        -11    1    3    3    0    0 -0.21808872362E+00  0.99976218648E+01 -0.26396892718E+02  0.28227574304E+02  0.51100000000E-03 0. -1.
         11    1    3    3    0    0  0.21808872362E+00 -0.99976218648E+01 -0.26258051131E+02  0.28097780252E+02  0.51100000000E-03 0.  1.
<mgrwt>
<rscale>  0 0.20000061E+02</rscale>
<asrwt>0</asrwt>
<pdfrwt beam="2">  1        2 0.83830986E-02 0.20000061E+02</pdfrwt>
<pdfrwt beam="1">  1       -2 0.28233933E-03 0.20000061E+02</pdfrwt>
<totfact> 0.46949299E+06</totfact>
</mgrwt>
</event>
<event>
 5    1  0.4046313E-006  0.2000051E+02  0.7818608E-02  0.1745318E+00
         -2   -1    0    0    0  501 -0.00000000000E+00  0.00000000000E+00  0.46078315853E+02  0.46078315926E+02  0.26000000000E-02 0.  1.
          2   -1    0    0  501    0  0.00000000000E+00 -0.00000000000E+00 -0.21703280134E+01  0.21703295707E+01  0.26000000000E-02 0. -1.
       1023    2    1    2    0    0  0.00000000000E+00  0.00000000000E+00  0.43907987839E+02  0.48248645497E+02  0.20000509898E+02 0.  0.
        -11    1    3    3    0    0 -0.16205490455E+01 -0.98679574055E+01  0.21837393342E+02  0.24018212065E+02  0.51100000000E-03 0.  1.
         11    1    3    3    0    0  0.16205490455E+01  0.98679574055E+01  0.22070594497E+02  0.24230433432E+02  0.51100000000E-03 0. -1.
<mgrwt>
<rscale>  0 0.20000510E+02</rscale>
<asrwt>0</asrwt>
<pdfrwt beam="2">  1        2 0.33389674E-03 0.20000510E+02</pdfrwt>
<pdfrwt beam="1">  1       -2 0.70889718E-02 0.20000510E+02</pdfrwt>
<totfact> 0.34285964E+06</totfact>
</mgrwt>
</event>
<event>
 5    1  0.4046313E-006  0.2000693E+02  0.7818608E-02  0.1745190E+00
          2   -1    0    0  501    0  0.00000000000E+00  0.00000000000E+00  0.12099869290E+02  0.12099869569E+02  0.26000000000E-02 0. -1.
         -2   -1    0    0    0  501 -0.00000000000E+00 -0.00000000000E+00 -0.82702759256E+01  0.82702763343E+01  0.26000000000E-02 0.  1.
       1023    2    1    2    0    0  0.00000000000E+00  0.00000000000E+00  0.38295933643E+01  0.20370145904E+02  0.20006925271E+02 0.  0.
        -11    1    3    3    0    0 -0.99482243028E+01 -0.10193318910E+01  0.21704734741E+01  0.10233140263E+02  0.51100000000E-03 0. -1.
         11    1    3    3    0    0  0.99482243028E+01  0.10193318910E+01  0.16591198902E+01  0.10137005640E+02  0.51100000000E-03 0.  1.
<mgrwt>
<rscale>  0 0.20006925E+02</rscale>
<asrwt>0</asrwt>
<pdfrwt beam="1">  1        2 0.18615184E-02 0.20006925E+02</pdfrwt>
<pdfrwt beam="2">  1       -2 0.12723502E-02 0.20006925E+02</pdfrwt>
<totfact> 0.39992074E+06</totfact>
</mgrwt>
</event>
<event>
 5    1  0.4046313E-006  0.2000007E+02  0.7818608E-02  0.1745327E+00
          2   -1    0    0  501    0  0.00000000000E+00  0.00000000000E+00  0.77247399211E+01  0.77247403586E+01  0.26000000000E-02 0.  1.
         -2   -1    0    0    0  501 -0.00000000000E+00 -0.00000000000E+00 -0.12945512798E+02  0.12945513060E+02  0.26000000000E-02 0. -1.
       1023    2    1    2    0    0  0.00000000000E+00  0.00000000000E+00 -0.52207728774E+01  0.20670253418E+02  0.20000072673E+02 0.  0.
        -11    1    3    3    0    0  0.98994067562E+01  0.14149044439E+01 -0.25868695825E+01  0.10329186958E+02  0.51100000000E-03 0.  1.
         11    1    3    3    0    0 -0.98994067562E+01 -0.14149044439E+01 -0.26339032949E+01  0.10341066460E+02  0.51100000000E-03 0. -1.
<mgrwt>
<rscale>  0 0.20000073E+02</rscale>
<asrwt>0</asrwt>
<pdfrwt beam="1">  1        2 0.11884216E-02 0.20000073E+02</pdfrwt>
<pdfrwt beam="2">  1       -2 0.19916174E-02 0.20000073E+02</pdfrwt>
<totfact> 0.38722477E+06</totfact>
</mgrwt>
</event>
<event>
 4    1  0.6818385E-006  0.2045577E+02  0.7818608E-02  0.1736414E+00
         -2   -1    0    0    0  501 -0.00000000000E+00  0.00000000000E+00  0.21923778468E+01  0.21923793885E+01  0.26000000000E-02 0. -1.
          2   -1    0    0  501    0  0.00000000000E+00 -0.00000000000E+00 -0.47715112979E+02  0.47715113050E+02  0.26000000000E-02 0.  1.
        -11    1    1    2    0    0  0.63111898276E+01  0.77832748379E+01 -0.17761842627E+02  0.20393468023E+02  0.51100000000E-03 0. -1.
         11    1    1    2    0    0 -0.63111898276E+01 -0.77832748379E+01 -0.27760892506E+02  0.29514024416E+02  0.51100000000E-03 0.  1.
<mgrwt>
<rscale>  0 0.20455767E+02</rscale>
<asrwt>0</asrwt>
<pdfrwt beam="2">  1        2 0.73407860E-02 0.20455767E+02</pdfrwt>
<pdfrwt beam="1">  1       -2 0.33728906E-03 0.20455767E+02</pdfrwt>
<totfact> 0.43748380E+06</totfact>
</mgrwt>
</event>
<event>
 5    1  0.4046313E-006  0.2000065E+02  0.7818608E-02  0.1745315E+00
         -2   -1    0    0    0  501 -0.00000000000E+00  0.00000000000E+00  0.92716323908E+02  0.92716323945E+02  0.26000000000E-02 0.  1.
          2   -1    0    0  501    0  0.00000000000E+00 -0.00000000000E+00 -0.10786268144E+01  0.10786299480E+01  0.26000000000E-02 0. -1.
       1023    2    1    2    0    0  0.00000000000E+00  0.00000000000E+00  0.91637697094E+02  0.93794953893E+02  0.20000646166E+02 0.  0.
        -11    1    3    3    0    0  0.64567777529E+01 -0.76365111524E+01  0.45881761759E+02  0.46958943173E+02  0.51100000000E-03 0.  1.
         11    1    3    3    0    0 -0.64567777529E+01  0.76365111524E+01  0.45755935335E+02  0.46836010720E+02  0.51100000000E-03 0. -1.
<mgrwt>
<rscale>  0 0.20000646E+02</rscale>
<asrwt>0</asrwt>
<pdfrwt beam="2">  1        2 0.16594281E-03 0.20000646E+02</pdfrwt>
<pdfrwt beam="1">  1       -2 0.14264051E-01 0.20000646E+02</pdfrwt>
<totfact> 0.30267271E+06</totfact>
</mgrwt>
</event>
<event>
 5    1  0.4067132E-006  0.2000253E+02  0.7818608E-02  0.1745278E+00
          2   -1    0    0  501    0  0.00000000000E+00  0.00000000000E+00  0.70928284504E+02  0.70928284551E+02  0.26000000000E-02 0.  1.
         -2   -1    0    0    0  501 -0.00000000000E+00 -0.00000000000E+00 -0.14102303137E+01  0.14102327105E+01  0.26000000000E-02 0. -1.
       1023    2    1    2    0    0  0.00000000000E+00  0.00000000000E+00  0.69518054190E+02  0.72338517262E+02  0.20002530372E+02 0.  0.
        -11    1    3    3    0    0 -0.20299235277E+00  0.99991103524E+01  0.34916304905E+02  0.36320404214E+02  0.51100000000E-03 0. -1.
         11    1    3    3    0    0  0.20299235277E+00 -0.99991103524E+01  0.34601749285E+02  0.36018113048E+02  0.51100000000E-03 0.  1.
<mgrwt>
<rscale>  0 0.20002530E+02</rscale>
<asrwt>0</asrwt>
<pdfrwt beam="1">  1        2 0.10912042E-01 0.20002530E+02</pdfrwt>
<pdfrwt beam="2">  1       -2 0.21695874E-03 0.20002530E+02</pdfrwt>
<totfact> 0.49126568E+06</totfact>
</mgrwt>
</event>
<event>
 5    1  0.4046313E-006  0.2000018E+02  0.7818608E-02  0.1745324E+00
          2   -1    0    0  501    0  0.00000000000E+00  0.00000000000E+00  0.47929009084E+02  0.47929009154E+02  0.26000000000E-02 0. -1.
         -2   -1    0    0    0  501 -0.00000000000E+00 -0.00000000000E+00 -0.20864567232E+01  0.20864583432E+01  0.26000000000E-02 0.  1.
       1023    2    1    2    0    0  0.00000000000E+00  0.00000000000E+00  0.45842552360E+02  0.50015467497E+02  0.20000184551E+02 0.  0.
        -11    1    3    3    0    0  0.81057775982E+01  0.58563267721E+01  0.22819648422E+02  0.24914585047E+02  0.51100000000E-03 0. -1.
         11    1    3    3    0    0 -0.81057775982E+01 -0.58563267721E+01  0.23022903939E+02  0.25100882450E+02  0.51100000000E-03 0.  1.
<mgrwt>
<rscale>  0 0.20000185E+02</rscale>
<asrwt>0</asrwt>
<pdfrwt beam="1">  1        2 0.73736936E-02 0.20000185E+02</pdfrwt>
<pdfrwt beam="2">  1       -2 0.32099348E-03 0.20000185E+02</pdfrwt>
<totfact> 0.46036420E+06</totfact>
</mgrwt>
</event>
<event>
 5    1  0.4046313E-006  0.2000329E+02  0.7818608E-02  0.1745263E+00
         -2   -1    0    0    0  501 -0.00000000000E+00  0.00000000000E+00  0.16848228073E+02  0.16848228274E+02  0.26000000000E-02 0. -1.
          2   -1    0    0  501    0  0.00000000000E+00 -0.00000000000E+00 -0.59372950758E+01  0.59372956451E+01  0.26000000000E-02 0.  1.
       1023    2    1    2    0    0  0.00000000000E+00  0.00000000000E+00  0.10910932997E+02  0.22785523919E+02  0.20003290764E+02 0.  0.
        -11    1    3    3    0    0  0.97920828076E+01  0.20366372090E+01  0.54423173226E+01  0.11386465428E+02  0.51100000000E-03 0.  1.
         11    1    3    3    0    0 -0.97920828076E+01 -0.20366372090E+01  0.54686156747E+01  0.11399058491E+02  0.51100000000E-03 0. -1.
<mgrwt>
<rscale>  0 0.20003291E+02</rscale>
<asrwt>0</asrwt>
<pdfrwt beam="2">  1        2 0.91343009E-03 0.20003291E+02</pdfrwt>
<pdfrwt beam="1">  1       -2 0.25920351E-02 0.20003291E+02</pdfrwt>
<totfact> 0.37942347E+06</totfact>
</mgrwt>
</event>
<event>
 5    1  0.4046313E-006  0.2000407E+02  0.7818608E-02  0.1745247E+00
          2   -1    0    0  501    0  0.00000000000E+00  0.00000000000E+00  0.83401290602E+02  0.83401290642E+02  0.26000000000E-02 0.  1.
         -2   -1    0    0    0  501 -0.00000000000E+00 -0.00000000000E+00 -0.11995082619E+01  0.11995110797E+01  0.26000000000E-02 0. -1.
       1023    2    1    2    0    0  0.00000000000E+00  0.00000000000E+00  0.82201782340E+02  0.84600801722E+02  0.20004065391E+02 0.  0.
        -11    1    3    3    0    0  0.78383450314E+01 -0.62114873178E+01  0.40526745892E+02  0.41742536583E+02  0.51100000000E-03 0. -1.
         11    1    3    3    0    0 -0.78383450314E+01  0.62114873178E+01  0.41675036448E+02  0.42858265139E+02  0.51100000000E-03 0.  1.
<mgrwt>
<rscale>  0 0.20004065E+02</rscale>
<asrwt>0</asrwt>
<pdfrwt beam="1">  1        2 0.12830965E-01 0.20004065E+02</pdfrwt>
<pdfrwt beam="2">  1       -2 0.18453999E-03 0.20004065E+02</pdfrwt>
<totfact> 0.50703591E+06</totfact>
</mgrwt>
</event>
<event>
 4    1  0.4046313E-006  0.2021816E+02  0.7818608E-02  0.1741024E+00
         -2   -1    0    0    0  501 -0.00000000000E+00  0.00000000000E+00  0.98400156344E+00  0.98400499839E+00  0.26000000000E-02 0.  1.
          2   -1    0    0  501    0  0.00000000000E+00 -0.00000000000E+00 -0.10385484580E+03  0.10385484583E+03  0.26000000000E-02 0. -1.
        -11    1    1    2    0    0  0.20079986923E+01  0.98961618899E+01 -0.48962516369E+02  0.49992940385E+02  0.51100000000E-03 0.  1.
         11    1    1    2    0    0 -0.20079986923E+01 -0.98961618899E+01 -0.53908327868E+02  0.54845910446E+02  0.51100000000E-03 0. -1.
<mgrwt>
<rscale>  0 0.20218161E+02</rscale>
<asrwt>0</asrwt>
<pdfrwt beam="2">  1        2 0.15977660E-01 0.20218161E+02</pdfrwt>
<pdfrwt beam="1">  1       -2 0.15138520E-03 0.20218161E+02</pdfrwt>
<totfact> 0.51957777E+06</totfact>
</mgrwt>
</event>
<event>
 5    1  0.4046313E-006  0.2000071E+02  0.7818608E-02  0.1745314E+00
          2   -1    0    0  501    0  0.00000000000E+00  0.00000000000E+00  0.53183269697E+01  0.53183276052E+01  0.26000000000E-02 0. -1.
         -2   -1    0    0    0  501 -0.00000000000E+00 -0.00000000000E+00 -0.18804235653E+02  0.18804235832E+02  0.26000000000E-02 0.  1.
       1023    2    1    2    0    0  0.00000000000E+00  0.00000000000E+00 -0.13485908683E+02  0.24122563438E+02  0.20000708332E+02 0.  0.
        -11    1    3    3    0    0 -0.98324744137E+01 -0.18241027620E+01 -0.67992567784E+01  0.12092758039E+02  0.51100000000E-03 0. -1.
         11    1    3    3    0    0  0.98324744137E+01  0.18241027620E+01 -0.66866519047E+01  0.12029805399E+02  0.51100000000E-03 0.  1.
<mgrwt>
<rscale>  0 0.20000708E+02</rscale>
<asrwt>0</asrwt>
<pdfrwt beam="1">  1        2 0.81820422E-03 0.20000708E+02</pdfrwt>
<pdfrwt beam="2">  1       -2 0.28929594E-02 0.20000708E+02</pdfrwt>
<totfact> 0.37621643E+06</totfact>
</mgrwt>
</event>
<event>
 5    1  0.4046313E-006  0.2000537E+02  0.7818608E-02  0.1745221E+00
         -2   -1    0    0    0  501 -0.00000000000E+00  0.00000000000E+00  0.35909201217E+01  0.35909210630E+01  0.26000000000E-02 0. -1.
          2   -1    0    0  501    0  0.00000000000E+00 -0.00000000000E+00 -0.27862958720E+02  0.27862958841E+02  0.26000000000E-02 0.  1.
       1023    2    1    2    0    0  0.00000000000E+00  0.00000000000E+00 -0.24272038598E+02  0.31453879904E+02  0.20005366863E+02 0.  0.
        -11    1    3    3    0    0 -0.29282883396E+01 -0.95642700651E+01 -0.12042458038E+02  0.15654741465E+02  0.51100000000E-03 0.  1.
         11    1    3    3    0    0  0.29282883396E+01  0.95642700651E+01 -0.12229580560E+02  0.15799138439E+02  0.51100000000E-03 0. -1.
<mgrwt>
<rscale>  0 0.20005367E+02</rscale>
<asrwt>0</asrwt>
<pdfrwt beam="2">  1        2 0.42866090E-02 0.20005367E+02</pdfrwt>
<pdfrwt beam="1">  1       -2 0.55244935E-03 0.20005367E+02</pdfrwt>
<totfact> 0.43004400E+06</totfact>
</mgrwt>
</event>
<event>
 4    1  0.4046313E-006  0.2001362E+02  0.7818608E-02  0.1745057E+00
         -2   -1    0    0    0  501 -0.00000000000E+00  0.00000000000E+00  0.11638518934E+01  0.11638547976E+01  0.26000000000E-02 0.  1.
          2   -1    0    0  501    0  0.00000000000E+00 -0.00000000000E+00 -0.86038507766E+02  0.86038507805E+02  0.26000000000E-02 0. -1.
        -11    1    1    2    0    0 -0.67807644455E+01 -0.73547040278E+01 -0.41319903721E+02  0.42513584671E+02  0.51100000000E-03 0.  1.
         11    1    1    2    0    0  0.67807644455E+01  0.73547040278E+01 -0.43554752151E+02  0.44688777931E+02  0.51100000000E-03 0. -1.
<mgrwt>
<rscale>  0 0.20013616E+02</rscale>
<asrwt>0</asrwt>
<pdfrwt beam="2">  1        2 0.13236689E-01 0.20013616E+02</pdfrwt>
<pdfrwt beam="1">  1       -2 0.17905443E-03 0.20013616E+02</pdfrwt>
<totfact> 0.50978340E+06</totfact>
</mgrwt>
</event>
<event>
 5    1  0.4074935E-006  0.2000028E+02  0.7818608E-02  0.1745322E+00
         -2   -1    0    0    0  501 -0.00000000000E+00  0.00000000000E+00  0.10455854893E+01  0.10455887219E+01  0.26000000000E-02 0.  1.
          2   -1    0    0  501    0  0.00000000000E+00 -0.00000000000E+00 -0.95642763655E+02  0.95642763690E+02  0.26000000000E-02 0. -1.
       1023    2    1    2    0    0  0.00000000000E+00  0.00000000000E+00 -0.94597178166E+02  0.96688352412E+02  0.20000284380E+02 0.  0.
        -11    1    3    3    0    0 -0.69465050400E+01 -0.71936677595E+01 -0.47334589672E+02  0.48379398175E+02  0.51100000000E-03 0.  1.
         11    1    3    3    0    0  0.69465050400E+01  0.71936677595E+01 -0.47262588493E+02  0.48308954237E+02  0.51100000000E-03 0. -1.
<mgrwt>
<rscale>  0 0.20000284E+02</rscale>
<asrwt>0</asrwt>
<pdfrwt beam="2">  1        2 0.14714265E-01 0.20000284E+02</pdfrwt>
<pdfrwt beam="1">  1       -2 0.16085963E-03 0.20000284E+02</pdfrwt>
<totfact> 0.52231582E+06</totfact>
</mgrwt>
</event>
<event>
 5    1  0.4046313E-006  0.2000013E+02  0.7818608E-02  0.1745325E+00
          2   -1    0    0  501    0  0.00000000000E+00  0.00000000000E+00  0.39442783247E+01  0.39442791816E+01  0.26000000000E-02 0. -1.
         -2   -1    0    0    0  501 -0.00000000000E+00 -0.00000000000E+00 -0.25353515570E+02  0.25353515704E+02  0.26000000000E-02 0.  1.
       1023    2    1    2    0    0  0.00000000000E+00  0.00000000000E+00 -0.21409237246E+02  0.29297794885E+02  0.20000133642E+02 0.  0.
        -11    1    3    3    0    0 -0.15997396609E+01 -0.98712474661E+01 -0.10667483306E+02  0.14621760970E+02  0.51100000000E-03 0.  1.
         11    1    3    3    0    0  0.15997396609E+01  0.98712474661E+01 -0.10741753940E+02  0.14676033915E+02  0.51100000000E-03 0. -1.
<mgrwt>
<rscale>  0 0.20000134E+02</rscale>
<asrwt>0</asrwt>
<pdfrwt beam="1">  1        2 0.60681214E-03 0.20000134E+02</pdfrwt>
<pdfrwt beam="2">  1       -2 0.39005408E-02 0.20000134E+02</pdfrwt>
<totfact> 0.36660650E+06</totfact>
</mgrwt>
</event>
<event>
 5    1  0.4046313E-006  0.2000047E+02  0.7818608E-02  0.1745319E+00
          2   -1    0    0  501    0  0.00000000000E+00  0.00000000000E+00  0.39942035984E+02  0.39942036069E+02  0.26000000000E-02 0.  1.
         -2   -1    0    0    0  501 -0.00000000000E+00 -0.00000000000E+00 -0.25037450081E+01  0.25037463580E+01  0.26000000000E-02 0. -1.
       1023    2    1    2    0    0  0.00000000000E+00  0.00000000000E+00  0.37438290976E+02  0.42445782427E+02  0.20000470360E+02 0.  0.
        -11    1    3    3    0    0 -0.11069612445E+01 -0.99385938145E+01  0.18848117339E+02  0.21336647762E+02  0.51100000000E-03 0. -1.
         11    1    3    3    0    0  0.11069612445E+01  0.99385938145E+01  0.18590173637E+02  0.21109134665E+02  0.51100000000E-03 0.  1.
<mgrwt>
<rscale>  0 0.20000470E+02</rscale>
<asrwt>0</asrwt>
<pdfrwt beam="1">  1        2 0.61449287E-02 0.20000470E+02</pdfrwt>
<pdfrwt beam="2">  1       -2 0.38519165E-03 0.20000470E+02</pdfrwt>
<totfact> 0.44885430E+06</totfact>
</mgrwt>
</event>
<event>
 5    1  0.4046313E-006  0.2000046E+02  0.7818608E-02  0.1745319E+00
         -2   -1    0    0    0  501 -0.00000000000E+00  0.00000000000E+00  0.14146732248E+02  0.14146732487E+02  0.26000000000E-02 0.  1.
          2   -1    0    0  501    0  0.00000000000E+00 -0.00000000000E+00 -0.70690951873E+01  0.70690956654E+01  0.26000000000E-02 0. -1.
       1023    2    1    2    0    0  0.00000000000E+00  0.00000000000E+00  0.70776370612E+01  0.21215828153E+02  0.20000460441E+02 0.  0.
        -11    1    3    3    0    0  0.92597695503E+01 -0.37761747339E+01  0.35835277273E+01  0.10622829142E+02  0.51100000000E-03 0.  1.
         11    1    3    3    0    0 -0.92597695503E+01  0.37761747339E+01  0.34941093338E+01  0.10592999011E+02  0.51100000000E-03 0. -1.
<mgrwt>
<rscale>  0 0.20000460E+02</rscale>
<asrwt>0</asrwt>
<pdfrwt beam="2">  1        2 0.10875532E-02 0.20000460E+02</pdfrwt>
<pdfrwt beam="1">  1       -2 0.21764204E-02 0.20000460E+02</pdfrwt>
<totfact> 0.38465552E+06</totfact>
</mgrwt>
</event>
<event>
 5    1  0.4046313E-006  0.2000067E+02  0.7818608E-02  0.1745315E+00
          2   -1    0    0  501    0  0.00000000000E+00  0.00000000000E+00  0.60503484847E+01  0.60503490434E+01  0.26000000000E-02 0. -1.
         -2   -1    0    0    0  501 -0.00000000000E+00 -0.00000000000E+00 -0.16529081347E+02  0.16529081551E+02  0.26000000000E-02 0.  1.
       1023    2    1    2    0    0  0.00000000000E+00  0.00000000000E+00 -0.10478732862E+02  0.22579430595E+02  0.20000671078E+02 0.  0.
        -11    1    3    3    0    0 -0.99995727223E+01  0.11083169020E+00 -0.51778178603E+01  0.11261151644E+02  0.51100000000E-03 0.  1.
         11    1    3    3    0    0  0.99995727223E+01 -0.11083169020E+00 -0.53009150019E+01  0.11318278951E+02  0.51100000000E-03 0. -1.
<mgrwt>
<rscale>  0 0.20000671E+02</rscale>
<asrwt>0</asrwt>
<pdfrwt beam="1">  1        2 0.93082291E-03 0.20000671E+02</pdfrwt>
<pdfrwt beam="2">  1       -2 0.25429356E-02 0.20000671E+02</pdfrwt>
<totfact> 0.38009900E+06</totfact>
</mgrwt>
</event>
<event>
 5    1  0.4046313E-006  0.2000108E+02  0.7818608E-02  0.1745307E+00
         -2   -1    0    0    0  501 -0.00000000000E+00  0.00000000000E+00  0.25115743348E+02  0.25115743483E+02  0.26000000000E-02 0. -1.
          2   -1    0    0  501    0  0.00000000000E+00 -0.00000000000E+00 -0.39819975359E+01  0.39819983847E+01  0.26000000000E-02 0.  1.
       1023    2    1    2    0    0  0.00000000000E+00  0.00000000000E+00  0.21133745812E+02  0.29097741867E+02  0.20001084214E+02 0.  0.
        -11    1    3    3    0    0  0.92603363610E+01 -0.37758411139E+01  0.10575666181E+02  0.14555257506E+02  0.51100000000E-03 0. -1.
         11    1    3    3    0    0 -0.92603363610E+01  0.37758411139E+01  0.10558079631E+02  0.14542484361E+02  0.51100000000E-03 0.  1.
<mgrwt>
<rscale>  0 0.20001084E+02</rscale>
<asrwt>0</asrwt>
<pdfrwt beam="2">  1        2 0.61261511E-03 0.20001084E+02</pdfrwt>
<pdfrwt beam="1">  1       -2 0.38639604E-02 0.20001084E+02</pdfrwt>
<totfact> 0.36688941E+06</totfact>
</mgrwt>
</event>
<event>
 5    1  0.4046313E-006  0.2000516E+02  0.7818608E-02  0.1745226E+00
          2   -1    0    0  501    0  0.00000000000E+00  0.00000000000E+00  0.80101772408E+01  0.80101776628E+01  0.26000000000E-02 0.  1.
         -2   -1    0    0    0  501 -0.00000000000E+00 -0.00000000000E+00 -0.12490554193E+02  0.12490554463E+02  0.26000000000E-02 0. -1.
       1023    2    1    2    0    0  0.00000000000E+00  0.00000000000E+00 -0.44803769520E+01  0.20500732126E+02  0.20005155338E+02 0.  0.
        -11    1    3    3    0    0  0.20111242254E+01 -0.97981071027E+01 -0.23052943017E+01  0.10264594757E+02  0.51100000000E-03 0. -1.
         11    1    3    3    0    0 -0.20111242254E+01  0.97981071027E+01 -0.21750826504E+01  0.10236137369E+02  0.51100000000E-03 0.  1.
<mgrwt>
<rscale>  0 0.20005155E+02</rscale>
<asrwt>0</asrwt>
<pdfrwt beam="1">  1        2 0.12323350E-02 0.20005155E+02</pdfrwt>
<pdfrwt beam="2">  1       -2 0.19216238E-02 0.20005155E+02</pdfrwt>
<totfact> 0.38803713E+06</totfact>
</mgrwt>
</event>
<event>
 5    1  0.4046313E-006  0.2000314E+02  0.7818608E-02  0.1745266E+00
          2   -1    0    0  501    0  0.00000000000E+00  0.00000000000E+00  0.68639695706E+01  0.68639700630E+01  0.26000000000E-02 0. -1.
         -2   -1    0    0    0  501 -0.00000000000E+00 -0.00000000000E+00 -0.14573397923E+02  0.14573398155E+02  0.26000000000E-02 0.  1.
       1023    2    1    2    0    0  0.00000000000E+00  0.00000000000E+00 -0.77094283527E+01  0.21437368218E+02  0.20003136519E+02 0.  0.
        -11    1    3    3    0    0  0.85847686819E+01  0.51311291865E+01 -0.39276160918E+01  0.10744901511E+02  0.51100000000E-03 0.  1.
         11    1    3    3    0    0 -0.85847686819E+01 -0.51311291865E+01 -0.37818122610E+01  0.10692466707E+02  0.51100000000E-03 0. -1.
<mgrwt>
<rscale>  0 0.20003137E+02</rscale>
<asrwt>0</asrwt>
<pdfrwt beam="1">  1        2 0.10559954E-02 0.20003137E+02</pdfrwt>
<pdfrwt beam="2">  1       -2 0.22420613E-02 0.20003137E+02</pdfrwt>
<totfact> 0.38368477E+06</totfact>
</mgrwt>
</event>
<event>
 5    1  0.4046313E-006  0.2000103E+02  0.7818608E-02  0.1745308E+00
          2   -1    0    0  501    0  0.00000000000E+00  0.00000000000E+00  0.11851551403E+01  0.11851579922E+01  0.26000000000E-02 0. -1.
         -2   -1    0    0    0  501 -0.00000000000E+00 -0.00000000000E+00 -0.84385695045E+02  0.84385695085E+02  0.26000000000E-02 0.  1.
       1023    2    1    2    0    0  0.00000000000E+00  0.00000000000E+00 -0.83200539904E+02  0.85570853077E+02  0.20001026372E+02 0.  0.
        -11    1    3    3    0    0 -0.91464910748E+01  0.40426073693E+01 -0.41187896413E+02  0.42384475749E+02  0.51100000000E-03 0.  1.
         11    1    3    3    0    0  0.91464910748E+01 -0.40426073693E+01 -0.42012643492E+02  0.43186377328E+02  0.51100000000E-03 0. -1.
<mgrwt>
<rscale>  0 0.20001026E+02</rscale>
<asrwt>0</asrwt>
<pdfrwt beam="1">  1        2 0.18233185E-03 0.20001026E+02</pdfrwt>
<pdfrwt beam="2">  1       -2 0.12982410E-01 0.20001026E+02</pdfrwt>
<totfact> 0.30906553E+06</totfact>
</mgrwt>
</event>
<event>
 5    1  0.4046313E-006  0.2000110E+02  0.7818608E-02  0.1745306E+00
         -2   -1    0    0    0  501 -0.00000000000E+00  0.00000000000E+00  0.22569207460E+02  0.22569207610E+02  0.26000000000E-02 0. -1.
          2   -1    0    0  501    0  0.00000000000E+00 -0.00000000000E+00 -0.44313034491E+01  0.44313042118E+01  0.26000000000E-02 0.  1.
       1023    2    1    2    0    0  0.00000000000E+00  0.00000000000E+00  0.18137904011E+02  0.27000511821E+02  0.20001101887E+02 0.  0.
        -11    1    3    3    0    0  0.92415732571E+01  0.38208082197E+01  0.89664338999E+01  0.13431388196E+02  0.51100000000E-03 0. -1.
         11    1    3    3    0    0 -0.92415732571E+01 -0.38208082197E+01  0.91714701108E+01  0.13569123626E+02  0.51100000000E-03 0.  1.
<mgrwt>
<rscale>  0 0.20001102E+02</rscale>
<asrwt>0</asrwt>
<pdfrwt beam="2">  1        2 0.68173907E-03 0.20001102E+02</pdfrwt>
<pdfrwt beam="1">  1       -2 0.34721858E-02 0.20001102E+02</pdfrwt>
<totfact> 0.37044344E+06</totfact>
</mgrwt>
</event>
<event>
 5    1  0.4046313E-006  0.2000255E+02  0.7818608E-02  0.1745277E+00
         -2   -1    0    0    0  501 -0.00000000000E+00  0.00000000000E+00  0.48142521209E+02  0.48142521279E+02  0.26000000000E-02 0.  1.
          2   -1    0    0  501    0  0.00000000000E+00 -0.00000000000E+00 -0.20776941287E+01  0.20776957555E+01  0.26000000000E-02 0. -1.
       1023    2    1    2    0    0  0.00000000000E+00  0.00000000000E+00  0.46064827080E+02  0.50220217035E+02  0.20002547465E+02 0.  0.
        -11    1    3    3    0    0 -0.72827377067E+01  0.68540987839E+01  0.22800431081E+02  0.24897321068E+02  0.51100000000E-03 0. -1.
         11    1    3    3    0    0  0.72827377067E+01 -0.68540987839E+01  0.23264396000E+02  0.25322895966E+02  0.51100000000E-03 0.  1.
<mgrwt>
<rscale>  0 0.20002547E+02</rscale>
<asrwt>0</asrwt>
<pdfrwt beam="2">  1        2 0.31964540E-03 0.20002547E+02</pdfrwt>
<pdfrwt beam="1">  1       -2 0.74065415E-02 0.20002547E+02</pdfrwt>
<totfact> 0.34071857E+06</totfact>
</mgrwt>
</event>
<event>
 5    1  0.4046313E-006  0.2000113E+02  0.7818608E-02  0.1745306E+00
         -2   -1    0    0    0  501 -0.00000000000E+00  0.00000000000E+00  0.26220127187E+02  0.26220127316E+02  0.26000000000E-02 0. -1.
          2   -1    0    0  501    0  0.00000000000E+00 -0.00000000000E+00 -0.38142950894E+01  0.38142959755E+01  0.26000000000E-02 0.  1.
       1023    2    1    2    0    0  0.00000000000E+00  0.00000000000E+00  0.22405832097E+02  0.30034423291E+02  0.20001131729E+02 0.  0.
        -11    1    3    3    0    0  0.99538569981E+01  0.96243706783E+00  0.11316912943E+02  0.15102253907E+02  0.51100000000E-03 0. -1.
         11    1    3    3    0    0 -0.99538569981E+01 -0.96243706783E+00  0.11088919155E+02  0.14932169385E+02  0.51100000000E-03 0.  1.
<mgrwt>
<rscale>  0 0.20001132E+02</rscale>
<asrwt>0</asrwt>
<pdfrwt beam="2">  1        2 0.58681472E-03 0.20001132E+02</pdfrwt>
<pdfrwt beam="1">  1       -2 0.40338657E-02 0.20001132E+02</pdfrwt>
<totfact> 0.36541165E+06</totfact>
</mgrwt>
</event>
<event>
 5    1  0.4046313E-006  0.2000033E+02  0.7818608E-02  0.1745322E+00
         -2   -1    0    0    0  501 -0.00000000000E+00  0.00000000000E+00  0.80538582370E+02  0.80538582412E+02  0.26000000000E-02 0.  1.
          2   -1    0    0  501    0  0.00000000000E+00 -0.00000000000E+00 -0.12416801590E+01  0.12416828812E+01  0.26000000000E-02 0. -1.
       1023    2    1    2    0    0  0.00000000000E+00  0.00000000000E+00  0.79296902211E+02  0.81780265293E+02  0.20000327276E+02 0.  0.
        -11    1    3    3    0    0 -0.99560488420E+01  0.93746455607E+00  0.39488815045E+02  0.40735344140E+02  0.51100000000E-03 0. -1.
         11    1    3    3    0    0  0.99560488420E+01 -0.93746455607E+00  0.39808087167E+02  0.41044921153E+02  0.51100000000E-03 0.  1.
<mgrwt>
<rscale>  0 0.20000327E+02</rscale>
<asrwt>0</asrwt>
<pdfrwt beam="2">  1        2 0.19102798E-03 0.20000327E+02</pdfrwt>
<pdfrwt beam="1">  1       -2 0.12390548E-01 0.20000327E+02</pdfrwt>
<totfact> 0.31213570E+06</totfact>
</mgrwt>
</event>
<event>
 5    1  0.4046313E-006  0.2000353E+02  0.7818608E-02  0.1745258E+00
          2   -1    0    0  501    0  0.00000000000E+00  0.00000000000E+00  0.49840571214E+02  0.49840571281E+02  0.26000000000E-02 0. -1.
         -2   -1    0    0    0  501 -0.00000000000E+00 -0.00000000000E+00 -0.20071052307E+01  0.20071069147E+01  0.26000000000E-02 0.  1.
       1023    2    1    2    0    0  0.00000000000E+00  0.00000000000E+00  0.47833465983E+02  0.51847678196E+02  0.20003531348E+02 0.  0.
        -11    1    3    3    0    0 -0.99002745025E+01 -0.14115864943E+01  0.24345026198E+02  0.26318972482E+02  0.51100000000E-03 0. -1.
         11    1    3    3    0    0  0.99002745025E+01  0.14115864943E+01  0.23488439785E+02  0.25528705714E+02  0.51100000000E-03 0.  1.
<mgrwt>
<rscale>  0 0.20003531E+02</rscale>
<asrwt>0</asrwt>
<pdfrwt beam="1">  1        2 0.76677800E-02 0.20003531E+02</pdfrwt>
<pdfrwt beam="2">  1       -2 0.30878557E-03 0.20003531E+02</pdfrwt>
<totfact> 0.46287619E+06</totfact>
</mgrwt>
</event>
<event>
 4    1  0.4046313E-006  0.2003157E+02  0.7818608E-02  0.1744701E+00
         -2   -1    0    0    0  501 -0.00000000000E+00  0.00000000000E+00  0.12385879739E+01  0.12385907028E+01  0.26000000000E-02 0.  1.
          2   -1    0    0  501    0  0.00000000000E+00 -0.00000000000E+00 -0.80992134378E+02  0.80992134420E+02  0.26000000000E-02 0. -1.
        -11    1    1    2    0    0 -0.87225581468E+01  0.49165749699E+01 -0.40884538950E+02  0.42092769634E+02  0.51100000000E-03 0. -1.
         11    1    1    2    0    0  0.87225581468E+01 -0.49165749699E+01 -0.38869007454E+02  0.40137955488E+02  0.51100000000E-03 0.  1.
<mgrwt>
<rscale>  0 0.20031575E+02</rscale>
<asrwt>0</asrwt>
<pdfrwt beam="2">  1        2 0.12460324E-01 0.20031575E+02</pdfrwt>
<pdfrwt beam="1">  1       -2 0.19055227E-03 0.20031575E+02</pdfrwt>
<totfact> 0.50248772E+06</totfact>
</mgrwt>
</event>
<event>
 5    1  0.4046313E-006  0.2000040E+02  0.7818608E-02  0.1745320E+00
          2   -1    0    0  501    0  0.00000000000E+00  0.00000000000E+00  0.65327767202E+02  0.65327767254E+02  0.26000000000E-02 0.  1.
         -2   -1    0    0    0  501 -0.00000000000E+00 -0.00000000000E+00 -0.15308033478E+01  0.15308055558E+01  0.26000000000E-02 0. -1.
       1023    2    1    2    0    0  0.00000000000E+00  0.00000000000E+00  0.63796963854E+02  0.66858572810E+02  0.20000404024E+02 0.  0.
        -11    1    3    3    0    0 -0.65046170872E+01  0.75954800130E+01  0.31725428353E+02  0.33264157355E+02  0.51100000000E-03 0. -1.
         11    1    3    3    0    0  0.65046170872E+01 -0.75954800130E+01  0.32071535501E+02  0.33594415455E+02  0.51100000000E-03 0.  1.
<mgrwt>
<rscale>  0 0.20000404E+02</rscale>
<asrwt>0</asrwt>
<pdfrwt beam="1">  1        2 0.10050427E-01 0.20000404E+02</pdfrwt>
<pdfrwt beam="2">  1       -2 0.23550837E-03 0.20000404E+02</pdfrwt>
<totfact> 0.48405484E+06</totfact>
</mgrwt>
</event>
<event>
 5    1  0.4046313E-006  0.2000056E+02  0.7818608E-02  0.1745317E+00
         -2   -1    0    0    0  501 -0.00000000000E+00  0.00000000000E+00  0.19046276824E+02  0.19046277001E+02  0.26000000000E-02 0.  1.
          2   -1    0    0  501    0  0.00000000000E+00 -0.00000000000E+00 -0.52506651076E+01  0.52506657513E+01  0.26000000000E-02 0. -1.
       1023    2    1    2    0    0  0.00000000000E+00  0.00000000000E+00  0.13795611716E+02  0.24296942753E+02  0.20000563105E+02 0.  0.
        -11    1    3    3    0    0  0.45053212667E+01 -0.89279172284E+01  0.68950594882E+01  0.12146912009E+02  0.51100000000E-03 0.  1.
         11    1    3    3    0    0 -0.45053212667E+01  0.89279172284E+01  0.69005522280E+01  0.12150030743E+02  0.51100000000E-03 0. -1.
<mgrwt>
<rscale>  0 0.20000563E+02</rscale>
<asrwt>0</asrwt>
<pdfrwt beam="2">  1        2 0.80779469E-03 0.20000563E+02</pdfrwt>
<pdfrwt beam="1">  1       -2 0.29301965E-02 0.20000563E+02</pdfrwt>
<totfact> 0.37583002E+06</totfact>
</mgrwt>
</event>
<event>
 5    1  0.4046313E-006  0.2000234E+02  0.7818608E-02  0.1745281E+00
          2   -1    0    0  501    0  0.00000000000E+00  0.00000000000E+00  0.16277904610E+01  0.16277925374E+01  0.26000000000E-02 0.  1.
         -2   -1    0    0    0  501 -0.00000000000E+00 -0.00000000000E+00 -0.61447325512E+02  0.61447325567E+02  0.26000000000E-02 0. -1.
       1023    2    1    2    0    0  0.00000000000E+00  0.00000000000E+00 -0.59819535051E+02  0.63075118104E+02  0.20002343617E+02 0.  0.
        -11    1    3    3    0    0 -0.99838248282E+01  0.58841605937E+00 -0.29843200380E+02  0.31474427729E+02  0.51100000000E-03 0. -1.
         11    1    3    3    0    0  0.99838248282E+01 -0.58841605937E+00 -0.29976334670E+02  0.31600690375E+02  0.51100000000E-03 0.  1.
<mgrwt>
<rscale>  0 0.20002344E+02</rscale>
<asrwt>0</asrwt>
<pdfrwt beam="1">  1        2 0.25042951E-03 0.20002344E+02</pdfrwt>
<pdfrwt beam="2">  1       -2 0.94534331E-02 0.20002344E+02</pdfrwt>
<totfact> 0.32821083E+06</totfact>
</mgrwt>
</event>
<event>
 5    1  0.4046313E-006  0.2000144E+02  0.7818608E-02  0.1745300E+00
          2   -1    0    0  501    0  0.00000000000E+00  0.00000000000E+00  0.15965529059E+02  0.15965529271E+02  0.26000000000E-02 0. -1.
         -2   -1    0    0    0  501 -0.00000000000E+00 -0.00000000000E+00 -0.62643935306E+01  0.62643940702E+01  0.26000000000E-02 0.  1.
       1023    2    1    2    0    0  0.00000000000E+00  0.00000000000E+00  0.97011355289E+01  0.22229923341E+02  0.20001436479E+02 0.  0.
        -11    1    3    3    0    0  0.12857286031E+01  0.99172947016E+01  0.49532328189E+01  0.11159764686E+02  0.51100000000E-03 0.  1.
         11    1    3    3    0    0 -0.12857286031E+01 -0.99172947016E+01  0.47479027100E+01  0.11070158655E+02  0.51100000000E-03 0. -1.
<mgrwt>
<rscale>  0 0.20001436E+02</rscale>
<asrwt>0</asrwt>
<pdfrwt beam="1">  1        2 0.24562353E-02 0.20001436E+02</pdfrwt>
<pdfrwt beam="2">  1       -2 0.96375289E-03 0.20001436E+02</pdfrwt>
<totfact> 0.40886277E+06</totfact>
</mgrwt>
</event>
<event>
 5    1  0.4046313E-006  0.2000037E+02  0.7818608E-02  0.1745321E+00
         -2   -1    0    0    0  501 -0.00000000000E+00  0.00000000000E+00  0.19743769351E+01  0.19743786470E+01  0.26000000000E-02 0.  1.
          2   -1    0    0  501    0  0.00000000000E+00 -0.00000000000E+00 -0.50650736528E+02  0.50650736595E+02  0.26000000000E-02 0. -1.
       1023    2    1    2    0    0  0.00000000000E+00  0.00000000000E+00 -0.48676359593E+02  0.52625115242E+02  0.20000369271E+02 0.  0.
        -11    1    3    3    0    0  0.99560652274E+01 -0.93802327470E+00 -0.24275360040E+02  0.26254451581E+02  0.51100000000E-03 0.  1.
         11    1    3    3    0    0 -0.99560652274E+01  0.93802327470E+00 -0.24400999553E+02  0.26370663661E+02  0.51100000000E-03 0. -1.
<mgrwt>
<rscale>  0 0.20000369E+02</rscale>
<asrwt>0</asrwt>
<pdfrwt beam="2">  1        2 0.77924202E-02 0.20000369E+02</pdfrwt>
<pdfrwt beam="1">  1       -2 0.30375047E-03 0.20000369E+02</pdfrwt>
<totfact> 0.46417006E+06</totfact>
</mgrwt>
</event>
<event>
 5    1  0.4062467E-006  0.2000147E+02  0.7818608E-02  0.1745299E+00
         -2   -1    0    0    0  501 -0.00000000000E+00  0.00000000000E+00  0.12142063645E+01  0.12142091482E+01  0.26000000000E-02 0. -1.
          2   -1    0    0  501    0  0.00000000000E+00 -0.00000000000E+00 -0.82370342498E+02  0.82370342539E+02  0.26000000000E-02 0.  1.
       1023    2    1    2    0    0  0.00000000000E+00  0.00000000000E+00 -0.81156136133E+02  0.83584551687E+02  0.20001471162E+02 0.  0.
        -11    1    3    3    0    0 -0.42744911159E+01  0.90407061390E+01 -0.40180079833E+02  0.41405850522E+02  0.51100000000E-03 0. -1.
         11    1    3    3    0    0  0.42744911159E+01 -0.90407061390E+01 -0.40976056301E+02  0.42178701165E+02  0.51100000000E-03 0.  1.
<mgrwt>
<rscale>  0 0.20001471E+02</rscale>
<asrwt>0</asrwt>
<pdfrwt beam="2">  1        2 0.12672356E-01 0.20001471E+02</pdfrwt>
<pdfrwt beam="1">  1       -2 0.18680126E-03 0.20001471E+02</pdfrwt>
<totfact> 0.50589220E+06</totfact>
</mgrwt>
</event>
<event>
 5    1  0.4046313E-006  0.2000026E+02  0.7818608E-02  0.1745323E+00
         -2   -1    0    0    0  501 -0.00000000000E+00  0.00000000000E+00  0.28875055207E+02  0.28875055324E+02  0.26000000000E-02 0.  1.
          2   -1    0    0  501    0  0.00000000000E+00 -0.00000000000E+00 -0.34632849764E+01  0.34632859524E+01  0.26000000000E-02 0. -1.
       1023    2    1    2    0    0  0.00000000000E+00  0.00000000000E+00  0.25411770230E+02  0.32338341276E+02  0.20000256255E+02 0.  0.
        -11    1    3    3    0    0 -0.68276473140E+01 -0.73063904705E+01  0.12785962283E+02  0.16232096023E+02  0.51100000000E-03 0.  1.
         11    1    3    3    0    0  0.68276473140E+01  0.73063904705E+01  0.12625807947E+02  0.16106245253E+02  0.51100000000E-03 0. -1.
<mgrwt>
<rscale>  0 0.20000256E+02</rscale>
<asrwt>0</asrwt>
<pdfrwt beam="2">  1        2 0.53281316E-03 0.20000256E+02</pdfrwt>
<pdfrwt beam="1">  1       -2 0.44423162E-02 0.20000256E+02</pdfrwt>
<totfact> 0.36203091E+06</totfact>
</mgrwt>
</event>
<event>
 4    1  0.4046313E-006  0.2006695E+02  0.7818608E-02  0.1744000E+00
         -2   -1    0    0    0  501 -0.00000000000E+00  0.00000000000E+00  0.57125149040E+02  0.57125149099E+02  0.26000000000E-02 0.  1.
          2   -1    0    0  501    0  0.00000000000E+00 -0.00000000000E+00 -0.17622816538E+01  0.17622835718E+01  0.26000000000E-02 0. -1.
        -11    1    1    2    0    0  0.11762986815E+01  0.99637306293E+01  0.27989958327E+02  0.29733774972E+02  0.51100000000E-03 0.  1.
         11    1    1    2    0    0 -0.11762986815E+01 -0.99637306293E+01  0.27372909059E+02  0.29153657699E+02  0.51100000000E-03 0. -1.
<mgrwt>
<rscale>  0 0.20066954E+02</rscale>
<asrwt>0</asrwt>
<pdfrwt beam="2">  1        2 0.27112041E-03 0.20066954E+02</pdfrwt>
<pdfrwt beam="1">  1       -2 0.87884844E-02 0.20066954E+02</pdfrwt>
<totfact> 0.32981207E+06</totfact>
</mgrwt>
</event>
<event>
 5    1  0.4046313E-006  0.2000180E+02  0.7818608E-02  0.1745292E+00
         -2   -1    0    0    0  501 -0.00000000000E+00  0.00000000000E+00  0.25723859433E+01  0.25723872573E+01  0.26000000000E-02 0. -1.
          2   -1    0    0  501    0  0.00000000000E+00 -0.00000000000E+00 -0.38881395429E+02  0.38881395516E+02  0.26000000000E-02 0.  1.
       1023    2    1    2    0    0  0.00000000000E+00  0.00000000000E+00 -0.36309009485E+02  0.41453782773E+02  0.20001798329E+02 0.  0.
        -11    1    3    3    0    0  0.54013185459E+01 -0.84160172977E+01 -0.18403158819E+02  0.20944685339E+02  0.51100000000E-03 0.  1.
         11    1    3    3    0    0 -0.54013185459E+01  0.84160172977E+01 -0.17905850666E+02  0.20509097433E+02  0.51100000000E-03 0. -1.
<mgrwt>
<rscale>  0 0.20001798E+02</rscale>
<asrwt>0</asrwt>
<pdfrwt beam="2">  1        2 0.59817528E-02 0.20001798E+02</pdfrwt>
<pdfrwt beam="1">  1       -2 0.39575182E-03 0.20001798E+02</pdfrwt>
<totfact> 0.44722277E+06</totfact>
</mgrwt>
</event>
<event>
 5    1  0.4046313E-006  0.2000095E+02  0.7818608E-02  0.1745309E+00
         -2   -1    0    0    0  501 -0.00000000000E+00  0.00000000000E+00  0.36227915993E+01  0.36227925323E+01  0.26000000000E-02 0. -1.
          2   -1    0    0  501    0  0.00000000000E+00 -0.00000000000E+00 -0.27605646626E+02  0.27605646749E+02  0.26000000000E-02 0.  1.
       1023    2    1    2    0    0  0.00000000000E+00  0.00000000000E+00 -0.23982855027E+02  0.31228439281E+02  0.20000952094E+02 0.  0.
        -11    1    3    3    0    0 -0.87301897150E+01  0.48769134023E+01 -0.12139748264E+02  0.15728127192E+02  0.51100000000E-03 0.  1.
         11    1    3    3    0    0  0.87301897150E+01 -0.48769134023E+01 -0.11843106763E+02  0.15500312089E+02  0.51100000000E-03 0. -1.
<mgrwt>
<rscale>  0 0.20000952E+02</rscale>
<asrwt>0</asrwt>
<pdfrwt beam="2">  1        2 0.42470225E-02 0.20000952E+02</pdfrwt>
<pdfrwt beam="1">  1       -2 0.55735265E-03 0.20000952E+02</pdfrwt>
<totfact> 0.42983865E+06</totfact>
</mgrwt>
</event>
<event>
 5    1  0.4331352E-006  0.2000112E+02  0.7818608E-02  0.1745306E+00
         -2   -1    0    0    0  501 -0.00000000000E+00  0.00000000000E+00  0.11000480303E+01  0.11000511029E+01  0.26000000000E-02 0. -1.
          2   -1    0    0  501    0  0.00000000000E+00 -0.00000000000E+00 -0.90915211520E+02  0.90915211557E+02  0.26000000000E-02 0.  1.
       1023    2    1    2    0    0  0.00000000000E+00  0.00000000000E+00 -0.89815163490E+02  0.92015262660E+02  0.20001124212E+02 0.  0.
        -11    1    3    3    0    0  0.85136174952E+01  0.52468441308E+01 -0.44970321491E+02  0.46068870959E+02  0.51100000000E-03 0. -1.
         11    1    3    3    0    0 -0.85136174952E+01 -0.52468441308E+01 -0.44844841999E+02  0.45946391701E+02  0.51100000000E-03 0.  1.
<mgrwt>
<rscale>  0 0.20001124E+02</rscale>
<asrwt>0</asrwt>
<pdfrwt beam="2">  1        2 0.13986950E-01 0.20001124E+02</pdfrwt>
<pdfrwt beam="1">  1       -2 0.16923847E-03 0.20001124E+02</pdfrwt>
<totfact> 0.51650673E+06</totfact>
</mgrwt>
</event>
<event>
 4    1  0.4046313E-006  0.2002127E+02  0.7818608E-02  0.1744905E+00
         -2   -1    0    0    0  501 -0.00000000000E+00  0.00000000000E+00  0.19338066853E+01  0.19338084332E+01  0.26000000000E-02 0. -1.
          2   -1    0    0  501    0  0.00000000000E+00 -0.00000000000E+00 -0.51821483478E+02  0.51821483543E+02  0.26000000000E-02 0.  1.
        -11    1    1    2    0    0  0.89982376317E+00  0.99603750380E+01 -0.26126497543E+02  0.27975214527E+02  0.51100000000E-03 0. -1.
         11    1    1    2    0    0 -0.89982376317E+00 -0.99603750380E+01 -0.23761179250E+02  0.25780077450E+02  0.51100000000E-03 0.  1.
<mgrwt>
<rscale>  0 0.20021267E+02</rscale>
<asrwt>0</asrwt>
<pdfrwt beam="2">  1        2 0.79725350E-02 0.20021267E+02</pdfrwt>
<pdfrwt beam="1">  1       -2 0.29750890E-03 0.20021267E+02</pdfrwt>
<totfact> 0.46471553E+06</totfact>
</mgrwt>
</event>
<event>
 5    1  0.4046313E-006  0.2000007E+02  0.7818608E-02  0.1745327E+00
          2   -1    0    0  501    0  0.00000000000E+00  0.00000000000E+00  0.49934390332E+01  0.49934397101E+01  0.26000000000E-02 0. -1.
         -2   -1    0    0    0  501 -0.00000000000E+00 -0.00000000000E+00 -0.20026416702E+02  0.20026416871E+02  0.26000000000E-02 0.  1.
       1023    2    1    2    0    0  0.00000000000E+00  0.00000000000E+00 -0.15032977669E+02  0.25019856581E+02  0.20000070143E+02 0.  0.
        -11    1    3    3    0    0  0.61759043656E+01 -0.78650353508E+01 -0.75024815716E+01  0.12501512140E+02  0.51100000000E-03 0. -1.
         11    1    3    3    0    0 -0.61759043656E+01  0.78650353508E+01 -0.75304960976E+01  0.12518344441E+02  0.51100000000E-03 0.  1.
<mgrwt>
<rscale>  0 0.20000070E+02</rscale>
<asrwt>0</asrwt>
<pdfrwt beam="1">  1        2 0.76822147E-03 0.20000070E+02</pdfrwt>
<pdfrwt beam="2">  1       -2 0.30809872E-02 0.20000070E+02</pdfrwt>
<totfact> 0.37429499E+06</totfact>
</mgrwt>
</event>
<event>
 5    1  0.4212761E-006  0.2000230E+02  0.7818608E-02  0.1745282E+00
          2   -1    0    0  501    0  0.00000000000E+00  0.00000000000E+00  0.10106090511E+03  0.10106090515E+03  0.26000000000E-02 0. -1.
         -2   -1    0    0    0  501 -0.00000000000E+00 -0.00000000000E+00 -0.98972833237E+00  0.98973174745E+00  0.26000000000E-02 0.  1.
       1023    2    1    2    0    0  0.00000000000E+00  0.00000000000E+00  0.10007117678E+03  0.10205063689E+03  0.20002301572E+02 0.  0.
        -11    1    3    3    0    0  0.83880951861E+01 -0.54450868270E+01  0.49433961524E+02  0.50435361242E+02  0.51100000000E-03 0. -1.
         11    1    3    3    0    0 -0.83880951861E+01  0.54450868270E+01  0.50637215257E+02  0.51615275652E+02  0.51100000000E-03 0.  1.
<mgrwt>
<rscale>  0 0.20002302E+02</rscale>
<asrwt>0</asrwt>
<pdfrwt beam="1">  1        2 0.15547828E-01 0.20002302E+02</pdfrwt>
<pdfrwt beam="2">  1       -2 0.15226620E-03 0.20002302E+02</pdfrwt>
<totfact> 0.52871399E+06</totfact>
</mgrwt>
</event>
<event>
 4    1  0.4046313E-006  0.2001727E+02  0.7818608E-02  0.1744985E+00
         -2   -1    0    0    0  501 -0.00000000000E+00  0.00000000000E+00  0.22875587390E+01  0.22875602166E+01  0.26000000000E-02 0. -1.
          2   -1    0    0  501    0  0.00000000000E+00 -0.00000000000E+00 -0.43790214991E+02  0.43790215068E+02  0.26000000000E-02 0.  1.
        -11    1    1    2    0    0  0.99678355656E+01  0.88263882846E+00 -0.20315013730E+02  0.22645895440E+02  0.51100000000E-03 0.  1.
         11    1    1    2    0    0 -0.99678355656E+01 -0.88263882846E+00 -0.21187642521E+02  0.23431879844E+02  0.51100000000E-03 0. -1.
<mgrwt>
<rscale>  0 0.20017265E+02</rscale>
<asrwt>0</asrwt>
<pdfrwt beam="2">  1        2 0.67369556E-02 0.20017265E+02</pdfrwt>
<pdfrwt beam="1">  1       -2 0.35193227E-03 0.20017265E+02</pdfrwt>
<totfact> 0.45360283E+06</totfact>
</mgrwt>
</event>
<event>
 5    1  0.4046313E-006  0.2000023E+02  0.7818608E-02  0.1745323E+00
          2   -1    0    0  501    0  0.00000000000E+00  0.00000000000E+00  0.30902300629E+01  0.30902311567E+01  0.26000000000E-02 0. -1.
         -2   -1    0    0    0  501 -0.00000000000E+00 -0.00000000000E+00 -0.32360795651E+02  0.32360795756E+02  0.26000000000E-02 0.  1.
       1023    2    1    2    0    0  0.00000000000E+00  0.00000000000E+00 -0.29270565588E+02  0.35451026912E+02  0.20000232481E+02 0.  0.
        -11    1    3    3    0    0  0.28087250659E+01 -0.95975038191E+01 -0.14699400981E+02  0.17778453406E+02  0.51100000000E-03 0.  1.
         11    1    3    3    0    0 -0.28087250659E+01  0.95975038191E+01 -0.14571164607E+02  0.17672573506E+02  0.51100000000E-03 0. -1.
<mgrwt>
<rscale>  0 0.20000232E+02</rscale>
<asrwt>0</asrwt>
<pdfrwt beam="1">  1        2 0.47542012E-03 0.20000232E+02</pdfrwt>
<pdfrwt beam="2">  1       -2 0.49785838E-02 0.20000232E+02</pdfrwt>
<totfact> 0.35778574E+06</totfact>
</mgrwt>
</event>
<event>
 5    1  0.4046313E-006  0.2000057E+02  0.7818608E-02  0.1745317E+00
         -2   -1    0    0    0  501 -0.00000000000E+00  0.00000000000E+00  0.29469681091E+02  0.29469681206E+02  0.26000000000E-02 0. -1.
          2   -1    0    0  501    0  0.00000000000E+00 -0.00000000000E+00 -0.33935117961E+01  0.33935127921E+01  0.26000000000E-02 0.  1.
       1023    2    1    2    0    0  0.00000000000E+00  0.00000000000E+00  0.26076169295E+02  0.32863193998E+02  0.20000572858E+02 0.  0.
        -11    1    3    3    0    0  0.85617036768E+01 -0.51674822405E+01  0.13022860825E+02  0.16419517255E+02  0.51100000000E-03 0.  1.
         11    1    3    3    0    0 -0.85617036768E+01  0.51674822405E+01  0.13053308469E+02  0.16443676742E+02  0.51100000000E-03 0. -1.
<mgrwt>
<rscale>  0 0.20000573E+02</rscale>
<asrwt>0</asrwt>
<pdfrwt beam="2">  1        2 0.52207884E-03 0.20000573E+02</pdfrwt>
<pdfrwt beam="1">  1       -2 0.45337971E-02 0.20000573E+02</pdfrwt>
<totfact> 0.36127626E+06</totfact>
</mgrwt>
</event>
<event>
 5    1  0.4046313E-006  0.2000074E+02  0.7818608E-02  0.1745313E+00
          2   -1    0    0  501    0  0.00000000000E+00  0.00000000000E+00  0.11252504859E+02  0.11252505159E+02  0.26000000000E-02 0. -1.
         -2   -1    0    0    0  501 -0.00000000000E+00 -0.00000000000E+00 -0.88875661753E+01  0.88875665556E+01  0.26000000000E-02 0.  1.
       1023    2    1    2    0    0  0.00000000000E+00  0.00000000000E+00  0.23649386838E+01  0.20140071715E+02  0.20000738829E+02 0.  0.
        -11    1    3    3    0    0  0.93077914812E+01  0.36562164179E+01  0.11150145079E+01  0.10062115005E+02  0.51100000000E-03 0. -1.
         11    1    3    3    0    0 -0.93077914812E+01 -0.36562164179E+01  0.12499241759E+01  0.10077956710E+02  0.51100000000E-03 0.  1.
<mgrwt>
<rscale>  0 0.20000739E+02</rscale>
<asrwt>0</asrwt>
<pdfrwt beam="1">  1        2 0.17311546E-02 0.20000739E+02</pdfrwt>
<pdfrwt beam="2">  1       -2 0.13673179E-02 0.20000739E+02</pdfrwt>
<totfact> 0.39804281E+06</totfact>
</mgrwt>
</event>
<event>
 5    1  0.4046313E-006  0.2000027E+02  0.7818608E-02  0.1745323E+00
          2   -1    0    0  501    0  0.00000000000E+00  0.00000000000E+00  0.68803464215E+01  0.68803469128E+01  0.26000000000E-02 0.  1.
         -2   -1    0    0    0  501 -0.00000000000E+00 -0.00000000000E+00 -0.14534538284E+02  0.14534538517E+02  0.26000000000E-02 0. -1.
       1023    2    1    2    0    0  0.00000000000E+00  0.00000000000E+00 -0.76541918625E+01  0.21414885429E+02  0.20000266620E+02 0.  0.
        -11    1    3    3    0    0 -0.16101894187E+00 -0.99987261585E+01 -0.38774779319E+01  0.10725450446E+02  0.51100000000E-03 0. -1.
         11    1    3    3    0    0  0.16101894187E+00  0.99987261585E+01 -0.37767139306E+01  0.10689434983E+02  0.51100000000E-03 0.  1.
<mgrwt>
<rscale>  0 0.20000267E+02</rscale>
<asrwt>0</asrwt>
<pdfrwt beam="1">  1        2 0.10585149E-02 0.20000267E+02</pdfrwt>
<pdfrwt beam="2">  1       -2 0.22360829E-02 0.20000267E+02</pdfrwt>
<totfact> 0.38388098E+06</totfact>
</mgrwt>
</event>
<event>
 5    1  0.4046313E-006  0.2000028E+02  0.7818608E-02  0.1745322E+00
          2   -1    0    0  501    0  0.00000000000E+00  0.00000000000E+00  0.58900146630E+01  0.58900152368E+01  0.26000000000E-02 0. -1.
         -2   -1    0    0    0  501 -0.00000000000E+00 -0.00000000000E+00 -0.16978362071E+02  0.16978362270E+02  0.26000000000E-02 0.  1.
       1023    2    1    2    0    0  0.00000000000E+00  0.00000000000E+00 -0.11088347408E+02  0.22868377507E+02  0.20000281037E+02 0.  0.
        -11    1    3    3    0    0 -0.88768048197E+01  0.46048405500E+01 -0.55719428264E+01  0.11447653359E+02  0.51100000000E-03 0.  1.
         11    1    3    3    0    0  0.88768048197E+01 -0.46048405500E+01 -0.55164045813E+01  0.11420724148E+02  0.51100000000E-03 0. -1.
<mgrwt>
<rscale>  0 0.20000281E+02</rscale>
<asrwt>0</asrwt>
<pdfrwt beam="1">  1        2 0.90615616E-03 0.20000281E+02</pdfrwt>
<pdfrwt beam="2">  1       -2 0.26120558E-02 0.20000281E+02</pdfrwt>
<totfact> 0.37931782E+06</totfact>
</mgrwt>
</event>
<event>
 5    1  0.4046313E-006  0.2000587E+02  0.7818608E-02  0.1745211E+00
          2   -1    0    0  501    0  0.00000000000E+00  0.00000000000E+00  0.10641419857E+03  0.10641419860E+03  0.26000000000E-02 0. -1.
         -2   -1    0    0    0  501 -0.00000000000E+00 -0.00000000000E+00 -0.94027381144E+00  0.94027740613E+00  0.26000000000E-02 0.  1.
       1023    2    1    2    0    0  0.00000000000E+00  0.00000000000E+00  0.10547392475E+03  0.10735447600E+03  0.20005867013E+02 0.  0.
        -11    1    3    3    0    0 -0.96692375419E+01 -0.25555981668E+01  0.51755648659E+02  0.52713114165E+02  0.51100000000E-03 0.  1.
         11    1    3    3    0    0  0.96692375419E+01  0.25555981668E+01  0.53718276095E+02  0.54641361838E+02  0.51100000000E-03 0. -1.
<mgrwt>
<rscale>  0 0.20005867E+02</rscale>
<asrwt>0</asrwt>
<pdfrwt beam="1">  1        2 0.16371414E-01 0.20005867E+02</pdfrwt>
<pdfrwt beam="2">  1       -2 0.14465780E-03 0.20005867E+02</pdfrwt>
<totfact> 0.53484841E+06</totfact>
</mgrwt>
</event>
<event>
 5    1  0.4046313E-006  0.2000066E+02  0.7818608E-02  0.1745315E+00
         -2   -1    0    0    0  501 -0.00000000000E+00  0.00000000000E+00  0.37813104226E+01  0.37813113165E+01  0.26000000000E-02 0.  1.
          2   -1    0    0  501    0  0.00000000000E+00 -0.00000000000E+00 -0.26447604553E+02  0.26447604680E+02  0.26000000000E-02 0. -1.
       1023    2    1    2    0    0  0.00000000000E+00  0.00000000000E+00 -0.22666294130E+02  0.30228915997E+02  0.20000661808E+02 0.  0.
        -11    1    3    3    0    0 -0.53864415114E+01 -0.84255133600E+01 -0.11242584395E+02  0.15046552153E+02  0.51100000000E-03 0.  1.
         11    1    3    3    0    0  0.53864415114E+01  0.84255133600E+01 -0.11423709735E+02  0.15182363844E+02  0.51100000000E-03 0. -1.
<mgrwt>
<rscale>  0 0.20000662E+02</rscale>
<asrwt>0</asrwt>
<pdfrwt beam="2">  1        2 0.40688622E-02 0.20000662E+02</pdfrwt>
<pdfrwt beam="1">  1       -2 0.58174016E-03 0.20000662E+02</pdfrwt>
<totfact> 0.42795165E+06</totfact>
</mgrwt>
</event>
<event>
 5    1  0.4046313E-006  0.2000112E+02  0.7818608E-02  0.1745306E+00
          2   -1    0    0  501    0  0.00000000000E+00  0.00000000000E+00  0.12639837292E+02  0.12639837560E+02  0.26000000000E-02 0.  1.
         -2   -1    0    0    0  501 -0.00000000000E+00 -0.00000000000E+00 -0.79123830797E+01  0.79123835068E+01  0.26000000000E-02 0. -1.
       1023    2    1    2    0    0  0.00000000000E+00  0.00000000000E+00  0.47274542126E+01  0.20552221067E+02  0.20001124154E+02 0.  0.
        -11    1    3    3    0    0  0.26994139595E+01  0.96291759272E+01  0.24234387975E+01  0.10289845510E+02  0.51100000000E-03 0.  1.
         11    1    3    3    0    0 -0.26994139595E+01 -0.96291759272E+01  0.23040154152E+01  0.10262375556E+02  0.51100000000E-03 0. -1.
<mgrwt>
<rscale>  0 0.20001124E+02</rscale>
<asrwt>0</asrwt>
<pdfrwt beam="1">  1        2 0.19445904E-02 0.20001124E+02</pdfrwt>
<pdfrwt beam="2">  1       -2 0.12172898E-02 0.20001124E+02</pdfrwt>
<totfact> 0.40150246E+06</totfact>
</mgrwt>
</event>
<event>
 5    1  0.4046313E-006  0.2000235E+02  0.7818608E-02  0.1745281E+00
         -2   -1    0    0    0  501 -0.00000000000E+00  0.00000000000E+00  0.23356754804E+02  0.23356754949E+02  0.26000000000E-02 0. -1.
          2   -1    0    0  501    0  0.00000000000E+00 -0.00000000000E+00 -0.42824225335E+01  0.42824233228E+01  0.26000000000E-02 0.  1.
       1023    2    1    2    0    0  0.00000000000E+00  0.00000000000E+00  0.19074332270E+02  0.27639178271E+02  0.20002350461E+02 0.  0.
        -11    1    3    3    0    0  0.90509868795E+01  0.42538138567E+01  0.96623686991E+01  0.13905993850E+02  0.51100000000E-03 0. -1.
         11    1    3    3    0    0 -0.90509868795E+01 -0.42538138567E+01  0.94119635713E+01  0.13733184421E+02  0.51100000000E-03 0.  1.
<mgrwt>
<rscale>  0 0.20002350E+02</rscale>
<asrwt>0</asrwt>
<pdfrwt beam="2">  1        2 0.65883430E-03 0.20002350E+02</pdfrwt>
<pdfrwt beam="1">  1       -2 0.35933470E-02 0.20002350E+02</pdfrwt>
<totfact> 0.36926926E+06</totfact>
</mgrwt>
</event>
<event>
 5    1  0.4270688E-006  0.2000119E+02  0.7818608E-02  0.1745305E+00
          2   -1    0    0  501    0  0.00000000000E+00  0.00000000000E+00  0.85274197954E+02  0.85274197993E+02  0.26000000000E-02 0. -1.
         -2   -1    0    0    0  501 -0.00000000000E+00 -0.00000000000E+00 -0.11728252334E+01  0.11728281153E+01  0.26000000000E-02 0.  1.
       1023    2    1    2    0    0  0.00000000000E+00  0.00000000000E+00  0.84101372720E+02  0.86447026108E+02  0.20001185704E+02 0.  0.
        -11    1    3    3    0    0  0.50938551020E+00  0.99872200517E+01  0.41668500355E+02  0.42851697284E+02  0.51100000000E-03 0.  1.
         11    1    3    3    0    0 -0.50938551020E+00 -0.99872200517E+01  0.42432872365E+02  0.43595328825E+02  0.51100000000E-03 0. -1.
<mgrwt>
<rscale>  0 0.20001186E+02</rscale>
<asrwt>0</asrwt>
<pdfrwt beam="1">  1        2 0.13119108E-01 0.20001186E+02</pdfrwt>
<pdfrwt beam="2">  1       -2 0.18043487E-03 0.20001186E+02</pdfrwt>
<totfact> 0.50953370E+06</totfact>
</mgrwt>
</event>
<event>
 5    1  0.4271174E-006  0.2000097E+02  0.7818608E-02  0.1745309E+00
         -2   -1    0    0    0  501 -0.00000000000E+00  0.00000000000E+00  0.12715301541E+01  0.12715328123E+01  0.26000000000E-02 0.  1.
          2   -1    0    0  501    0  0.00000000000E+00 -0.00000000000E+00 -0.78652907423E+02  0.78652907466E+02  0.26000000000E-02 0. -1.
       1023    2    1    2    0    0  0.00000000000E+00  0.00000000000E+00 -0.77381377269E+02  0.79924440278E+02  0.20000965120E+02 0.  0.
        -11    1    3    3    0    0  0.96482141050E+01 -0.26308958345E+01 -0.38697455133E+02  0.39968771339E+02  0.51100000000E-03 0. -1.
         11    1    3    3    0    0 -0.96482141050E+01  0.26308958345E+01 -0.38683922136E+02  0.39955668939E+02  0.51100000000E-03 0.  1.
<mgrwt>
<rscale>  0 0.20000965E+02</rscale>
<asrwt>0</asrwt>
<pdfrwt beam="2">  1        2 0.12100444E-01 0.20000965E+02</pdfrwt>
<pdfrwt beam="1">  1       -2 0.19562029E-03 0.20000965E+02</pdfrwt>
<totfact> 0.50124059E+06</totfact>
</mgrwt>
</event>
<event>
 5    1  0.4046313E-006  0.2000048E+02  0.7818608E-02  0.1745319E+00
         -2   -1    0    0    0  501 -0.00000000000E+00  0.00000000000E+00  0.60459368752E+01  0.60459374343E+01  0.26000000000E-02 0. -1.
          2   -1    0    0  501    0  0.00000000000E+00 -0.00000000000E+00 -0.16540819202E+02  0.16540819406E+02  0.26000000000E-02 0.  1.
       1023    2    1    2    0    0  0.00000000000E+00  0.00000000000E+00 -0.10494882326E+02  0.22586756840E+02  0.20000475732E+02 0.  0.
        -11    1    3    3    0    0 -0.14512790294E+01 -0.98941785821E+01 -0.53168407980E+01  0.11325624794E+02  0.51100000000E-03 0.  1.
         11    1    3    3    0    0  0.14512790294E+01  0.98941785821E+01 -0.51780415283E+01  0.11261132046E+02  0.51100000000E-03 0. -1.
<mgrwt>
<rscale>  0 0.20000476E+02</rscale>
<asrwt>0</asrwt>
<pdfrwt beam="2">  1        2 0.25447415E-02 0.20000476E+02</pdfrwt>
<pdfrwt beam="1">  1       -2 0.93014420E-03 0.20000476E+02</pdfrwt>
<totfact> 0.41008537E+06</totfact>
</mgrwt>
</event>
<event>
 4    1  0.4046313E-006  0.2005484E+02  0.7818608E-02  0.1744240E+00
         -2   -1    0    0    0  501 -0.00000000000E+00  0.00000000000E+00  0.36553944354E+02  0.36553944447E+02  0.26000000000E-02 0. -1.
          2   -1    0    0  501    0  0.00000000000E+00 -0.00000000000E+00 -0.27507057473E+01  0.27507069760E+01  0.26000000000E-02 0.  1.
        -11    1    1    2    0    0  0.20002340417E+01 -0.98009418925E+01  0.18273201460E+02  0.20831929581E+02  0.51100000000E-03 0. -1.
         11    1    1    2    0    0 -0.20002340417E+01  0.98009418925E+01  0.15530037147E+02  0.18472721842E+02  0.51100000000E-03 0.  1.
<mgrwt>
<rscale>  0 0.20054842E+02</rscale>
<asrwt>0</asrwt>
<pdfrwt beam="2">  1        2 0.42318562E-03 0.20054842E+02</pdfrwt>
<pdfrwt beam="1">  1       -2 0.56236835E-02 0.20054842E+02</pdfrwt>
<totfact> 0.35087199E+06</totfact>
</mgrwt>
</event>
<event>
 4    1  0.4046313E-006  0.2002601E+02  0.7818608E-02  0.1744811E+00
          2   -1    0    0  501    0  0.00000000000E+00  0.00000000000E+00  0.30737929789E+02  0.30737929899E+02  0.26000000000E-02 0. -1.
         -2   -1    0    0    0  501 -0.00000000000E+00 -0.00000000000E+00 -0.32617774462E+01  0.32617784825E+01  0.26000000000E-02 0.  1.
        -11    1    1    2    0    0  0.11340281304E+01  0.99482755586E+01  0.13605486817E+02  0.16892704880E+02  0.51100000000E-03 0. -1.
         11    1    1    2    0    0 -0.11340281304E+01 -0.99482755586E+01  0.13870665526E+02  0.17107003501E+02  0.51100000000E-03 0.  1.
<mgrwt>
<rscale>  0 0.20026014E+02</rscale>
<asrwt>0</asrwt>
<pdfrwt beam="1">  1        2 0.47289126E-02 0.20026014E+02</pdfrwt>
<pdfrwt beam="2">  1       -2 0.50181197E-03 0.20026014E+02</pdfrwt>
<totfact> 0.43363406E+06</totfact>
</mgrwt>
</event>
<event>
 5    1  0.4046313E-006  0.2000100E+02  0.7818608E-02  0.1745308E+00
          2   -1    0    0  501    0  0.00000000000E+00  0.00000000000E+00  0.17087562000E+01  0.17087581780E+01  0.26000000000E-02 0. -1.
         -2   -1    0    0    0  501 -0.00000000000E+00 -0.00000000000E+00 -0.58527912542E+02  0.58527912600E+02  0.26000000000E-02 0.  1.
       1023    2    1    2    0    0  0.00000000000E+00  0.00000000000E+00 -0.56819156342E+02  0.60236670778E+02  0.20000999449E+02 0.  0.
        -11    1    3    3    0    0  0.98764191172E+01 -0.15696891649E+01 -0.28557605669E+02  0.30257964579E+02  0.51100000000E-03 0. -1.
         11    1    3    3    0    0 -0.98764191172E+01  0.15696891649E+01 -0.28261550673E+02  0.29978706199E+02  0.51100000000E-03 0.  1.
<mgrwt>
<rscale>  0 0.20000999E+02</rscale>
<asrwt>0</asrwt>
<pdfrwt beam="1">  1        2 0.26288577E-03 0.20000999E+02</pdfrwt>
<pdfrwt beam="2">  1       -2 0.90042928E-02 0.20000999E+02</pdfrwt>
<totfact> 0.33090439E+06</totfact>
</mgrwt>
</event>
<event>
 4    1  0.4046313E-006  0.2005833E+02  0.7818608E-02  0.1744171E+00
          2   -1    0    0  501    0  0.00000000000E+00  0.00000000000E+00  0.57814212915E+01  0.57814218761E+01  0.26000000000E-02 0.  1.
         -2   -1    0    0    0  501 -0.00000000000E+00 -0.00000000000E+00 -0.17397829650E+02  0.17397829845E+02  0.26000000000E-02 0. -1.
        -11    1    1    2    0    0 -0.81622520671E+01  0.58274671928E+01 -0.57509021663E+01  0.11560908644E+02  0.51100000000E-03 0.  1.
         11    1    1    2    0    0  0.81622520671E+01 -0.58274671928E+01 -0.58655061927E+01  0.11618343077E+02  0.51100000000E-03 0. -1.
<mgrwt>
<rscale>  0 0.20058334E+02</rscale>
<asrwt>0</asrwt>
<pdfrwt beam="1">  1        2 0.88944950E-03 0.20058334E+02</pdfrwt>
<pdfrwt beam="2">  1       -2 0.26765892E-02 0.20058334E+02</pdfrwt>
<totfact> 0.37621953E+06</totfact>
</mgrwt>
</event>
<event>
 5    1  0.4046313E-006  0.2000017E+02  0.7818608E-02  0.1745325E+00
          2   -1    0    0  501    0  0.00000000000E+00  0.00000000000E+00  0.91498188034E+02  0.91498188071E+02  0.26000000000E-02 0. -1.
         -2   -1    0    0    0  501 -0.00000000000E+00 -0.00000000000E+00 -0.10929348353E+01  0.10929379279E+01  0.26000000000E-02 0.  1.
       1023    2    1    2    0    0  0.00000000000E+00  0.00000000000E+00  0.90405253199E+02  0.92591125999E+02  0.20000170195E+02 0.  0.
        -11    1    3    3    0    0 -0.96954094263E+01 -0.24496351737E+01  0.45179356799E+02  0.46272842548E+02  0.51100000000E-03 0. -1.
         11    1    3    3    0    0  0.96954094263E+01  0.24496351737E+01  0.45225896400E+02  0.46318283451E+02  0.51100000000E-03 0.  1.
<mgrwt>
<rscale>  0 0.20000170E+02</rscale>
<asrwt>0</asrwt>
<pdfrwt beam="1">  1        2 0.14076644E-01 0.20000170E+02</pdfrwt>
<pdfrwt beam="2">  1       -2 0.16814407E-03 0.20000170E+02</pdfrwt>
<totfact> 0.51727556E+06</totfact>
</mgrwt>
</event>
<event>
 5    1  0.4046313E-006  0.2000165E+02  0.7818608E-02  0.1745295E+00
         -2   -1    0    0    0  501 -0.00000000000E+00  0.00000000000E+00  0.55961103058E+01  0.55961109098E+01  0.26000000000E-02 0.  1.
          2   -1    0    0  501    0  0.00000000000E+00 -0.00000000000E+00 -0.17872510248E+02  0.17872510437E+02  0.26000000000E-02 0. -1.
       1023    2    1    2    0    0  0.00000000000E+00  0.00000000000E+00 -0.12276399942E+02  0.23468621347E+02  0.20001654741E+02 0.  0.
        -11    1    3    3    0    0  0.36094677916E+00  0.99939680101E+01 -0.60409570648E+01  0.11683443058E+02  0.51100000000E-03 0.  1.
         11    1    3    3    0    0 -0.36094677916E+00 -0.99939680101E+01 -0.62354428770E+01  0.11785178289E+02  0.51100000000E-03 0. -1.
<mgrwt>
<rscale>  0 0.20001655E+02</rscale>
<asrwt>0</asrwt>
<pdfrwt beam="2">  1        2 0.27496170E-02 0.20001655E+02</pdfrwt>
<pdfrwt beam="1">  1       -2 0.86094012E-03 0.20001655E+02</pdfrwt>
<totfact> 0.41267583E+06</totfact>
</mgrwt>
</event>
<event>
 5    1  0.4046313E-006  0.2000072E+02  0.7818608E-02  0.1745314E+00
          2   -1    0    0  501    0  0.00000000000E+00  0.00000000000E+00  0.59031978272E+02  0.59031978329E+02  0.26000000000E-02 0. -1.
         -2   -1    0    0    0  501 -0.00000000000E+00 -0.00000000000E+00 -0.16941184171E+01  0.16941204122E+01  0.26000000000E-02 0.  1.
       1023    2    1    2    0    0  0.00000000000E+00  0.00000000000E+00  0.57337859855E+02  0.60726098742E+02  0.20000722378E+02 0.  0.
        -11    1    3    3    0    0 -0.49930172726E+01  0.86644387681E+01  0.28465187997E+02  0.30170675309E+02  0.51100000000E-03 0.  1.
         11    1    3    3    0    0  0.49930172726E+01 -0.86644387681E+01  0.28872671858E+02  0.30555423432E+02  0.51100000000E-03 0. -1.
<mgrwt>
<rscale>  0 0.20000722E+02</rscale>
<asrwt>0</asrwt>
<pdfrwt beam="1">  1        2 0.90818437E-02 0.20000722E+02</pdfrwt>
<pdfrwt beam="2">  1       -2 0.26063374E-03 0.20000722E+02</pdfrwt>
<totfact> 0.47563487E+06</totfact>
</mgrwt>
</event>
<event>
 5    1  0.4046313E-006  0.2000007E+02  0.7818608E-02  0.1745327E+00
         -2   -1    0    0    0  501 -0.00000000000E+00  0.00000000000E+00  0.10025930803E+01  0.10025964516E+01  0.26000000000E-02 0. -1.
          2   -1    0    0  501    0  0.00000000000E+00 -0.00000000000E+00 -0.99741874734E+02  0.99741874767E+02  0.26000000000E-02 0.  1.
       1023    2    1    2    0    0  0.00000000000E+00  0.00000000000E+00 -0.98739281653E+02  0.10074447122E+03  0.20000068495E+02 0.  0.
        -11    1    3    3    0    0  0.60793654466E+01 -0.79398592612E+01 -0.49496611216E+02  0.50496678816E+02  0.51100000000E-03 0. -1.
         11    1    3    3    0    0 -0.60793654466E+01  0.79398592612E+01 -0.49242670437E+02  0.50247792403E+02  0.51100000000E-03 0.  1.
<mgrwt>
<rscale>  0 0.20000068E+02</rscale>
<asrwt>0</asrwt>
<pdfrwt beam="2">  1        2 0.15344896E-01 0.20000068E+02</pdfrwt>
<pdfrwt beam="1">  1       -2 0.15424543E-03 0.20000068E+02</pdfrwt>
<totfact> 0.52726631E+06</totfact>
</mgrwt>
</event>
<event>
 5    1  0.4046313E-006  0.2000020E+02  0.7818608E-02  0.1745324E+00
         -2   -1    0    0    0  501 -0.00000000000E+00  0.00000000000E+00  0.75528481476E+02  0.75528481521E+02  0.26000000000E-02 0. -1.
          2   -1    0    0  501    0  0.00000000000E+00 -0.00000000000E+00 -0.13240293380E+01  0.13240318908E+01  0.26000000000E-02 0.  1.
       1023    2    1    2    0    0  0.00000000000E+00  0.00000000000E+00  0.74204452138E+02  0.76852513411E+02  0.20000202513E+02 0.  0.
        -11    1    3    3    0    0  0.60496079874E+00 -0.99817465809E+01  0.37209715913E+02  0.38530042836E+02  0.51100000000E-03 0.  1.
         11    1    3    3    0    0 -0.60496079874E+00  0.99817465809E+01  0.36994736225E+02  0.38322470576E+02  0.51100000000E-03 0. -1.
<mgrwt>
<rscale>  0 0.20000203E+02</rscale>
<asrwt>0</asrwt>
<pdfrwt beam="2">  1        2 0.20369701E-03 0.20000203E+02</pdfrwt>
<pdfrwt beam="1">  1       -2 0.11619767E-01 0.20000203E+02</pdfrwt>
<totfact> 0.31620384E+06</totfact>
</mgrwt>
</event>
<event>
 5    1  0.4046313E-006  0.2000161E+02  0.7818608E-02  0.1745296E+00
          2   -1    0    0  501    0  0.00000000000E+00  0.00000000000E+00  0.36544472158E+02  0.36544472250E+02  0.26000000000E-02 0. -1.
         -2   -1    0    0    0  501 -0.00000000000E+00 -0.00000000000E+00 -0.27368319233E+01  0.27368331583E+01  0.26000000000E-02 0.  1.
       1023    2    1    2    0    0  0.00000000000E+00  0.00000000000E+00  0.33807640234E+02  0.39281305408E+02  0.20001610345E+02 0.  0.
        -11    1    3    3    0    0  0.58045837696E+01  0.81438180768E+01  0.16837562546E+02  0.19583627814E+02  0.51100000000E-03 0. -1.
         11    1    3    3    0    0 -0.58045837696E+01 -0.81438180768E+01  0.16970077688E+02  0.19697677594E+02  0.51100000000E-03 0.  1.
<mgrwt>
<rscale>  0 0.20001610E+02</rscale>
<asrwt>0</asrwt>
<pdfrwt beam="1">  1        2 0.56222260E-02 0.20001610E+02</pdfrwt>
<pdfrwt beam="2">  1       -2 0.42105121E-03 0.20001610E+02</pdfrwt>
<totfact> 0.44374622E+06</totfact>
</mgrwt>
</event>
<event>
 5    1  0.4046313E-006  0.2000040E+02  0.7818608E-02  0.1745320E+00
          2   -1    0    0  501    0  0.00000000000E+00  0.00000000000E+00  0.13971944034E+02  0.13971944276E+02  0.26000000000E-02 0.  1.
         -2   -1    0    0    0  501 -0.00000000000E+00 -0.00000000000E+00 -0.71574877918E+01  0.71574882640E+01  0.26000000000E-02 0. -1.
       1023    2    1    2    0    0  0.00000000000E+00  0.00000000000E+00  0.68144562423E+01  0.21129432540E+02  0.20000402636E+02 0.  0.
        -11    1    3    3    0    0  0.42444315705E+01  0.90547530978E+01  0.34246872493E+01  0.10570347016E+02  0.51100000000E-03 0. -1.
         11    1    3    3    0    0 -0.42444315705E+01 -0.90547530978E+01  0.33897689931E+01  0.10559085524E+02  0.51100000000E-03 0.  1.
<mgrwt>
<rscale>  0 0.20000403E+02</rscale>
<asrwt>0</asrwt>
<pdfrwt beam="1">  1        2 0.21495299E-02 0.20000403E+02</pdfrwt>
<pdfrwt beam="2">  1       -2 0.11011520E-02 0.20000403E+02</pdfrwt>
<totfact> 0.40462366E+06</totfact>
</mgrwt>
</event>
<event>
 5    1  0.4359901E-006  0.2000050E+02  0.7818608E-02  0.1745318E+00
          2   -1    0    0  501    0  0.00000000000E+00  0.00000000000E+00  0.11303826466E+03  0.11303826469E+03  0.26000000000E-02 0. -1.
         -2   -1    0    0    0  501 -0.00000000000E+00 -0.00000000000E+00 -0.88469862181E+00  0.88470244231E+00  0.26000000000E-02 0.  1.
       1023    2    1    2    0    0  0.00000000000E+00  0.00000000000E+00  0.11215356604E+03  0.11392296714E+03  0.20000501622E+02 0.  0.
        -11    1    3    3    0    0  0.97208202583E+01  0.23473353273E+01  0.56226013032E+02  0.57108395805E+02  0.51100000000E-03 0.  1.
         11    1    3    3    0    0 -0.97208202583E+01 -0.23473353273E+01  0.55927553010E+02  0.56814571332E+02  0.51100000000E-03 0. -1.
<mgrwt>
<rscale>  0 0.20000502E+02</rscale>
<asrwt>0</asrwt>
<pdfrwt beam="1">  1        2 0.17390500E-01 0.20000502E+02</pdfrwt>
<pdfrwt beam="2">  1       -2 0.13610780E-03 0.20000502E+02</pdfrwt>
<totfact> 0.54289700E+06</totfact>
</mgrwt>
</event>
<event>
 5    1  0.4046313E-006  0.2000002E+02  0.7818608E-02  0.1745328E+00
          2   -1    0    0  501    0  0.00000000000E+00  0.00000000000E+00  0.85846958909E+00  0.85847352632E+00  0.26000000000E-02 0. -1.
         -2   -1    0    0    0  501 -0.00000000000E+00 -0.00000000000E+00 -0.11648627340E+03  0.11648627343E+03  0.26000000000E-02 0.  1.
       1023    2    1    2    0    0  0.00000000000E+00  0.00000000000E+00 -0.11562780381E+03  0.11734474696E+03  0.20000015597E+02 0.  0.
        -11    1    3    3    0    0  0.25458542488E+01  0.96705106644E+01 -0.57800338168E+02  0.58659008199E+02  0.51100000000E-03 0. -1.
         11    1    3    3    0    0 -0.25458542488E+01 -0.96705106644E+01 -0.57827465646E+02  0.58685738759E+02  0.51100000000E-03 0.  1.
<mgrwt>
<rscale>  0 0.20000016E+02</rscale>
<asrwt>0</asrwt>
<pdfrwt beam="1">  1        2 0.13207264E-03 0.20000016E+02</pdfrwt>
<pdfrwt beam="2">  1       -2 0.17920953E-01 0.20000016E+02</pdfrwt>
<totfact> 0.28576347E+06</totfact>
</mgrwt>
</event>
<event>
 4    1  0.4046313E-006  0.2008586E+02  0.7818608E-02  0.1743626E+00
          2   -1    0    0  501    0  0.00000000000E+00  0.00000000000E+00  0.47877327323E+02  0.47877327393E+02  0.26000000000E-02 0. -1.
         -2   -1    0    0    0  501 -0.00000000000E+00 -0.00000000000E+00 -0.21066425888E+01  0.21066441932E+01  0.26000000000E-02 0.  1.
        -11    1    1    2    0    0  0.59575223691E+01 -0.80764887601E+01  0.21958508571E+02  0.24143277374E+02  0.51100000000E-03 0.  1.
         11    1    1    2    0    0 -0.59575223691E+01  0.80764887601E+01  0.23812176163E+02  0.25840694212E+02  0.51100000000E-03 0. -1.
<mgrwt>
<rscale>  0 0.20085862E+02</rscale>
<asrwt>0</asrwt>
<pdfrwt beam="1">  1        2 0.73657417E-02 0.20085862E+02</pdfrwt>
<pdfrwt beam="2">  1       -2 0.32409904E-03 0.20085862E+02</pdfrwt>
<totfact> 0.45592587E+06</totfact>
</mgrwt>
</event>
<event>
 5    1  0.4046313E-006  0.2000712E+02  0.7818608E-02  0.1745187E+00
          2   -1    0    0  501    0  0.00000000000E+00  0.00000000000E+00  0.10580525034E+02  0.10580525353E+02  0.26000000000E-02 0. -1.
         -2   -1    0    0    0  501 -0.00000000000E+00 -0.00000000000E+00 -0.94580525303E+01  0.94580528877E+01  0.26000000000E-02 0.  1.
       1023    2    1    2    0    0  0.00000000000E+00  0.00000000000E+00  0.11224725036E+01  0.20038578241E+02  0.20007115569E+02 0.  0.
        -11    1    3    3    0    0  0.35124614033E-01 -0.10003253513E+02  0.49145963596E+00  0.10015380543E+02  0.51100000000E-03 0. -1.
         11    1    3    3    0    0 -0.35124614033E-01  0.10003253513E+02  0.63101286766E+00  0.10023197698E+02  0.51100000000E-03 0.  1.
<mgrwt>
<rscale>  0 0.20007116E+02</rscale>
<asrwt>0</asrwt>
<pdfrwt beam="1">  1        2 0.16277731E-02 0.20007116E+02</pdfrwt>
<pdfrwt beam="2">  1       -2 0.14550851E-02 0.20007116E+02</pdfrwt>
<totfact> 0.39594886E+06</totfact>
</mgrwt>
</event>
<event>
 5    1  0.4046313E-006  0.2000188E+02  0.7818608E-02  0.1745291E+00
          2   -1    0    0  501    0  0.00000000000E+00  0.00000000000E+00  0.24451129866E+02  0.24451130004E+02  0.26000000000E-02 0.  1.
         -2   -1    0    0    0  501 -0.00000000000E+00 -0.00000000000E+00 -0.40905574863E+01  0.40905583126E+01  0.26000000000E-02 0. -1.
       1023    2    1    2    0    0  0.00000000000E+00  0.00000000000E+00  0.20360572380E+02  0.28541688317E+02  0.20001876521E+02 0.  0.
        -11    1    3    3    0    0 -0.95940873367E+01  0.28235144749E+01  0.10186669492E+02  0.14275397767E+02  0.51100000000E-03 0.  1.
         11    1    3    3    0    0  0.95940873367E+01 -0.28235144749E+01  0.10173902888E+02  0.14266290550E+02  0.51100000000E-03 0. -1.
<mgrwt>
<rscale>  0 0.20001877E+02</rscale>
<asrwt>0</asrwt>
<pdfrwt beam="1">  1        2 0.37617125E-02 0.20001877E+02</pdfrwt>
<pdfrwt beam="2">  1       -2 0.62931659E-03 0.20001877E+02</pdfrwt>
<totfact> 0.42454780E+06</totfact>
</mgrwt>
</event>
<event>
 4    1  0.4046313E-006  0.2002085E+02  0.7818608E-02  0.1744914E+00
         -2   -1    0    0    0  501 -0.00000000000E+00  0.00000000000E+00  0.57244737009E+02  0.57244737068E+02  0.26000000000E-02 0.  1.
          2   -1    0    0  501    0  0.00000000000E+00 -0.00000000000E+00 -0.17505290083E+01  0.17505309392E+01  0.26000000000E-02 0. -1.
        -11    1    1    2    0    0  0.99969668829E+01 -0.43087568431E+00  0.26894952559E+02  0.28696053285E+02  0.51100000000E-03 0. -1.
         11    1    1    2    0    0 -0.99969668829E+01  0.43087568431E+00  0.28599255441E+02  0.30299214722E+02  0.51100000000E-03 0.  1.
<mgrwt>
<rscale>  0 0.20020852E+02</rscale>
<asrwt>0</asrwt>
<pdfrwt beam="2">  1        2 0.26931234E-03 0.20020852E+02</pdfrwt>
<pdfrwt beam="1">  1       -2 0.88068817E-02 0.20020852E+02</pdfrwt>
<totfact> 0.33136411E+06</totfact>
</mgrwt>
</event>
<event>
 5    1  0.4143954E-006  0.2000150E+02  0.7818608E-02  0.1745298E+00
         -2   -1    0    0    0  501 -0.00000000000E+00  0.00000000000E+00  0.16573933042E+01  0.16573953436E+01  0.26000000000E-02 0. -1.
          2   -1    0    0  501    0  0.00000000000E+00 -0.00000000000E+00 -0.60344721641E+02  0.60344721697E+02  0.26000000000E-02 0.  1.
       1023    2    1    2    0    0  0.00000000000E+00  0.00000000000E+00 -0.58687328337E+02  0.62002117040E+02  0.20001500199E+02 0.  0.
        -11    1    3    3    0    0 -0.58389934077E+01 -0.81185358449E+01 -0.29661820680E+02  0.31302205587E+02  0.51100000000E-03 0.  1.
         11    1    3    3    0    0  0.58389934077E+01  0.81185358449E+01 -0.29025507657E+02  0.30699911454E+02  0.51100000000E-03 0. -1.
<mgrwt>
<rscale>  0 0.20001500E+02</rscale>
<asrwt>0</asrwt>
<pdfrwt beam="2">  1        2 0.92838018E-02 0.20001500E+02</pdfrwt>
<pdfrwt beam="1">  1       -2 0.25498379E-03 0.20001500E+02</pdfrwt>
<totfact> 0.47736110E+06</totfact>
</mgrwt>
</event>
<event>
 5    1  0.4046313E-006  0.2000070E+02  0.7818608E-02  0.1745314E+00
          2   -1    0    0  501    0  0.00000000000E+00  0.00000000000E+00  0.11601950494E+03  0.11601950497E+03  0.26000000000E-02 0.  1.
         -2   -1    0    0    0  501 -0.00000000000E+00 -0.00000000000E+00 -0.86198277902E+00  0.86198670021E+00  0.26000000000E-02 0. -1.
       1023    2    1    2    0    0  0.00000000000E+00  0.00000000000E+00  0.11515752217E+03  0.11688149167E+03  0.20000704603E+02 0.  0.
        -11    1    3    3    0    0  0.44601410281E+01  0.89506528676E+01  0.57572510520E+02  0.58434587469E+02  0.51100000000E-03 0.  1.
         11    1    3    3    0    0 -0.44601410281E+01 -0.89506528676E+01  0.57585011645E+02  0.58446904205E+02  0.51100000000E-03 0. -1.
<mgrwt>
<rscale>  0 0.20000705E+02</rscale>
<asrwt>0</asrwt>
<pdfrwt beam="1">  1        2 0.17849147E-01 0.20000705E+02</pdfrwt>
<pdfrwt beam="2">  1       -2 0.13261310E-03 0.20000705E+02</pdfrwt>
<totfact> 0.54632466E+06</totfact>
</mgrwt>
</event>
<event>
 5    1  0.4046313E-006  0.2000038E+02  0.7818608E-02  0.1745321E+00
          2   -1    0    0  501    0  0.00000000000E+00  0.00000000000E+00  0.83397935076E+00  0.83398340361E+00  0.26000000000E-02 0. -1.
         -2   -1    0    0    0  501 -0.00000000000E+00 -0.00000000000E+00 -0.11991131350E+03  0.11991131353E+03  0.26000000000E-02 0.  1.
       1023    2    1    2    0    0  0.00000000000E+00  0.00000000000E+00 -0.11907733415E+03  0.12074529693E+03  0.20000380573E+02 0.  0.
        -11    1    3    3    0    0 -0.90776864482E+01 -0.41950656100E+01 -0.59363820785E+02  0.60200217485E+02  0.51100000000E-03 0. -1.
         11    1    3    3    0    0  0.90776864482E+01  0.41950656100E+01 -0.59713513366E+02  0.60545079449E+02  0.51100000000E-03 0.  1.
<mgrwt>
<rscale>  0 0.20000381E+02</rscale>
<asrwt>0</asrwt>
<pdfrwt beam="1">  1        2 0.12830492E-03 0.20000381E+02</pdfrwt>
<pdfrwt beam="2">  1       -2 0.18447881E-01 0.20000381E+02</pdfrwt>
<totfact> 0.28345837E+06</totfact>
</mgrwt>
</event>
<event>
 4    1  0.4046313E-006  0.2024623E+02  0.7818608E-02  0.1740475E+00
         -2   -1    0    0    0  501 -0.00000000000E+00  0.00000000000E+00  0.10980299443E+02  0.10980299751E+02  0.26000000000E-02 0.  1.
          2   -1    0    0  501    0  0.00000000000E+00 -0.00000000000E+00 -0.93328462920E+01  0.93328466542E+01  0.26000000000E-02 0. -1.
        -11    1    1    2    0    0 -0.19803943544E+01 -0.99182044600E+01  0.39252477531E+00  0.10121601527E+02  0.51100000000E-03 0.  1.
         11    1    1    2    0    0  0.19803943544E+01  0.99182044600E+01  0.12549283754E+01  0.10191544878E+02  0.51100000000E-03 0. -1.
<mgrwt>
<rscale>  0 0.20246230E+02</rscale>
<asrwt>0</asrwt>
<pdfrwt beam="2">  1        2 0.14358226E-02 0.20246230E+02</pdfrwt>
<pdfrwt beam="1">  1       -2 0.16892769E-02 0.20246230E+02</pdfrwt>
<totfact> 0.38178866E+06</totfact>
</mgrwt>
</event>
<event>
 5    1  0.4046313E-006  0.2000488E+02  0.7818608E-02  0.1745231E+00
          2   -1    0    0  501    0  0.00000000000E+00  0.00000000000E+00  0.26258548111E+01  0.26258560983E+01  0.26000000000E-02 0.  1.
         -2   -1    0    0    0  501 -0.00000000000E+00 -0.00000000000E+00 -0.38101411583E+02  0.38101411672E+02  0.26000000000E-02 0. -1.
       1023    2    1    2    0    0  0.00000000000E+00  0.00000000000E+00 -0.35475556772E+02  0.40727267770E+02  0.20004879698E+02 0.  0.
        -11    1    3    3    0    0  0.39493978024E+01  0.91876815009E+01 -0.17343175593E+02  0.20019914442E+02  0.51100000000E-03 0.  1.
         11    1    3    3    0    0 -0.39493978024E+01 -0.91876815009E+01 -0.18132381179E+02  0.20707353328E+02  0.51100000000E-03 0. -1.
<mgrwt>
<rscale>  0 0.20004880E+02</rscale>
<asrwt>0</asrwt>
<pdfrwt beam="1">  1        2 0.40397780E-03 0.20004880E+02</pdfrwt>
<pdfrwt beam="2">  1       -2 0.58617553E-02 0.20004880E+02</pdfrwt>
<totfact> 0.35107658E+06</totfact>
</mgrwt>
</event>
<event>
 5    1  0.4127558E-006  0.2000109E+02  0.7818608E-02  0.1745306E+00
         -2   -1    0    0    0  501 -0.00000000000E+00  0.00000000000E+00  0.18549720395E+01  0.18549738616E+01  0.26000000000E-02 0. -1.
          2   -1    0    0  501    0  0.00000000000E+00 -0.00000000000E+00 -0.53915008498E+02  0.53915008560E+02  0.26000000000E-02 0.  1.
       1023    2    1    2    0    0  0.00000000000E+00  0.00000000000E+00 -0.52060036458E+02  0.55769982422E+02  0.20001088553E+02 0.  0.
        -11    1    3    3    0    0  0.68895167715E+01 -0.72487653743E+01 -0.26111061455E+02  0.27960643258E+02  0.51100000000E-03 0. -1.
         11    1    3    3    0    0 -0.68895167715E+01  0.72487653743E+01 -0.25948975003E+02  0.27809339164E+02  0.51100000000E-03 0.  1.
<mgrwt>
<rscale>  0 0.20001089E+02</rscale>
<asrwt>0</asrwt>
<pdfrwt beam="2">  1        2 0.82946157E-02 0.20001089E+02</pdfrwt>
<pdfrwt beam="1">  1       -2 0.28538050E-03 0.20001089E+02</pdfrwt>
<totfact> 0.46864975E+06</totfact>
</mgrwt>
</event>
<event>
 5    1  0.4046313E-006  0.2000017E+02  0.7818608E-02  0.1745325E+00
         -2   -1    0    0    0  501 -0.00000000000E+00  0.00000000000E+00  0.13930773481E+02  0.13930773724E+02  0.26000000000E-02 0. -1.
          2   -1    0    0  501    0  0.00000000000E+00 -0.00000000000E+00 -0.71784732485E+01  0.71784737193E+01  0.26000000000E-02 0.  1.
       1023    2    1    2    0    0  0.00000000000E+00  0.00000000000E+00  0.67523002327E+01  0.21109247443E+02  0.20000169229E+02 0.  0.
        -11    1    3    3    0    0 -0.40055454739E+01 -0.91627949910E+01  0.33528955107E+01  0.10547185177E+02  0.51100000000E-03 0. -1.
         11    1    3    3    0    0  0.40055454739E+01  0.91627949910E+01  0.33994047221E+01  0.10562062266E+02  0.51100000000E-03 0.  1.
<mgrwt>
<rscale>  0 0.20000169E+02</rscale>
<asrwt>0</asrwt>
<pdfrwt beam="2">  1        2 0.11043806E-02 0.20000169E+02</pdfrwt>
<pdfrwt beam="1">  1       -2 0.21431960E-02 0.20000169E+02</pdfrwt>
<totfact> 0.38511169E+06</totfact>
</mgrwt>
</event>
<event>
 5    1  0.4046313E-006  0.2000087E+02  0.7818608E-02  0.1745311E+00
         -2   -1    0    0    0  501 -0.00000000000E+00  0.00000000000E+00  0.88204606706E+01  0.88204610538E+01  0.26000000000E-02 0.  1.
          2   -1    0    0  501    0  0.00000000000E+00 -0.00000000000E+00 -0.11338257858E+02  0.11338258156E+02  0.26000000000E-02 0. -1.
       1023    2    1    2    0    0  0.00000000000E+00  0.00000000000E+00 -0.25177971872E+01  0.20158719210E+02  0.20000866419E+02 0.  0.
        -11    1    3    3    0    0 -0.57145335594E+01 -0.82065636589E+01 -0.11870391498E+01  0.10070384456E+02  0.51100000000E-03 0.  1.
         11    1    3    3    0    0  0.57145335594E+01  0.82065636589E+01 -0.13307580375E+01  0.10088334754E+02  0.51100000000E-03 0. -1.
<mgrwt>
<rscale>  0 0.20000866E+02</rscale>
<asrwt>0</asrwt>
<pdfrwt beam="2">  1        2 0.17443474E-02 0.20000866E+02</pdfrwt>
<pdfrwt beam="1">  1       -2 0.13569940E-02 0.20000866E+02</pdfrwt>
<totfact> 0.39826112E+06</totfact>
</mgrwt>
</event>
<event>
 4    1  0.4046313E-006  0.2008934E+02  0.7818608E-02  0.1743557E+00
         -2   -1    0    0    0  501 -0.00000000000E+00  0.00000000000E+00  0.13134461092E+01  0.13134486826E+01  0.26000000000E-02 0.  1.
          2   -1    0    0  501    0  0.00000000000E+00 -0.00000000000E+00 -0.76817198381E+02  0.76817198425E+02  0.26000000000E-02 0. -1.
        -11    1    1    2    0    0  0.35405990094E+01  0.93948000394E+01 -0.36539086552E+02  0.37893310167E+02  0.51100000000E-03 0. -1.
         11    1    1    2    0    0 -0.35405990094E+01 -0.93948000394E+01 -0.38964665721E+02  0.40237336941E+02  0.51100000000E-03 0.  1.
<mgrwt>
<rscale>  0 0.20089336E+02</rscale>
<asrwt>0</asrwt>
<pdfrwt beam="2">  1        2 0.11818027E-01 0.20089336E+02</pdfrwt>
<pdfrwt beam="1">  1       -2 0.20206889E-03 0.20089336E+02</pdfrwt>
<totfact> 0.49406247E+06</totfact>
</mgrwt>
</event>
<event>
 5    1  0.4046313E-006  0.2000062E+02  0.7818608E-02  0.1745316E+00
          2   -1    0    0  501    0  0.00000000000E+00  0.00000000000E+00  0.44125800094E+02  0.44125800170E+02  0.26000000000E-02 0.  1.
         -2   -1    0    0    0  501 -0.00000000000E+00 -0.00000000000E+00 -0.22663868389E+01  0.22663883303E+01  0.26000000000E-02 0. -1.
       1023    2    1    2    0    0  0.00000000000E+00  0.00000000000E+00  0.41859413255E+02  0.46392188501E+02  0.20000616887E+02 0.  0.
        -11    1    3    3    0    0  0.40064134384E+01 -0.91626806216E+01  0.20906064900E+02  0.23174762452E+02  0.51100000000E-03 0. -1.
         11    1    3    3    0    0 -0.40064134384E+01  0.91626806216E+01  0.20953348355E+02  0.23217426049E+02  0.51100000000E-03 0.  1.
<mgrwt>
<rscale>  0 0.20000617E+02</rscale>
<asrwt>0</asrwt>
<pdfrwt beam="1">  1        2 0.67885846E-02 0.20000617E+02</pdfrwt>
<pdfrwt beam="2">  1       -2 0.34867502E-03 0.20000617E+02</pdfrwt>
<totfact> 0.45492834E+06</totfact>
</mgrwt>
</event>
<event>
 5    1  0.4046313E-006  0.2000062E+02  0.7818608E-02  0.1745316E+00
         -2   -1    0    0    0  501 -0.00000000000E+00  0.00000000000E+00  0.61268092500E+02  0.61268092556E+02  0.26000000000E-02 0.  1.
          2   -1    0    0  501    0  0.00000000000E+00 -0.00000000000E+00 -0.16322710133E+01  0.16322730840E+01  0.26000000000E-02 0. -1.
       1023    2    1    2    0    0  0.00000000000E+00  0.00000000000E+00  0.59635821487E+02  0.62900365639E+02  0.20000619819E+02 0.  0.
        -11    1    3    3    0    0 -0.14832540906E+01 -0.98894252143E+01  0.30049532782E+02  0.31669783619E+02  0.51100000000E-03 0.  1.
         11    1    3    3    0    0  0.14832540906E+01  0.98894252143E+01  0.29586288705E+02  0.31230582021E+02  0.51100000000E-03 0. -1.
<mgrwt>
<rscale>  0 0.20000620E+02</rscale>
<asrwt>0</asrwt>
<pdfrwt beam="2">  1        2 0.25111878E-03 0.20000620E+02</pdfrwt>
<pdfrwt beam="1">  1       -2 0.94258606E-02 0.20000620E+02</pdfrwt>
<totfact> 0.32843351E+06</totfact>
</mgrwt>
</event>
<event>
 4    1  0.4046313E-006  0.2014529E+02  0.7818608E-02  0.1742454E+00
          2   -1    0    0  501    0  0.00000000000E+00  0.00000000000E+00  0.11076193313E+03  0.11076193316E+03  0.26000000000E-02 0.  1.
         -2   -1    0    0    0  501 -0.00000000000E+00 -0.00000000000E+00 -0.91600033143E+00  0.91600402138E+00  0.26000000000E-02 0. -1.
        -11    1    1    2    0    0  0.42952617831E+00 -0.10056582144E+02  0.52857359309E+02  0.53807246450E+02  0.51100000000E-03 0. -1.
         11    1    1    2    0    0 -0.42952617831E+00  0.10056582144E+02  0.56988573489E+02  0.57870690732E+02  0.51100000000E-03 0.  1.
<mgrwt>
<rscale>  0 0.20145290E+02</rscale>
<asrwt>0</asrwt>
<pdfrwt beam="1">  1        2 0.17040303E-01 0.20145290E+02</pdfrwt>
<pdfrwt beam="2">  1       -2 0.14092337E-03 0.20145290E+02</pdfrwt>
<totfact> 0.53173000E+06</totfact>
</mgrwt>
</event>
<event>
 5    1  0.4046313E-006  0.2000879E+02  0.7818608E-02  0.1745153E+00
         -2   -1    0    0    0  501 -0.00000000000E+00  0.00000000000E+00  0.15529654718E+02  0.15529654935E+02  0.26000000000E-02 0. -1.
          2   -1    0    0  501    0  0.00000000000E+00 -0.00000000000E+00 -0.64449569875E+01  0.64449575119E+01  0.26000000000E-02 0.  1.
       1023    2    1    2    0    0  0.00000000000E+00  0.00000000000E+00  0.90846977301E+01  0.21974612447E+02  0.20008794550E+02 0.  0.
        -11    1    3    3    0    0  0.75391651977E+01  0.65704630519E+01  0.42356879354E+01  0.10860527112E+02  0.51100000000E-03 0. -1.
         11    1    3    3    0    0 -0.75391651977E+01 -0.65704630519E+01  0.48490097947E+01  0.11114085336E+02  0.51100000000E-03 0.  1.
<mgrwt>
<rscale>  0 0.20008795E+02</rscale>
<asrwt>0</asrwt>
<pdfrwt beam="2">  1        2 0.99153192E-03 0.20008795E+02</pdfrwt>
<pdfrwt beam="1">  1       -2 0.23891777E-02 0.20008795E+02</pdfrwt>
<totfact> 0.38160075E+06</totfact>
</mgrwt>
</event>
<event>
 5    1  0.4046313E-006  0.2000057E+02  0.7818608E-02  0.1745317E+00
          2   -1    0    0  501    0  0.00000000000E+00  0.00000000000E+00  0.29573362793E+02  0.29573362907E+02  0.26000000000E-02 0.  1.
         -2   -1    0    0    0  501 -0.00000000000E+00 -0.00000000000E+00 -0.33816125569E+01  0.33816135564E+01  0.26000000000E-02 0. -1.
       1023    2    1    2    0    0  0.00000000000E+00  0.00000000000E+00  0.26191750236E+02  0.32954976463E+02  0.20000567324E+02 0.  0.
        -11    1    3    3    0    0  0.97289303602E+01  0.23133135167E+01  0.13172589428E+02  0.16538458752E+02  0.51100000000E-03 0. -1.
         11    1    3    3    0    0 -0.97289303602E+01 -0.23133135167E+01  0.13019160808E+02  0.16416517712E+02  0.51100000000E-03 0.  1.
<mgrwt>
<rscale>  0 0.20000567E+02</rscale>
<asrwt>0</asrwt>
<pdfrwt beam="1">  1        2 0.45497481E-02 0.20000567E+02</pdfrwt>
<pdfrwt beam="2">  1       -2 0.52024819E-03 0.20000567E+02</pdfrwt>
<totfact> 0.43302629E+06</totfact>
</mgrwt>
</event>
<event>
 4    1  0.4046313E-006  0.2004620E+02  0.7818608E-02  0.1744411E+00
          2   -1    0    0  501    0  0.00000000000E+00  0.00000000000E+00  0.43312865781E+02  0.43312865859E+02  0.26000000000E-02 0. -1.
         -2   -1    0    0    0  501 -0.00000000000E+00 -0.00000000000E+00 -0.23194604409E+01  0.23194618982E+01  0.26000000000E-02 0.  1.
        -11    1    1    2    0    0 -0.63292294207E+01 -0.77663463569E+01  0.21169029356E+02  0.23420142718E+02  0.51100000000E-03 0. -1.
         11    1    1    2    0    0  0.63292294207E+01  0.77663463569E+01  0.19824375984E+02  0.22212185039E+02  0.51100000000E-03 0.  1.
<mgrwt>
<rscale>  0 0.20046198E+02</rscale>
<asrwt>0</asrwt>
<pdfrwt beam="1">  1        2 0.66635171E-02 0.20046198E+02</pdfrwt>
<pdfrwt beam="2">  1       -2 0.35684023E-03 0.20046198E+02</pdfrwt>
<totfact> 0.45145827E+06</totfact>
</mgrwt>
</event>
<event>
 5    1  0.4319958E-006  0.2000092E+02  0.7818608E-02  0.1745310E+00
         -2   -1    0    0    0  501 -0.00000000000E+00  0.00000000000E+00  0.99781860166E+00  0.99782198904E+00  0.26000000000E-02 0.  1.
          2   -1    0    0  501    0  0.00000000000E+00 -0.00000000000E+00 -0.10022767807E+03  0.10022767810E+03  0.26000000000E-02 0. -1.
       1023    2    1    2    0    0  0.00000000000E+00  0.00000000000E+00 -0.99229859463E+02  0.10122550009E+03  0.20000921451E+02 0.  0.
        -11    1    3    3    0    0 -0.98381716127E+01  0.17938945361E+01 -0.49416566776E+02  0.50418297774E+02  0.51100000000E-03 0. -1.
         11    1    3    3    0    0  0.98381716127E+01 -0.17938945361E+01 -0.49813292688E+02  0.50807202314E+02  0.51100000000E-03 0.  1.
<mgrwt>
<rscale>  0 0.20000921E+02</rscale>
<asrwt>0</asrwt>
<pdfrwt beam="2">  1        2 0.15419635E-01 0.20000921E+02</pdfrwt>
<pdfrwt beam="1">  1       -2 0.15351090E-03 0.20000921E+02</pdfrwt>
<totfact> 0.52779841E+06</totfact>
</mgrwt>
</event>
<event>
 5    1  0.4046313E-006  0.2000078E+02  0.7818608E-02  0.1745313E+00
         -2   -1    0    0    0  501 -0.00000000000E+00  0.00000000000E+00  0.13249390415E+01  0.13249415926E+01  0.26000000000E-02 0. -1.
          2   -1    0    0  501    0  0.00000000000E+00 -0.00000000000E+00 -0.75481006735E+02  0.75481006780E+02  0.26000000000E-02 0.  1.
       1023    2    1    2    0    0  0.00000000000E+00  0.00000000000E+00 -0.74156067693E+02  0.76805948372E+02  0.20000783225E+02 0.  0.
        -11    1    3    3    0    0 -0.93217785023E+01 -0.36210206404E+01 -0.36993270232E+02  0.38321134999E+02  0.51100000000E-03 0.  1.
         11    1    3    3    0    0  0.93217785023E+01  0.36210206404E+01 -0.37162797462E+02  0.38484813373E+02  0.51100000000E-03 0. -1.
<mgrwt>
<rscale>  0 0.20000783E+02</rscale>
<asrwt>0</asrwt>
<pdfrwt beam="2">  1        2 0.11612459E-01 0.20000783E+02</pdfrwt>
<pdfrwt beam="1">  1       -2 0.20383703E-03 0.20000783E+02</pdfrwt>
<totfact> 0.49721762E+06</totfact>
</mgrwt>
</event>
<event>
 5    1  0.4046313E-006  0.2000123E+02  0.7818608E-02  0.1745304E+00
          2   -1    0    0  501    0  0.00000000000E+00  0.00000000000E+00  0.10044750868E+01  0.10044784517E+01  0.26000000000E-02 0.  1.
         -2   -1    0    0    0  501 -0.00000000000E+00 -0.00000000000E+00 -0.99566559623E+02  0.99566559657E+02  0.26000000000E-02 0. -1.
       1023    2    1    2    0    0  0.00000000000E+00  0.00000000000E+00 -0.98562084536E+02  0.10057103811E+03  0.20001229916E+02 0.  0.
        -11    1    3    3    0    0 -0.85046719869E+01  0.52607407550E+01 -0.48846735488E+02  0.49859887756E+02  0.51100000000E-03 0. -1.
         11    1    3    3    0    0  0.85046719869E+01 -0.52607407550E+01 -0.49715349048E+02  0.50711150353E+02  0.51100000000E-03 0.  1.
<mgrwt>
<rscale>  0 0.20001230E+02</rscale>
<asrwt>0</asrwt>
<pdfrwt beam="1">  1        2 0.15453497E-03 0.20001230E+02</pdfrwt>
<pdfrwt beam="2">  1       -2 0.15317925E-01 0.20001230E+02</pdfrwt>
<totfact> 0.29758282E+06</totfact>
</mgrwt>
</event>
<event>
 5    1  0.4046313E-006  0.2000320E+02  0.7818608E-02  0.1745265E+00
         -2   -1    0    0    0  501 -0.00000000000E+00  0.00000000000E+00  0.14625177999E+01  0.14625201110E+01  0.26000000000E-02 0.  1.
          2   -1    0    0  501    0  0.00000000000E+00 -0.00000000000E+00 -0.68397038228E+02  0.68397038278E+02  0.26000000000E-02 0. -1.
       1023    2    1    2    0    0  0.00000000000E+00  0.00000000000E+00 -0.66934520428E+02  0.69859558388E+02  0.20003196577E+02 0.  0.
        -11    1    3    3    0    0 -0.74887435953E+01 -0.66287895370E+01 -0.33120881579E+02  0.34597903523E+02  0.51100000000E-03 0.  1.
         11    1    3    3    0    0  0.74887435953E+01  0.66287895370E+01 -0.33813638849E+02  0.35261654865E+02  0.51100000000E-03 0. -1.
<mgrwt>
<rscale>  0 0.20003197E+02</rscale>
<asrwt>0</asrwt>
<pdfrwt beam="2">  1        2 0.10522619E-01 0.20003197E+02</pdfrwt>
<pdfrwt beam="1">  1       -2 0.22500297E-03 0.20003197E+02</pdfrwt>
<totfact> 0.48793546E+06</totfact>
</mgrwt>
</event>
<event>
 5    1  0.4046313E-006  0.2000171E+02  0.7818608E-02  0.1745294E+00
         -2   -1    0    0    0  501 -0.00000000000E+00  0.00000000000E+00  0.59243934920E+02  0.59243934977E+02  0.26000000000E-02 0.  1.
          2   -1    0    0  501    0  0.00000000000E+00 -0.00000000000E+00 -0.16882247834E+01  0.16882267855E+01  0.26000000000E-02 0. -1.
       1023    2    1    2    0    0  0.00000000000E+00  0.00000000000E+00  0.57555710137E+02  0.60932161763E+02  0.20001714120E+02 0.  0.
        -11    1    3    3    0    0  0.89285928820E+01 -0.45052511068E+01  0.28805655717E+02  0.30492341005E+02  0.51100000000E-03 0.  1.
         11    1    3    3    0    0 -0.89285928820E+01  0.45052511068E+01  0.28750054419E+02  0.30439820758E+02  0.51100000000E-03 0. -1.
<mgrwt>
<rscale>  0 0.20001714E+02</rscale>
<asrwt>0</asrwt>
<pdfrwt beam="2">  1        2 0.25972708E-03 0.20001714E+02</pdfrwt>
<pdfrwt beam="1">  1       -2 0.91144507E-02 0.20001714E+02</pdfrwt>
<totfact> 0.33022481E+06</totfact>
</mgrwt>
</event>
<event>
 5    1  0.4046313E-006  0.2000047E+02  0.7818608E-02  0.1745319E+00
         -2   -1    0    0    0  501 -0.00000000000E+00  0.00000000000E+00  0.24173712915E+02  0.24173713055E+02  0.26000000000E-02 0. -1.
          2   -1    0    0  501    0  0.00000000000E+00 -0.00000000000E+00 -0.41369207108E+01  0.41369215278E+01  0.26000000000E-02 0.  1.
       1023    2    1    2    0    0  0.00000000000E+00  0.00000000000E+00  0.20036792204E+02  0.28310634583E+02  0.20000474710E+02 0.  0.
        -11    1    3    3    0    0  0.25182681906E+01 -0.96777395151E+01  0.99241820145E+01  0.14088637469E+02  0.51100000000E-03 0. -1.
         11    1    3    3    0    0 -0.25182681906E+01  0.96777395151E+01  0.10112610190E+02  0.14221997114E+02  0.51100000000E-03 0.  1.
<mgrwt>
<rscale>  0 0.20000475E+02</rscale>
<asrwt>0</asrwt>
<pdfrwt beam="2">  1        2 0.63644941E-03 0.20000475E+02</pdfrwt>
<pdfrwt beam="1">  1       -2 0.37190329E-02 0.20000475E+02</pdfrwt>
<totfact> 0.36820256E+06</totfact>
</mgrwt>
</event>
<event>
 4    1  0.4046313E-006  0.2001556E+02  0.7818608E-02  0.1745019E+00
         -2   -1    0    0    0  501 -0.00000000000E+00  0.00000000000E+00  0.19075416505E+02  0.19075416683E+02  0.26000000000E-02 0. -1.
          2   -1    0    0  501    0  0.00000000000E+00 -0.00000000000E+00 -0.52505106525E+01  0.52505112962E+01  0.26000000000E-02 0.  1.
        -11    1    1    2    0    0 -0.97052613655E+01 -0.24410559205E+01  0.68279436070E+01  0.12114935672E+02  0.51100000000E-03 0.  1.
         11    1    1    2    0    0  0.97052613655E+01  0.24410559205E+01  0.69969622458E+01  0.12210992307E+02  0.51100000000E-03 0. -1.
<mgrwt>
<rscale>  0 0.20015563E+02</rscale>
<asrwt>0</asrwt>
<pdfrwt beam="2">  1        2 0.80777093E-03 0.20015563E+02</pdfrwt>
<pdfrwt beam="1">  1       -2 0.29346795E-02 0.20015563E+02</pdfrwt>
<totfact> 0.37517263E+06</totfact>
</mgrwt>
</event>
<event>
 5    1  0.4046313E-006  0.2000161E+02  0.7818608E-02  0.1745296E+00
          2   -1    0    0  501    0  0.00000000000E+00  0.00000000000E+00  0.20548815949E+01  0.20548832397E+01  0.26000000000E-02 0.  1.
         -2   -1    0    0    0  501 -0.00000000000E+00 -0.00000000000E+00 -0.48672419609E+02  0.48672419678E+02  0.26000000000E-02 0. -1.
       1023    2    1    2    0    0  0.00000000000E+00  0.00000000000E+00 -0.46617538014E+02  0.50727302918E+02  0.20001610206E+02 0.  0.
        -11    1    3    3    0    0  0.29691788175E+01 -0.95490943592E+01 -0.23618102893E+02  0.25647924097E+02  0.51100000000E-03 0.  1.
         11    1    3    3    0    0 -0.29691788175E+01  0.95490943592E+01 -0.22999435121E+02  0.25079378822E+02  0.51100000000E-03 0. -1.
<mgrwt>
<rscale>  0 0.20001610E+02</rscale>
<asrwt>0</asrwt>
<pdfrwt beam="1">  1        2 0.31613580E-03 0.20001610E+02</pdfrwt>
<pdfrwt beam="2">  1       -2 0.74880638E-02 0.20001610E+02</pdfrwt>
<totfact> 0.34022947E+06</totfact>
</mgrwt>
</event>
<event>
 5    1  0.4046313E-006  0.2000212E+02  0.7818608E-02  0.1745286E+00
         -2   -1    0    0    0  501 -0.00000000000E+00  0.00000000000E+00  0.25881544540E+01  0.25881557599E+01  0.26000000000E-02 0. -1.
          2   -1    0    0  501    0  0.00000000000E+00 -0.00000000000E+00 -0.38645764353E+02  0.38645764440E+02  0.26000000000E-02 0.  1.
       1023    2    1    2    0    0  0.00000000000E+00  0.00000000000E+00 -0.36057609899E+02  0.41233920200E+02  0.20002123474E+02 0.  0.
        -11    1    3    3    0    0 -0.52674709666E+01 -0.85009602399E+01 -0.18220646627E+02  0.20784718886E+02  0.51100000000E-03 0. -1.
         11    1    3    3    0    0  0.52674709666E+01  0.85009602399E+01 -0.17836963271E+02  0.20449201314E+02  0.51100000000E-03 0.  1.
<mgrwt>
<rscale>  0 0.20002123E+02</rscale>
<asrwt>0</asrwt>
<pdfrwt beam="2">  1        2 0.59455019E-02 0.20002123E+02</pdfrwt>
<pdfrwt beam="1">  1       -2 0.39817774E-03 0.20002123E+02</pdfrwt>
<totfact> 0.44685746E+06</totfact>
</mgrwt>
</event>
<event>
 5    1  0.4046313E-006  0.2000051E+02  0.7818608E-02  0.1745318E+00
         -2   -1    0    0    0  501 -0.00000000000E+00  0.00000000000E+00  0.41800999651E+02  0.41800999732E+02  0.26000000000E-02 0.  1.
          2   -1    0    0  501    0  0.00000000000E+00 -0.00000000000E+00 -0.23924075864E+01  0.23924089992E+01  0.26000000000E-02 0. -1.
       1023    2    1    2    0    0  0.00000000000E+00  0.00000000000E+00  0.39408592065E+02  0.44193408731E+02  0.20000506163E+02 0.  0.
        -11    1    3    3    0    0 -0.86884426395E+01 -0.49509473000E+01  0.19846584938E+02  0.22223587663E+02  0.51100000000E-03 0.  1.
         11    1    3    3    0    0  0.86884426395E+01  0.49509473000E+01  0.19562007127E+02  0.21969821068E+02  0.51100000000E-03 0. -1.
<mgrwt>
<rscale>  0 0.20000506E+02</rscale>
<asrwt>0</asrwt>
<pdfrwt beam="2">  1        2 0.36806285E-03 0.20000506E+02</pdfrwt>
<pdfrwt beam="1">  1       -2 0.64309227E-02 0.20000506E+02</pdfrwt>
<totfact> 0.34727023E+06</totfact>
</mgrwt>
</event>
<event>
 5    1  0.4228896E-006  0.2000127E+02  0.7818608E-02  0.1745303E+00
         -2   -1    0    0    0  501 -0.00000000000E+00  0.00000000000E+00  0.10925592604E+01  0.10925623540E+01  0.26000000000E-02 0.  1.
          2   -1    0    0  501    0  0.00000000000E+00 -0.00000000000E+00 -0.91539747156E+02  0.91539747193E+02  0.26000000000E-02 0. -1.
       1023    2    1    2    0    0  0.00000000000E+00  0.00000000000E+00 -0.90447187895E+02  0.92632309547E+02  0.20001274304E+02 0.  0.
        -11    1    3    3    0    0 -0.97632989971E+01 -0.21657308249E+01 -0.45309725158E+02  0.46400254218E+02  0.51100000000E-03 0.  1.
         11    1    3    3    0    0  0.97632989971E+01  0.21657308249E+01 -0.45137462738E+02  0.46232055329E+02  0.51100000000E-03 0. -1.
<mgrwt>
<rscale>  0 0.20001274E+02</rscale>
<asrwt>0</asrwt>
<pdfrwt beam="2">  1        2 0.14083032E-01 0.20001274E+02</pdfrwt>
<pdfrwt beam="1">  1       -2 0.16808635E-03 0.20001274E+02</pdfrwt>
<totfact> 0.51726331E+06</totfact>
</mgrwt>
</event>
<event>
 5    1  0.4250741E-006  0.2000098E+02  0.7818608E-02  0.1745309E+00
         -2   -1    0    0    0  501 -0.00000000000E+00  0.00000000000E+00  0.12722244837E+01  0.12722271405E+01  0.26000000000E-02 0. -1.
          2   -1    0    0  501    0  0.00000000000E+00 -0.00000000000E+00 -0.78610068045E+02  0.78610068088E+02  0.26000000000E-02 0.  1.
       1023    2    1    2    0    0  0.00000000000E+00  0.00000000000E+00 -0.77337843561E+02  0.79882295228E+02  0.20000976083E+02 0.  0.
        -11    1    3    3    0    0 -0.87991538055E+01 -0.47520412957E+01 -0.38878617256E+02  0.40144163762E+02  0.51100000000E-03 0. -1.
         11    1    3    3    0    0  0.87991538055E+01  0.47520412957E+01 -0.38459226305E+02  0.39738131466E+02  0.51100000000E-03 0.  1.
<mgrwt>
<rscale>  0 0.20000976E+02</rscale>
<asrwt>0</asrwt>
<pdfrwt beam="2">  1        2 0.12093853E-01 0.20000976E+02</pdfrwt>
<pdfrwt beam="1">  1       -2 0.19572711E-03 0.20000976E+02</pdfrwt>
<totfact> 0.50118576E+06</totfact>
</mgrwt>
</event>
<event>
 5    1  0.4046313E-006  0.2000285E+02  0.7818608E-02  0.1745271E+00
         -2   -1    0    0    0  501 -0.00000000000E+00  0.00000000000E+00  0.11051680981E+01  0.11051711565E+01  0.26000000000E-02 0.  1.
          2   -1    0    0  501    0  0.00000000000E+00 -0.00000000000E+00 -0.90509663644E+02  0.90509663682E+02  0.26000000000E-02 0. -1.
       1023    2    1    2    0    0  0.00000000000E+00  0.00000000000E+00 -0.89404495546E+02  0.91614834838E+02  0.20002853260E+02 0.  0.
        -11    1    3    3    0    0  0.82009793671E+01 -0.57231424437E+01 -0.44085849471E+02  0.45205890611E+02  0.51100000000E-03 0.  1.
         11    1    3    3    0    0 -0.82009793671E+01  0.57231424437E+01 -0.45318646075E+02  0.46408944228E+02  0.51100000000E-03 0. -1.
<mgrwt>
<rscale>  0 0.20002853E+02</rscale>
<asrwt>0</asrwt>
<pdfrwt beam="2">  1        2 0.13924558E-01 0.20002853E+02</pdfrwt>
<pdfrwt beam="1">  1       -2 0.17002617E-03 0.20002853E+02</pdfrwt>
<totfact> 0.51591064E+06</totfact>
</mgrwt>
</event>
<event>
 5    1  0.4046313E-006  0.2000055E+02  0.7818608E-02  0.1745317E+00
          2   -1    0    0  501    0  0.00000000000E+00  0.00000000000E+00  0.96019031780E+01  0.96019035300E+01  0.26000000000E-02 0.  1.
         -2   -1    0    0    0  501 -0.00000000000E+00 -0.00000000000E+00 -0.10415171618E+02  0.10415171942E+02  0.26000000000E-02 0. -1.
       1023    2    1    2    0    0  0.00000000000E+00  0.00000000000E+00 -0.81326843970E+00  0.20017075472E+02  0.20000547615E+02 0.  0.
        -11    1    3    3    0    0  0.28087626556E+01 -0.95977243798E+01 -0.41051556431E+00  0.10008695430E+02  0.51100000000E-03 0. -1.
         11    1    3    3    0    0 -0.28087626556E+01  0.95977243798E+01 -0.40275287540E+00  0.10008380042E+02  0.51100000000E-03 0.  1.
<mgrwt>
<rscale>  0 0.20000548E+02</rscale>
<asrwt>0</asrwt>
<pdfrwt beam="1">  1        2 0.14772159E-02 0.20000548E+02</pdfrwt>
<pdfrwt beam="2">  1       -2 0.16023341E-02 0.20000548E+02</pdfrwt>
<totfact> 0.39343506E+06</totfact>
</mgrwt>
</event>
<event>
 5    1  0.4046313E-006  0.2000182E+02  0.7818608E-02  0.1745292E+00
         -2   -1    0    0    0  501 -0.00000000000E+00  0.00000000000E+00  0.18326002042E+01  0.18326020486E+01  0.26000000000E-02 0.  1.
          2   -1    0    0  501    0  0.00000000000E+00 -0.00000000000E+00 -0.54577169096E+02  0.54577169158E+02  0.26000000000E-02 0. -1.
       1023    2    1    2    0    0  0.00000000000E+00  0.00000000000E+00 -0.52744568892E+02  0.56409771207E+02  0.20001818417E+02 0.  0.
        -11    1    3    3    0    0 -0.54520341293E+01  0.83837947644E+01 -0.26163245709E+02  0.28009429075E+02  0.51100000000E-03 0. -1.
         11    1    3    3    0    0  0.54520341293E+01 -0.83837947644E+01 -0.26581323183E+02  0.28400342132E+02  0.51100000000E-03 0.  1.
<mgrwt>
<rscale>  0 0.20001818E+02</rscale>
<asrwt>0</asrwt>
<pdfrwt beam="2">  1        2 0.83964865E-02 0.20001818E+02</pdfrwt>
<pdfrwt beam="1">  1       -2 0.28193868E-03 0.20001818E+02</pdfrwt>
<totfact> 0.46952055E+06</totfact>
</mgrwt>
</event>
<event>
 5    1  0.4046313E-006  0.2000250E+02  0.7818608E-02  0.1745278E+00
          2   -1    0    0  501    0  0.00000000000E+00  0.00000000000E+00  0.64035972740E+02  0.64035972793E+02  0.26000000000E-02 0. -1.
         -2   -1    0    0    0  501 -0.00000000000E+00 -0.00000000000E+00 -0.15620123053E+01  0.15620144692E+01  0.26000000000E-02 0.  1.
       1023    2    1    2    0    0  0.00000000000E+00  0.00000000000E+00  0.62473960435E+02  0.65597987262E+02  0.20002504854E+02 0.  0.
        -11    1    3    3    0    0 -0.17010437474E+01  0.98555268278E+01  0.31268257958E+02  0.32828781806E+02  0.51100000000E-03 0.  1.
         11    1    3    3    0    0  0.17010437474E+01 -0.98555268278E+01  0.31205702477E+02  0.32769205456E+02  0.51100000000E-03 0. -1.
<mgrwt>
<rscale>  0 0.20002505E+02</rscale>
<asrwt>0</asrwt>
<pdfrwt beam="1">  1        2 0.98516871E-02 0.20002505E+02</pdfrwt>
<pdfrwt beam="2">  1       -2 0.24030978E-03 0.20002505E+02</pdfrwt>
<totfact> 0.48223310E+06</totfact>
</mgrwt>
</event>
<event>
 5    1  0.4046313E-006  0.2000603E+02  0.7818608E-02  0.1745208E+00
          2   -1    0    0  501    0  0.00000000000E+00  0.00000000000E+00  0.94453698620E+01  0.94453702199E+01  0.26000000000E-02 0. -1.
         -2   -1    0    0    0  501 -0.00000000000E+00 -0.00000000000E+00 -0.10593581055E+02  0.10593581374E+02  0.26000000000E-02 0.  1.
       1023    2    1    2    0    0  0.00000000000E+00  0.00000000000E+00 -0.11482111927E+01  0.20038951594E+02  0.20006028892E+02 0.  0.
        -11    1    3    3    0    0  0.85183001775E+01 -0.52384263361E+01 -0.81481201359E+00  0.10033268025E+02  0.51100000000E-03 0. -1.
         11    1    3    3    0    0 -0.85183001775E+01  0.52384263361E+01 -0.33339917912E+00  0.10005683568E+02  0.51100000000E-03 0.  1.
<mgrwt>
<rscale>  0 0.20006029E+02</rscale>
<asrwt>0</asrwt>
<pdfrwt beam="1">  1        2 0.14531339E-02 0.20006029E+02</pdfrwt>
<pdfrwt beam="2">  1       -2 0.16297818E-02 0.20006029E+02</pdfrwt>
<totfact> 0.39271613E+06</totfact>
</mgrwt>
</event>
<event>
 5    1  0.4046313E-006  0.2000313E+02  0.7818608E-02  0.1745266E+00
          2   -1    0    0  501    0  0.00000000000E+00  0.00000000000E+00  0.11597683652E+03  0.11597683655E+03  0.26000000000E-02 0.  1.
         -2   -1    0    0    0  501 -0.00000000000E+00 -0.00000000000E+00 -0.86250868049E+00  0.86251259928E+00  0.26000000000E-02 0. -1.
       1023    2    1    2    0    0  0.00000000000E+00  0.00000000000E+00  0.11511432784E+03  0.11683934915E+03  0.20003125643E+02 0.  0.
        -11    1    3    3    0    0 -0.43292818123E+01  0.90146180471E+01  0.56629206861E+02  0.57505417914E+02  0.51100000000E-03 0.  1.
         11    1    3    3    0    0  0.43292818123E+01 -0.90146180471E+01  0.58485120976E+02  0.59333931232E+02  0.51100000000E-03 0. -1.
<mgrwt>
<rscale>  0 0.20003126E+02</rscale>
<asrwt>0</asrwt>
<pdfrwt beam="1">  1        2 0.17842580E-01 0.20003126E+02</pdfrwt>
<pdfrwt beam="2">  1       -2 0.13269402E-03 0.20003126E+02</pdfrwt>
<totfact> 0.54612999E+06</totfact>
</mgrwt>
</event>
<event>
 5    1  0.4046313E-006  0.2000215E+02  0.7818608E-02  0.1745285E+00
          2   -1    0    0  501    0  0.00000000000E+00  0.00000000000E+00  0.48872202219E+01  0.48872209135E+01  0.26000000000E-02 0.  1.
         -2   -1    0    0    0  501 -0.00000000000E+00 -0.00000000000E+00 -0.20465922712E+02  0.20465922877E+02  0.26000000000E-02 0. -1.
       1023    2    1    2    0    0  0.00000000000E+00  0.00000000000E+00 -0.15578702490E+02  0.25353143791E+02  0.20002148105E+02 0.  0.
        -11    1    3    3    0    0 -0.99319351553E+01  0.11738196758E+01 -0.78110617246E+01  0.12689912296E+02  0.51100000000E-03 0. -1.
         11    1    3    3    0    0  0.99319351553E+01 -0.11738196758E+01 -0.77676407657E+01  0.12663231495E+02  0.51100000000E-03 0.  1.
<mgrwt>
<rscale>  0 0.20002148E+02</rscale>
<asrwt>0</asrwt>
<pdfrwt beam="1">  1        2 0.75188011E-03 0.20002148E+02</pdfrwt>
<pdfrwt beam="2">  1       -2 0.31486035E-02 0.20002148E+02</pdfrwt>
<totfact> 0.37353034E+06</totfact>
</mgrwt>
</event>
<event>
 5    1  0.4363766E-006  0.2000139E+02  0.7818608E-02  0.1745300E+00
          2   -1    0    0  501    0  0.00000000000E+00  0.00000000000E+00  0.98437272889E+02  0.98437272923E+02  0.26000000000E-02 0.  1.
         -2   -1    0    0    0  501 -0.00000000000E+00 -0.00000000000E+00 -0.10160151083E+01  0.10160184350E+01  0.26000000000E-02 0. -1.
       1023    2    1    2    0    0  0.00000000000E+00  0.00000000000E+00  0.97421257780E+02  0.99453291358E+02  0.20001392312E+02 0.  0.
        -11    1    3    3    0    0 -0.46940111772E+01  0.88299055919E+01  0.49276461567E+02  0.50280917240E+02  0.51100000000E-03 0.  1.
         11    1    3    3    0    0  0.46940111772E+01 -0.88299055919E+01  0.48144796214E+02  0.49172374118E+02  0.51100000000E-03 0. -1.
<mgrwt>
<rscale>  0 0.20001392E+02</rscale>
<asrwt>0</asrwt>
<pdfrwt beam="1">  1        2 0.15144198E-01 0.20001392E+02</pdfrwt>
<pdfrwt beam="2">  1       -2 0.15631026E-03 0.20001392E+02</pdfrwt>
<totfact> 0.52562367E+06</totfact>
</mgrwt>
</event>
<event>
 5    1  0.4046313E-006  0.2000216E+02  0.7818608E-02  0.1745285E+00
          2   -1    0    0  501    0  0.00000000000E+00  0.00000000000E+00  0.35842536794E+02  0.35842536889E+02  0.26000000000E-02 0. -1.
         -2   -1    0    0    0  501 -0.00000000000E+00 -0.00000000000E+00 -0.27905826581E+01  0.27905838693E+01  0.26000000000E-02 0.  1.
       1023    2    1    2    0    0  0.00000000000E+00  0.00000000000E+00  0.33051954136E+02  0.38633120758E+02  0.20002158565E+02 0.  0.
        -11    1    3    3    0    0  0.45693239972E+00  0.99906309778E+01  0.16544503474E+02  0.19332410352E+02  0.51100000000E-03 0.  1.
         11    1    3    3    0    0 -0.45693239972E+00 -0.99906309778E+01  0.16507450662E+02  0.19300710406E+02  0.51100000000E-03 0. -1.
<mgrwt>
<rscale>  0 0.20002159E+02</rscale>
<asrwt>0</asrwt>
<pdfrwt beam="1">  1        2 0.55142366E-02 0.20002159E+02</pdfrwt>
<pdfrwt beam="2">  1       -2 0.42932050E-03 0.20002159E+02</pdfrwt>
<totfact> 0.44266116E+06</totfact>
</mgrwt>
</event>
<event>
 4    1  0.4046313E-006  0.2002387E+02  0.7818608E-02  0.1744854E+00
          2   -1    0    0  501    0  0.00000000000E+00  0.00000000000E+00  0.12543488199E+01  0.12543515145E+01  0.26000000000E-02 0. -1.
         -2   -1    0    0    0  501 -0.00000000000E+00 -0.00000000000E+00 -0.79913000942E+02  0.79913000984E+02  0.26000000000E-02 0.  1.
        -11    1    1    2    0    0  0.52577117288E+01 -0.85073541426E+01 -0.37426833918E+02  0.38739985861E+02  0.51100000000E-03 0. -1.
         11    1    1    2    0    0 -0.52577117288E+01  0.85073541426E+01 -0.41231818204E+02  0.42427366638E+02  0.51100000000E-03 0.  1.
<mgrwt>
<rscale>  0 0.20023875E+02</rscale>
<asrwt>0</asrwt>
<pdfrwt beam="1">  1        2 0.19297702E-03 0.20023875E+02</pdfrwt>
<pdfrwt beam="2">  1       -2 0.12294304E-01 0.20023875E+02</pdfrwt>
<totfact> 0.31183485E+06</totfact>
</mgrwt>
</event>
<event>
 5    1  0.4046313E-006  0.2000054E+02  0.7818608E-02  0.1745317E+00
         -2   -1    0    0    0  501 -0.00000000000E+00  0.00000000000E+00  0.80768174185E+01  0.80768178369E+01  0.26000000000E-02 0. -1.
          2   -1    0    0  501    0  0.00000000000E+00 -0.00000000000E+00 -0.12381782432E+02  0.12381782705E+02  0.26000000000E-02 0.  1.
       1023    2    1    2    0    0  0.00000000000E+00  0.00000000000E+00 -0.43049650137E+01  0.20458600542E+02  0.20000540302E+02 0.  0.
        -11    1    3    3    0    0 -0.99484517576E+01  0.10166588607E+01 -0.21415026520E+01  0.10226989854E+02  0.51100000000E-03 0.  1.
         11    1    3    3    0    0  0.99484517576E+01 -0.10166588607E+01 -0.21634623617E+01  0.10231610688E+02  0.51100000000E-03 0. -1.
<mgrwt>
<rscale>  0 0.20000540E+02</rscale>
<asrwt>0</asrwt>
<pdfrwt beam="2">  1        2 0.19048897E-02 0.20000540E+02</pdfrwt>
<pdfrwt beam="1">  1       -2 0.12425873E-02 0.20000540E+02</pdfrwt>
<totfact> 0.40090442E+06</totfact>
</mgrwt>
</event>
<event>
 5    1  0.4046313E-006  0.2000357E+02  0.7818608E-02  0.1745257E+00
          2   -1    0    0  501    0  0.00000000000E+00  0.00000000000E+00  0.12895784230E+01  0.12895810441E+01  0.26000000000E-02 0.  1.
         -2   -1    0    0    0  501 -0.00000000000E+00 -0.00000000000E+00 -0.77572303387E+02  0.77572303431E+02  0.26000000000E-02 0. -1.
       1023    2    1    2    0    0  0.00000000000E+00  0.00000000000E+00 -0.76282724964E+02  0.78861884475E+02  0.20003567056E+02 0.  0.
        -11    1    3    3    0    0  0.95433984639E+01  0.29913459803E+01 -0.37726596245E+02  0.39029740833E+02  0.51100000000E-03 0.  1.
         11    1    3    3    0    0 -0.95433984639E+01 -0.29913459803E+01 -0.38556128720E+02  0.39832143642E+02  0.51100000000E-03 0. -1.
<mgrwt>
<rscale>  0 0.20003567E+02</rscale>
<asrwt>0</asrwt>
<pdfrwt beam="1">  1        2 0.19839695E-03 0.20003567E+02</pdfrwt>
<pdfrwt beam="2">  1       -2 0.11934197E-01 0.20003567E+02</pdfrwt>
<totfact> 0.31441676E+06</totfact>
</mgrwt>
</event>
<event>
 5    1  0.4406173E-006  0.2000118E+02  0.7818608E-02  0.1745305E+00
          2   -1    0    0  501    0  0.00000000000E+00  0.00000000000E+00  0.10694668315E+03  0.10694668318E+03  0.26000000000E-02 0. -1.
         -2   -1    0    0    0  501 -0.00000000000E+00 -0.00000000000E+00 -0.93515383155E+00  0.93515744592E+00  0.26000000000E-02 0.  1.
       1023    2    1    2    0    0  0.00000000000E+00  0.00000000000E+00  0.10601152932E+03  0.10788184062E+03  0.20001179684E+02 0.  0.
        -11    1    3    3    0    0 -0.96549703189E+01  0.26060067240E+01  0.52760124624E+02  0.53699538857E+02  0.51100000000E-03 0.  1.
         11    1    3    3    0    0  0.96549703189E+01 -0.26060067240E+01  0.53251404692E+02  0.54182301767E+02  0.51100000000E-03 0. -1.
<mgrwt>
<rscale>  0 0.20001180E+02</rscale>
<asrwt>0</asrwt>
<pdfrwt beam="1">  1        2 0.16453348E-01 0.20001180E+02</pdfrwt>
<pdfrwt beam="2">  1       -2 0.14386999E-03 0.20001180E+02</pdfrwt>
<totfact> 0.53575105E+06</totfact>
</mgrwt>
</event>
<event>
 5    1  0.4046313E-006  0.2000949E+02  0.7818608E-02  0.1745139E+00
         -2   -1    0    0    0  501 -0.00000000000E+00  0.00000000000E+00  0.10676078829E+02  0.10676079145E+02  0.26000000000E-02 0.  1.
          2   -1    0    0  501    0  0.00000000000E+00 -0.00000000000E+00 -0.93756231220E+01  0.93756234825E+01  0.26000000000E-02 0. -1.
       1023    2    1    2    0    0  0.00000000000E+00  0.00000000000E+00  0.13004557065E+01  0.20051702628E+02  0.20009487580E+02 0.  0.
        -11    1    3    3    0    0 -0.65096516671E+01  0.75969716272E+01  0.72356224053E+00  0.10030607425E+02  0.51100000000E-03 0.  1.
         11    1    3    3    0    0  0.65096516671E+01 -0.75969716272E+01  0.57689346598E+00  0.10021095203E+02  0.51100000000E-03 0. -1.
<mgrwt>
<rscale>  0 0.20009488E+02</rscale>
<asrwt>0</asrwt>
<pdfrwt beam="2">  1        2 0.14424036E-02 0.20009488E+02</pdfrwt>
<pdfrwt beam="1">  1       -2 0.16424737E-02 0.20009488E+02</pdfrwt>
<totfact> 0.39234809E+06</totfact>
</mgrwt>
</event>
<event>
 5    1  0.4046313E-006  0.2000087E+02  0.7818608E-02  0.1745311E+00
         -2   -1    0    0    0  501 -0.00000000000E+00  0.00000000000E+00  0.32790570166E+02  0.32790570270E+02  0.26000000000E-02 0. -1.
          2   -1    0    0  501    0  0.00000000000E+00 -0.00000000000E+00 -0.30499211096E+01  0.30499222178E+01  0.26000000000E-02 0.  1.
       1023    2    1    2    0    0  0.00000000000E+00  0.00000000000E+00  0.29740649057E+02  0.35840492487E+02  0.20000867366E+02 0.  0.
        -11    1    3    3    0    0 -0.38032794656E+01  0.92489563450E+01  0.14912174278E+02  0.17954973409E+02  0.51100000000E-03 0.  1.
         11    1    3    3    0    0  0.38032794656E+01 -0.92489563450E+01  0.14828474779E+02  0.17885519078E+02  0.51100000000E-03 0. -1.
<mgrwt>
<rscale>  0 0.20000867E+02</rscale>
<asrwt>0</asrwt>
<pdfrwt beam="2">  1        2 0.46921875E-03 0.20000867E+02</pdfrwt>
<pdfrwt beam="1">  1       -2 0.50447029E-02 0.20000867E+02</pdfrwt>
<totfact> 0.35725371E+06</totfact>
</mgrwt>
</event>
<event>
 4    1  0.4046313E-006  0.2005343E+02  0.7818608E-02  0.1744268E+00
          2   -1    0    0  501    0  0.00000000000E+00  0.00000000000E+00  0.11889751242E+02  0.11889751526E+02  0.26000000000E-02 0.  1.
         -2   -1    0    0    0  501 -0.00000000000E+00 -0.00000000000E+00 -0.84555982841E+01  0.84555986838E+01  0.26000000000E-02 0. -1.
        -11    1    1    2    0    0  0.89591693921E+01  0.44867486112E+01  0.13410907743E+01  0.10109211345E+02  0.51100000000E-03 0.  1.
         11    1    1    2    0    0 -0.89591693921E+01 -0.44867486112E+01  0.20930621836E+01  0.10236138865E+02  0.51100000000E-03 0. -1.
<mgrwt>
<rscale>  0 0.20053425E+02</rscale>
<asrwt>0</asrwt>
<pdfrwt beam="1">  1        2 0.18291926E-02 0.20053425E+02</pdfrwt>
<pdfrwt beam="2">  1       -2 0.13008613E-02 0.20053425E+02</pdfrwt>
<totfact> 0.39729216E+06</totfact>
</mgrwt>
</event>
<event>
 5    1  0.4046313E-006  0.2000124E+02  0.7818608E-02  0.1745303E+00
          2   -1    0    0  501    0  0.00000000000E+00  0.00000000000E+00  0.26247434048E+01  0.26247446925E+01  0.26000000000E-02 0. -1.
         -2   -1    0    0    0  501 -0.00000000000E+00 -0.00000000000E+00 -0.38103688492E+02  0.38103688580E+02  0.26000000000E-02 0.  1.
       1023    2    1    2    0    0  0.00000000000E+00  0.00000000000E+00 -0.35478945087E+02  0.40728433273E+02  0.20001243271E+02 0.  0.
        -11    1    3    3    0    0 -0.19718109651E+01 -0.98042937405E+01 -0.17769579688E+02  0.20390443271E+02  0.51100000000E-03 0.  1.
         11    1    3    3    0    0  0.19718109651E+01  0.98042937405E+01 -0.17709365399E+02  0.20337990002E+02  0.51100000000E-03 0. -1.
<mgrwt>
<rscale>  0 0.20001243E+02</rscale>
<asrwt>0</asrwt>
<pdfrwt beam="1">  1        2 0.40380681E-03 0.20001243E+02</pdfrwt>
<pdfrwt beam="2">  1       -2 0.58621056E-02 0.20001243E+02</pdfrwt>
<totfact> 0.35121345E+06</totfact>
</mgrwt>
</event>
<event>
 5    1  0.4046313E-006  0.2000210E+02  0.7818608E-02  0.1745286E+00
          2   -1    0    0  501    0  0.00000000000E+00  0.00000000000E+00  0.40666072765E+01  0.40666081077E+01  0.26000000000E-02 0. -1.
         -2   -1    0    0    0  501 -0.00000000000E+00 -0.00000000000E+00 -0.24595681771E+02  0.24595681908E+02  0.26000000000E-02 0.  1.
       1023    2    1    2    0    0  0.00000000000E+00  0.00000000000E+00 -0.20529074495E+02  0.28662290016E+02  0.20002099124E+02 0.  0.
        -11    1    3    3    0    0  0.92519605291E+01  0.37975896696E+01 -0.10297562329E+02  0.14354798888E+02  0.51100000000E-03 0.  1.
         11    1    3    3    0    0 -0.92519605291E+01 -0.37975896696E+01 -0.10231512166E+02  0.14307491128E+02  0.51100000000E-03 0. -1.
<mgrwt>
<rscale>  0 0.20002099E+02</rscale>
<asrwt>0</asrwt>
<pdfrwt beam="1">  1        2 0.62563198E-03 0.20002099E+02</pdfrwt>
<pdfrwt beam="2">  1       -2 0.37839510E-02 0.20002099E+02</pdfrwt>
<totfact> 0.36755674E+06</totfact>
</mgrwt>
</event>
<event>
 4    1  0.4046313E-006  0.2004249E+02  0.7818608E-02  0.1744484E+00
         -2   -1    0    0    0  501 -0.00000000000E+00  0.00000000000E+00  0.56804169473E+02  0.56804169533E+02  0.26000000000E-02 0.  1.
          2   -1    0    0  501    0  0.00000000000E+00 -0.00000000000E+00 -0.17679212804E+01  0.17679231923E+01  0.26000000000E-02 0. -1.
        -11    1    1    2    0    0  0.11441615734E+01  0.99523178148E+01  0.28278070142E+02  0.30000116447E+02  0.51100000000E-03 0. -1.
         11    1    1    2    0    0 -0.11441615734E+01 -0.99523178148E+01  0.26758178050E+02  0.28571976278E+02  0.51100000000E-03 0.  1.
<mgrwt>
<rscale>  0 0.20042491E+02</rscale>
<asrwt>0</asrwt>
<pdfrwt beam="2">  1        2 0.27198807E-03 0.20042491E+02</pdfrwt>
<pdfrwt beam="1">  1       -2 0.87391021E-02 0.20042491E+02</pdfrwt>
<totfact> 0.33098778E+06</totfact>
</mgrwt>
</event>
<event>
 5    1  0.4046313E-006  0.2000373E+02  0.7818608E-02  0.1745254E+00
          2   -1    0    0  501    0  0.00000000000E+00  0.00000000000E+00  0.83911292841E+02  0.83911292882E+02  0.26000000000E-02 0.  1.
         -2   -1    0    0    0  501 -0.00000000000E+00 -0.00000000000E+00 -0.11921776197E+01  0.11921804548E+01  0.26000000000E-02 0. -1.
       1023    2    1    2    0    0  0.00000000000E+00  0.00000000000E+00  0.82719115222E+02  0.85103473337E+02  0.20003728424E+02 0.  0.
        -11    1    3    3    0    0  0.67654237420E+01 -0.73658356256E+01  0.41801574996E+02  0.42981369979E+02  0.51100000000E-03 0.  1.
         11    1    3    3    0    0 -0.67654237420E+01  0.73658356256E+01  0.40917540226E+02  0.42122103358E+02  0.51100000000E-03 0. -1.
<mgrwt>
<rscale>  0 0.20003728E+02</rscale>
<asrwt>0</asrwt>
<pdfrwt beam="1">  1        2 0.12909428E-01 0.20003728E+02</pdfrwt>
<pdfrwt beam="2">  1       -2 0.18341218E-03 0.20003728E+02</pdfrwt>
<totfact> 0.50769105E+06</totfact>
</mgrwt>
</event>
<event>
 5    1  0.4046313E-006  0.2000639E+02  0.7818608E-02  0.1745201E+00
         -2   -1    0    0    0  501 -0.00000000000E+00  0.00000000000E+00  0.58665785866E+02  0.58665785924E+02  0.26000000000E-02 0.  1.
          2   -1    0    0  501    0  0.00000000000E+00 -0.00000000000E+00 -0.17056586288E+01  0.17056606104E+01  0.26000000000E-02 0. -1.
       1023    2    1    2    0    0  0.00000000000E+00  0.00000000000E+00  0.56960127237E+02  0.60371446534E+02  0.20006385524E+02 0.  0.
        -11    1    3    3    0    0 -0.24021277616E+01 -0.97075313433E+01  0.29203551377E+02  0.30868329982E+02  0.51100000000E-03 0. -1.
         11    1    3    3    0    0  0.24021277616E+01  0.97075313433E+01  0.27756575860E+02  0.29503116552E+02  0.51100000000E-03 0.  1.
<mgrwt>
<rscale>  0 0.20006386E+02</rscale>
<asrwt>0</asrwt>
<pdfrwt beam="2">  1        2 0.26240922E-03 0.20006386E+02</pdfrwt>
<pdfrwt beam="1">  1       -2 0.90255043E-02 0.20006386E+02</pdfrwt>
<totfact> 0.33058371E+06</totfact>
</mgrwt>
</event>
<event>
 5    1  0.4273150E-006  0.2000045E+02  0.7818608E-02  0.1745319E+00
          2   -1    0    0  501    0  0.00000000000E+00  0.00000000000E+00  0.11026375710E+03  0.11026375713E+03  0.26000000000E-02 0. -1.
         -2   -1    0    0    0  501 -0.00000000000E+00 -0.00000000000E+00 -0.90695542984E+00  0.90695915659E+00  0.26000000000E-02 0.  1.
       1023    2    1    2    0    0  0.00000000000E+00  0.00000000000E+00  0.10935680167E+03  0.11117071629E+03  0.20000452202E+02 0.  0.
        -11    1    3    3    0    0 -0.97862938757E+01 -0.20573596480E+01  0.54765451680E+02  0.55670988625E+02  0.51100000000E-03 0. -1.
         11    1    3    3    0    0  0.97862938757E+01  0.20573596480E+01  0.54591349990E+02  0.55499727662E+02  0.51100000000E-03 0.  1.
<mgrwt>
<rscale>  0 0.20000452E+02</rscale>
<asrwt>0</asrwt>
<pdfrwt beam="1">  1        2 0.16963635E-01 0.20000452E+02</pdfrwt>
<pdfrwt beam="2">  1       -2 0.13953206E-03 0.20000452E+02</pdfrwt>
<totfact> 0.53967630E+06</totfact>
</mgrwt>
</event>
<event>
 5    1  0.4046313E-006  0.2000045E+02  0.7818608E-02  0.1745319E+00
         -2   -1    0    0    0  501 -0.00000000000E+00  0.00000000000E+00  0.64988495421E+01  0.64988500621E+01  0.26000000000E-02 0.  1.
          2   -1    0    0  501    0  0.00000000000E+00 -0.00000000000E+00 -0.15388022675E+02  0.15388022894E+02  0.26000000000E-02 0. -1.
       1023    2    1    2    0    0  0.00000000000E+00  0.00000000000E+00 -0.88891731327E+01  0.21886872957E+02  0.20000445216E+02 0.  0.
        -11    1    3    3    0    0  0.95086589579E+01 -0.30966732366E+01 -0.44683520838E+01  0.10953088647E+02  0.51100000000E-03 0. -1.
         11    1    3    3    0    0 -0.95086589579E+01  0.30966732366E+01 -0.44208210489E+01  0.10933784309E+02  0.51100000000E-03 0.  1.
<mgrwt>
<rscale>  0 0.20000445E+02</rscale>
<asrwt>0</asrwt>
<pdfrwt beam="2">  1        2 0.23673881E-02 0.20000445E+02</pdfrwt>
<pdfrwt beam="1">  1       -2 0.99982307E-03 0.20000445E+02</pdfrwt>
<totfact> 0.40770133E+06</totfact>
</mgrwt>
</event>
<event>
 5    1  0.4046313E-006  0.2000030E+02  0.7818608E-02  0.1745322E+00
          2   -1    0    0  501    0  0.00000000000E+00  0.00000000000E+00  0.12455793975E+01  0.12455821111E+01  0.26000000000E-02 0. -1.
         -2   -1    0    0    0  501 -0.00000000000E+00 -0.00000000000E+00 -0.80286228517E+02  0.80286228559E+02  0.26000000000E-02 0.  1.
       1023    2    1    2    0    0  0.00000000000E+00  0.00000000000E+00 -0.79040649119E+02  0.81531810670E+02  0.20000298446E+02 0.  0.
        -11    1    3    3    0    0 -0.59571461405E+01 -0.80321346002E+01 -0.39461554277E+02  0.40708930747E+02  0.51100000000E-03 0. -1.
         11    1    3    3    0    0  0.59571461405E+01  0.80321346002E+01 -0.39579094842E+02  0.40822879922E+02  0.51100000000E-03 0.  1.
<mgrwt>
<rscale>  0 0.20000298E+02</rscale>
<asrwt>0</asrwt>
<pdfrwt beam="1">  1        2 0.19162787E-03 0.20000298E+02</pdfrwt>
<pdfrwt beam="2">  1       -2 0.12351724E-01 0.20000298E+02</pdfrwt>
<totfact> 0.31233869E+06</totfact>
</mgrwt>
</event>
<event>
 5    1  0.4046313E-006  0.2000041E+02  0.7818608E-02  0.1745320E+00
          2   -1    0    0  501    0  0.00000000000E+00  0.00000000000E+00  0.13228820444E+01  0.13228845994E+01  0.26000000000E-02 0.  1.
         -2   -1    0    0    0  501 -0.00000000000E+00 -0.00000000000E+00 -0.75595587394E+02  0.75595587438E+02  0.26000000000E-02 0. -1.
       1023    2    1    2    0    0  0.00000000000E+00  0.00000000000E+00 -0.74272705349E+02  0.76918472038E+02  0.20000414514E+02 0.  0.
        -11    1    3    3    0    0  0.76787580624E+01  0.64063081313E+01 -0.37113384877E+02  0.38437058246E+02  0.51100000000E-03 0.  1.
         11    1    3    3    0    0 -0.76787580624E+01 -0.64063081313E+01 -0.37159320472E+02  0.38481413792E+02  0.51100000000E-03 0. -1.
<mgrwt>
<rscale>  0 0.20000415E+02</rscale>
<asrwt>0</asrwt>
<pdfrwt beam="1">  1        2 0.20352057E-03 0.20000415E+02</pdfrwt>
<pdfrwt beam="2">  1       -2 0.11630087E-01 0.20000415E+02</pdfrwt>
<totfact> 0.31614135E+06</totfact>
</mgrwt>
</event>
<event>
 5    1  0.4093277E-006  0.2000027E+02  0.7818608E-02  0.1745323E+00
          2   -1    0    0  501    0  0.00000000000E+00  0.00000000000E+00  0.11183930473E+03  0.11183930476E+03  0.26000000000E-02 0.  1.
         -2   -1    0    0    0  501 -0.00000000000E+00 -0.00000000000E+00 -0.89416182644E+00  0.89416560651E+00  0.26000000000E-02 0. -1.
       1023    2    1    2    0    0  0.00000000000E+00  0.00000000000E+00  0.11094514291E+03  0.11273347037E+03  0.20000265174E+02 0.  0.
        -11    1    3    3    0    0  0.72813411030E+00  0.99735290627E+01  0.55667034329E+02  0.56558113233E+02  0.51100000000E-03 0. -1.
         11    1    3    3    0    0 -0.72813411030E+00 -0.99735290627E+01  0.55278108578E+02  0.56175357137E+02  0.51100000000E-03 0.  1.
<mgrwt>
<rscale>  0 0.20000265E+02</rscale>
<asrwt>0</asrwt>
<pdfrwt beam="1">  1        2 0.17206056E-01 0.20000265E+02</pdfrwt>
<pdfrwt beam="2">  1       -2 0.13756358E-03 0.20000265E+02</pdfrwt>
<totfact> 0.54152084E+06</totfact>
</mgrwt>
</event>
<event>
 5    1  0.4046313E-006  0.2001034E+02  0.7818608E-02  0.1745123E+00
         -2   -1    0    0    0  501 -0.00000000000E+00  0.00000000000E+00  0.94813204970E+01  0.94813208535E+01  0.26000000000E-02 0.  1.
          2   -1    0    0  501    0  0.00000000000E+00 -0.00000000000E+00 -0.10557961730E+02  0.10557962050E+02  0.26000000000E-02 0. -1.
       1023    2    1    2    0    0  0.00000000000E+00  0.00000000000E+00 -0.10766412331E+01  0.20039282904E+02  0.20010339901E+02 0.  0.
        -11    1    3    3    0    0  0.32399809174E+01 -0.94653535274E+01 -0.65264235371E+00  0.10025783563E+02  0.51100000000E-03 0.  1.
         11    1    3    3    0    0 -0.32399809174E+01  0.94653535274E+01 -0.42399887940E+00  0.10013499341E+02  0.51100000000E-03 0. -1.
<mgrwt>
<rscale>  0 0.20010340E+02</rscale>
<asrwt>0</asrwt>
<pdfrwt beam="2">  1        2 0.16243019E-02 0.20010340E+02</pdfrwt>
<pdfrwt beam="1">  1       -2 0.14586647E-02 0.20010340E+02</pdfrwt>
<totfact> 0.39574113E+06</totfact>
</mgrwt>
</event>
<event>
 5    1  0.4046313E-006  0.2000046E+02  0.7818608E-02  0.1745319E+00
          2   -1    0    0  501    0  0.00000000000E+00  0.00000000000E+00  0.55198088779E+02  0.55198088841E+02  0.26000000000E-02 0. -1.
         -2   -1    0    0    0  501 -0.00000000000E+00 -0.00000000000E+00 -0.18117389681E+01  0.18117408338E+01  0.26000000000E-02 0.  1.
       1023    2    1    2    0    0  0.00000000000E+00  0.00000000000E+00  0.53386349811E+02  0.57009829674E+02  0.20000458328E+02 0.  0.
        -11    1    3    3    0    0 -0.74660284979E+01  0.66529915835E+01  0.26617516059E+02  0.28434064780E+02  0.51100000000E-03 0. -1.
         11    1    3    3    0    0  0.74660284979E+01 -0.66529915835E+01  0.26768833753E+02  0.28575764894E+02  0.51100000000E-03 0.  1.
<mgrwt>
<rscale>  0 0.20000458E+02</rscale>
<asrwt>0</asrwt>
<pdfrwt beam="1">  1        2 0.84920143E-02 0.20000458E+02</pdfrwt>
<pdfrwt beam="2">  1       -2 0.27872920E-03 0.20000458E+02</pdfrwt>
<totfact> 0.47044179E+06</totfact>
</mgrwt>
</event>
<event>
 5    1  0.4046313E-006  0.2000064E+02  0.7818608E-02  0.1745315E+00
         -2   -1    0    0    0  501 -0.00000000000E+00  0.00000000000E+00  0.52281706735E+01  0.52281713200E+01  0.26000000000E-02 0.  1.
          2   -1    0    0  501    0  0.00000000000E+00 -0.00000000000E+00 -0.19128376383E+02  0.19128376560E+02  0.26000000000E-02 0. -1.
       1023    2    1    2    0    0  0.00000000000E+00  0.00000000000E+00 -0.13900205710E+02  0.24356547880E+02  0.20000642636E+02 0.  0.
        -11    1    3    3    0    0  0.99813707484E+01 -0.61211110930E+00 -0.68732356638E+01  0.12134406074E+02  0.51100000000E-03 0.  1.
         11    1    3    3    0    0 -0.99813707484E+01  0.61211110930E+00 -0.70269700460E+01  0.12222141806E+02  0.51100000000E-03 0. -1.
<mgrwt>
<rscale>  0 0.20000643E+02</rscale>
<asrwt>0</asrwt>
<pdfrwt beam="2">  1        2 0.29428272E-02 0.20000643E+02</pdfrwt>
<pdfrwt beam="1">  1       -2 0.80433403E-03 0.20000643E+02</pdfrwt>
<totfact> 0.41512729E+06</totfact>
</mgrwt>
</event>
<event>
 5    1  0.4046313E-006  0.2000035E+02  0.7818608E-02  0.1745321E+00
         -2   -1    0    0    0  501 -0.00000000000E+00  0.00000000000E+00  0.49916705945E+02  0.49916706013E+02  0.26000000000E-02 0.  1.
          2   -1    0    0  501    0  0.00000000000E+00 -0.00000000000E+00 -0.20034074218E+01  0.20034091089E+01  0.26000000000E-02 0. -1.
       1023    2    1    2    0    0  0.00000000000E+00  0.00000000000E+00  0.47913298523E+02  0.51920115122E+02  0.20000354469E+02 0.  0.
        -11    1    3    3    0    0 -0.21744021589E+00 -0.99977994395E+01  0.23999350832E+02  0.25999463735E+02  0.51100000000E-03 0. -1.
         11    1    3    3    0    0  0.21744021589E+00  0.99977994395E+01  0.23913947691E+02  0.25920651387E+02  0.51100000000E-03 0.  1.
<mgrwt>
<rscale>  0 0.20000354E+02</rscale>
<asrwt>0</asrwt>
<pdfrwt beam="2">  1        2 0.30821669E-03 0.20000354E+02</pdfrwt>
<pdfrwt beam="1">  1       -2 0.76794926E-02 0.20000354E+02</pdfrwt>
<totfact> 0.33905491E+06</totfact>
</mgrwt>
</event>
<event>
 5    1  0.4046313E-006  0.2000055E+02  0.7818608E-02  0.1745317E+00
          2   -1    0    0  501    0  0.00000000000E+00  0.00000000000E+00  0.39282174104E+01  0.39282182709E+01  0.26000000000E-02 0.  1.
         -2   -1    0    0    0  501 -0.00000000000E+00 -0.00000000000E+00 -0.25458227893E+02  0.25458228025E+02  0.26000000000E-02 0. -1.
       1023    2    1    2    0    0  0.00000000000E+00  0.00000000000E+00 -0.21530010482E+02  0.29386446296E+02  0.20000546857E+02 0.  0.
        -11    1    3    3    0    0  0.14488648110E+00 -0.99990449368E+01 -0.10852875674E+02  0.14757601513E+02  0.51100000000E-03 0.  1.
         11    1    3    3    0    0 -0.14488648110E+00  0.99990449368E+01 -0.10677134808E+02  0.14628844784E+02  0.51100000000E-03 0. -1.
<mgrwt>
<rscale>  0 0.20000547E+02</rscale>
<asrwt>0</asrwt>
<pdfrwt beam="1">  1        2 0.60434123E-03 0.20000547E+02</pdfrwt>
<pdfrwt beam="2">  1       -2 0.39166504E-02 0.20000547E+02</pdfrwt>
<totfact> 0.36644927E+06</totfact>
</mgrwt>
</event>
<event>
 4    1  0.4046313E-006  0.2001301E+02  0.7818608E-02  0.1745069E+00
         -2   -1    0    0    0  501 -0.00000000000E+00  0.00000000000E+00  0.73284581861E+01  0.73284586473E+01  0.26000000000E-02 0. -1.
          2   -1    0    0  501    0  0.00000000000E+00 -0.00000000000E+00 -0.13663195410E+02  0.13663195657E+02  0.26000000000E-02 0.  1.
        -11    1    1    2    0    0 -0.38640317845E+01 -0.92273928473E+01 -0.34125579674E+01  0.10569818945E+02  0.51100000000E-03 0. -1.
         11    1    1    2    0    0  0.38640317845E+01  0.92273928473E+01 -0.29221792564E+01  0.10421835359E+02  0.51100000000E-03 0.  1.
<mgrwt>
<rscale>  0 0.20013012E+02</rscale>
<asrwt>0</asrwt>
<pdfrwt beam="2">  1        2 0.21020301E-02 0.20013012E+02</pdfrwt>
<pdfrwt beam="1">  1       -2 0.11274552E-02 0.20013012E+02</pdfrwt>
<totfact> 0.40334928E+06</totfact>
</mgrwt>
</event>
<event>
 5    1  0.4046313E-006  0.2000056E+02  0.7818608E-02  0.1745317E+00
          2   -1    0    0  501    0  0.00000000000E+00  0.00000000000E+00  0.38012062921E+02  0.38012063010E+02  0.26000000000E-02 0. -1.
         -2   -1    0    0    0  501 -0.00000000000E+00 -0.00000000000E+00 -0.26308912246E+01  0.26308925093E+01  0.26000000000E-02 0.  1.
       1023    2    1    2    0    0  0.00000000000E+00  0.00000000000E+00  0.35381171697E+02  0.40642955520E+02  0.20000563060E+02 0.  0.
        -11    1    3    3    0    0  0.67651628880E+01 -0.73645219858E+01  0.17599312629E+02  0.20242021101E+02  0.51100000000E-03 0. -1.
         11    1    3    3    0    0 -0.67651628880E+01  0.73645219858E+01  0.17781859068E+02  0.20400934419E+02  0.51100000000E-03 0.  1.
<mgrwt>
<rscale>  0 0.20000563E+02</rscale>
<asrwt>0</asrwt>
<pdfrwt beam="1">  1        2 0.58480093E-02 0.20000563E+02</pdfrwt>
<pdfrwt beam="2">  1       -2 0.40475264E-03 0.20000563E+02</pdfrwt>
<totfact> 0.44599384E+06</totfact>
</mgrwt>
</event>
<event>
 5    1  0.4046313E-006  0.2000057E+02  0.7818608E-02  0.1745317E+00
         -2   -1    0    0    0  501 -0.00000000000E+00  0.00000000000E+00  0.37576886135E+01  0.37576895130E+01  0.26000000000E-02 0. -1.
          2   -1    0    0  501    0  0.00000000000E+00 -0.00000000000E+00 -0.26613624820E+02  0.26613624947E+02  0.26000000000E-02 0.  1.
       1023    2    1    2    0    0  0.00000000000E+00  0.00000000000E+00 -0.22855936206E+02  0.30371314460E+02  0.20000573046E+02 0.  0.
        -11    1    3    3    0    0  0.94080739853E+01 -0.33895220745E+01 -0.11320439255E+02  0.15104736383E+02  0.51100000000E-03 0.  1.
         11    1    3    3    0    0 -0.94080739853E+01  0.33895220745E+01 -0.11535496951E+02  0.15266578077E+02  0.51100000000E-03 0. -1.
<mgrwt>
<rscale>  0 0.20000573E+02</rscale>
<asrwt>0</asrwt>
<pdfrwt beam="2">  1        2 0.40944038E-02 0.20000573E+02</pdfrwt>
<pdfrwt beam="1">  1       -2 0.57810603E-03 0.20000573E+02</pdfrwt>
<totfact> 0.42823015E+06</totfact>
</mgrwt>
</event>
<event>
 5    1  0.4046313E-006  0.2000198E+02  0.7818608E-02  0.1745289E+00
          2   -1    0    0  501    0  0.00000000000E+00  0.00000000000E+00  0.53055045652E+02  0.53055045716E+02  0.26000000000E-02 0. -1.
         -2   -1    0    0    0  501 -0.00000000000E+00 -0.00000000000E+00 -0.18852075074E+01  0.18852093004E+01  0.26000000000E-02 0.  1.
       1023    2    1    2    0    0  0.00000000000E+00  0.00000000000E+00  0.51169838145E+02  0.54940255016E+02  0.20001982039E+02 0.  0.
        -11    1    3    3    0    0  0.47414732087E+01  0.88044774173E+01  0.25202043426E+02  0.27113527691E+02  0.51100000000E-03 0. -1.
         11    1    3    3    0    0 -0.47414732087E+01 -0.88044774173E+01  0.25967794719E+02  0.27826727325E+02  0.51100000000E-03 0.  1.
<mgrwt>
<rscale>  0 0.20001982E+02</rscale>
<asrwt>0</asrwt>
<pdfrwt beam="1">  1        2 0.81623143E-02 0.20001982E+02</pdfrwt>
<pdfrwt beam="2">  1       -2 0.29003209E-03 0.20001982E+02</pdfrwt>
<totfact> 0.46741925E+06</totfact>
</mgrwt>
</event>
<event>
 5    1  0.4046313E-006  0.2000085E+02  0.7818608E-02  0.1745311E+00
          2   -1    0    0  501    0  0.00000000000E+00  0.00000000000E+00  0.26045873271E+01  0.26045886248E+01  0.26000000000E-02 0.  1.
         -2   -1    0    0    0  501 -0.00000000000E+00 -0.00000000000E+00 -0.38397042467E+02  0.38397042555E+02  0.26000000000E-02 0. -1.
       1023    2    1    2    0    0  0.00000000000E+00  0.00000000000E+00 -0.35792455139E+02  0.41001631179E+02  0.20000847844E+02 0.  0.
        -11    1    3    3    0    0 -0.50073403007E+00 -0.99878390108E+01 -0.17837679481E+02  0.20449705919E+02  0.51100000000E-03 0. -1.
         11    1    3    3    0    0  0.50073403007E+00  0.99878390108E+01 -0.17954775659E+02  0.20551925260E+02  0.51100000000E-03 0.  1.
<mgrwt>
<rscale>  0 0.20000848E+02</rscale>
<asrwt>0</asrwt>
<pdfrwt beam="1">  1        2 0.40070588E-03 0.20000848E+02</pdfrwt>
<pdfrwt beam="2">  1       -2 0.59072370E-02 0.20000848E+02</pdfrwt>
<totfact> 0.35090766E+06</totfact>
</mgrwt>
</event>
<event>
 5    1  0.4046313E-006  0.2000032E+02  0.7818608E-02  0.1745322E+00
          2   -1    0    0  501    0  0.00000000000E+00  0.00000000000E+00  0.14683162177E+02  0.14683162407E+02  0.26000000000E-02 0.  1.
         -2   -1    0    0    0  501 -0.00000000000E+00 -0.00000000000E+00 -0.68107372670E+01  0.68107377633E+01  0.26000000000E-02 0. -1.
       1023    2    1    2    0    0  0.00000000000E+00  0.00000000000E+00  0.78724249100E+01  0.21493900171E+02  0.20000316762E+02 0.  0.
        -11    1    3    3    0    0 -0.90002604669E+01 -0.43584547500E+01  0.38841032869E+01  0.10727864414E+02  0.51100000000E-03 0. -1.
         11    1    3    3    0    0  0.90002604669E+01  0.43584547500E+01  0.39883216231E+01  0.10766035757E+02  0.51100000000E-03 0.  1.
<mgrwt>
<rscale>  0 0.20000317E+02</rscale>
<asrwt>0</asrwt>
<pdfrwt beam="1">  1        2 0.22589481E-02 0.20000317E+02</pdfrwt>
<pdfrwt beam="2">  1       -2 0.10478058E-02 0.20000317E+02</pdfrwt>
<totfact> 0.40619713E+06</totfact>
</mgrwt>
</event>
<event>
 5    1  0.4046313E-006  0.2000755E+02  0.7818608E-02  0.1745178E+00
         -2   -1    0    0    0  501 -0.00000000000E+00  0.00000000000E+00  0.16348946784E+02  0.16348946991E+02  0.26000000000E-02 0. -1.
          2   -1    0    0  501    0  0.00000000000E+00 -0.00000000000E+00 -0.61212176842E+01  0.61212182364E+01  0.26000000000E-02 0.  1.
       1023    2    1    2    0    0  0.00000000000E+00  0.00000000000E+00  0.10227729100E+02  0.22470165227E+02  0.20007545647E+02 0.  0.
        -11    1    3    3    0    0  0.52258022981E+01 -0.85280282712E+01  0.48915205113E+01  0.11133878436E+02  0.51100000000E-03 0. -1.
         11    1    3    3    0    0 -0.52258022981E+01  0.85280282712E+01  0.53362085886E+01  0.11336286791E+02  0.51100000000E-03 0.  1.
<mgrwt>
<rscale>  0 0.20007546E+02</rscale>
<asrwt>0</asrwt>
<pdfrwt beam="2">  1        2 0.94172588E-03 0.20007546E+02</pdfrwt>
<pdfrwt beam="1">  1       -2 0.25152226E-02 0.20007546E+02</pdfrwt>
<totfact> 0.38014080E+06</totfact>
</mgrwt>
</event>
<event>
 5    1  0.4046313E-006  0.2000025E+02  0.7818608E-02  0.1745323E+00
         -2   -1    0    0    0  501 -0.00000000000E+00  0.00000000000E+00  0.34497174396E+02  0.34497174494E+02  0.26000000000E-02 0.  1.
          2   -1    0    0  501    0  0.00000000000E+00 -0.00000000000E+00 -0.28988589292E+01  0.28988600952E+01  0.26000000000E-02 0. -1.
       1023    2    1    2    0    0  0.00000000000E+00  0.00000000000E+00  0.31598315467E+02  0.37396034589E+02  0.20000246565E+02 0.  0.
        -11    1    3    3    0    0 -0.22015517618E+01  0.97546544957E+01  0.15889816235E+02  0.18774620495E+02  0.51100000000E-03 0. -1.
         11    1    3    3    0    0  0.22015517618E+01 -0.97546544957E+01  0.15708499232E+02  0.18621414094E+02  0.51100000000E-03 0.  1.
<mgrwt>
<rscale>  0 0.20000247E+02</rscale>
<asrwt>0</asrwt>
<pdfrwt beam="2">  1        2 0.44597838E-03 0.20000247E+02</pdfrwt>
<pdfrwt beam="1">  1       -2 0.53072579E-02 0.20000247E+02</pdfrwt>
<totfact> 0.35529485E+06</totfact>
</mgrwt>
</event>
<event>
 5    1  0.4122458E-006  0.2000381E+02  0.7818608E-02  0.1745252E+00
          2   -1    0    0  501    0  0.00000000000E+00  0.00000000000E+00  0.10082646328E+03  0.10082646332E+03  0.26000000000E-02 0. -1.
         -2   -1    0    0    0  501 -0.00000000000E+00 -0.00000000000E+00 -0.99217959624E+00  0.99218300287E+00  0.26000000000E-02 0.  1.
       1023    2    1    2    0    0  0.00000000000E+00  0.00000000000E+00  0.99834283686E+02  0.10181864632E+03  0.20003813113E+02 0.  0.
        -11    1    3    3    0    0  0.80912248106E+01  0.58793363189E+01  0.50223387479E+02  0.51209600317E+02  0.51100000000E-03 0. -1.
         11    1    3    3    0    0 -0.80912248106E+01 -0.58793363189E+01  0.49610896207E+02  0.50609046002E+02  0.51100000000E-03 0.  1.
<mgrwt>
<rscale>  0 0.20003813E+02</rscale>
<asrwt>0</asrwt>
<pdfrwt beam="1">  1        2 0.15511778E-01 0.20003813E+02</pdfrwt>
<pdfrwt beam="2">  1       -2 0.15264314E-03 0.20003813E+02</pdfrwt>
<totfact> 0.52834602E+06</totfact>
</mgrwt>
</event>
<event>
 4    1  0.4046313E-006  0.2008709E+02  0.7818608E-02  0.1743602E+00
          2   -1    0    0  501    0  0.00000000000E+00  0.00000000000E+00  0.24241547300E+01  0.24241561243E+01  0.26000000000E-02 0. -1.
         -2   -1    0    0    0  501 -0.00000000000E+00 -0.00000000000E+00 -0.41611535675E+02  0.41611535757E+02  0.26000000000E-02 0.  1.
        -11    1    1    2    0    0 -0.95549621841E+01 -0.30591460629E+01 -0.20615274081E+02  0.22926953628E+02  0.51100000000E-03 0. -1.
         11    1    1    2    0    0  0.95549621841E+01  0.30591460629E+01 -0.18572106864E+02  0.21108738252E+02  0.51100000000E-03 0.  1.
<mgrwt>
<rscale>  0 0.20087094E+02</rscale>
<asrwt>0</asrwt>
<pdfrwt beam="1">  1        2 0.37294703E-03 0.20087094E+02</pdfrwt>
<pdfrwt beam="2">  1       -2 0.64017743E-02 0.20087094E+02</pdfrwt>
<totfact> 0.34420633E+06</totfact>
</mgrwt>
</event>
<event>
 5    1  0.4046313E-006  0.2000040E+02  0.7818608E-02  0.1745320E+00
         -2   -1    0    0    0  501 -0.00000000000E+00  0.00000000000E+00  0.20195279616E+01  0.20195296353E+01  0.26000000000E-02 0.  1.
          2   -1    0    0  501    0  0.00000000000E+00 -0.00000000000E+00 -0.49518493739E+02  0.49518493807E+02  0.26000000000E-02 0. -1.
       1023    2    1    2    0    0  0.00000000000E+00  0.00000000000E+00 -0.47498965777E+02  0.51538023442E+02  0.20000402757E+02 0.  0.
        -11    1    3    3    0    0  0.87414428982E+01 -0.48570649092E+01 -0.23720802901E+02  0.25742579397E+02  0.51100000000E-03 0.  1.
         11    1    3    3    0    0 -0.87414428982E+01  0.48570649092E+01 -0.23778162876E+02  0.25795444045E+02  0.51100000000E-03 0. -1.
<mgrwt>
<rscale>  0 0.20000403E+02</rscale>
<asrwt>0</asrwt>
<pdfrwt beam="2">  1        2 0.76182291E-02 0.20000403E+02</pdfrwt>
<pdfrwt beam="1">  1       -2 0.31069678E-03 0.20000403E+02</pdfrwt>
<totfact> 0.46258679E+06</totfact>
</mgrwt>
</event>
<event>
 5    1  0.4046313E-006  0.2000057E+02  0.7818608E-02  0.1745317E+00
         -2   -1    0    0    0  501 -0.00000000000E+00  0.00000000000E+00  0.75026003177E+02  0.75026003222E+02  0.26000000000E-02 0. -1.
          2   -1    0    0  501    0  0.00000000000E+00 -0.00000000000E+00 -0.13329455687E+01  0.13329481045E+01  0.26000000000E-02 0.  1.
       1023    2    1    2    0    0  0.00000000000E+00  0.00000000000E+00  0.73693057608E+02  0.76358951327E+02  0.20000567693E+02 0.  0.
        -11    1    3    3    0    0  0.99999790147E+01 -0.53716000347E-01  0.36630186849E+02  0.37970686780E+02  0.51100000000E-03 0. -1.
         11    1    3    3    0    0 -0.99999790147E+01  0.53716000347E-01  0.37062870760E+02  0.38388264547E+02  0.51100000000E-03 0.  1.
<mgrwt>
<rscale>  0 0.20000568E+02</rscale>
<asrwt>0</asrwt>
<pdfrwt beam="2">  1        2 0.20506869E-03 0.20000568E+02</pdfrwt>
<pdfrwt beam="1">  1       -2 0.11542466E-01 0.20000568E+02</pdfrwt>
<totfact> 0.31660517E+06</totfact>
</mgrwt>
</event>
<event>
 5    1  0.4046313E-006  0.2000215E+02  0.7818608E-02  0.1745285E+00
          2   -1    0    0  501    0  0.00000000000E+00  0.00000000000E+00  0.70023243136E+02  0.70023243184E+02  0.26000000000E-02 0.  1.
         -2   -1    0    0    0  501 -0.00000000000E+00 -0.00000000000E+00 -0.14284034420E+01  0.14284058083E+01  0.26000000000E-02 0. -1.
       1023    2    1    2    0    0  0.00000000000E+00  0.00000000000E+00  0.68594839694E+02  0.71451648992E+02  0.20002152662E+02 0.  0.
        -11    1    3    3    0    0 -0.99318744322E+01 -0.11703049114E+01  0.33944075629E+02  0.35386607833E+02  0.51100000000E-03 0. -1.
         11    1    3    3    0    0  0.99318744322E+01  0.11703049114E+01  0.34650764065E+02  0.36065041160E+02  0.51100000000E-03 0.  1.
<mgrwt>
<rscale>  0 0.20002153E+02</rscale>
<asrwt>0</asrwt>
<pdfrwt beam="1">  1        2 0.10772808E-01 0.20002153E+02</pdfrwt>
<pdfrwt beam="2">  1       -2 0.21975454E-03 0.20002153E+02</pdfrwt>
<totfact> 0.49011147E+06</totfact>
</mgrwt>
</event>
<event>
 5    1  0.4046313E-006  0.2000016E+02  0.7818608E-02  0.1745325E+00
         -2   -1    0    0    0  501 -0.00000000000E+00  0.00000000000E+00  0.44261750082E+02  0.44261750159E+02  0.26000000000E-02 0.  1.
          2   -1    0    0  501    0  0.00000000000E+00 -0.00000000000E+00 -0.22593230321E+01  0.22593245282E+01  0.26000000000E-02 0. -1.
       1023    2    1    2    0    0  0.00000000000E+00  0.00000000000E+00  0.42002427050E+02  0.46521074687E+02  0.20000162797E+02 0.  0.
        -11    1    3    3    0    0  0.53800819029E+01 -0.84294468817E+01  0.21065829772E+02  0.23318877337E+02  0.51100000000E-03 0.  1.
         11    1    3    3    0    0 -0.53800819029E+01  0.84294468817E+01  0.20936597278E+02  0.23202197350E+02  0.51100000000E-03 0. -1.
<mgrwt>
<rscale>  0 0.20000163E+02</rscale>
<asrwt>0</asrwt>
<pdfrwt beam="2">  1        2 0.34758828E-03 0.20000163E+02</pdfrwt>
<pdfrwt beam="1">  1       -2 0.68095002E-02 0.20000163E+02</pdfrwt>
<totfact> 0.34472319E+06</totfact>
</mgrwt>
</event>
<event>
 5    1  0.4046313E-006  0.2000054E+02  0.7818608E-02  0.1745317E+00
         -2   -1    0    0    0  501 -0.00000000000E+00  0.00000000000E+00  0.28974158782E+01  0.28974170448E+01  0.26000000000E-02 0.  1.
          2   -1    0    0  501    0  0.00000000000E+00 -0.00000000000E+00 -0.34515378665E+02  0.34515378763E+02  0.26000000000E-02 0. -1.
       1023    2    1    2    0    0  0.00000000000E+00  0.00000000000E+00 -0.31617962787E+02  0.37412795808E+02  0.20000542977E+02 0.  0.
        -11    1    3    3    0    0  0.97917995828E+01  0.20304649047E+01 -0.15701478981E+02  0.18615546440E+02  0.51100000000E-03 0.  1.
         11    1    3    3    0    0 -0.97917995828E+01 -0.20304649047E+01 -0.15916483806E+02  0.18797249368E+02  0.51100000000E-03 0. -1.
<mgrwt>
<rscale>  0 0.20000543E+02</rscale>
<asrwt>0</asrwt>
<pdfrwt beam="2">  1        2 0.53100581E-02 0.20000543E+02</pdfrwt>
<pdfrwt beam="1">  1       -2 0.44575641E-03 0.20000543E+02</pdfrwt>
<totfact> 0.44072587E+06</totfact>
</mgrwt>
</event>
<event>
 5    1  0.4046313E-006  0.2000516E+02  0.7818608E-02  0.1745226E+00
         -2   -1    0    0    0  501 -0.00000000000E+00  0.00000000000E+00  0.41434371555E+01  0.41434379713E+01  0.26000000000E-02 0. -1.
          2   -1    0    0  501    0  0.00000000000E+00 -0.00000000000E+00 -0.24147000608E+02  0.24147000748E+02  0.26000000000E-02 0.  1.
       1023    2    1    2    0    0  0.00000000000E+00  0.00000000000E+00 -0.20003563453E+02  0.28290438719E+02  0.20005158638E+02 0.  0.
        -11    1    3    3    0    0 -0.93808824457E+01 -0.34703889797E+01 -0.98831471583E+01  0.14061335397E+02  0.51100000000E-03 0.  1.
         11    1    3    3    0    0  0.93808824457E+01  0.34703889797E+01 -0.10120416294E+02  0.14229103323E+02  0.51100000000E-03 0. -1.
<mgrwt>
<rscale>  0 0.20005159E+02</rscale>
<asrwt>0</asrwt>
<pdfrwt beam="2">  1        2 0.37149232E-02 0.20005159E+02</pdfrwt>
<pdfrwt beam="1">  1       -2 0.63745196E-03 0.20005159E+02</pdfrwt>
<totfact> 0.42387341E+06</totfact>
</mgrwt>
</event>
<event>
 5    1  0.4658846E-006  0.2000246E+02  0.7818608E-02  0.1745279E+00
         -2   -1    0    0    0  501 -0.00000000000E+00  0.00000000000E+00  0.54362997021E+01  0.54363003238E+01  0.26000000000E-02 0. -1.
          2   -1    0    0  501    0  0.00000000000E+00 -0.00000000000E+00 -0.18399389275E+02  0.18399389458E+02  0.26000000000E-02 0.  1.
       1023    2    1    2    0    0  0.00000000000E+00  0.00000000000E+00 -0.12963089573E+02  0.23835689782E+02  0.20002460252E+02 0.  0.
        -11    1    3    3    0    0 -0.99841397991E+01  0.58433195155E+00 -0.64941791077E+01  0.11924716093E+02  0.51100000000E-03 0. -1.
         11    1    3    3    0    0  0.99841397991E+01 -0.58433195155E+00 -0.64689104650E+01  0.11910973689E+02  0.51100000000E-03 0.  1.
<mgrwt>
<rscale>  0 0.20002460E+02</rscale>
<asrwt>0</asrwt>
<pdfrwt beam="2">  1        2 0.28306753E-02 0.20002460E+02</pdfrwt>
<pdfrwt beam="1">  1       -2 0.83635387E-03 0.20002460E+02</pdfrwt>
<totfact> 0.41365680E+06</totfact>
</mgrwt>
</event>
<event>
 5    1  0.4046313E-006  0.2000028E+02  0.7818608E-02  0.1745323E+00
          2   -1    0    0  501    0  0.00000000000E+00  0.00000000000E+00  0.80534950546E+01  0.80534954743E+01  0.26000000000E-02 0.  1.
         -2   -1    0    0    0  501 -0.00000000000E+00 -0.00000000000E+00 -0.12417309899E+02  0.12417310171E+02  0.26000000000E-02 0. -1.
       1023    2    1    2    0    0  0.00000000000E+00  0.00000000000E+00 -0.43638148442E+01  0.20470805645E+02  0.20000275092E+02 0.  0.
        -11    1    3    3    0    0  0.47420977414E+01  0.88042750352E+01 -0.21828208961E+01  0.10235597550E+02  0.51100000000E-03 0. -1.
         11    1    3    3    0    0 -0.47420977414E+01 -0.88042750352E+01 -0.21809939480E+01  0.10235208095E+02  0.51100000000E-03 0.  1.
<mgrwt>
<rscale>  0 0.20000275E+02</rscale>
<asrwt>0</asrwt>
<pdfrwt beam="1">  1        2 0.12389993E-02 0.20000275E+02</pdfrwt>
<pdfrwt beam="2">  1       -2 0.19103554E-02 0.20000275E+02</pdfrwt>
<totfact> 0.38840905E+06</totfact>
</mgrwt>
</event>
<event>
 5    1  0.4046313E-006  0.2000073E+02  0.7818608E-02  0.1745314E+00
          2   -1    0    0  501    0  0.00000000000E+00  0.00000000000E+00  0.48546114443E+02  0.48546114512E+02  0.26000000000E-02 0.  1.
         -2   -1    0    0    0  501 -0.00000000000E+00 -0.00000000000E+00 -0.20600456895E+01  0.20600473302E+01  0.26000000000E-02 0. -1.
       1023    2    1    2    0    0  0.00000000000E+00  0.00000000000E+00  0.46486068753E+02  0.50606161843E+02  0.20000725695E+02 0.  0.
        -11    1    3    3    0    0 -0.32871899190E+01 -0.94444902118E+01  0.23387143272E+02  0.25435457213E+02  0.51100000000E-03 0.  1.
         11    1    3    3    0    0  0.32871899190E+01  0.94444902118E+01  0.23098925481E+02  0.25170704630E+02  0.51100000000E-03 0. -1.
<mgrwt>
<rscale>  0 0.20000726E+02</rscale>
<asrwt>0</asrwt>
<pdfrwt beam="1">  1        2 0.74686332E-02 0.20000726E+02</pdfrwt>
<pdfrwt beam="2">  1       -2 0.31693023E-03 0.20000726E+02</pdfrwt>
<totfact> 0.46120559E+06</totfact>
</mgrwt>
</event>
<event>
 5    1  0.4046313E-006  0.2000341E+02  0.7818608E-02  0.1745260E+00
         -2   -1    0    0    0  501 -0.00000000000E+00  0.00000000000E+00  0.11398288825E+02  0.11398289121E+02  0.26000000000E-02 0.  1.
          2   -1    0    0  501    0  0.00000000000E+00 -0.00000000000E+00 -0.87762381423E+01  0.87762385275E+01  0.26000000000E-02 0. -1.
       1023    2    1    2    0    0  0.00000000000E+00  0.00000000000E+00  0.26220506824E+01  0.20174527649E+02  0.20003410111E+02 0.  0.
        -11    1    3    3    0    0  0.30039224013E+01 -0.95397164603E+01  0.13776496498E+01  0.10095922878E+02  0.51100000000E-03 0. -1.
         11    1    3    3    0    0 -0.30039224013E+01  0.95397164603E+01  0.12444010326E+01  0.10078604771E+02  0.51100000000E-03 0.  1.
<mgrwt>
<rscale>  0 0.20003410E+02</rscale>
<asrwt>0</asrwt>
<pdfrwt beam="2">  1        2 0.13501905E-02 0.20003410E+02</pdfrwt>
<pdfrwt beam="1">  1       -2 0.17535830E-02 0.20003410E+02</pdfrwt>
<totfact> 0.39072754E+06</totfact>
</mgrwt>
</event>
<event>
 5    1  0.4046313E-006  0.2000028E+02  0.7818608E-02  0.1745322E+00
         -2   -1    0    0    0  501 -0.00000000000E+00  0.00000000000E+00  0.60096137698E+01  0.60096143323E+01  0.26000000000E-02 0.  1.
          2   -1    0    0  501    0  0.00000000000E+00 -0.00000000000E+00 -0.16640473233E+02  0.16640473436E+02  0.26000000000E-02 0. -1.
       1023    2    1    2    0    0  0.00000000000E+00  0.00000000000E+00 -0.10630859463E+02  0.22650087768E+02  0.20000282573E+02 0.  0.
        -11    1    3    3    0    0  0.46871990513E+01  0.88336201174E+01 -0.53017383638E+01  0.11318617816E+02  0.51100000000E-03 0. -1.
         11    1    3    3    0    0 -0.46871990513E+01 -0.88336201174E+01 -0.53291210990E+01  0.11331469952E+02  0.51100000000E-03 0.  1.
<mgrwt>
<rscale>  0 0.20000283E+02</rscale>
<asrwt>0</asrwt>
<pdfrwt beam="2">  1        2 0.25600728E-02 0.20000283E+02</pdfrwt>
<pdfrwt beam="1">  1       -2 0.92455604E-03 0.20000283E+02</pdfrwt>
<totfact> 0.41029610E+06</totfact>
</mgrwt>
</event>
<event>
 5    1  0.4252565E-006  0.2000147E+02  0.7818608E-02  0.1745299E+00
         -2   -1    0    0    0  501 -0.00000000000E+00  0.00000000000E+00  0.11200363904E+01  0.11200394081E+01  0.26000000000E-02 0.  1.
          2   -1    0    0  501    0  0.00000000000E+00 -0.00000000000E+00 -0.89295788669E+02  0.89295788707E+02  0.26000000000E-02 0. -1.
       1023    2    1    2    0    0  0.00000000000E+00  0.00000000000E+00 -0.88175752279E+02  0.90415828115E+02  0.20001467042E+02 0.  0.
        -11    1    3    3    0    0 -0.20570836412E+00  0.99985790419E+01 -0.43962283458E+02  0.45085432968E+02  0.51100000000E-03 0. -1.
         11    1    3    3    0    0  0.20570836412E+00 -0.99985790419E+01 -0.44213468821E+02  0.45330395147E+02  0.51100000000E-03 0.  1.
<mgrwt>
<rscale>  0 0.20001467E+02</rscale>
<asrwt>0</asrwt>
<pdfrwt beam="2">  1        2 0.13737808E-01 0.20001467E+02</pdfrwt>
<pdfrwt beam="1">  1       -2 0.17231360E-03 0.20001467E+02</pdfrwt>
<totfact> 0.51449724E+06</totfact>
</mgrwt>
</event>
<event>
 5    1  0.4046313E-006  0.2000223E+02  0.7818608E-02  0.1745284E+00
          2   -1    0    0  501    0  0.00000000000E+00  0.00000000000E+00  0.50382741963E+02  0.50382742030E+02  0.26000000000E-02 0.  1.
         -2   -1    0    0    0  501 -0.00000000000E+00 -0.00000000000E+00 -0.19852488107E+01  0.19852505133E+01  0.26000000000E-02 0. -1.
       1023    2    1    2    0    0  0.00000000000E+00  0.00000000000E+00  0.48397493152E+02  0.52367992543E+02  0.20002232365E+02 0.  0.
        -11    1    3    3    0    0 -0.67297560069E+01  0.73976718625E+01  0.23977214797E+02  0.25979260855E+02  0.51100000000E-03 0.  1.
         11    1    3    3    0    0  0.67297560069E+01 -0.73976718625E+01  0.24420278355E+02  0.26388731688E+02  0.51100000000E-03 0. -1.
<mgrwt>
<rscale>  0 0.20002232E+02</rscale>
<asrwt>0</asrwt>
<pdfrwt beam="1">  1        2 0.77511909E-02 0.20002232E+02</pdfrwt>
<pdfrwt beam="2">  1       -2 0.30542304E-03 0.20002232E+02</pdfrwt>
<totfact> 0.46370023E+06</totfact>
</mgrwt>
</event>
<event>
 5    1  0.4046313E-006  0.2000247E+02  0.7818608E-02  0.1745279E+00
          2   -1    0    0  501    0  0.00000000000E+00  0.00000000000E+00  0.22026777516E+02  0.22026777669E+02  0.26000000000E-02 0. -1.
         -2   -1    0    0    0  501 -0.00000000000E+00 -0.00000000000E+00 -0.45410485177E+01  0.45410492620E+01  0.26000000000E-02 0.  1.
       1023    2    1    2    0    0  0.00000000000E+00  0.00000000000E+00  0.17485728998E+02  0.26567826931E+02  0.20002467579E+02 0.  0.
        -11    1    3    3    0    0 -0.34154070107E+01 -0.93988111705E+01  0.85457643759E+01  0.13154191176E+02  0.51100000000E-03 0.  1.
         11    1    3    3    0    0  0.34154070107E+01  0.93988111705E+01  0.89399646223E+01  0.13413635755E+02  0.51100000000E-03 0. -1.
<mgrwt>
<rscale>  0 0.20002468E+02</rscale>
<asrwt>0</asrwt>
<pdfrwt beam="1">  1        2 0.33887351E-02 0.20002468E+02</pdfrwt>
<pdfrwt beam="2">  1       -2 0.69862291E-03 0.20002468E+02</pdfrwt>
<totfact> 0.42031987E+06</totfact>
</mgrwt>
</event>
<event>
 5    1  0.4046313E-006  0.2000333E+02  0.7818608E-02  0.1745262E+00
         -2   -1    0    0    0  501 -0.00000000000E+00  0.00000000000E+00  0.80429912486E+01  0.80429916689E+01  0.26000000000E-02 0.  1.
          2   -1    0    0  501    0  0.00000000000E+00 -0.00000000000E+00 -0.12437328727E+02  0.12437328999E+02  0.26000000000E-02 0. -1.
       1023    2    1    2    0    0  0.00000000000E+00  0.00000000000E+00 -0.43943374784E+01  0.20480320668E+02  0.20003333042E+02 0.  0.
        -11    1    3    3    0    0 -0.62657967690E+01  0.77957118604E+01 -0.21965442959E+01  0.10240026351E+02  0.51100000000E-03 0. -1.
         11    1    3    3    0    0  0.62657967690E+01 -0.77957118604E+01 -0.21977931825E+01  0.10240294317E+02  0.51100000000E-03 0.  1.
<mgrwt>
<rscale>  0 0.20003333E+02</rscale>
<asrwt>0</asrwt>
<pdfrwt beam="2">  1        2 0.19134352E-02 0.20003333E+02</pdfrwt>
<pdfrwt beam="1">  1       -2 0.12373833E-02 0.20003333E+02</pdfrwt>
<totfact> 0.40091242E+06</totfact>
</mgrwt>
</event>
<event>
 5    1  0.4046313E-006  0.2000130E+02  0.7818608E-02  0.1745302E+00
         -2   -1    0    0    0  501 -0.00000000000E+00  0.00000000000E+00  0.61677345939E+02  0.61677345994E+02  0.26000000000E-02 0.  1.
          2   -1    0    0  501    0  0.00000000000E+00 -0.00000000000E+00 -0.16215509977E+01  0.16215530821E+01  0.26000000000E-02 0. -1.
       1023    2    1    2    0    0  0.00000000000E+00  0.00000000000E+00  0.60055794942E+02  0.63298899076E+02  0.20001302912E+02 0.  0.
        -11    1    3    3    0    0 -0.97774447522E+01  0.20996387836E+01  0.30275484073E+02  0.31884351099E+02  0.51100000000E-03 0.  1.
         11    1    3    3    0    0  0.97774447522E+01 -0.20996387836E+01  0.29780310869E+02  0.31414547977E+02  0.51100000000E-03 0. -1.
<mgrwt>
<rscale>  0 0.20001303E+02</rscale>
<asrwt>0</asrwt>
<pdfrwt beam="2">  1        2 0.24946956E-03 0.20001303E+02</pdfrwt>
<pdfrwt beam="1">  1       -2 0.94888223E-02 0.20001303E+02</pdfrwt>
<totfact> 0.32804195E+06</totfact>
</mgrwt>
</event>
<event>
 4    1  0.4046313E-006  0.2009790E+02  0.7818608E-02  0.1743388E+00
         -2   -1    0    0    0  501 -0.00000000000E+00  0.00000000000E+00  0.30458349849E+01  0.30458360946E+01  0.26000000000E-02 0. -1.
          2   -1    0    0  501    0  0.00000000000E+00 -0.00000000000E+00 -0.33153932559E+02  0.33153932661E+02  0.26000000000E-02 0.  1.
        -11    1    1    2    0    0  0.93088540096E+01  0.37731897683E+01 -0.14514582628E+02  0.17651199198E+02  0.51100000000E-03 0.  1.
         11    1    1    2    0    0 -0.93088540096E+01 -0.37731897683E+01 -0.15593514946E+02  0.18548569558E+02  0.51100000000E-03 0. -1.
<mgrwt>
<rscale>  0 0.20097903E+02</rscale>
<asrwt>0</asrwt>
<pdfrwt beam="2">  1        2 0.51006049E-02 0.20097903E+02</pdfrwt>
<pdfrwt beam="1">  1       -2 0.46859011E-03 0.20097903E+02</pdfrwt>
<totfact> 0.43389296E+06</totfact>
</mgrwt>
</event>
<event>
 5    1  0.4046313E-006  0.2000023E+02  0.7818608E-02  0.1745324E+00
          2   -1    0    0  501    0  0.00000000000E+00  0.00000000000E+00  0.32975950991E+01  0.32975961241E+01  0.26000000000E-02 0.  1.
         -2   -1    0    0    0  501 -0.00000000000E+00 -0.00000000000E+00 -0.30325813607E+02  0.30325813719E+02  0.26000000000E-02 0. -1.
       1023    2    1    2    0    0  0.00000000000E+00  0.00000000000E+00 -0.27028218508E+02  0.33623409843E+02  0.20000227342E+02 0.  0.
        -11    1    3    3    0    0  0.31883386091E+01  0.94781828003E+01 -0.13562276277E+02  0.16850424041E+02  0.51100000000E-03 0.  1.
         11    1    3    3    0    0 -0.31883386091E+01 -0.94781828003E+01 -0.13465942232E+02  0.16772985802E+02  0.51100000000E-03 0. -1.
<mgrwt>
<rscale>  0 0.20000227E+02</rscale>
<asrwt>0</asrwt>
<pdfrwt beam="1">  1        2 0.50732243E-03 0.20000227E+02</pdfrwt>
<pdfrwt beam="2">  1       -2 0.46655097E-02 0.20000227E+02</pdfrwt>
<totfact> 0.36023477E+06</totfact>
</mgrwt>
</event>
<event>
 5    1  0.4046313E-006  0.2000196E+02  0.7818608E-02  0.1745289E+00
         -2   -1    0    0    0  501 -0.00000000000E+00  0.00000000000E+00  0.15726405968E+02  0.15726406183E+02  0.26000000000E-02 0. -1.
          2   -1    0    0  501    0  0.00000000000E+00 -0.00000000000E+00 -0.63599751499E+01  0.63599756814E+01  0.26000000000E-02 0.  1.
       1023    2    1    2    0    0  0.00000000000E+00  0.00000000000E+00  0.93664308184E+01  0.22086381865E+02  0.20001955844E+02 0.  0.
        -11    1    3    3    0    0  0.99870285140E+01  0.52591880912E+00  0.47353594723E+01  0.11065304276E+02  0.51100000000E-03 0. -1.
         11    1    3    3    0    0 -0.99870285140E+01 -0.52591880912E+00  0.46310713461E+01  0.11021077588E+02  0.51100000000E-03 0.  1.
<mgrwt>
<rscale>  0 0.20001956E+02</rscale>
<asrwt>0</asrwt>
<pdfrwt beam="2">  1        2 0.97845778E-03 0.20001956E+02</pdfrwt>
<pdfrwt beam="1">  1       -2 0.24194471E-02 0.20001956E+02</pdfrwt>
<totfact> 0.38151380E+06</totfact>
</mgrwt>
</event>
<event>
 5    1  0.4046313E-006  0.2000420E+02  0.7818608E-02  0.1745245E+00
          2   -1    0    0  501    0  0.00000000000E+00  0.00000000000E+00  0.21124605961E+02  0.21124606121E+02  0.26000000000E-02 0. -1.
         -2   -1    0    0    0  501 -0.00000000000E+00 -0.00000000000E+00 -0.47358054997E+01  0.47358062134E+01  0.26000000000E-02 0.  1.
       1023    2    1    2    0    0  0.00000000000E+00  0.00000000000E+00  0.16388800461E+02  0.25860412334E+02  0.20004203197E+02 0.  0.
        -11    1    3    3    0    0  0.84359422228E+01 -0.53737040155E+01  0.81752217475E+01  0.12918051978E+02  0.51100000000E-03 0.  1.
         11    1    3    3    0    0 -0.84359422228E+01  0.53737040155E+01  0.82135787136E+01  0.12942360356E+02  0.51100000000E-03 0. -1.
<mgrwt>
<rscale>  0 0.20004203E+02</rscale>
<asrwt>0</asrwt>
<pdfrwt beam="1">  1        2 0.32499394E-02 0.20004203E+02</pdfrwt>
<pdfrwt beam="2">  1       -2 0.72858553E-03 0.20004203E+02</pdfrwt>
<totfact> 0.41862916E+06</totfact>
</mgrwt>
</event>
<event>
 5    1  0.4046313E-006  0.2000198E+02  0.7818608E-02  0.1745289E+00
          2   -1    0    0  501    0  0.00000000000E+00  0.00000000000E+00  0.20513071253E+02  0.20513071418E+02  0.26000000000E-02 0. -1.
         -2   -1    0    0    0  501 -0.00000000000E+00 -0.00000000000E+00 -0.48759047953E+01  0.48759054885E+01  0.26000000000E-02 0.  1.
       1023    2    1    2    0    0  0.00000000000E+00  0.00000000000E+00  0.15637166458E+02  0.25388976906E+02  0.20001979240E+02 0.  0.
        -11    1    3    3    0    0  0.14158959401E+01  0.98998893336E+01  0.79264606880E+01  0.12760930586E+02  0.51100000000E-03 0.  1.
         11    1    3    3    0    0 -0.14158959401E+01 -0.98998893336E+01  0.77107057699E+01  0.12628046320E+02  0.51100000000E-03 0. -1.
<mgrwt>
<rscale>  0 0.20001979E+02</rscale>
<asrwt>0</asrwt>
<pdfrwt beam="1">  1        2 0.31558573E-02 0.20001979E+02</pdfrwt>
<pdfrwt beam="2">  1       -2 0.75013925E-03 0.20001979E+02</pdfrwt>
<totfact> 0.41762689E+06</totfact>
</mgrwt>
</event>
<event>
 5    1  0.4046313E-006  0.2000225E+02  0.7818608E-02  0.1745283E+00
          2   -1    0    0  501    0  0.00000000000E+00  0.00000000000E+00  0.31406702943E+01  0.31406713705E+01  0.26000000000E-02 0. -1.
         -2   -1    0    0    0  501 -0.00000000000E+00 -0.00000000000E+00 -0.31847482424E+02  0.31847482530E+02  0.26000000000E-02 0.  1.
       1023    2    1    2    0    0  0.00000000000E+00  0.00000000000E+00 -0.28706812129E+02  0.34988153900E+02  0.20002246142E+02 0.  0.
        -11    1    3    3    0    0 -0.46865182313E+01  0.88351000865E+01 -0.14360347568E+02  0.17499772261E+02  0.51100000000E-03 0. -1.
         11    1    3    3    0    0  0.46865182313E+01 -0.88351000865E+01 -0.14346464561E+02  0.17488381639E+02  0.51100000000E-03 0.  1.
<mgrwt>
<rscale>  0 0.20002246E+02</rscale>
<asrwt>0</asrwt>
<pdfrwt beam="1">  1        2 0.48318016E-03 0.20002246E+02</pdfrwt>
<pdfrwt beam="2">  1       -2 0.48996125E-02 0.20002246E+02</pdfrwt>
<totfact> 0.35831732E+06</totfact>
</mgrwt>
</event>
<event>
 4    1  0.4046313E-006  0.2001292E+02  0.7818608E-02  0.1745071E+00
         -2   -1    0    0    0  501 -0.00000000000E+00  0.00000000000E+00  0.11471501522E+03  0.11471501525E+03  0.26000000000E-02 0. -1.
          2   -1    0    0  501    0  0.00000000000E+00 -0.00000000000E+00 -0.87285055452E+00  0.87285442688E+00  0.26000000000E-02 0.  1.
        -11    1    1    2    0    0 -0.96292811685E+01  0.27071965789E+01  0.55315066845E+02  0.56212174745E+02  0.51100000000E-03 0. -1.
         11    1    1    2    0    0  0.96292811685E+01 -0.27071965789E+01  0.58527097825E+02  0.59375694936E+02  0.51100000000E-03 0.  1.
<mgrwt>
<rscale>  0 0.20012925E+02</rscale>
<asrwt>0</asrwt>
<pdfrwt beam="2">  1        2 0.13428495E-03 0.20012925E+02</pdfrwt>
<pdfrwt beam="1">  1       -2 0.17648471E-01 0.20012925E+02</pdfrwt>
<totfact> 0.28655979E+06</totfact>
</mgrwt>
</event>
<event>
 5    1  0.4046313E-006  0.2000996E+02  0.7818608E-02  0.1745130E+00
          2   -1    0    0  501    0  0.00000000000E+00  0.00000000000E+00  0.11269947006E+03  0.11269947009E+03  0.26000000000E-02 0.  1.
         -2   -1    0    0    0  501 -0.00000000000E+00 -0.00000000000E+00 -0.88819799436E+00  0.88820179981E+00  0.26000000000E-02 0. -1.
       1023    2    1    2    0    0  0.00000000000E+00  0.00000000000E+00  0.11181127206E+03  0.11358767189E+03  0.20009963628E+02 0.  0.
        -11    1    3    3    0    0  0.29788091195E+01 -0.95473860642E+01  0.54363780591E+02  0.55276093610E+02  0.51100000000E-03 0. -1.
         11    1    3    3    0    0 -0.29788091195E+01  0.95473860642E+01  0.57447491474E+02  0.58311578278E+02  0.51100000000E-03 0.  1.
<mgrwt>
<rscale>  0 0.20009964E+02</rscale>
<asrwt>0</asrwt>
<pdfrwt beam="1">  1        2 0.17338385E-01 0.20009964E+02</pdfrwt>
<pdfrwt beam="2">  1       -2 0.13664610E-03 0.20009964E+02</pdfrwt>
<totfact> 0.54193960E+06</totfact>
</mgrwt>
</event>
<event>
 5    1  0.4046313E-006  0.2000062E+02  0.7818608E-02  0.1745316E+00
          2   -1    0    0  501    0  0.00000000000E+00  0.00000000000E+00  0.39747005537E+02  0.39747005622E+02  0.26000000000E-02 0.  1.
         -2   -1    0    0    0  501 -0.00000000000E+00 -0.00000000000E+00 -0.25160688900E+01  0.25160702334E+01  0.26000000000E-02 0. -1.
       1023    2    1    2    0    0  0.00000000000E+00  0.00000000000E+00  0.37230936647E+02  0.42263075856E+02  0.20000623419E+02 0.  0.
        -11    1    3    3    0    0 -0.78341990573E+01  0.62152986570E+01  0.18530371922E+02  0.21056573702E+02  0.51100000000E-03 0.  1.
         11    1    3    3    0    0  0.78341990573E+01 -0.62152986570E+01  0.18700564726E+02  0.21206502153E+02  0.51100000000E-03 0. -1.
<mgrwt>
<rscale>  0 0.20000623E+02</rscale>
<asrwt>0</asrwt>
<pdfrwt beam="1">  1        2 0.61149234E-02 0.20000623E+02</pdfrwt>
<pdfrwt beam="2">  1       -2 0.38708767E-03 0.20000623E+02</pdfrwt>
<totfact> 0.44855958E+06</totfact>
</mgrwt>
</event>
<event>
 4    1  0.4046313E-006  0.2072075E+02  0.7818608E-02  0.1731364E+00
         -2   -1    0    0    0  501 -0.00000000000E+00  0.00000000000E+00  0.11134901125E+03  0.11134901128E+03  0.26000000000E-02 0.  1.
          2   -1    0    0  501    0  0.00000000000E+00 -0.00000000000E+00 -0.96397073794E+00  0.96397424427E+00  0.26000000000E-02 0. -1.
        -11    1    1    2    0    0 -0.10279067313E+02 -0.99100750588E+00  0.59714719970E+02  0.60601065189E+02  0.51100000000E-03 0. -1.
         11    1    1    2    0    0  0.10279067313E+02  0.99100750588E+00  0.50670320544E+02  0.51711920337E+02  0.51100000000E-03 0.  1.
<mgrwt>
<rscale>  0 0.20720752E+02</rscale>
<asrwt>0</asrwt>
<pdfrwt beam="2">  1        2 0.14830356E-03 0.20720752E+02</pdfrwt>
<pdfrwt beam="1">  1       -2 0.17130606E-01 0.20720752E+02</pdfrwt>
<totfact> 0.26772252E+06</totfact>
</mgrwt>
</event>
<event>
 5    1  0.4046313E-006  0.2000072E+02  0.7818608E-02  0.1745314E+00
          2   -1    0    0  501    0  0.00000000000E+00  0.00000000000E+00  0.14563244200E+02  0.14563244432E+02  0.26000000000E-02 0.  1.
         -2   -1    0    0    0  501 -0.00000000000E+00 -0.00000000000E+00 -0.68670973343E+01  0.68670978265E+01  0.26000000000E-02 0. -1.
       1023    2    1    2    0    0  0.00000000000E+00  0.00000000000E+00  0.76961468661E+01  0.21430342259E+02  0.20000722306E+02 0.  0.
        -11    1    3    3    0    0 -0.84979554274E+01  0.52715274753E+01  0.37896355277E+01  0.10694184684E+02  0.51100000000E-03 0.  1.
         11    1    3    3    0    0  0.84979554274E+01 -0.52715274753E+01  0.39065113384E+01  0.10736157575E+02  0.51100000000E-03 0. -1.
<mgrwt>
<rscale>  0 0.20000722E+02</rscale>
<asrwt>0</asrwt>
<pdfrwt beam="1">  1        2 0.22404991E-02 0.20000722E+02</pdfrwt>
<pdfrwt beam="2">  1       -2 0.10564766E-02 0.20000722E+02</pdfrwt>
<totfact> 0.40591723E+06</totfact>
</mgrwt>
</event>
<event>
 5    1  0.4046313E-006  0.2000089E+02  0.7818608E-02  0.1745310E+00
         -2   -1    0    0    0  501 -0.00000000000E+00  0.00000000000E+00  0.82296841581E+02  0.82296841622E+02  0.26000000000E-02 0.  1.
          2   -1    0    0  501    0  0.00000000000E+00 -0.00000000000E+00 -0.12152196376E+01  0.12152224190E+01  0.26000000000E-02 0. -1.
       1023    2    1    2    0    0  0.00000000000E+00  0.00000000000E+00  0.81081621943E+02  0.83512064041E+02  0.20000885566E+02 0.  0.
        -11    1    3    3    0    0  0.98703509522E+01  0.16068383942E+01  0.40308406502E+02  0.41530391192E+02  0.51100000000E-03 0.  1.
         11    1    3    3    0    0 -0.98703509522E+01 -0.16068383942E+01  0.40773215442E+02  0.41981672850E+02  0.51100000000E-03 0. -1.
<mgrwt>
<rscale>  0 0.20000886E+02</rscale>
<asrwt>0</asrwt>
<pdfrwt beam="2">  1        2 0.18695707E-03 0.20000886E+02</pdfrwt>
<pdfrwt beam="1">  1       -2 0.12661054E-01 0.20000886E+02</pdfrwt>
<totfact> 0.31071696E+06</totfact>
</mgrwt>
</event>
<event>
 5    1  0.4046313E-006  0.2000495E+02  0.7818608E-02  0.1745230E+00
         -2   -1    0    0    0  501 -0.00000000000E+00  0.00000000000E+00  0.43279568246E+01  0.43279576056E+01  0.26000000000E-02 0. -1.
          2   -1    0    0  501    0  0.00000000000E+00 -0.00000000000E+00 -0.23117016200E+02  0.23117016346E+02  0.26000000000E-02 0.  1.
       1023    2    1    2    0    0  0.00000000000E+00  0.00000000000E+00 -0.18789059375E+02  0.27444973951E+02  0.20004945464E+02 0.  0.
        -11    1    3    3    0    0 -0.91154502247E+01 -0.41175940616E+01 -0.93139852516E+01  0.13667345579E+02  0.51100000000E-03 0.  1.
         11    1    3    3    0    0  0.91154502247E+01  0.41175940616E+01 -0.94750741234E+01  0.13777628372E+02  0.51100000000E-03 0. -1.
<mgrwt>
<rscale>  0 0.20004945E+02</rscale>
<asrwt>0</asrwt>
<pdfrwt beam="2">  1        2 0.35564640E-02 0.20004945E+02</pdfrwt>
<pdfrwt beam="1">  1       -2 0.66583960E-03 0.20004945E+02</pdfrwt>
<totfact> 0.42211154E+06</totfact>
</mgrwt>
</event>
<event>
 5    1  0.4046313E-006  0.2000076E+02  0.7818608E-02  0.1745313E+00
          2   -1    0    0  501    0  0.00000000000E+00  0.00000000000E+00  0.25177707166E+01  0.25177720591E+01  0.26000000000E-02 0. -1.
         -2   -1    0    0    0  501 -0.00000000000E+00 -0.00000000000E+00 -0.39720694797E+02  0.39720694882E+02  0.26000000000E-02 0.  1.
       1023    2    1    2    0    0  0.00000000000E+00  0.00000000000E+00 -0.37202924080E+02  0.42238466941E+02  0.20000763221E+02 0.  0.
        -11    1    3    3    0    0 -0.14892133429E+01 -0.98885564930E+01 -0.18769432496E+02  0.21267178994E+02  0.51100000000E-03 0.  1.
         11    1    3    3    0    0  0.14892133429E+01  0.98885564930E+01 -0.18433491585E+02  0.20971287947E+02  0.51100000000E-03 0. -1.
<mgrwt>
<rscale>  0 0.20000763E+02</rscale>
<asrwt>0</asrwt>
<pdfrwt beam="1">  1        2 0.38734948E-03 0.20000763E+02</pdfrwt>
<pdfrwt beam="2">  1       -2 0.61108758E-02 0.20000763E+02</pdfrwt>
<totfact> 0.34947627E+06</totfact>
</mgrwt>
</event>
<event>
 4    1  0.4046313E-006  0.2010778E+02  0.7818608E-02  0.1743193E+00
          2   -1    0    0  501    0  0.00000000000E+00  0.00000000000E+00  0.11479365434E+02  0.11479365728E+02  0.26000000000E-02 0. -1.
         -2   -1    0    0    0  501 -0.00000000000E+00 -0.00000000000E+00 -0.88054214324E+01  0.88054218162E+01  0.26000000000E-02 0.  1.
        -11    1    1    2    0    0  0.95900319245E+01  0.29404912468E+01  0.20252212284E+01  0.10233118898E+02  0.51100000000E-03 0. -1.
         11    1    1    2    0    0 -0.95900319245E+01 -0.29404912468E+01  0.64872277284E+00  0.10051668647E+02  0.51100000000E-03 0.  1.
<mgrwt>
<rscale>  0 0.20107775E+02</rscale>
<asrwt>0</asrwt>
<pdfrwt beam="1">  1        2 0.17660563E-02 0.20107775E+02</pdfrwt>
<pdfrwt beam="2">  1       -2 0.13546803E-02 0.20107775E+02</pdfrwt>
<totfact> 0.39381573E+06</totfact>
</mgrwt>
</event>
<event>
 5    1  0.4046313E-006  0.2000045E+02  0.7818608E-02  0.1745319E+00
         -2   -1    0    0    0  501 -0.00000000000E+00  0.00000000000E+00  0.34307731792E+02  0.34307731891E+02  0.26000000000E-02 0.  1.
          2   -1    0    0  501    0  0.00000000000E+00 -0.00000000000E+00 -0.29149249488E+01  0.29149261084E+01  0.26000000000E-02 0. -1.
       1023    2    1    2    0    0  0.00000000000E+00  0.00000000000E+00  0.31392806843E+02  0.37222657999E+02  0.20000448670E+02 0.  0.
        -11    1    3    3    0    0  0.94982007060E+01 -0.31283790497E+01  0.15777832517E+02  0.18680004585E+02  0.51100000000E-03 0. -1.
         11    1    3    3    0    0 -0.94982007060E+01  0.31283790497E+01  0.15614974327E+02  0.18542653414E+02  0.51100000000E-03 0.  1.
<mgrwt>
<rscale>  0 0.20000449E+02</rscale>
<asrwt>0</asrwt>
<pdfrwt beam="2">  1        2 0.44845011E-03 0.20000449E+02</pdfrwt>
<pdfrwt beam="1">  1       -2 0.52781125E-02 0.20000449E+02</pdfrwt>
<totfact> 0.35550474E+06</totfact>
</mgrwt>
</event>
<event>
 5    1  0.4046313E-006  0.2000100E+02  0.7818608E-02  0.1745308E+00
          2   -1    0    0  501    0  0.00000000000E+00  0.00000000000E+00  0.36959123934E+01  0.36959133079E+01  0.26000000000E-02 0.  1.
         -2   -1    0    0    0  501 -0.00000000000E+00 -0.00000000000E+00 -0.27059626080E+02  0.27059626205E+02  0.26000000000E-02 0. -1.
       1023    2    1    2    0    0  0.00000000000E+00  0.00000000000E+00 -0.23363713687E+02  0.30755539513E+02  0.20001002312E+02 0.  0.
        -11    1    3    3    0    0  0.93347938590E+01  0.35872473855E+01 -0.11593483628E+02  0.15310636273E+02  0.51100000000E-03 0.  1.
         11    1    3    3    0    0 -0.93347938590E+01 -0.35872473855E+01 -0.11770230059E+02  0.15444903240E+02  0.51100000000E-03 0. -1.
<mgrwt>
<rscale>  0 0.20001002E+02</rscale>
<asrwt>0</asrwt>
<pdfrwt beam="1">  1        2 0.56860200E-03 0.20001002E+02</pdfrwt>
<pdfrwt beam="2">  1       -2 0.41630194E-02 0.20001002E+02</pdfrwt>
<totfact> 0.36431807E+06</totfact>
</mgrwt>
</event>
<event>
 5    1  0.4046313E-006  0.2000145E+02  0.7818608E-02  0.1745299E+00
          2   -1    0    0  501    0  0.00000000000E+00  0.00000000000E+00  0.28431733826E+01  0.28431745714E+01  0.26000000000E-02 0. -1.
         -2   -1    0    0    0  501 -0.00000000000E+00 -0.00000000000E+00 -0.35177044678E+02  0.35177044774E+02  0.26000000000E-02 0.  1.
       1023    2    1    2    0    0  0.00000000000E+00  0.00000000000E+00 -0.32333871295E+02  0.38020219345E+02  0.20001446101E+02 0.  0.
        -11    1    3    3    0    0 -0.33176536061E+01 -0.94343827786E+01 -0.16181338169E+02  0.19022358136E+02  0.51100000000E-03 0. -1.
         11    1    3    3    0    0  0.33176536061E+01  0.94343827786E+01 -0.16152533126E+02  0.18997861209E+02  0.51100000000E-03 0.  1.
<mgrwt>
<rscale>  0 0.20001446E+02</rscale>
<asrwt>0</asrwt>
<pdfrwt beam="1">  1        2 0.43741141E-03 0.20001446E+02</pdfrwt>
<pdfrwt beam="2">  1       -2 0.54118528E-02 0.20001446E+02</pdfrwt>
<totfact> 0.35447170E+06</totfact>
</mgrwt>
</event>
<event>
 5    1  0.4046313E-006  0.2000489E+02  0.7818608E-02  0.1745231E+00
         -2   -1    0    0    0  501 -0.00000000000E+00  0.00000000000E+00  0.29233324430E+01  0.29233335992E+01  0.26000000000E-02 0.  1.
          2   -1    0    0  501    0  0.00000000000E+00 -0.00000000000E+00 -0.34224265099E+02  0.34224265198E+02  0.26000000000E-02 0. -1.
       1023    2    1    2    0    0  0.00000000000E+00  0.00000000000E+00 -0.31300932656E+02  0.37147598797E+02  0.20004892183E+02 0.  0.
        -11    1    3    3    0    0  0.41464666314E+01  0.91019659269E+01 -0.15465161412E+02  0.18417659651E+02  0.51100000000E-03 0. -1.
         11    1    3    3    0    0 -0.41464666314E+01 -0.91019659269E+01 -0.15835771244E+02  0.18729939146E+02  0.51100000000E-03 0.  1.
<mgrwt>
<rscale>  0 0.20004892E+02</rscale>
<asrwt>0</asrwt>
<pdfrwt beam="2">  1        2 0.52652714E-02 0.20004892E+02</pdfrwt>
<pdfrwt beam="1">  1       -2 0.44974357E-03 0.20004892E+02</pdfrwt>
<totfact> 0.44006694E+06</totfact>
</mgrwt>
</event>
<event>
 5    1  0.4046313E-006  0.2000179E+02  0.7818608E-02  0.1745293E+00
         -2   -1    0    0    0  501 -0.00000000000E+00  0.00000000000E+00  0.18430041912E+01  0.18430060252E+01  0.26000000000E-02 0.  1.
          2   -1    0    0  501    0  0.00000000000E+00 -0.00000000000E+00 -0.54268895573E+02  0.54268895635E+02  0.26000000000E-02 0. -1.
       1023    2    1    2    0    0  0.00000000000E+00  0.00000000000E+00 -0.52425891382E+02  0.56111901661E+02  0.20001785440E+02 0.  0.
        -11    1    3    3    0    0  0.15080767955E+01  0.98857183392E+01 -0.25856631233E+02  0.27723042793E+02  0.51100000000E-03 0. -1.
         11    1    3    3    0    0 -0.15080767955E+01 -0.98857183392E+01 -0.26569260149E+02  0.28388858868E+02  0.51100000000E-03 0.  1.
<mgrwt>
<rscale>  0 0.20001785E+02</rscale>
<asrwt>0</asrwt>
<pdfrwt beam="2">  1        2 0.83490598E-02 0.20001785E+02</pdfrwt>
<pdfrwt beam="1">  1       -2 0.28353929E-03 0.20001785E+02</pdfrwt>
<totfact> 0.46909945E+06</totfact>
</mgrwt>
</event>
<event>
 4    1  0.4046313E-006  0.2009295E+02  0.7818608E-02  0.1743486E+00
         -2   -1    0    0    0  501 -0.00000000000E+00  0.00000000000E+00  0.29437128346E+01  0.29437139828E+01  0.26000000000E-02 0.  1.
          2   -1    0    0  501    0  0.00000000000E+00 -0.00000000000E+00 -0.34287175574E+02  0.34287175672E+02  0.26000000000E-02 0. -1.
        -11    1    1    2    0    0 -0.48108466673E+01 -0.88094509514E+01 -0.16459936243E+02  0.19279008613E+02  0.51100000000E-03 0. -1.
         11    1    1    2    0    0  0.48108466673E+01  0.88094509514E+01 -0.14883526496E+02  0.17951881042E+02  0.51100000000E-03 0.  1.
<mgrwt>
<rscale>  0 0.20092946E+02</rscale>
<asrwt>0</asrwt>
<pdfrwt beam="2">  1        2 0.52749499E-02 0.20092946E+02</pdfrwt>
<pdfrwt beam="1">  1       -2 0.45287902E-03 0.20092946E+02</pdfrwt>
<totfact> 0.43585649E+06</totfact>
</mgrwt>
</event>
<event>
 5    1  0.4046313E-006  0.2000010E+02  0.7818608E-02  0.1745326E+00
          2   -1    0    0  501    0  0.00000000000E+00  0.00000000000E+00  0.42696380107E+02  0.42696380186E+02  0.26000000000E-02 0.  1.
         -2   -1    0    0    0  501 -0.00000000000E+00 -0.00000000000E+00 -0.23421405969E+01  0.23421420400E+01  0.26000000000E-02 0. -1.
       1023    2    1    2    0    0  0.00000000000E+00  0.00000000000E+00  0.40354239510E+02  0.45038522226E+02  0.20000095946E+02 0.  0.
        -11    1    3    3    0    0 -0.96558760508E+01 -0.26008546627E+01  0.20123265518E+02  0.22471008047E+02  0.51100000000E-03 0. -1.
         11    1    3    3    0    0  0.96558760508E+01  0.26008546627E+01  0.20230973991E+02  0.22567514178E+02  0.51100000000E-03 0.  1.
<mgrwt>
<rscale>  0 0.20000096E+02</rscale>
<asrwt>0</asrwt>
<pdfrwt beam="1">  1        2 0.65686744E-02 0.20000096E+02</pdfrwt>
<pdfrwt beam="2">  1       -2 0.36032941E-03 0.20000096E+02</pdfrwt>
<totfact> 0.45289276E+06</totfact>
</mgrwt>
</event>
<event>
 5    1  0.4046313E-006  0.2000284E+02  0.7818608E-02  0.1745272E+00
         -2   -1    0    0    0  501 -0.00000000000E+00  0.00000000000E+00  0.78438098615E+01  0.78438102924E+01  0.26000000000E-02 0. -1.
          2   -1    0    0  501    0  0.00000000000E+00 -0.00000000000E+00 -0.12752528980E+02  0.12752529245E+02  0.26000000000E-02 0.  1.
       1023    2    1    2    0    0  0.00000000000E+00  0.00000000000E+00 -0.49087191181E+01  0.20596339537E+02  0.20002841772E+02 0.  0.
        -11    1    3    3    0    0  0.98343782202E+01 -0.18193580251E+01 -0.23946664190E+01  0.10283943121E+02  0.51100000000E-03 0.  1.
         11    1    3    3    0    0 -0.98343782202E+01  0.18193580251E+01 -0.25140526991E+01  0.10312396416E+02  0.51100000000E-03 0. -1.
<mgrwt>
<rscale>  0 0.20002842E+02</rscale>
<asrwt>0</asrwt>
<pdfrwt beam="2">  1        2 0.19619276E-02 0.20002842E+02</pdfrwt>
<pdfrwt beam="1">  1       -2 0.12067400E-02 0.20002842E+02</pdfrwt>
<totfact> 0.40169403E+06</totfact>
</mgrwt>
</event>
<event>
 5    1  0.4046313E-006  0.2000030E+02  0.7818608E-02  0.1745322E+00
         -2   -1    0    0    0  501 -0.00000000000E+00  0.00000000000E+00  0.39340725935E+01  0.39340734527E+01  0.26000000000E-02 0.  1.
          2   -1    0    0  501    0  0.00000000000E+00 -0.00000000000E+00 -0.25419722785E+02  0.25419722918E+02  0.26000000000E-02 0. -1.
       1023    2    1    2    0    0  0.00000000000E+00  0.00000000000E+00 -0.21485650192E+02  0.29353796371E+02  0.20000304928E+02 0.  0.
        -11    1    3    3    0    0 -0.87583288653E+01 -0.48264501051E+01 -0.10727863876E+02  0.14665947250E+02  0.51100000000E-03 0. -1.
         11    1    3    3    0    0  0.87583288653E+01  0.48264501051E+01 -0.10757786316E+02  0.14687849121E+02  0.51100000000E-03 0.  1.
<mgrwt>
<rscale>  0 0.20000305E+02</rscale>
<asrwt>0</asrwt>
<pdfrwt beam="2">  1        2 0.39107266E-02 0.20000305E+02</pdfrwt>
<pdfrwt beam="1">  1       -2 0.60524203E-03 0.20000305E+02</pdfrwt>
<totfact> 0.42625757E+06</totfact>
</mgrwt>
</event>
<event>
 5    1  0.4046313E-006  0.2000203E+02  0.7818608E-02  0.1745288E+00
          2   -1    0    0  501    0  0.00000000000E+00  0.00000000000E+00  0.15344606468E+01  0.15344628495E+01  0.26000000000E-02 0. -1.
         -2   -1    0    0    0  501 -0.00000000000E+00 -0.00000000000E+00 -0.65182643983E+02  0.65182644035E+02  0.26000000000E-02 0.  1.
       1023    2    1    2    0    0  0.00000000000E+00  0.00000000000E+00 -0.63648183336E+02  0.66717106885E+02  0.20002027623E+02 0.  0.
        -11    1    3    3    0    0  0.68863498530E+01 -0.72524535620E+01 -0.31759068029E+02  0.33296520829E+02  0.51100000000E-03 0. -1.
         11    1    3    3    0    0 -0.68863498530E+01  0.72524535620E+01 -0.31889115307E+02  0.33420586055E+02  0.51100000000E-03 0.  1.
<mgrwt>
<rscale>  0 0.20002028E+02</rscale>
<asrwt>0</asrwt>
<pdfrwt beam="1">  1        2 0.23607109E-03 0.20002028E+02</pdfrwt>
<pdfrwt beam="2">  1       -2 0.10028097E-01 0.20002028E+02</pdfrwt>
<totfact> 0.32491317E+06</totfact>
</mgrwt>
</event>
<event>
 5    1  0.4046313E-006  0.2000109E+02  0.7818608E-02  0.1745306E+00
         -2   -1    0    0    0  501 -0.00000000000E+00  0.00000000000E+00  0.14712757152E+02  0.14712757381E+02  0.26000000000E-02 0. -1.
          2   -1    0    0  501    0  0.00000000000E+00 -0.00000000000E+00 -0.67975605500E+01  0.67975610472E+01  0.26000000000E-02 0.  1.
       1023    2    1    2    0    0  0.00000000000E+00  0.00000000000E+00  0.79151966017E+01  0.21510318429E+02  0.20001086512E+02 0.  0.
        -11    1    3    3    0    0 -0.64026619896E+01 -0.76822323987E+01  0.39473971381E+01  0.10751405471E+02  0.51100000000E-03 0. -1.
         11    1    3    3    0    0  0.64026619896E+01  0.76822323987E+01  0.39677994637E+01  0.10758912957E+02  0.51100000000E-03 0.  1.
<mgrwt>
<rscale>  0 0.20001087E+02</rscale>
<asrwt>0</asrwt>
<pdfrwt beam="2">  1        2 0.10457786E-02 0.20001087E+02</pdfrwt>
<pdfrwt beam="1">  1       -2 0.22635011E-02 0.20001087E+02</pdfrwt>
<totfact> 0.38349352E+06</totfact>
</mgrwt>
</event>
<event>
 5    1  0.4046313E-006  0.2000070E+02  0.7818608E-02  0.1745314E+00
          2   -1    0    0  501    0  0.00000000000E+00  0.00000000000E+00  0.10195052536E+02  0.10195052868E+02  0.26000000000E-02 0. -1.
         -2   -1    0    0    0  501 -0.00000000000E+00 -0.00000000000E+00 -0.98093630342E+01  0.98093633788E+01  0.26000000000E-02 0.  1.
       1023    2    1    2    0    0  0.00000000000E+00  0.00000000000E+00  0.38568950220E+00  0.20004416247E+02  0.20000697812E+02 0.  0.
        -11    1    3    3    0    0 -0.59768381517E+01  0.80177542779E+01  0.19302235738E+00  0.10002211548E+02  0.51100000000E-03 0. -1.
         11    1    3    3    0    0  0.59768381517E+01 -0.80177542779E+01  0.19266714482E+00  0.10002204699E+02  0.51100000000E-03 0.  1.
<mgrwt>
<rscale>  0 0.20000698E+02</rscale>
<asrwt>0</asrwt>
<pdfrwt beam="1">  1        2 0.15684697E-02 0.20000698E+02</pdfrwt>
<pdfrwt beam="2">  1       -2 0.15091328E-02 0.20000698E+02</pdfrwt>
<totfact> 0.39515955E+06</totfact>
</mgrwt>
</event>
<event>
 4    1  0.4046313E-006  0.2002487E+02  0.7818608E-02  0.1744834E+00
         -2   -1    0    0    0  501 -0.00000000000E+00  0.00000000000E+00  0.55389668842E+01  0.55389674945E+01  0.26000000000E-02 0. -1.
          2   -1    0    0  501    0  0.00000000000E+00 -0.00000000000E+00 -0.18098828572E+02  0.18098828759E+02  0.26000000000E-02 0.  1.
        -11    1    1    2    0    0 -0.57067628654E+01  0.82154551810E+01 -0.57681459883E+01  0.11546963005E+02  0.51100000000E-03 0. -1.
         11    1    1    2    0    0  0.57067628654E+01 -0.82154551810E+01 -0.67917156993E+01  0.12090833248E+02  0.51100000000E-03 0.  1.
<mgrwt>
<rscale>  0 0.20024867E+02</rscale>
<asrwt>0</asrwt>
<pdfrwt beam="2">  1        2 0.27844352E-02 0.20024867E+02</pdfrwt>
<pdfrwt beam="1">  1       -2 0.85214883E-03 0.20024867E+02</pdfrwt>
<totfact> 0.41203484E+06</totfact>
</mgrwt>
</event>
<event>
 5    1  0.4046313E-006  0.2000765E+02  0.7818608E-02  0.1745176E+00
          2   -1    0    0  501    0  0.00000000000E+00  0.00000000000E+00  0.65539723489E+02  0.65539723541E+02  0.26000000000E-02 0.  1.
         -2   -1    0    0    0  501 -0.00000000000E+00 -0.00000000000E+00 -0.15269580125E+01  0.15269602261E+01  0.26000000000E-02 0. -1.
       1023    2    1    2    0    0  0.00000000000E+00  0.00000000000E+00  0.64012765477E+02  0.67066683767E+02  0.20007646726E+02 0.  0.
        -11    1    3    3    0    0  0.99809409299E+01 -0.63802713743E+00  0.31255185256E+02  0.32816350591E+02  0.51100000000E-03 0.  1.
         11    1    3    3    0    0 -0.99809409299E+01  0.63802713743E+00  0.32757580221E+02  0.34250333176E+02  0.51100000000E-03 0. -1.
<mgrwt>
<rscale>  0 0.20007647E+02</rscale>
<asrwt>0</asrwt>
<pdfrwt beam="1">  1        2 0.10083036E-01 0.20007647E+02</pdfrwt>
<pdfrwt beam="2">  1       -2 0.23491677E-03 0.20007647E+02</pdfrwt>
<totfact> 0.48394555E+06</totfact>
</mgrwt>
</event>
<event>
 5    1  0.4046313E-006  0.2000041E+02  0.7818608E-02  0.1745320E+00
         -2   -1    0    0    0  501 -0.00000000000E+00  0.00000000000E+00  0.13936229570E+01  0.13936253823E+01  0.26000000000E-02 0. -1.
          2   -1    0    0  501    0  0.00000000000E+00 -0.00000000000E+00 -0.71758282767E+02  0.71758282814E+02  0.26000000000E-02 0.  1.
       1023    2    1    2    0    0  0.00000000000E+00  0.00000000000E+00 -0.70364659810E+02  0.73151908197E+02  0.20000408061E+02 0.  0.
        -11    1    3    3    0    0  0.10930324405E+01 -0.99402430052E+01 -0.35070822407E+02  0.36468695280E+02  0.51100000000E-03 0.  1.
         11    1    3    3    0    0 -0.10930324405E+01  0.99402430052E+01 -0.35293837404E+02  0.36683212916E+02  0.51100000000E-03 0. -1.
<mgrwt>
<rscale>  0 0.20000408E+02</rscale>
<asrwt>0</asrwt>
<pdfrwt beam="2">  1        2 0.11039733E-01 0.20000408E+02</pdfrwt>
<pdfrwt beam="1">  1       -2 0.21440378E-03 0.20000408E+02</pdfrwt>
<totfact> 0.49245556E+06</totfact>
</mgrwt>
</event>
<event>
 5    1  0.4046313E-006  0.2000112E+02  0.7818608E-02  0.1745306E+00
          2   -1    0    0  501    0  0.00000000000E+00  0.00000000000E+00  0.16693476345E+01  0.16693496592E+01  0.26000000000E-02 0. -1.
         -2   -1    0    0    0  501 -0.00000000000E+00 -0.00000000000E+00 -0.59910305161E+02  0.59910305217E+02  0.26000000000E-02 0.  1.
       1023    2    1    2    0    0  0.00000000000E+00  0.00000000000E+00 -0.58240957527E+02  0.61579654877E+02  0.20001118997E+02 0.  0.
        -11    1    3    3    0    0 -0.46921699805E+01 -0.88309782197E+01 -0.29405240873E+02  0.31059150447E+02  0.51100000000E-03 0.  1.
         11    1    3    3    0    0  0.46921699805E+01  0.88309782197E+01 -0.28835716654E+02  0.30520504430E+02  0.51100000000E-03 0. -1.
<mgrwt>
<rscale>  0 0.20001119E+02</rscale>
<asrwt>0</asrwt>
<pdfrwt beam="1">  1        2 0.25682292E-03 0.20001119E+02</pdfrwt>
<pdfrwt beam="2">  1       -2 0.92169685E-02 0.20001119E+02</pdfrwt>
<totfact> 0.32964078E+06</totfact>
</mgrwt>
</event>
<event>
 5    1  0.4046313E-006  0.2000094E+02  0.7818608E-02  0.1745309E+00
         -2   -1    0    0    0  501 -0.00000000000E+00  0.00000000000E+00  0.35898303059E+02  0.35898303153E+02  0.26000000000E-02 0. -1.
          2   -1    0    0  501    0  0.00000000000E+00 -0.00000000000E+00 -0.27859090298E+01  0.27859102431E+01  0.26000000000E-02 0.  1.
       1023    2    1    2    0    0  0.00000000000E+00  0.00000000000E+00  0.33112394029E+02  0.38684213396E+02  0.20000943171E+02 0.  0.
        -11    1    3    3    0    0 -0.90976989442E+01 -0.41522508416E+01  0.16577255307E+02  0.19360131893E+02  0.51100000000E-03 0. -1.
         11    1    3    3    0    0  0.90976989442E+01  0.41522508416E+01  0.16535138722E+02  0.19324081503E+02  0.51100000000E-03 0.  1.
<mgrwt>
<rscale>  0 0.20000943E+02</rscale>
<asrwt>0</asrwt>
<pdfrwt beam="2">  1        2 0.42860150E-03 0.20000943E+02</pdfrwt>
<pdfrwt beam="1">  1       -2 0.55228158E-02 0.20000943E+02</pdfrwt>
<totfact> 0.35367486E+06</totfact>
</mgrwt>
</event>
<event>
 5    1  0.4360698E-006  0.2000096E+02  0.7818608E-02  0.1745309E+00
          2   -1    0    0  501    0  0.00000000000E+00  0.00000000000E+00  0.10055870683E+03  0.10055870686E+03  0.26000000000E-02 0. -1.
         -2   -1    0    0    0  501 -0.00000000000E+00 -0.00000000000E+00 -0.99453740967E+00  0.99454080823E+00  0.26000000000E-02 0.  1.
       1023    2    1    2    0    0  0.00000000000E+00  0.00000000000E+00  0.99564169418E+02  0.10155324767E+03  0.20000956985E+02 0.  0.
        -11    1    3    3    0    0 -0.44819700951E+01 -0.89397189888E+01  0.50057311185E+02  0.51046459573E+02  0.51100000000E-03 0. -1.
         11    1    3    3    0    0  0.44819700951E+01  0.89397189888E+01  0.49506858232E+02  0.50506788096E+02  0.51100000000E-03 0.  1.
<mgrwt>
<rscale>  0 0.20000957E+02</rscale>
<asrwt>0</asrwt>
<pdfrwt beam="1">  1        2 0.15470570E-01 0.20000957E+02</pdfrwt>
<pdfrwt beam="2">  1       -2 0.15300603E-03 0.20000957E+02</pdfrwt>
<totfact> 0.52819237E+06</totfact>
</mgrwt>
</event>
<event>
 5    1  0.4046313E-006  0.2000168E+02  0.7818608E-02  0.1745295E+00
          2   -1    0    0  501    0  0.00000000000E+00  0.00000000000E+00  0.70586048098E+01  0.70586052887E+01  0.26000000000E-02 0. -1.
         -2   -1    0    0    0  501 -0.00000000000E+00 -0.00000000000E+00 -0.14169480771E+02  0.14169481010E+02  0.26000000000E-02 0.  1.
       1023    2    1    2    0    0  0.00000000000E+00  0.00000000000E+00 -0.71108759617E+01  0.21228086299E+02  0.20001677204E+02 0.  0.
        -11    1    3    3    0    0  0.39113352356E+01 -0.92038607623E+01 -0.36453447409E+01  0.10644159657E+02  0.51100000000E-03 0. -1.
         11    1    3    3    0    0 -0.39113352356E+01  0.92038607623E+01 -0.34655312208E+01  0.10583926642E+02  0.51100000000E-03 0.  1.
<mgrwt>
<rscale>  0 0.20001677E+02</rscale>
<asrwt>0</asrwt>
<pdfrwt beam="1">  1        2 0.10859393E-02 0.20001677E+02</pdfrwt>
<pdfrwt beam="2">  1       -2 0.21799202E-02 0.20001677E+02</pdfrwt>
<totfact> 0.38455864E+06</totfact>
</mgrwt>
</event>
<event>
 5    1  0.4046313E-006  0.2000071E+02  0.7818608E-02  0.1745314E+00
         -2   -1    0    0    0  501 -0.00000000000E+00  0.00000000000E+00  0.50228456943E+02  0.50228457010E+02  0.26000000000E-02 0. -1.
          2   -1    0    0  501    0  0.00000000000E+00 -0.00000000000E+00 -0.19910437881E+01  0.19910454857E+01  0.26000000000E-02 0.  1.
       1023    2    1    2    0    0  0.00000000000E+00  0.00000000000E+00  0.48237413155E+02  0.52219502496E+02  0.20000710314E+02 0.  0.
        -11    1    3    3    0    0  0.61735330984E+01  0.78671441749E+01  0.23984693901E+02  0.25985957942E+02  0.51100000000E-03 0.  1.
         11    1    3    3    0    0 -0.61735330984E+01 -0.78671441749E+01  0.24252719254E+02  0.26233544554E+02  0.51100000000E-03 0. -1.
<mgrwt>
<rscale>  0 0.20000710E+02</rscale>
<asrwt>0</asrwt>
<pdfrwt beam="2">  1        2 0.30631456E-03 0.20000710E+02</pdfrwt>
<pdfrwt beam="1">  1       -2 0.77274551E-02 0.20000710E+02</pdfrwt>
<totfact> 0.33873777E+06</totfact>
</mgrwt>
</event>
<event>
 5    1  0.4046313E-006  0.2000039E+02  0.7818608E-02  0.1745320E+00
         -2   -1    0    0    0  501 -0.00000000000E+00  0.00000000000E+00  0.36356243596E+01  0.36356252893E+01  0.26000000000E-02 0.  1.
          2   -1    0    0  501    0  0.00000000000E+00 -0.00000000000E+00 -0.27506656316E+02  0.27506656439E+02  0.26000000000E-02 0. -1.
       1023    2    1    2    0    0  0.00000000000E+00  0.00000000000E+00 -0.23871031957E+02  0.31142281729E+02  0.20000388611E+02 0.  0.
        -11    1    3    3    0    0 -0.41573190902E+00  0.99913702743E+01 -0.11842443209E+02  0.15499799173E+02  0.51100000000E-03 0.  1.
         11    1    3    3    0    0  0.41573190902E+00 -0.99913702743E+01 -0.12028588748E+02  0.15642482556E+02  0.51100000000E-03 0. -1.
<mgrwt>
<rscale>  0 0.20000389E+02</rscale>
<asrwt>0</asrwt>
<pdfrwt beam="2">  1        2 0.42317932E-02 0.20000389E+02</pdfrwt>
<pdfrwt beam="1">  1       -2 0.55932692E-03 0.20000389E+02</pdfrwt>
<totfact> 0.42970453E+06</totfact>
</mgrwt>
</event>
<event>
 5    1  0.4046313E-006  0.2000094E+02  0.7818608E-02  0.1745309E+00
          2   -1    0    0  501    0  0.00000000000E+00  0.00000000000E+00  0.70709283548E+01  0.70709288328E+01  0.26000000000E-02 0.  1.
         -2   -1    0    0    0  501 -0.00000000000E+00 -0.00000000000E+00 -0.14143742657E+02  0.14143742896E+02  0.26000000000E-02 0. -1.
       1023    2    1    2    0    0  0.00000000000E+00  0.00000000000E+00 -0.70728143024E+01  0.21214671729E+02  0.20000939838E+02 0.  0.
        -11    1    3    3    0    0  0.10000179920E+02  0.62880172713E-01 -0.34908349198E+01  0.10592142420E+02  0.51100000000E-03 0.  1.
         11    1    3    3    0    0 -0.10000179920E+02 -0.62880172713E-01 -0.35819793826E+01  0.10622529309E+02  0.51100000000E-03 0. -1.
<mgrwt>
<rscale>  0 0.20000940E+02</rscale>
<asrwt>0</asrwt>
<pdfrwt beam="1">  1        2 0.10878352E-02 0.20000940E+02</pdfrwt>
<pdfrwt beam="2">  1       -2 0.21759605E-02 0.20000940E+02</pdfrwt>
<totfact> 0.38464175E+06</totfact>
</mgrwt>
</event>
<event>
 5    1  0.4046313E-006  0.2000073E+02  0.7818608E-02  0.1745314E+00
          2   -1    0    0  501    0  0.00000000000E+00  0.00000000000E+00  0.17781723395E+02  0.17781723585E+02  0.26000000000E-02 0.  1.
         -2   -1    0    0    0  501 -0.00000000000E+00 -0.00000000000E+00 -0.56241610999E+01  0.56241617008E+01  0.26000000000E-02 0. -1.
       1023    2    1    2    0    0  0.00000000000E+00  0.00000000000E+00  0.12157562295E+02  0.23405885286E+02  0.20000728613E+02 0.  0.
        -11    1    3    3    0    0  0.51271743845E+01  0.85856994898E+01  0.59949376510E+01  0.11659392377E+02  0.51100000000E-03 0.  1.
         11    1    3    3    0    0 -0.51271743845E+01 -0.85856994898E+01  0.61626246443E+01  0.11746492909E+02  0.51100000000E-03 0. -1.
<mgrwt>
<rscale>  0 0.20000729E+02</rscale>
<asrwt>0</asrwt>
<pdfrwt beam="1">  1        2 0.27356498E-02 0.20000729E+02</pdfrwt>
<pdfrwt beam="2">  1       -2 0.86525563E-03 0.20000729E+02</pdfrwt>
<totfact> 0.41254194E+06</totfact>
</mgrwt>
</event>
<event>
 4    1  0.4046313E-006  0.2001322E+02  0.7818608E-02  0.1745065E+00
          2   -1    0    0  501    0  0.00000000000E+00  0.00000000000E+00  0.24055904291E+02  0.24055904432E+02  0.26000000000E-02 0.  1.
         -2   -1    0    0    0  501 -0.00000000000E+00 -0.00000000000E+00 -0.41624813664E+01  0.41624821784E+01  0.26000000000E-02 0. -1.
        -11    1    1    2    0    0 -0.47800815316E+01  0.87892060645E+01  0.96907925820E+01  0.13928775388E+02  0.51100000000E-03 0.  1.
         11    1    1    2    0    0  0.47800815316E+01 -0.87892060645E+01  0.10202630343E+02  0.14289611222E+02  0.51100000000E-03 0. -1.
<mgrwt>
<rscale>  0 0.20013222E+02</rscale>
<asrwt>0</asrwt>
<pdfrwt beam="1">  1        2 0.37009084E-02 0.20013222E+02</pdfrwt>
<pdfrwt beam="2">  1       -2 0.64038183E-03 0.20013222E+02</pdfrwt>
<totfact> 0.42333412E+06</totfact>
</mgrwt>
</event>
<event>
 5    1  0.4046313E-006  0.2000056E+02  0.7818608E-02  0.1745317E+00
          2   -1    0    0  501    0  0.00000000000E+00  0.00000000000E+00  0.12472775013E+02  0.12472775284E+02  0.26000000000E-02 0. -1.
         -2   -1    0    0    0  501 -0.00000000000E+00 -0.00000000000E+00 -0.80179120561E+01  0.80179124777E+01  0.26000000000E-02 0.  1.
       1023    2    1    2    0    0  0.00000000000E+00  0.00000000000E+00  0.44548629569E+01  0.20490687762E+02  0.20000562017E+02 0.  0.
        -11    1    3    3    0    0 -0.50767300468E+01 -0.86156820192E+01  0.21766655865E+01  0.10234306912E+02  0.51100000000E-03 0.  1.
         11    1    3    3    0    0  0.50767300468E+01  0.86156820192E+01  0.22781973703E+01  0.10256380850E+02  0.51100000000E-03 0. -1.
<mgrwt>
<rscale>  0 0.20000562E+02</rscale>
<asrwt>0</asrwt>
<pdfrwt beam="1">  1        2 0.19188885E-02 0.20000562E+02</pdfrwt>
<pdfrwt beam="2">  1       -2 0.12335250E-02 0.20000562E+02</pdfrwt>
<totfact> 0.40112475E+06</totfact>
</mgrwt>
</event>
<event>
 5    1  0.4046313E-006  0.2000043E+02  0.7818608E-02  0.1745320E+00
          2   -1    0    0  501    0  0.00000000000E+00  0.00000000000E+00  0.43709358034E+01  0.43709365766E+01  0.26000000000E-02 0. -1.
         -2   -1    0    0    0  501 -0.00000000000E+00 -0.00000000000E+00 -0.22879378086E+02  0.22879378233E+02  0.26000000000E-02 0.  1.
       1023    2    1    2    0    0  0.00000000000E+00  0.00000000000E+00 -0.18508442282E+02  0.27250314810E+02  0.20000430534E+02 0.  0.
        -11    1    3    3    0    0 -0.56817230708E+01 -0.82291492001E+01 -0.91744079271E+01  0.13570948187E+02  0.51100000000E-03 0. -1.
         11    1    3    3    0    0  0.56817230708E+01  0.82291492001E+01 -0.93340343551E+01  0.13679366623E+02  0.51100000000E-03 0.  1.
<mgrwt>
<rscale>  0 0.20000431E+02</rscale>
<asrwt>0</asrwt>
<pdfrwt beam="1">  1        2 0.67245175E-03 0.20000431E+02</pdfrwt>
<pdfrwt beam="2">  1       -2 0.35199043E-02 0.20000431E+02</pdfrwt>
<totfact> 0.37002490E+06</totfact>
</mgrwt>
</event>
<event>
 5    1  0.4046313E-006  0.2000090E+02  0.7818608E-02  0.1745310E+00
         -2   -1    0    0    0  501 -0.00000000000E+00  0.00000000000E+00  0.13537664144E+02  0.13537664393E+02  0.26000000000E-02 0.  1.
          2   -1    0    0  501    0  0.00000000000E+00 -0.00000000000E+00 -0.73874664568E+01  0.73874669143E+01  0.26000000000E-02 0. -1.
       1023    2    1    2    0    0  0.00000000000E+00  0.00000000000E+00  0.61501976868E+01  0.20925131308E+02  0.20000904696E+02 0.  0.
        -11    1    3    3    0    0  0.99121093020E+01  0.13262316520E+01  0.30914977544E+01  0.10467385530E+02  0.51100000000E-03 0.  1.
         11    1    3    3    0    0 -0.99121093020E+01 -0.13262316520E+01  0.30586999324E+01  0.10457745778E+02  0.51100000000E-03 0. -1.
<mgrwt>
<rscale>  0 0.20000905E+02</rscale>
<asrwt>0</asrwt>
<pdfrwt beam="2">  1        2 0.11365334E-02 0.20000905E+02</pdfrwt>
<pdfrwt beam="1">  1       -2 0.20827176E-02 0.20000905E+02</pdfrwt>
<totfact> 0.38590569E+06</totfact>
</mgrwt>
</event>
<event>
 5    1  0.4046313E-006  0.2000160E+02  0.7818608E-02  0.1745296E+00
          2   -1    0    0  501    0  0.00000000000E+00  0.00000000000E+00  0.16522079144E+02  0.16522079348E+02  0.26000000000E-02 0.  1.
         -2   -1    0    0    0  501 -0.00000000000E+00 -0.00000000000E+00 -0.60534750086E+01  0.60534755669E+01  0.26000000000E-02 0. -1.
       1023    2    1    2    0    0  0.00000000000E+00  0.00000000000E+00  0.10468604135E+02  0.22575554915E+02  0.20001600116E+02 0.  0.
        -11    1    3    3    0    0  0.12731107486E+00 -0.99998834071E+01  0.51822688272E+01  0.11263648908E+02  0.51100000000E-03 0. -1.
         11    1    3    3    0    0 -0.12731107486E+00  0.99998834071E+01  0.52863353078E+01  0.11311906007E+02  0.51100000000E-03 0.  1.
<mgrwt>
<rscale>  0 0.20001600E+02</rscale>
<asrwt>0</asrwt>
<pdfrwt beam="1">  1        2 0.25418583E-02 0.20001600E+02</pdfrwt>
<pdfrwt beam="2">  1       -2 0.93130393E-03 0.20001600E+02</pdfrwt>
<totfact> 0.40999524E+06</totfact>
</mgrwt>
</event>
<event>
 5    1  0.4046313E-006  0.2000059E+02  0.7818608E-02  0.1745316E+00
         -2   -1    0    0    0  501 -0.00000000000E+00  0.00000000000E+00  0.42397955408E+02  0.42397955487E+02  0.26000000000E-02 0.  1.
          2   -1    0    0  501    0  0.00000000000E+00 -0.00000000000E+00 -0.23587428816E+01  0.23587443145E+01  0.26000000000E-02 0. -1.
       1023    2    1    2    0    0  0.00000000000E+00  0.00000000000E+00  0.40039212526E+02  0.44756699802E+02  0.20000590928E+02 0.  0.
        -11    1    3    3    0    0 -0.73701668061E+01 -0.67591801083E+01  0.20032772059E+02  0.22390127984E+02  0.51100000000E-03 0.  1.
         11    1    3    3    0    0  0.73701668061E+01  0.67591801083E+01  0.20006440467E+02  0.22366571818E+02  0.51100000000E-03 0. -1.
<mgrwt>
<rscale>  0 0.20000591E+02</rscale>
<asrwt>0</asrwt>
<pdfrwt beam="2">  1        2 0.36288365E-03 0.20000591E+02</pdfrwt>
<pdfrwt beam="1">  1       -2 0.65227622E-02 0.20000591E+02</pdfrwt>
<totfact> 0.34664010E+06</totfact>
</mgrwt>
</event>
<event>
 5    1  0.4046313E-006  0.2000042E+02  0.7818608E-02  0.1745320E+00
         -2   -1    0    0    0  501 -0.00000000000E+00  0.00000000000E+00  0.81143370061E+01  0.81143374227E+01  0.26000000000E-02 0. -1.
          2   -1    0    0  501    0  0.00000000000E+00 -0.00000000000E+00 -0.12324382878E+02  0.12324383152E+02  0.26000000000E-02 0.  1.
       1023    2    1    2    0    0  0.00000000000E+00  0.00000000000E+00 -0.42100458715E+01  0.20438720575E+02  0.20000420308E+02 0.  0.
        -11    1    3    3    0    0  0.90933546905E+01 -0.41607630301E+01 -0.20476286196E+01  0.10207537986E+02  0.51100000000E-03 0.  1.
         11    1    3    3    0    0 -0.90933546905E+01  0.41607630301E+01 -0.21624172519E+01  0.10231182588E+02  0.51100000000E-03 0. -1.
<mgrwt>
<rscale>  0 0.20000420E+02</rscale>
<asrwt>0</asrwt>
<pdfrwt beam="2">  1        2 0.18960590E-02 0.20000420E+02</pdfrwt>
<pdfrwt beam="1">  1       -2 0.12483596E-02 0.20000420E+02</pdfrwt>
<totfact> 0.40076967E+06</totfact>
</mgrwt>
</event>
<event>
 5    1  0.4046313E-006  0.2000029E+02  0.7818608E-02  0.1745322E+00
         -2   -1    0    0    0  501 -0.00000000000E+00  0.00000000000E+00  0.97577787410E+02  0.97577787445E+02  0.26000000000E-02 0. -1.
          2   -1    0    0  501    0  0.00000000000E+00 -0.00000000000E+00 -0.10248515281E+01  0.10248548262E+01  0.26000000000E-02 0.  1.
       1023    2    1    2    0    0  0.00000000000E+00  0.00000000000E+00  0.96552935882E+02  0.98602642271E+02  0.20000290882E+02 0.  0.
        -11    1    3    3    0    0  0.99117860115E+01  0.13262554719E+01  0.48381406492E+02  0.49404078272E+02  0.51100000000E-03 0.  1.
         11    1    3    3    0    0 -0.99117860115E+01 -0.13262554719E+01  0.48171529390E+02  0.49198563999E+02  0.51100000000E-03 0. -1.
<mgrwt>
<rscale>  0 0.20000291E+02</rscale>
<asrwt>0</asrwt>
<pdfrwt beam="2">  1        2 0.15766971E-03 0.20000291E+02</pdfrwt>
<pdfrwt beam="1">  1       -2 0.15011968E-01 0.20000291E+02</pdfrwt>
<totfact> 0.29906817E+06</totfact>
</mgrwt>
</event>
<event>
 5    1  0.4046313E-006  0.2000246E+02  0.7818608E-02  0.1745279E+00
          2   -1    0    0  501    0  0.00000000000E+00  0.00000000000E+00  0.30413816054E+02  0.30413816165E+02  0.26000000000E-02 0. -1.
         -2   -1    0    0    0  501 -0.00000000000E+00 -0.00000000000E+00 -0.32887884521E+01  0.32887894798E+01  0.26000000000E-02 0.  1.
       1023    2    1    2    0    0  0.00000000000E+00  0.00000000000E+00  0.27125027602E+02  0.33702605645E+02  0.20002462470E+02 0.  0.
        -11    1    3    3    0    0 -0.60259355379E+01 -0.79811344307E+01  0.13361590426E+02  0.16689592711E+02  0.51100000000E-03 0. -1.
         11    1    3    3    0    0  0.60259355379E+01  0.79811344307E+01  0.13763437176E+02  0.17013012933E+02  0.51100000000E-03 0.  1.
<mgrwt>
<rscale>  0 0.20002462E+02</rscale>
<asrwt>0</asrwt>
<pdfrwt beam="1">  1        2 0.46790486E-02 0.20002462E+02</pdfrwt>
<pdfrwt beam="2">  1       -2 0.50596755E-03 0.20002462E+02</pdfrwt>
<totfact> 0.43426778E+06</totfact>
</mgrwt>
</event>
<event>
 5    1  0.4046313E-006  0.2000172E+02  0.7818608E-02  0.1745294E+00
          2   -1    0    0  501    0  0.00000000000E+00  0.00000000000E+00  0.50481717320E+02  0.50481717387E+02  0.26000000000E-02 0. -1.
         -2   -1    0    0    0  501 -0.00000000000E+00 -0.00000000000E+00 -0.19812555586E+01  0.19812572646E+01  0.26000000000E-02 0.  1.
       1023    2    1    2    0    0  0.00000000000E+00  0.00000000000E+00  0.48500461762E+02  0.52462974652E+02  0.20001722881E+02 0.  0.
        -11    1    3    3    0    0 -0.10000290039E+02  0.56509932656E-01  0.24488253829E+02  0.26451532471E+02  0.51100000000E-03 0. -1.
         11    1    3    3    0    0  0.10000290039E+02 -0.56509932656E-01  0.24012207933E+02  0.26011442181E+02  0.51100000000E-03 0.  1.
<mgrwt>
<rscale>  0 0.20001723E+02</rscale>
<asrwt>0</asrwt>
<pdfrwt beam="1">  1        2 0.77664177E-02 0.20001723E+02</pdfrwt>
<pdfrwt beam="2">  1       -2 0.30480870E-03 0.20001723E+02</pdfrwt>
<totfact> 0.46386456E+06</totfact>
</mgrwt>
</event>
<event>
 4    1  0.5173358E-006  0.2042674E+02  0.7818608E-02  0.1736973E+00
          2   -1    0    0  501    0  0.00000000000E+00  0.00000000000E+00  0.11523145862E+02  0.11523146155E+02  0.26000000000E-02 0. -1.
         -2   -1    0    0    0  501 -0.00000000000E+00 -0.00000000000E+00 -0.90524651796E+01  0.90524655529E+01  0.26000000000E-02 0.  1.
        -11    1    1    2    0    0  0.28867884346E+01 -0.96668920796E+01 -0.36701862478E+00  0.10095397609E+02  0.51100000000E-03 0. -1.
         11    1    1    2    0    0 -0.28867884346E+01  0.96668920796E+01  0.28376993068E+01  0.10480214099E+02  0.51100000000E-03 0.  1.
<mgrwt>
<rscale>  0 0.20426736E+02</rscale>
<asrwt>0</asrwt>
<pdfrwt beam="1">  1        2 0.17727917E-02 0.20426736E+02</pdfrwt>
<pdfrwt beam="2">  1       -2 0.13926870E-02 0.20426736E+02</pdfrwt>
<totfact> 0.38001047E+06</totfact>
</mgrwt>
</event>
<event>
 5    1  0.4046313E-006  0.2000032E+02  0.7818608E-02  0.1745322E+00
          2   -1    0    0  501    0  0.00000000000E+00  0.00000000000E+00  0.78561527458E+02  0.78561527501E+02  0.26000000000E-02 0.  1.
         -2   -1    0    0    0  501 -0.00000000000E+00 -0.00000000000E+00 -0.12729270868E+01  0.12729297420E+01  0.26000000000E-02 0. -1.
       1023    2    1    2    0    0  0.00000000000E+00  0.00000000000E+00  0.77288600372E+02  0.79834457243E+02  0.20000320396E+02 0.  0.
        -11    1    3    3    0    0 -0.67010230958E+01 -0.74228730544E+01  0.38559735882E+02  0.39835361006E+02  0.51100000000E-03 0. -1.
         11    1    3    3    0    0  0.67010230958E+01  0.74228730544E+01  0.38728864489E+02  0.39999096237E+02  0.51100000000E-03 0.  1.
<mgrwt>
<rscale>  0 0.20000320E+02</rscale>
<asrwt>0</asrwt>
<pdfrwt beam="1">  1        2 0.12086389E-01 0.20000320E+02</pdfrwt>
<pdfrwt beam="2">  1       -2 0.19583514E-03 0.20000320E+02</pdfrwt>
<totfact> 0.50116072E+06</totfact>
</mgrwt>
</event>
<event>
 5    1  0.4046313E-006  0.2000519E+02  0.7818608E-02  0.1745225E+00
         -2   -1    0    0    0  501 -0.00000000000E+00  0.00000000000E+00  0.55127380388E+01  0.55127386519E+01  0.26000000000E-02 0. -1.
          2   -1    0    0  501    0  0.00000000000E+00 -0.00000000000E+00 -0.18149214382E+02  0.18149214568E+02  0.26000000000E-02 0.  1.
       1023    2    1    2    0    0  0.00000000000E+00  0.00000000000E+00 -0.12636476343E+02  0.23661953220E+02  0.20005186723E+02 0.  0.
        -11    1    3    3    0    0 -0.51868284505E+01 -0.85525160807E+01 -0.62518225195E+01  0.11795507864E+02  0.51100000000E-03 0. -1.
         11    1    3    3    0    0  0.51868284505E+01  0.85525160807E+01 -0.63846538235E+01  0.11866445356E+02  0.51100000000E-03 0.  1.
<mgrwt>
<rscale>  0 0.20005187E+02</rscale>
<asrwt>0</asrwt>
<pdfrwt beam="2">  1        2 0.27921869E-02 0.20005187E+02</pdfrwt>
<pdfrwt beam="1">  1       -2 0.84811362E-03 0.20005187E+02</pdfrwt>
<totfact> 0.41304792E+06</totfact>
</mgrwt>
</event>
<event>
 5    1  0.4046313E-006  0.2000178E+02  0.7818608E-02  0.1745293E+00
          2   -1    0    0  501    0  0.00000000000E+00  0.00000000000E+00  0.11726451326E+01  0.11726480149E+01  0.26000000000E-02 0.  1.
         -2   -1    0    0    0  501 -0.00000000000E+00 -0.00000000000E+00 -0.85292361100E+02  0.85292361140E+02  0.26000000000E-02 0. -1.
       1023    2    1    2    0    0  0.00000000000E+00  0.00000000000E+00 -0.84119715967E+02  0.86465009154E+02  0.20001779762E+02 0.  0.
        -11    1    3    3    0    0  0.87555694099E+01  0.48315346566E+01 -0.41546995481E+02  0.42733553054E+02  0.51100000000E-03 0. -1.
         11    1    3    3    0    0 -0.87555694099E+01 -0.48315346566E+01 -0.42572720486E+02  0.43731456101E+02  0.51100000000E-03 0.  1.
<mgrwt>
<rscale>  0 0.20001780E+02</rscale>
<asrwt>0</asrwt>
<pdfrwt beam="1">  1        2 0.18040724E-03 0.20001780E+02</pdfrwt>
<pdfrwt beam="2">  1       -2 0.13121897E-01 0.20001780E+02</pdfrwt>
<totfact> 0.30832964E+06</totfact>
</mgrwt>
</event>
<event>
 5    1  0.4046313E-006  0.2000653E+02  0.7818608E-02  0.1745198E+00
          2   -1    0    0  501    0  0.00000000000E+00  0.00000000000E+00  0.11724562830E+03  0.11724562833E+03  0.26000000000E-02 0. -1.
         -2   -1    0    0    0  501 -0.00000000000E+00 -0.00000000000E+00 -0.85346497210E+00  0.85346893242E+00  0.26000000000E-02 0.  1.
       1023    2    1    2    0    0  0.00000000000E+00  0.00000000000E+00  0.11639216333E+03  0.11809909726E+03  0.20006526180E+02 0.  0.
        -11    1    3    3    0    0  0.81007927875E+01 -0.58674134576E+01  0.57452025694E+02  0.58316246802E+02  0.51100000000E-03 0. -1.
         11    1    3    3    0    0 -0.81007927875E+01  0.58674134576E+01  0.58940137636E+02  0.59782850462E+02  0.51100000000E-03 0.  1.
<mgrwt>
<rscale>  0 0.20006526E+02</rscale>
<asrwt>0</asrwt>
<pdfrwt beam="1">  1        2 0.18037774E-01 0.20006526E+02</pdfrwt>
<pdfrwt beam="2">  1       -2 0.13130272E-03 0.20006526E+02</pdfrwt>
<totfact> 0.54738143E+06</totfact>
</mgrwt>
</event>
<event>
 5    1  0.4046313E-006  0.2000007E+02  0.7818608E-02  0.1745327E+00
          2   -1    0    0  501    0  0.00000000000E+00  0.00000000000E+00  0.52148656269E+02  0.52148656333E+02  0.26000000000E-02 0.  1.
         -2   -1    0    0    0  501 -0.00000000000E+00 -0.00000000000E+00 -0.19176075567E+01  0.19176093193E+01  0.26000000000E-02 0. -1.
       1023    2    1    2    0    0  0.00000000000E+00  0.00000000000E+00  0.50231048712E+02  0.54066265653E+02  0.20000070673E+02 0.  0.
        -11    1    3    3    0    0 -0.75949955641E+01 -0.65051112440E+01  0.25160480238E+02  0.27074899741E+02  0.51100000000E-03 0. -1.
         11    1    3    3    0    0  0.75949955641E+01  0.65051112440E+01  0.25070568473E+02  0.26991365911E+02  0.51100000000E-03 0.  1.
<mgrwt>
<rscale>  0 0.20000071E+02</rscale>
<asrwt>0</asrwt>
<pdfrwt beam="1">  1        2 0.80228697E-02 0.20000071E+02</pdfrwt>
<pdfrwt beam="2">  1       -2 0.29501671E-03 0.20000071E+02</pdfrwt>
<totfact> 0.46626606E+06</totfact>
</mgrwt>
</event>
<event>
 5    1  0.4046313E-006  0.2000050E+02  0.7818608E-02  0.1745318E+00
         -2   -1    0    0    0  501 -0.00000000000E+00  0.00000000000E+00  0.11361205142E+03  0.11361205145E+03  0.26000000000E-02 0. -1.
          2   -1    0    0  501    0  0.00000000000E+00 -0.00000000000E+00 -0.88023016521E+00  0.88023400511E+00  0.26000000000E-02 0.  1.
       1023    2    1    2    0    0  0.00000000000E+00  0.00000000000E+00  0.11273182125E+03  0.11449228545E+03  0.20000497625E+02 0.  0.
        -11    1    3    3    0    0 -0.82065672522E+01  0.57146477688E+01  0.56397713648E+02  0.57277456737E+02  0.51100000000E-03 0.  1.
         11    1    3    3    0    0  0.82065672522E+01 -0.57146477688E+01  0.56334107604E+02  0.57214828715E+02  0.51100000000E-03 0. -1.
<mgrwt>
<rscale>  0 0.20000498E+02</rscale>
<asrwt>0</asrwt>
<pdfrwt beam="2">  1        2 0.13542028E-03 0.20000498E+02</pdfrwt>
<pdfrwt beam="1">  1       -2 0.17478783E-01 0.20000498E+02</pdfrwt>
<totfact> 0.28769985E+06</totfact>
</mgrwt>
</event>
<event>
 5    1  0.4046313E-006  0.2000090E+02  0.7818608E-02  0.1745310E+00
         -2   -1    0    0    0  501 -0.00000000000E+00  0.00000000000E+00  0.18775899326E+02  0.18775899506E+02  0.26000000000E-02 0. -1.
          2   -1    0    0  501    0  0.00000000000E+00 -0.00000000000E+00 -0.53264551543E+01  0.53264557888E+01  0.26000000000E-02 0.  1.
       1023    2    1    2    0    0  0.00000000000E+00  0.00000000000E+00  0.13449444172E+02  0.24102355295E+02  0.20000899536E+02 0.  0.
        -11    1    3    3    0    0  0.99620572213E+01 -0.87066580702E+00  0.68348537542E+01  0.12112632626E+02  0.51100000000E-03 0.  1.
         11    1    3    3    0    0 -0.99620572213E+01  0.87066580702E+00  0.66145904177E+01  0.11989722669E+02  0.51100000000E-03 0. -1.
<mgrwt>
<rscale>  0 0.20000900E+02</rscale>
<asrwt>0</asrwt>
<pdfrwt beam="2">  1        2 0.81945468E-03 0.20000900E+02</pdfrwt>
<pdfrwt beam="1">  1       -2 0.28886000E-02 0.20000900E+02</pdfrwt>
<totfact> 0.37625477E+06</totfact>
</mgrwt>
</event>
<event>
 5    1  0.4046313E-006  0.2000504E+02  0.7818608E-02  0.1745228E+00
         -2   -1    0    0    0  501 -0.00000000000E+00  0.00000000000E+00  0.88240085273E+02  0.88240085311E+02  0.26000000000E-02 0.  1.
          2   -1    0    0  501    0  0.00000000000E+00 -0.00000000000E+00 -0.11338419151E+01  0.11338448961E+01  0.26000000000E-02 0. -1.
       1023    2    1    2    0    0  0.00000000000E+00  0.00000000000E+00  0.87106243358E+02  0.89373930207E+02  0.20005043584E+02 0.  0.
        -11    1    3    3    0    0  0.82466134833E+01  0.56570907150E+01  0.44459197660E+02  0.45570051197E+02  0.51100000000E-03 0.  1.
         11    1    3    3    0    0 -0.82466134833E+01 -0.56570907150E+01  0.42647045698E+02  0.43803879010E+02  0.51100000000E-03 0. -1.
<mgrwt>
<rscale>  0 0.20005044E+02</rscale>
<asrwt>0</asrwt>
<pdfrwt beam="2">  1        2 0.17443746E-03 0.20005044E+02</pdfrwt>
<pdfrwt beam="1">  1       -2 0.13575398E-01 0.20005044E+02</pdfrwt>
<totfact> 0.30593379E+06</totfact>
</mgrwt>
</event>
<event>
 5    1  0.4119634E-006  0.2000080E+02  0.7818608E-02  0.1745312E+00
         -2   -1    0    0    0  501 -0.00000000000E+00  0.00000000000E+00  0.13675842242E+01  0.13675866957E+01  0.26000000000E-02 0. -1.
          2   -1    0    0  501    0  0.00000000000E+00 -0.00000000000E+00 -0.73127396953E+02  0.73127397000E+02  0.26000000000E-02 0.  1.
       1023    2    1    2    0    0  0.00000000000E+00  0.00000000000E+00 -0.71759812729E+02  0.74494983695E+02  0.20000796805E+02 0.  0.
        -11    1    3    3    0    0  0.95580177773E+00 -0.99545937782E+01 -0.35798848308E+02  0.37169409933E+02  0.51100000000E-03 0.  1.
         11    1    3    3    0    0 -0.95580177773E+00  0.99545937782E+01 -0.35960964422E+02  0.37325573763E+02  0.51100000000E-03 0. -1.
<mgrwt>
<rscale>  0 0.20000797E+02</rscale>
<asrwt>0</asrwt>
<pdfrwt beam="2">  1        2 0.11250366E-01 0.20000797E+02</pdfrwt>
<pdfrwt beam="1">  1       -2 0.21039782E-03 0.20000797E+02</pdfrwt>
<totfact> 0.49419956E+06</totfact>
</mgrwt>
</event>
<event>
 5    1  0.4046313E-006  0.2000077E+02  0.7818608E-02  0.1745313E+00
         -2   -1    0    0    0  501 -0.00000000000E+00  0.00000000000E+00  0.82791022127E+02  0.82791022167E+02  0.26000000000E-02 0.  1.
          2   -1    0    0  501    0  0.00000000000E+00 -0.00000000000E+00 -0.12079522360E+01  0.12079550341E+01  0.26000000000E-02 0. -1.
       1023    2    1    2    0    0  0.00000000000E+00  0.00000000000E+00  0.81583069891E+02  0.83998977201E+02  0.20000771938E+02 0.  0.
        -11    1    3    3    0    0  0.99730630571E+01  0.73599009063E+00  0.41058844521E+02  0.42259110045E+02  0.51100000000E-03 0.  1.
         11    1    3    3    0    0 -0.99730630571E+01 -0.73599009063E+00  0.40524225370E+02  0.41739867156E+02  0.51100000000E-03 0. -1.
<mgrwt>
<rscale>  0 0.20000772E+02</rscale>
<asrwt>0</asrwt>
<pdfrwt beam="2">  1        2 0.18583900E-03 0.20000772E+02</pdfrwt>
<pdfrwt beam="1">  1       -2 0.12737082E-01 0.20000772E+02</pdfrwt>
<totfact> 0.31032978E+06</totfact>
</mgrwt>
</event>
<event>
 5    1  0.4046313E-006  0.2000260E+02  0.7818608E-02  0.1745276E+00
          2   -1    0    0  501    0  0.00000000000E+00  0.00000000000E+00  0.25993386554E+01  0.25993399557E+01  0.26000000000E-02 0.  1.
         -2   -1    0    0    0  501 -0.00000000000E+00 -0.00000000000E+00 -0.38481324678E+02  0.38481324766E+02  0.26000000000E-02 0. -1.
       1023    2    1    2    0    0  0.00000000000E+00  0.00000000000E+00 -0.35881986022E+02  0.41080664721E+02  0.20002602157E+02 0.  0.
        -11    1    3    3    0    0 -0.64618893449E+01  0.76333028886E+01 -0.17834353211E+02  0.20447187621E+02  0.51100000000E-03 0. -1.
         11    1    3    3    0    0  0.64618893449E+01 -0.76333028886E+01 -0.18047632811E+02  0.20633477100E+02  0.51100000000E-03 0.  1.
<mgrwt>
<rscale>  0 0.20002602E+02</rscale>
<asrwt>0</asrwt>
<pdfrwt beam="1">  1        2 0.39989839E-03 0.20002602E+02</pdfrwt>
<pdfrwt beam="2">  1       -2 0.59202035E-02 0.20002602E+02</pdfrwt>
<totfact> 0.35074849E+06</totfact>
</mgrwt>
</event>
<event>
 4    1  0.4046313E-006  0.2001260E+02  0.7818608E-02  0.1745078E+00
         -2   -1    0    0    0  501 -0.00000000000E+00  0.00000000000E+00  0.87785470109E+00  0.87785855138E+00  0.26000000000E-02 0.  1.
          2   -1    0    0  501    0  0.00000000000E+00 -0.00000000000E+00 -0.11405734209E+03  0.11405734212E+03  0.26000000000E-02 0. -1.
        -11    1    1    2    0    0 -0.88797024579E+01  0.46080853911E+01 -0.57772746771E+02  0.58632532236E+02  0.51100000000E-03 0. -1.
         11    1    1    2    0    0  0.88797024579E+01 -0.46080853911E+01 -0.55406740621E+02  0.56302668438E+02  0.51100000000E-03 0.  1.
<mgrwt>
<rscale>  0 0.20012596E+02</rscale>
<asrwt>0</asrwt>
<pdfrwt beam="2">  1        2 0.17547272E-01 0.20012596E+02</pdfrwt>
<pdfrwt beam="1">  1       -2 0.13505496E-03 0.20012596E+02</pdfrwt>
<totfact> 0.54335154E+06</totfact>
</mgrwt>
</event>
<event>
 5    1  0.4046313E-006  0.2000269E+02  0.7818608E-02  0.1745275E+00
          2   -1    0    0  501    0  0.00000000000E+00  0.00000000000E+00  0.88736883386E+00  0.88737264286E+00  0.26000000000E-02 0.  1.
         -2   -1    0    0    0  501 -0.00000000000E+00 -0.00000000000E+00 -0.11272282532E+03  0.11272282535E+03  0.26000000000E-02 0. -1.
       1023    2    1    2    0    0  0.00000000000E+00  0.00000000000E+00 -0.11183545649E+03  0.11361019799E+03  0.20002693831E+02 0.  0.
        -11    1    3    3    0    0 -0.80168905227E+01 -0.59792008825E+01 -0.55494100707E+02  0.56388089082E+02  0.51100000000E-03 0. -1.
         11    1    3    3    0    0  0.80168905227E+01  0.59792008825E+01 -0.56341355780E+02  0.57222108911E+02  0.51100000000E-03 0.  1.
<mgrwt>
<rscale>  0 0.20002694E+02</rscale>
<asrwt>0</asrwt>
<pdfrwt beam="1">  1        2 0.13651867E-03 0.20002694E+02</pdfrwt>
<pdfrwt beam="2">  1       -2 0.17341962E-01 0.20002694E+02</pdfrwt>
<totfact> 0.28823971E+06</totfact>
</mgrwt>
</event>
<event>
 5    1  0.4474241E-006  0.2000137E+02  0.7818608E-02  0.1745301E+00
         -2   -1    0    0    0  501 -0.00000000000E+00  0.00000000000E+00  0.93462174590E+00  0.93462536233E+00  0.26000000000E-02 0.  1.
          2   -1    0    0  501    0  0.00000000000E+00 -0.00000000000E+00 -0.10700955186E+03  0.10700955189E+03  0.26000000000E-02 0. -1.
       1023    2    1    2    0    0  0.00000000000E+00  0.00000000000E+00 -0.10607493011E+03  0.10794417725E+03  0.20001365061E+02 0.  0.
        -11    1    3    3    0    0 -0.94696209371E+01  0.32155514659E+01 -0.53105493152E+02  0.54038938693E+02  0.51100000000E-03 0. -1.
         11    1    3    3    0    0  0.94696209371E+01 -0.32155514659E+01 -0.52969436958E+02  0.53905238556E+02  0.51100000000E-03 0.  1.
<mgrwt>
<rscale>  0 0.20001365E+02</rscale>
<asrwt>0</asrwt>
<pdfrwt beam="2">  1        2 0.16462999E-01 0.20001365E+02</pdfrwt>
<pdfrwt beam="1">  1       -2 0.14378833E-03 0.20001365E+02</pdfrwt>
<totfact> 0.53581381E+06</totfact>
</mgrwt>
</event>
<event>
 5    1  0.4046313E-006  0.2000072E+02  0.7818608E-02  0.1745314E+00
          2   -1    0    0  501    0  0.00000000000E+00  0.00000000000E+00  0.89405774123E+00  0.89406152173E+00  0.26000000000E-02 0.  1.
         -2   -1    0    0    0  501 -0.00000000000E+00 -0.00000000000E+00 -0.11185746740E+03  0.11185746743E+03  0.26000000000E-02 0. -1.
       1023    2    1    2    0    0  0.00000000000E+00  0.00000000000E+00 -0.11096340966E+03  0.11275152895E+03  0.20000724934E+02 0.  0.
        -11    1    3    3    0    0  0.90272256561E+01 -0.43028683704E+01 -0.55244535974E+02  0.56142356866E+02  0.51100000000E-03 0.  1.
         11    1    3    3    0    0 -0.90272256561E+01  0.43028683704E+01 -0.55718873683E+02  0.56609172084E+02  0.51100000000E-03 0. -1.
<mgrwt>
<rscale>  0 0.20000725E+02</rscale>
<asrwt>0</asrwt>
<pdfrwt beam="1">  1        2 0.13754773E-03 0.20000725E+02</pdfrwt>
<pdfrwt beam="2">  1       -2 0.17208830E-01 0.20000725E+02</pdfrwt>
<totfact> 0.28889631E+06</totfact>
</mgrwt>
</event>
<event>
 5    1  0.4046313E-006  0.2000268E+02  0.7818608E-02  0.1745275E+00
          2   -1    0    0  501    0  0.00000000000E+00  0.00000000000E+00  0.85817794631E+00  0.85818188487E+00  0.26000000000E-02 0.  1.
         -2   -1    0    0    0  501 -0.00000000000E+00 -0.00000000000E+00 -0.11655686416E+03  0.11655686419E+03  0.26000000000E-02 0. -1.
       1023    2    1    2    0    0  0.00000000000E+00  0.00000000000E+00 -0.11569868622E+03  0.11741504608E+03  0.20002676145E+02 0.  0.
        -11    1    3    3    0    0  0.99591913825E+01  0.91534932768E+00 -0.58191899528E+02  0.59045072007E+02  0.51100000000E-03 0. -1.
         11    1    3    3    0    0 -0.99591913825E+01 -0.91534932768E+00 -0.57506786689E+02  0.58369974070E+02  0.51100000000E-03 0.  1.
<mgrwt>
<rscale>  0 0.20002676E+02</rscale>
<asrwt>0</asrwt>
<pdfrwt beam="1">  1        2 0.13202777E-03 0.20002676E+02</pdfrwt>
<pdfrwt beam="2">  1       -2 0.17931813E-01 0.20002676E+02</pdfrwt>
<totfact> 0.28563302E+06</totfact>
</mgrwt>
</event>
<event>
 5    1  0.4046313E-006  0.2000207E+02  0.7818608E-02  0.1745287E+00
         -2   -1    0    0    0  501 -0.00000000000E+00  0.00000000000E+00  0.38522669649E+02  0.38522669737E+02  0.26000000000E-02 0. -1.
          2   -1    0    0  501    0  0.00000000000E+00 -0.00000000000E+00 -0.25964102663E+01  0.25964115681E+01  0.26000000000E-02 0.  1.
       1023    2    1    2    0    0  0.00000000000E+00  0.00000000000E+00  0.35926259383E+02  0.41119081305E+02  0.20002068246E+02 0.  0.
        -11    1    3    3    0    0 -0.38310569951E+01  0.92378578058E+01  0.18117908432E+02  0.20694772788E+02  0.51100000000E-03 0. -1.
         11    1    3    3    0    0  0.38310569951E+01 -0.92378578058E+01  0.17808350951E+02  0.20424308517E+02  0.51100000000E-03 0.  1.
<mgrwt>
<rscale>  0 0.20002068E+02</rscale>
<asrwt>0</asrwt>
<pdfrwt beam="2">  1        2 0.39944788E-03 0.20002068E+02</pdfrwt>
<pdfrwt beam="1">  1       -2 0.59265641E-02 0.20002068E+02</pdfrwt>
<totfact> 0.35072384E+06</totfact>
</mgrwt>
</event>
<event>
 5    1  0.4046313E-006  0.2000018E+02  0.7818608E-02  0.1745325E+00
          2   -1    0    0  501    0  0.00000000000E+00  0.00000000000E+00  0.48879152619E+02  0.48879152688E+02  0.26000000000E-02 0.  1.
         -2   -1    0    0    0  501 -0.00000000000E+00 -0.00000000000E+00 -0.20458969435E+01  0.20458985956E+01  0.26000000000E-02 0. -1.
       1023    2    1    2    0    0  0.00000000000E+00  0.00000000000E+00  0.46833255675E+02  0.50925051284E+02  0.20000175276E+02 0.  0.
        -11    1    3    3    0    0 -0.69425152107E+01 -0.71974384847E+01  0.23389403762E+02  0.25437489004E+02  0.51100000000E-03 0.  1.
         11    1    3    3    0    0  0.69425152107E+01  0.71974384847E+01  0.23443851913E+02  0.25487562280E+02  0.51100000000E-03 0. -1.
<mgrwt>
<rscale>  0 0.20000175E+02</rscale>
<asrwt>0</asrwt>
<pdfrwt beam="1">  1        2 0.75198688E-02 0.20000175E+02</pdfrwt>
<pdfrwt beam="2">  1       -2 0.31475355E-03 0.20000175E+02</pdfrwt>
<totfact> 0.46170192E+06</totfact>
</mgrwt>
</event>
<event>
 5    1  0.4159811E-006  0.2000059E+02  0.7818608E-02  0.1745316E+00
          2   -1    0    0  501    0  0.00000000000E+00  0.00000000000E+00  0.69107194183E+02  0.69107194232E+02  0.26000000000E-02 0. -1.
         -2   -1    0    0    0  501 -0.00000000000E+00 -0.00000000000E+00 -0.14471114519E+01  0.14471137876E+01  0.26000000000E-02 0.  1.
       1023    2    1    2    0    0  0.00000000000E+00  0.00000000000E+00  0.67660082731E+02  0.70554308020E+02  0.20000589615E+02 0.  0.
        -11    1    3    3    0    0 -0.56296567278E+00 -0.99844119032E+01  0.33907694723E+02  0.35351621931E+02  0.51100000000E-03 0. -1.
         11    1    3    3    0    0  0.56296567278E+00  0.99844119032E+01  0.33752388008E+02  0.35202686089E+02  0.51100000000E-03 0.  1.
<mgrwt>
<rscale>  0 0.20000590E+02</rscale>
<asrwt>0</asrwt>
<pdfrwt beam="1">  1        2 0.10631875E-01 0.20000590E+02</pdfrwt>
<pdfrwt beam="2">  1       -2 0.22263273E-03 0.20000590E+02</pdfrwt>
<totfact> 0.48900364E+06</totfact>
</mgrwt>
</event>
<event>
 5    1  0.4046313E-006  0.2000129E+02  0.7818608E-02  0.1745302E+00
          2   -1    0    0  501    0  0.00000000000E+00  0.00000000000E+00  0.75027055473E+01  0.75027059978E+01  0.26000000000E-02 0.  1.
         -2   -1    0    0    0  501 -0.00000000000E+00 -0.00000000000E+00 -0.13330241757E+02  0.13330242010E+02  0.26000000000E-02 0. -1.
       1023    2    1    2    0    0  0.00000000000E+00  0.00000000000E+00 -0.58275362094E+01  0.20832948008E+02  0.20001288569E+02 0.  0.
        -11    1    3    3    0    0  0.68020602343E+01 -0.73306803133E+01 -0.29943716286E+01  0.10439020979E+02  0.51100000000E-03 0.  1.
         11    1    3    3    0    0 -0.68020602343E+01  0.73306803133E+01 -0.28331645808E+01  0.10393927029E+02  0.51100000000E-03 0. -1.
<mgrwt>
<rscale>  0 0.20001289E+02</rscale>
<asrwt>0</asrwt>
<pdfrwt beam="1">  1        2 0.11542625E-02 0.20001289E+02</pdfrwt>
<pdfrwt beam="2">  1       -2 0.20508065E-02 0.20001289E+02</pdfrwt>
<totfact> 0.38633365E+06</totfact>
</mgrwt>
</event>
<event>
 5    1  0.4046313E-006  0.2000164E+02  0.7818608E-02  0.1745295E+00
          2   -1    0    0  501    0  0.00000000000E+00  0.00000000000E+00  0.90780463265E+01  0.90780466989E+01  0.26000000000E-02 0. -1.
         -2   -1    0    0    0  501 -0.00000000000E+00 -0.00000000000E+00 -0.11017393683E+02  0.11017393990E+02  0.26000000000E-02 0.  1.
       1023    2    1    2    0    0  0.00000000000E+00  0.00000000000E+00 -0.19393473565E+01  0.20095440689E+02  0.20001641640E+02 0.  0.
        -11    1    3    3    0    0  0.41428589048E+01  0.91022667490E+01 -0.10132004943E+01  0.10051920980E+02  0.51100000000E-03 0.  1.
         11    1    3    3    0    0 -0.41428589048E+01 -0.91022667490E+01 -0.92614686220E+00  0.10043519709E+02  0.51100000000E-03 0. -1.
<mgrwt>
<rscale>  0 0.20001642E+02</rscale>
<asrwt>0</asrwt>
<pdfrwt beam="1">  1        2 0.13966226E-02 0.20001642E+02</pdfrwt>
<pdfrwt beam="2">  1       -2 0.16949837E-02 0.20001642E+02</pdfrwt>
<totfact> 0.39177526E+06</totfact>
</mgrwt>
</event>
<event>
 4    1  0.4046313E-006  0.2002263E+02  0.7818608E-02  0.1744878E+00
         -2   -1    0    0    0  501 -0.00000000000E+00  0.00000000000E+00  0.26056442058E+01  0.26056455030E+01  0.26000000000E-02 0. -1.
          2   -1    0    0  501    0  0.00000000000E+00 -0.00000000000E+00 -0.38465114209E+02  0.38465114297E+02  0.26000000000E-02 0.  1.
        -11    1    1    2    0    0  0.24477257857E+01 -0.96999912632E+01 -0.17148013755E+02  0.19852847857E+02  0.51100000000E-03 0. -1.
         11    1    1    2    0    0 -0.24477257857E+01  0.96999912632E+01 -0.18711456248E+02  0.21217911943E+02  0.51100000000E-03 0.  1.
<mgrwt>
<rscale>  0 0.20022630E+02</rscale>
<asrwt>0</asrwt>
<pdfrwt beam="2">  1        2 0.59177096E-02 0.20022630E+02</pdfrwt>
<pdfrwt beam="1">  1       -2 0.40086847E-03 0.20022630E+02</pdfrwt>
<totfact> 0.44556797E+06</totfact>
</mgrwt>
</event>
<event>
 5    1  0.4046313E-006  0.2000031E+02  0.7818608E-02  0.1745322E+00
          2   -1    0    0  501    0  0.00000000000E+00  0.00000000000E+00  0.89438557635E+01  0.89438561414E+01  0.26000000000E-02 0.  1.
         -2   -1    0    0    0  501 -0.00000000000E+00 -0.00000000000E+00 -0.11181207918E+02  0.11181208221E+02  0.26000000000E-02 0. -1.
       1023    2    1    2    0    0  0.00000000000E+00  0.00000000000E+00 -0.22373521547E+01  0.20125064362E+02  0.20000311770E+02 0.  0.
        -11    1    3    3    0    0  0.81890362790E+01 -0.57395708021E+01 -0.11301177577E+01  0.10063804180E+02  0.51100000000E-03 0. -1.
         11    1    3    3    0    0 -0.81890362790E+01  0.57395708021E+01 -0.11072343970E+01  0.10061260182E+02  0.51100000000E-03 0.  1.
<mgrwt>
<rscale>  0 0.20000312E+02</rscale>
<asrwt>0</asrwt>
<pdfrwt beam="1">  1        2 0.13759778E-02 0.20000312E+02</pdfrwt>
<pdfrwt beam="2">  1       -2 0.17201859E-02 0.20000312E+02</pdfrwt>
<totfact> 0.39140822E+06</totfact>
</mgrwt>
</event>
<event>
 5    1  0.4264404E-006  0.2000133E+02  0.7818608E-02  0.1745302E+00
          2   -1    0    0  501    0  0.00000000000E+00  0.00000000000E+00  0.61640679012E+02  0.61640679067E+02  0.26000000000E-02 0. -1.
         -2   -1    0    0    0  501 -0.00000000000E+00 -0.00000000000E+00 -0.16225194748E+01  0.16225215580E+01  0.26000000000E-02 0.  1.
       1023    2    1    2    0    0  0.00000000000E+00  0.00000000000E+00  0.60018159537E+02  0.63263200625E+02  0.20001326933E+02 0.  0.
        -11    1    3    3    0    0  0.65431335411E+00  0.99787609441E+01  0.30316936735E+02  0.31923665973E+02  0.51100000000E-03 0.  1.
         11    1    3    3    0    0 -0.65431335411E+00 -0.99787609441E+01  0.29701222802E+02  0.31339534651E+02  0.51100000000E-03 0. -1.
<mgrwt>
<rscale>  0 0.20001327E+02</rscale>
<asrwt>0</asrwt>
<pdfrwt beam="1">  1        2 0.94831827E-02 0.20001327E+02</pdfrwt>
<pdfrwt beam="2">  1       -2 0.24961851E-03 0.20001327E+02</pdfrwt>
<totfact> 0.47910698E+06</totfact>
</mgrwt>
</event>
<event>
 4    1  0.4046313E-006  0.2001894E+02  0.7818608E-02  0.1744952E+00
         -2   -1    0    0    0  501 -0.00000000000E+00  0.00000000000E+00  0.19550252472E+01  0.19550269760E+01  0.26000000000E-02 0.  1.
          2   -1    0    0  501    0  0.00000000000E+00 -0.00000000000E+00 -0.51247120704E+02  0.51247120770E+02  0.26000000000E-02 0. -1.
        -11    1    1    2    0    0  0.21424896709E+01 -0.97722414660E+01 -0.25496879729E+02  0.27389374608E+02  0.51100000000E-03 0.  1.
         11    1    1    2    0    0 -0.21424896709E+01  0.97722414660E+01 -0.23795215728E+02  0.25812773137E+02  0.51100000000E-03 0. -1.
<mgrwt>
<rscale>  0 0.20018937E+02</rscale>
<asrwt>0</asrwt>
<pdfrwt beam="2">  1        2 0.78841715E-02 0.20018937E+02</pdfrwt>
<pdfrwt beam="1">  1       -2 0.30077329E-03 0.20018937E+02</pdfrwt>
<totfact> 0.46404017E+06</totfact>
</mgrwt>
</event>
<event>
 5    1  0.4046313E-006  0.2000008E+02  0.7818608E-02  0.1745327E+00
          2   -1    0    0  501    0  0.00000000000E+00  0.00000000000E+00  0.10527569549E+03  0.10527569552E+03  0.26000000000E-02 0. -1.
         -2   -1    0    0    0  501 -0.00000000000E+00 -0.00000000000E+00 -0.94989244333E+00  0.94989600162E+00  0.26000000000E-02 0.  1.
       1023    2    1    2    0    0  0.00000000000E+00  0.00000000000E+00  0.10432580304E+03  0.10622559152E+03  0.20000077830E+02 0.  0.
        -11    1    3    3    0    0 -0.91829925161E+01  0.39589589215E+01  0.52207576463E+02  0.53156671714E+02  0.51100000000E-03 0.  1.
         11    1    3    3    0    0  0.91829925161E+01 -0.39589589215E+01  0.52118226581E+02  0.53068919807E+02  0.51100000000E-03 0. -1.
<mgrwt>
<rscale>  0 0.20000078E+02</rscale>
<asrwt>0</asrwt>
<pdfrwt beam="1">  1        2 0.16196260E-01 0.20000078E+02</pdfrwt>
<pdfrwt beam="2">  1       -2 0.14613758E-03 0.20000078E+02</pdfrwt>
<totfact> 0.53384803E+06</totfact>
</mgrwt>
</event>
<event>
 5    1  0.4046313E-006  0.2000027E+02  0.7818608E-02  0.1745323E+00
         -2   -1    0    0    0  501 -0.00000000000E+00  0.00000000000E+00  0.12014331813E+02  0.12014332094E+02  0.26000000000E-02 0. -1.
          2   -1    0    0  501    0  0.00000000000E+00 -0.00000000000E+00 -0.83236148201E+01  0.83236152262E+01  0.26000000000E-02 0.  1.
       1023    2    1    2    0    0  0.00000000000E+00  0.00000000000E+00  0.36907169928E+01  0.20337947320E+02  0.20000267730E+02 0.  0.
        -11    1    3    3    0    0 -0.96765793817E+01 -0.25226661437E+01  0.17930699116E+01  0.10159484877E+02  0.51100000000E-03 0. -1.
         11    1    3    3    0    0  0.96765793817E+01  0.25226661437E+01  0.18976470812E+01  0.10178462443E+02  0.51100000000E-03 0.  1.
<mgrwt>
<rscale>  0 0.20000268E+02</rscale>
<asrwt>0</asrwt>
<pdfrwt beam="2">  1        2 0.12805562E-02 0.20000268E+02</pdfrwt>
<pdfrwt beam="1">  1       -2 0.18483588E-02 0.20000268E+02</pdfrwt>
<totfact> 0.38935311E+06</totfact>
</mgrwt>
</event>
<event>
 4    1  0.4046313E-006  0.2002594E+02  0.7818608E-02  0.1744813E+00
          2   -1    0    0  501    0  0.00000000000E+00  0.00000000000E+00  0.18677290242E+02  0.18677290423E+02  0.26000000000E-02 0.  1.
         -2   -1    0    0    0  501 -0.00000000000E+00 -0.00000000000E+00 -0.53679933793E+01  0.53679940089E+01  0.26000000000E-02 0. -1.
        -11    1    1    2    0    0 -0.98056031657E+01  0.20249142045E+01  0.67713634667E+01  0.12087245114E+02  0.51100000000E-03 0. -1.
         11    1    1    2    0    0  0.98056031657E+01 -0.20249142045E+01  0.65379333957E+01  0.11958039318E+02  0.51100000000E-03 0.  1.
<mgrwt>
<rscale>  0 0.20025941E+02</rscale>
<asrwt>0</asrwt>
<pdfrwt beam="1">  1        2 0.28734293E-02 0.20025941E+02</pdfrwt>
<pdfrwt beam="2">  1       -2 0.82584520E-03 0.20025941E+02</pdfrwt>
<totfact> 0.41309317E+06</totfact>
</mgrwt>
</event>
<event>
 4    1  0.4046313E-006  0.2001437E+02  0.7818608E-02  0.1745042E+00
         -2   -1    0    0    0  501 -0.00000000000E+00  0.00000000000E+00  0.26627536419E+01  0.26627549112E+01  0.26000000000E-02 0. -1.
          2   -1    0    0  501    0  0.00000000000E+00 -0.00000000000E+00 -0.37609078361E+02  0.37609078451E+02  0.26000000000E-02 0.  1.
        -11    1    1    2    0    0 -0.90030369994E+01 -0.43650625998E+01 -0.17095163860E+02  0.19807904341E+02  0.51100000000E-03 0. -1.
         11    1    1    2    0    0  0.90030369994E+01  0.43650625998E+01 -0.17851160859E+02  0.20463929021E+02  0.51100000000E-03 0.  1.
<mgrwt>
<rscale>  0 0.20014369E+02</rscale>
<asrwt>0</asrwt>
<pdfrwt beam="2">  1        2 0.57860118E-02 0.20014369E+02</pdfrwt>
<pdfrwt beam="1">  1       -2 0.40965454E-03 0.20014369E+02</pdfrwt>
<totfact> 0.44470663E+06</totfact>
</mgrwt>
</event>
<event>
 5    1  0.4046313E-006  0.2000040E+02  0.7818608E-02  0.1745320E+00
         -2   -1    0    0    0  501 -0.00000000000E+00  0.00000000000E+00  0.13209272083E+02  0.13209272338E+02  0.26000000000E-02 0.  1.
          2   -1    0    0  501    0  0.00000000000E+00 -0.00000000000E+00 -0.75707439334E+01  0.75707443798E+01  0.26000000000E-02 0. -1.
       1023    2    1    2    0    0  0.00000000000E+00  0.00000000000E+00  0.56385281492E+01  0.20780016718E+02  0.20000402374E+02 0.  0.
        -11    1    3    3    0    0 -0.32131820268E+01  0.94698947924E+01  0.28442299165E+01  0.10396782685E+02  0.51100000000E-03 0.  1.
         11    1    3    3    0    0  0.32131820268E+01 -0.94698947924E+01  0.27942982326E+01  0.10383234033E+02  0.51100000000E-03 0. -1.
<mgrwt>
<rscale>  0 0.20000402E+02</rscale>
<asrwt>0</asrwt>
<pdfrwt beam="2">  1        2 0.11647299E-02 0.20000402E+02</pdfrwt>
<pdfrwt beam="1">  1       -2 0.20321957E-02 0.20000402E+02</pdfrwt>
<totfact> 0.38663240E+06</totfact>
</mgrwt>
</event>
<event>
 5    1  0.4046313E-006  0.2000100E+02  0.7818608E-02  0.1745308E+00
         -2   -1    0    0    0  501 -0.00000000000E+00  0.00000000000E+00  0.25235372877E+02  0.25235373011E+02  0.26000000000E-02 0.  1.
          2   -1    0    0  501    0  0.00000000000E+00 -0.00000000000E+00 -0.39630870149E+01  0.39630878678E+01  0.26000000000E-02 0. -1.
       1023    2    1    2    0    0  0.00000000000E+00  0.00000000000E+00  0.21272285862E+02  0.29198460879E+02  0.20000999272E+02 0.  0.
        -11    1    3    3    0    0  0.99450147647E+01  0.10482919169E+01  0.10507559233E+02  0.14505551900E+02  0.51100000000E-03 0. -1.
         11    1    3    3    0    0 -0.99450147647E+01 -0.10482919169E+01  0.10764726629E+02  0.14692908979E+02  0.51100000000E-03 0.  1.
<mgrwt>
<rscale>  0 0.20000999E+02</rscale>
<asrwt>0</asrwt>
<pdfrwt beam="2">  1        2 0.60970573E-03 0.20000999E+02</pdfrwt>
<pdfrwt beam="1">  1       -2 0.38823654E-02 0.20000999E+02</pdfrwt>
<totfact> 0.36673117E+06</totfact>
</mgrwt>
</event>
<event>
 5    1  0.4046313E-006  0.2000092E+02  0.7818608E-02  0.1745310E+00
         -2   -1    0    0    0  501 -0.00000000000E+00  0.00000000000E+00  0.11395933881E+02  0.11395934177E+02  0.26000000000E-02 0.  1.
          2   -1    0    0  501    0  0.00000000000E+00 -0.00000000000E+00 -0.87758665062E+01  0.87758668914E+01  0.26000000000E-02 0. -1.
       1023    2    1    2    0    0  0.00000000000E+00  0.00000000000E+00  0.26200673745E+01  0.20171801069E+02  0.20000920112E+02 0.  0.
        -11    1    3    3    0    0 -0.80037089336E+01  0.59957763070E+01  0.13328287532E+01  0.10088861331E+02  0.51100000000E-03 0. -1.
         11    1    3    3    0    0  0.80037089336E+01 -0.59957763070E+01  0.12872386213E+01  0.10082939737E+02  0.51100000000E-03 0.  1.
<mgrwt>
<rscale>  0 0.20000920E+02</rscale>
<asrwt>0</asrwt>
<pdfrwt beam="2">  1        2 0.13501334E-02 0.20000920E+02</pdfrwt>
<pdfrwt beam="1">  1       -2 0.17532206E-02 0.20000920E+02</pdfrwt>
<totfact> 0.39083782E+06</totfact>
</mgrwt>
</event>
<event>
 5    1  0.4046313E-006  0.2000995E+02  0.7818608E-02  0.1745130E+00
          2   -1    0    0  501    0  0.00000000000E+00  0.00000000000E+00  0.33799913775E+02  0.33799913875E+02  0.26000000000E-02 0. -1.
         -2   -1    0    0    0  501 -0.00000000000E+00 -0.00000000000E+00 -0.29615311598E+01  0.29615323011E+01  0.26000000000E-02 0.  1.
       1023    2    1    2    0    0  0.00000000000E+00  0.00000000000E+00  0.30838382615E+02  0.36761446176E+02  0.20009949591E+02 0.  0.
        -11    1    3    3    0    0  0.73659921256E+01 -0.67693159312E+01  0.15172421706E+02  0.18173713403E+02  0.51100000000E-03 0.  1.
         11    1    3    3    0    0 -0.73659921256E+01  0.67693159312E+01  0.15665960909E+02  0.18587732773E+02  0.51100000000E-03 0. -1.
<mgrwt>
<rscale>  0 0.20009950E+02</rscale>
<asrwt>0</asrwt>
<pdfrwt beam="1">  1        2 0.51999868E-02 0.20009950E+02</pdfrwt>
<pdfrwt beam="2">  1       -2 0.45562027E-03 0.20009950E+02</pdfrwt>
<totfact> 0.43916863E+06</totfact>
</mgrwt>
</event>
<event>
 5    1  0.4046313E-006  0.2000262E+02  0.7818608E-02  0.1745276E+00
         -2   -1    0    0    0  501 -0.00000000000E+00  0.00000000000E+00  0.68982733946E+02  0.68982733995E+02  0.26000000000E-02 0.  1.
          2   -1    0    0  501    0  0.00000000000E+00 -0.00000000000E+00 -0.14500171333E+01  0.14500194643E+01  0.26000000000E-02 0. -1.
       1023    2    1    2    0    0  0.00000000000E+00  0.00000000000E+00  0.67532716813E+02  0.70432753460E+02  0.20002622822E+02 0.  0.
        -11    1    3    3    0    0 -0.73233158451E+01 -0.68101681869E+01  0.33308822600E+02  0.34777679752E+02  0.51100000000E-03 0.  1.
         11    1    3    3    0    0  0.73233158451E+01  0.68101681869E+01  0.34223894213E+02  0.35655073707E+02  0.51100000000E-03 0. -1.
<mgrwt>
<rscale>  0 0.20002623E+02</rscale>
<asrwt>0</asrwt>
<pdfrwt beam="2">  1        2 0.22307971E-03 0.20002623E+02</pdfrwt>
<pdfrwt beam="1">  1       -2 0.10612730E-01 0.20002623E+02</pdfrwt>
<totfact> 0.32160675E+06</totfact>
</mgrwt>
</event>
<event>
 5    1  0.4046313E-006  0.2000022E+02  0.7818608E-02  0.1745324E+00
          2   -1    0    0  501    0  0.00000000000E+00  0.00000000000E+00  0.12836524658E+01  0.12836550989E+01  0.26000000000E-02 0.  1.
         -2   -1    0    0    0  501 -0.00000000000E+00 -0.00000000000E+00 -0.77904361180E+02  0.77904361224E+02  0.26000000000E-02 0. -1.
       1023    2    1    2    0    0  0.00000000000E+00  0.00000000000E+00 -0.76620708714E+02  0.79188016322E+02  0.20000223128E+02 0.  0.
        -11    1    3    3    0    0 -0.61834736883E+01  0.78591732271E+01 -0.38244058177E+02  0.39529861330E+02  0.51100000000E-03 0. -1.
         11    1    3    3    0    0  0.61834736883E+01 -0.78591732271E+01 -0.38376650537E+02  0.39658154992E+02  0.51100000000E-03 0.  1.
<mgrwt>
<rscale>  0 0.20000223E+02</rscale>
<asrwt>0</asrwt>
<pdfrwt beam="1">  1        2 0.19748526E-03 0.20000223E+02</pdfrwt>
<pdfrwt beam="2">  1       -2 0.11985283E-01 0.20000223E+02</pdfrwt>
<totfact> 0.31426178E+06</totfact>
</mgrwt>
</event>
<event>
 5    1  0.4046313E-006  0.2000780E+02  0.7818608E-02  0.1745173E+00
         -2   -1    0    0    0  501 -0.00000000000E+00  0.00000000000E+00  0.20835742984E+01  0.20835759206E+01  0.26000000000E-02 0. -1.
          2   -1    0    0  501    0  0.00000000000E+00 -0.00000000000E+00 -0.48031855877E+02  0.48031855948E+02  0.26000000000E-02 0.  1.
       1023    2    1    2    0    0  0.00000000000E+00  0.00000000000E+00 -0.45948281579E+02  0.50115431868E+02  0.20007796763E+02 0.  0.
        -11    1    3    3    0    0  0.91251924311E+01  0.40994628178E+01 -0.23116941863E+02  0.25188642950E+02  0.51100000000E-03 0. -1.
         11    1    3    3    0    0 -0.91251924311E+01 -0.40994628178E+01 -0.22831339716E+02  0.24926788918E+02  0.51100000000E-03 0.  1.
<mgrwt>
<rscale>  0 0.20007797E+02</rscale>
<asrwt>0</asrwt>
<pdfrwt beam="2">  1        2 0.73895156E-02 0.20007797E+02</pdfrwt>
<pdfrwt beam="1">  1       -2 0.32055006E-03 0.20007797E+02</pdfrwt>
<totfact> 0.46011888E+06</totfact>
</mgrwt>
</event>
<event>
 5    1  0.4046313E-006  0.2000070E+02  0.7818608E-02  0.1745314E+00
          2   -1    0    0  501    0  0.00000000000E+00  0.00000000000E+00  0.69229479462E+02  0.69229479511E+02  0.26000000000E-02 0.  1.
         -2   -1    0    0    0  501 -0.00000000000E+00 -0.00000000000E+00 -0.14445707542E+01  0.14445730939E+01  0.26000000000E-02 0. -1.
       1023    2    1    2    0    0  0.00000000000E+00  0.00000000000E+00  0.67784908708E+02  0.70674052605E+02  0.20000696564E+02 0.  0.
        -11    1    3    3    0    0 -0.36534631809E+01  0.93089372126E+01  0.33703473586E+02  0.35155771038E+02  0.51100000000E-03 0.  1.
         11    1    3    3    0    0  0.36534631809E+01 -0.93089372126E+01  0.34081435122E+02  0.35518281567E+02  0.51100000000E-03 0. -1.
<mgrwt>
<rscale>  0 0.20000697E+02</rscale>
<asrwt>0</asrwt>
<pdfrwt beam="1">  1        2 0.10650692E-01 0.20000697E+02</pdfrwt>
<pdfrwt beam="2">  1       -2 0.22224178E-03 0.20000697E+02</pdfrwt>
<totfact> 0.48915729E+06</totfact>
</mgrwt>
</event>
<event>
 4    1  0.4046313E-006  0.2022034E+02  0.7818608E-02  0.1740982E+00
         -2   -1    0    0    0  501 -0.00000000000E+00  0.00000000000E+00  0.67049337731E+01  0.67049342772E+01  0.26000000000E-02 0.  1.
          2   -1    0    0  501    0  0.00000000000E+00 -0.00000000000E+00 -0.15244819102E+02  0.15244819324E+02  0.26000000000E-02 0. -1.
        -11    1    1    2    0    0 -0.29650269156E+01  0.96473640292E+01 -0.36254523338E+01  0.10724128040E+02  0.51100000000E-03 0. -1.
         11    1    1    2    0    0  0.29650269156E+01 -0.96473640292E+01 -0.49144329953E+01  0.11225625562E+02  0.51100000000E-03 0.  1.
<mgrwt>
<rscale>  0 0.20220337E+02</rscale>
<asrwt>0</asrwt>
<pdfrwt beam="2">  1        2 0.23453568E-02 0.20220337E+02</pdfrwt>
<pdfrwt beam="1">  1       -2 0.10315283E-02 0.20220337E+02</pdfrwt>
<totfact> 0.39742713E+06</totfact>
</mgrwt>
</event>
<event>
 5    1  0.4046313E-006  0.2000345E+02  0.7818608E-02  0.1745259E+00
          2   -1    0    0  501    0  0.00000000000E+00  0.00000000000E+00  0.30162507926E+01  0.30162519132E+01  0.26000000000E-02 0. -1.
         -2   -1    0    0    0  501 -0.00000000000E+00 -0.00000000000E+00 -0.33165189313E+02  0.33165189415E+02  0.26000000000E-02 0.  1.
       1023    2    1    2    0    0  0.00000000000E+00  0.00000000000E+00 -0.30148938521E+02  0.36181441328E+02  0.20003454768E+02 0.  0.
        -11    1    3    3    0    0  0.92236245717E+01  0.38639335755E+01 -0.15384171435E+02  0.18348786443E+02  0.51100000000E-03 0.  1.
         11    1    3    3    0    0 -0.92236245717E+01 -0.38639335755E+01 -0.14764767085E+02  0.17832654885E+02  0.51100000000E-03 0. -1.
<mgrwt>
<rscale>  0 0.20003455E+02</rscale>
<asrwt>0</asrwt>
<pdfrwt beam="1">  1        2 0.46403870E-03 0.20003455E+02</pdfrwt>
<pdfrwt beam="2">  1       -2 0.51023366E-02 0.20003455E+02</pdfrwt>
<totfact> 0.35671353E+06</totfact>
</mgrwt>
</event>
<event>
 5    1  0.4046313E-006  0.2000061E+02  0.7818608E-02  0.1745316E+00
         -2   -1    0    0    0  501 -0.00000000000E+00  0.00000000000E+00  0.19181789492E+01  0.19181807113E+01  0.26000000000E-02 0. -1.
          2   -1    0    0  501    0  0.00000000000E+00 -0.00000000000E+00 -0.52135930174E+02  0.52135930238E+02  0.26000000000E-02 0.  1.
       1023    2    1    2    0    0  0.00000000000E+00  0.00000000000E+00 -0.50217751224E+02  0.54054110950E+02  0.20000609304E+02 0.  0.
        -11    1    3    3    0    0  0.63407669398E+01 -0.77330836029E+01 -0.25072068717E+02  0.26992860860E+02  0.51100000000E-03 0. -1.
         11    1    3    3    0    0 -0.63407669398E+01  0.77330836029E+01 -0.25145682508E+02  0.27061250090E+02  0.51100000000E-03 0.  1.
<mgrwt>
<rscale>  0 0.20000609E+02</rscale>
<asrwt>0</asrwt>
<pdfrwt beam="2">  1        2 0.80209114E-02 0.20000609E+02</pdfrwt>
<pdfrwt beam="1">  1       -2 0.29510463E-03 0.20000609E+02</pdfrwt>
<totfact> 0.46622049E+06</totfact>
</mgrwt>
</event>
<event>
 5    1  0.4046313E-006  0.2000051E+02  0.7818608E-02  0.1745318E+00
          2   -1    0    0  501    0  0.00000000000E+00  0.00000000000E+00  0.17283284624E+01  0.17283304180E+01  0.26000000000E-02 0. -1.
         -2   -1    0    0    0  501 -0.00000000000E+00 -0.00000000000E+00 -0.57862269674E+02  0.57862269732E+02  0.26000000000E-02 0.  1.
       1023    2    1    2    0    0  0.00000000000E+00  0.00000000000E+00 -0.56133941211E+02  0.59590600150E+02  0.20000506752E+02 0.  0.
        -11    1    3    3    0    0 -0.98377839815E+01  0.17939194921E+01 -0.28276095897E+02  0.29992294681E+02  0.51100000000E-03 0. -1.
         11    1    3    3    0    0  0.98377839815E+01 -0.17939194921E+01 -0.27857845315E+02  0.29598305469E+02  0.51100000000E-03 0.  1.
<mgrwt>
<rscale>  0 0.20000507E+02</rscale>
<asrwt>0</asrwt>
<pdfrwt beam="1">  1        2 0.26589689E-03 0.20000507E+02</pdfrwt>
<pdfrwt beam="2">  1       -2 0.89018863E-02 0.20000507E+02</pdfrwt>
<totfact> 0.33153300E+06</totfact>
</mgrwt>
</event>
<event>
 4    1  0.4046313E-006  0.2004715E+02  0.7818608E-02  0.1744392E+00
         -2   -1    0    0    0  501 -0.00000000000E+00  0.00000000000E+00  0.50321650131E+01  0.50321656848E+01  0.26000000000E-02 0.  1.
          2   -1    0    0  501    0  0.00000000000E+00 -0.00000000000E+00 -0.19965966218E+02  0.19965966387E+02  0.26000000000E-02 0. -1.
        -11    1    1    2    0    0 -0.98769826669E+01 -0.16946497425E+01 -0.72011399383E+01  0.12340301496E+02  0.51100000000E-03 0.  1.
         11    1    1    2    0    0  0.98769826669E+01  0.16946497425E+01 -0.77326612666E+01  0.12657830575E+02  0.51100000000E-03 0. -1.
<mgrwt>
<rscale>  0 0.20047149E+02</rscale>
<asrwt>0</asrwt>
<pdfrwt beam="2">  1        2 0.30716871E-02 0.20047149E+02</pdfrwt>
<pdfrwt beam="1">  1       -2 0.77417931E-03 0.20047149E+02</pdfrwt>
<totfact> 0.41451087E+06</totfact>
</mgrwt>
</event>
<event>
 5    1  0.4046313E-006  0.2000182E+02  0.7818608E-02  0.1745292E+00
          2   -1    0    0  501    0  0.00000000000E+00  0.00000000000E+00  0.48880519606E+01  0.48880526521E+01  0.26000000000E-02 0.  1.
         -2   -1    0    0    0  501 -0.00000000000E+00 -0.00000000000E+00 -0.20461776151E+02  0.20461776317E+02  0.26000000000E-02 0. -1.
       1023    2    1    2    0    0  0.00000000000E+00  0.00000000000E+00 -0.15573724191E+02  0.25349828969E+02  0.20001823506E+02 0.  0.
        -11    1    3    3    0    0 -0.27968775861E+01 -0.96015173463E+01 -0.76840869871E+01  0.12611774366E+02  0.51100000000E-03 0. -1.
         11    1    3    3    0    0  0.27968775861E+01  0.96015173463E+01 -0.78896372036E+01  0.12738054602E+02  0.51100000000E-03 0.  1.
<mgrwt>
<rscale>  0 0.20001824E+02</rscale>
<asrwt>0</asrwt>
<pdfrwt beam="1">  1        2 0.75200808E-03 0.20001824E+02</pdfrwt>
<pdfrwt beam="2">  1       -2 0.31479656E-02 0.20001824E+02</pdfrwt>
<totfact> 0.37354987E+06</totfact>
</mgrwt>
</event>
<event>
 5    1  0.4046313E-006  0.2000060E+02  0.7818608E-02  0.1745316E+00
         -2   -1    0    0    0  501 -0.00000000000E+00  0.00000000000E+00  0.20818111825E+02  0.20818111987E+02  0.26000000000E-02 0.  1.
          2   -1    0    0  501    0  0.00000000000E+00 -0.00000000000E+00 -0.48037972281E+01  0.48037979317E+01  0.26000000000E-02 0. -1.
       1023    2    1    2    0    0  0.00000000000E+00  0.00000000000E+00  0.16014314597E+02  0.25621909919E+02  0.20000599888E+02 0.  0.
        -11    1    3    3    0    0 -0.99677234368E+01  0.80370962390E+00  0.80934651744E+01  0.12864899473E+02  0.51100000000E-03 0.  1.
         11    1    3    3    0    0  0.99677234368E+01 -0.80370962390E+00  0.79208494225E+01  0.12757010445E+02  0.51100000000E-03 0. -1.
<mgrwt>
<rscale>  0 0.20000600E+02</rscale>
<asrwt>0</asrwt>
<pdfrwt beam="2">  1        2 0.73904580E-03 0.20000600E+02</pdfrwt>
<pdfrwt beam="1">  1       -2 0.32027865E-02 0.20000600E+02</pdfrwt>
<totfact> 0.37305493E+06</totfact>
</mgrwt>
</event>
<event>
 5    1  0.4118295E-006  0.2000070E+02  0.7818608E-02  0.1745314E+00
         -2   -1    0    0    0  501 -0.00000000000E+00  0.00000000000E+00  0.11545207191E+01  0.11545236467E+01  0.26000000000E-02 0.  1.
          2   -1    0    0  501    0  0.00000000000E+00 -0.00000000000E+00 -0.86622016925E+02  0.86622016964E+02  0.26000000000E-02 0. -1.
       1023    2    1    2    0    0  0.00000000000E+00  0.00000000000E+00 -0.85467496206E+02  0.87776540610E+02  0.20000704335E+02 0.  0.
        -11    1    3    3    0    0  0.54451200514E+01 -0.83876305283E+01 -0.43055200254E+02  0.44201266355E+02  0.51100000000E-03 0. -1.
         11    1    3    3    0    0 -0.54451200514E+01  0.83876305283E+01 -0.42412295952E+02  0.43575274255E+02  0.51100000000E-03 0.  1.
<mgrwt>
<rscale>  0 0.20000704E+02</rscale>
<asrwt>0</asrwt>
<pdfrwt beam="2">  1        2 0.13326459E-01 0.20000704E+02</pdfrwt>
<pdfrwt beam="1">  1       -2 0.17761887E-03 0.20000704E+02</pdfrwt>
<totfact> 0.51123579E+06</totfact>
</mgrwt>
</event>
<event>
 5    1  0.4046313E-006  0.2000172E+02  0.7818608E-02  0.1745294E+00
         -2   -1    0    0    0  501 -0.00000000000E+00  0.00000000000E+00  0.11923869116E+02  0.11923869400E+02  0.26000000000E-02 0. -1.
          2   -1    0    0  501    0  0.00000000000E+00 -0.00000000000E+00 -0.83879854815E+01  0.83879858844E+01  0.26000000000E-02 0.  1.
       1023    2    1    2    0    0  0.00000000000E+00  0.00000000000E+00  0.35358836346E+01  0.20311855284E+02  0.20001724726E+02 0.  0.
        -11    1    3    3    0    0 -0.62593224660E+01  0.77998627018E+01  0.17511986578E+01  0.10153012996E+02  0.51100000000E-03 0. -1.
         11    1    3    3    0    0  0.62593224660E+01 -0.77998627018E+01  0.17846849768E+01  0.10158842288E+02  0.51100000000E-03 0.  1.
<mgrwt>
<rscale>  0 0.20001725E+02</rscale>
<asrwt>0</asrwt>
<pdfrwt beam="2">  1        2 0.12904594E-02 0.20001725E+02</pdfrwt>
<pdfrwt beam="1">  1       -2 0.18344415E-02 0.20001725E+02</pdfrwt>
<totfact> 0.38950835E+06</totfact>
</mgrwt>
</event>
<event>
 5    1  0.4058253E-006  0.2000237E+02  0.7818608E-02  0.1745281E+00
          2   -1    0    0  501    0  0.00000000000E+00  0.00000000000E+00  0.81696780480E+02  0.81696780521E+02  0.26000000000E-02 0.  1.
         -2   -1    0    0    0  501 -0.00000000000E+00 -0.00000000000E+00 -0.12243276866E+01  0.12243304473E+01  0.26000000000E-02 0. -1.
       1023    2    1    2    0    0  0.00000000000E+00  0.00000000000E+00  0.80472452793E+02  0.82921110968E+02  0.20002374502E+02 0.  0.
        -11    1    3    3    0    0  0.95351164731E+01  0.30167279919E+01  0.39953468837E+02  0.41186147748E+02  0.51100000000E-03 0. -1.
         11    1    3    3    0    0 -0.95351164731E+01 -0.30167279919E+01  0.40518983956E+02  0.41734963221E+02  0.51100000000E-03 0.  1.
<mgrwt>
<rscale>  0 0.20002375E+02</rscale>
<asrwt>0</asrwt>
<pdfrwt beam="1">  1        2 0.12568733E-01 0.20002375E+02</pdfrwt>
<pdfrwt beam="2">  1       -2 0.18835836E-03 0.20002375E+02</pdfrwt>
<totfact> 0.50499748E+06</totfact>
</mgrwt>
</event>
<event>
 5    1  0.4046313E-006  0.2000118E+02  0.7818608E-02  0.1745305E+00
          2   -1    0    0  501    0  0.00000000000E+00  0.00000000000E+00  0.77936476638E+01  0.77936480974E+01  0.26000000000E-02 0. -1.
         -2   -1    0    0    0  501 -0.00000000000E+00 -0.00000000000E+00 -0.12832472700E+02  0.12832472964E+02  0.26000000000E-02 0.  1.
       1023    2    1    2    0    0  0.00000000000E+00  0.00000000000E+00 -0.50388250365E+01  0.20626121061E+02  0.20001177772E+02 0.  0.
        -11    1    3    3    0    0  0.39375744385E+01  0.91926916301E+01 -0.24768189321E+01  0.10302655199E+02  0.51100000000E-03 0.  1.
         11    1    3    3    0    0 -0.39375744385E+01 -0.91926916301E+01 -0.25620061044E+01  0.10323465862E+02  0.51100000000E-03 0. -1.
<mgrwt>
<rscale>  0 0.20001178E+02</rscale>
<asrwt>0</asrwt>
<pdfrwt beam="1">  1        2 0.11990228E-02 0.20001178E+02</pdfrwt>
<pdfrwt beam="2">  1       -2 0.19742266E-02 0.20001178E+02</pdfrwt>
<totfact> 0.38742997E+06</totfact>
</mgrwt>
</event>
<event>
 5    1  0.4046313E-006  0.2000009E+02  0.7818608E-02  0.1745326E+00
          2   -1    0    0  501    0  0.00000000000E+00  0.00000000000E+00  0.39670659182E+02  0.39670659267E+02  0.26000000000E-02 0. -1.
         -2   -1    0    0    0  501 -0.00000000000E+00 -0.00000000000E+00 -0.25207773341E+01  0.25207786749E+01  0.26000000000E-02 0.  1.
       1023    2    1    2    0    0  0.00000000000E+00  0.00000000000E+00  0.37149881848E+02  0.42191437942E+02  0.20000092857E+02 0.  0.
        -11    1    3    3    0    0 -0.51325973145E+01 -0.85823856857E+01  0.18563567721E+02  0.21085704779E+02  0.51100000000E-03 0. -1.
         11    1    3    3    0    0  0.51325973145E+01  0.85823856857E+01  0.18586314127E+02  0.21105733163E+02  0.51100000000E-03 0.  1.
<mgrwt>
<rscale>  0 0.20000093E+02</rscale>
<asrwt>0</asrwt>
<pdfrwt beam="1">  1        2 0.61031782E-02 0.20000093E+02</pdfrwt>
<pdfrwt beam="2">  1       -2 0.38781202E-03 0.20000093E+02</pdfrwt>
<totfact> 0.44847370E+06</totfact>
</mgrwt>
</event>
<event>
 5    1  0.4046313E-006  0.2000173E+02  0.7818608E-02  0.1745294E+00
          2   -1    0    0  501    0  0.00000000000E+00  0.00000000000E+00  0.13803694439E+02  0.13803694684E+02  0.26000000000E-02 0. -1.
         -2   -1    0    0    0  501 -0.00000000000E+00 -0.00000000000E+00 -0.72456915950E+01  0.72456920615E+01  0.26000000000E-02 0.  1.
       1023    2    1    2    0    0  0.00000000000E+00  0.00000000000E+00  0.65580028444E+01  0.21049386746E+02  0.20001731952E+02 0.  0.
        -11    1    3    3    0    0 -0.95781405892E+00 -0.99548802641E+01  0.32616719502E+01  0.10519294321E+02  0.51100000000E-03 0. -1.
         11    1    3    3    0    0  0.95781405892E+00  0.99548802641E+01  0.32963308942E+01  0.10530092425E+02  0.51100000000E-03 0.  1.
<mgrwt>
<rscale>  0 0.20001732E+02</rscale>
<asrwt>0</asrwt>
<pdfrwt beam="1">  1        2 0.21236453E-02 0.20001732E+02</pdfrwt>
<pdfrwt beam="2">  1       -2 0.11147218E-02 0.20001732E+02</pdfrwt>
<totfact> 0.40418404E+06</totfact>
</mgrwt>
</event>
<event>
 5    1  0.4046313E-006  0.2000015E+02  0.7818608E-02  0.1745325E+00
          2   -1    0    0  501    0  0.00000000000E+00  0.00000000000E+00  0.15517064419E+01  0.15517086201E+01  0.26000000000E-02 0. -1.
         -2   -1    0    0    0  501 -0.00000000000E+00 -0.00000000000E+00 -0.64446127631E+02  0.64446127683E+02  0.26000000000E-02 0.  1.
       1023    2    1    2    0    0  0.00000000000E+00  0.00000000000E+00 -0.62894421189E+02  0.65997836303E+02  0.20000154500E+02 0.  0.
        -11    1    3    3    0    0 -0.25311342778E+01  0.96744451045E+01 -0.31460383736E+02  0.33011471853E+02  0.51100000000E-03 0.  1.
         11    1    3    3    0    0  0.25311342778E+01 -0.96744451045E+01 -0.31434037453E+02  0.32986364451E+02  0.51100000000E-03 0. -1.
<mgrwt>
<rscale>  0 0.20000155E+02</rscale>
<asrwt>0</asrwt>
<pdfrwt beam="1">  1        2 0.23872429E-03 0.20000155E+02</pdfrwt>
<pdfrwt beam="2">  1       -2 0.99147870E-02 0.20000155E+02</pdfrwt>
<totfact> 0.32562581E+06</totfact>
</mgrwt>
</event>
<event>
 5    1  0.4420316E-006  0.2000110E+02  0.7818608E-02  0.1745306E+00
          2   -1    0    0  501    0  0.00000000000E+00  0.00000000000E+00  0.11238392178E+03  0.11238392181E+03  0.26000000000E-02 0.  1.
         -2   -1    0    0    0  501 -0.00000000000E+00 -0.00000000000E+00 -0.88990298068E+00  0.88990677884E+00  0.26000000000E-02 0. -1.
       1023    2    1    2    0    0  0.00000000000E+00  0.00000000000E+00  0.11149401880E+03  0.11327382859E+03  0.20001100349E+02 0.  0.
        -11    1    3    3    0    0  0.68911801630E+01  0.72472471659E+01  0.55707767409E+02  0.56598288891E+02  0.51100000000E-03 0.  1.
         11    1    3    3    0    0 -0.68911801630E+01 -0.72472471659E+01  0.55786251395E+02  0.56675539701E+02  0.51100000000E-03 0. -1.
<mgrwt>
<rscale>  0 0.20001100E+02</rscale>
<asrwt>0</asrwt>
<pdfrwt beam="1">  1        2 0.17289835E-01 0.20001100E+02</pdfrwt>
<pdfrwt beam="2">  1       -2 0.13690844E-03 0.20001100E+02</pdfrwt>
<totfact> 0.54210297E+06</totfact>
</mgrwt>
</event>
<event>
 5    1  0.4046313E-006  0.2000346E+02  0.7818608E-02  0.1745259E+00
         -2   -1    0    0    0  501 -0.00000000000E+00  0.00000000000E+00  0.18316126715E+01  0.18316145168E+01  0.26000000000E-02 0. -1.
          2   -1    0    0  501    0  0.00000000000E+00 -0.00000000000E+00 -0.54615560551E+02  0.54615560613E+02  0.26000000000E-02 0.  1.
       1023    2    1    2    0    0  0.00000000000E+00  0.00000000000E+00 -0.52783947880E+02  0.56447175130E+02  0.20003460360E+02 0.  0.
        -11    1    3    3    0    0 -0.44772362577E+01  0.89436545490E+01 -0.26398367758E+02  0.28229566447E+02  0.51100000000E-03 0.  1.
         11    1    3    3    0    0  0.44772362577E+01 -0.89436545490E+01 -0.26385580122E+02  0.28217608683E+02  0.51100000000E-03 0. -1.
<mgrwt>
<rscale>  0 0.20003460E+02</rscale>
<asrwt>0</asrwt>
<pdfrwt beam="2">  1        2 0.84023928E-02 0.20003460E+02</pdfrwt>
<pdfrwt beam="1">  1       -2 0.28178675E-03 0.20003460E+02</pdfrwt>
<totfact> 0.46948742E+06</totfact>
</mgrwt>
</event>
<event>
 5    1  0.4046313E-006  0.2000072E+02  0.7818608E-02  0.1745314E+00
          2   -1    0    0  501    0  0.00000000000E+00  0.00000000000E+00  0.10411457731E+02  0.10411458056E+02  0.26000000000E-02 0. -1.
         -2   -1    0    0    0  501 -0.00000000000E+00 -0.00000000000E+00 -0.96054912785E+01  0.96054916304E+01  0.26000000000E-02 0.  1.
       1023    2    1    2    0    0  0.00000000000E+00  0.00000000000E+00  0.80596645293E+00  0.20016949687E+02  0.20000717308E+02 0.  0.
        -11    1    3    3    0    0 -0.61180809153E+01 -0.79104274656E+01  0.36558752637E+00  0.10006969135E+02  0.51100000000E-03 0. -1.
         11    1    3    3    0    0  0.61180809153E+01  0.79104274656E+01  0.44037892656E+00  0.10009980551E+02  0.51100000000E-03 0.  1.
<mgrwt>
<rscale>  0 0.20000717E+02</rscale>
<asrwt>0</asrwt>
<pdfrwt beam="1">  1        2 0.16017628E-02 0.20000717E+02</pdfrwt>
<pdfrwt beam="2">  1       -2 0.14777679E-02 0.20000717E+02</pdfrwt>
<totfact> 0.39576867E+06</totfact>
</mgrwt>
</event>
<event>
 5    1  0.4046313E-006  0.2000038E+02  0.7818608E-02  0.1745320E+00
         -2   -1    0    0    0  501 -0.00000000000E+00  0.00000000000E+00  0.79937448132E+02  0.79937448174E+02  0.26000000000E-02 0.  1.
          2   -1    0    0  501    0  0.00000000000E+00 -0.00000000000E+00 -0.12510248815E+01  0.12510275833E+01  0.26000000000E-02 0. -1.
       1023    2    1    2    0    0  0.00000000000E+00  0.00000000000E+00  0.78686423251E+02  0.81188475758E+02  0.20000384793E+02 0.  0.
        -11    1    3    3    0    0 -0.63862580811E+01  0.76954202769E+01  0.39311198818E+02  0.40563211636E+02  0.51100000000E-03 0.  1.
         11    1    3    3    0    0  0.63862580811E+01 -0.76954202769E+01  0.39375224433E+02  0.40625264121E+02  0.51100000000E-03 0. -1.
<mgrwt>
<rscale>  0 0.20000385E+02</rscale>
<asrwt>0</asrwt>
<pdfrwt beam="2">  1        2 0.19246558E-03 0.20000385E+02</pdfrwt>
<pdfrwt beam="1">  1       -2 0.12298069E-01 0.20000385E+02</pdfrwt>
<totfact> 0.31261537E+06</totfact>
</mgrwt>
</event>
<event>
 5    1  0.4046313E-006  0.2000114E+02  0.7818608E-02  0.1745305E+00
          2   -1    0    0  501    0  0.00000000000E+00  0.00000000000E+00  0.86729097010E+01  0.86729100907E+01  0.26000000000E-02 0. -1.
         -2   -1    0    0    0  501 -0.00000000000E+00 -0.00000000000E+00 -0.11531474312E+02  0.11531474605E+02  0.26000000000E-02 0.  1.
       1023    2    1    2    0    0  0.00000000000E+00  0.00000000000E+00 -0.28585646108E+01  0.20204384696E+02  0.20001144200E+02 0.  0.
        -11    1    3    3    0    0 -0.97982992153E+00  0.99524540309E+01 -0.14351855259E+01  0.10103027550E+02  0.51100000000E-03 0. -1.
         11    1    3    3    0    0  0.97982992153E+00 -0.99524540309E+01 -0.14233790848E+01  0.10101357146E+02  0.51100000000E-03 0.  1.
<mgrwt>
<rscale>  0 0.20001144E+02</rscale>
<asrwt>0</asrwt>
<pdfrwt beam="1">  1        2 0.13342938E-02 0.20001144E+02</pdfrwt>
<pdfrwt beam="2">  1       -2 0.17740730E-02 0.20001144E+02</pdfrwt>
<totfact> 0.39048997E+06</totfact>
</mgrwt>
</event>
<event>
 5    1  0.4046313E-006  0.2000064E+02  0.7818608E-02  0.1745315E+00
         -2   -1    0    0    0  501 -0.00000000000E+00  0.00000000000E+00  0.23482131155E+01  0.23482145549E+01  0.26000000000E-02 0.  1.
          2   -1    0    0  501    0  0.00000000000E+00 -0.00000000000E+00 -0.42588289467E+02  0.42588289547E+02  0.26000000000E-02 0. -1.
       1023    2    1    2    0    0  0.00000000000E+00  0.00000000000E+00 -0.40240076352E+02  0.44936504102E+02  0.20000641392E+02 0.  0.
        -11    1    3    3    0    0 -0.83497657932E+01  0.55032466432E+01 -0.20223030203E+02  0.22560480121E+02  0.51100000000E-03 0.  1.
         11    1    3    3    0    0  0.83497657932E+01 -0.55032466432E+01 -0.20017046149E+02  0.22376023981E+02  0.51100000000E-03 0. -1.
<mgrwt>
<rscale>  0 0.20000641E+02</rscale>
<asrwt>0</asrwt>
<pdfrwt beam="2">  1        2 0.65520441E-02 0.20000641E+02</pdfrwt>
<pdfrwt beam="1">  1       -2 0.36126371E-03 0.20000641E+02</pdfrwt>
<totfact> 0.45270862E+06</totfact>
</mgrwt>
</event>
<event>
 5    1  0.4177296E-006  0.2000121E+02  0.7818608E-02  0.1745304E+00
         -2   -1    0    0    0  501 -0.00000000000E+00  0.00000000000E+00  0.18578658005E+01  0.18578676198E+01  0.26000000000E-02 0.  1.
          2   -1    0    0  501    0  0.00000000000E+00 -0.00000000000E+00 -0.53831698338E+02  0.53831698400E+02  0.26000000000E-02 0. -1.
       1023    2    1    2    0    0  0.00000000000E+00  0.00000000000E+00 -0.51973832537E+02  0.55689566020E+02  0.20001212337E+02 0.  0.
        -11    1    3    3    0    0  0.98813410271E+01 -0.15398698747E+01 -0.26000484143E+02  0.27857445606E+02  0.51100000000E-03 0.  1.
         11    1    3    3    0    0 -0.98813410271E+01  0.15398698747E+01 -0.25973348394E+02  0.27832120415E+02  0.51100000000E-03 0. -1.
<mgrwt>
<rscale>  0 0.20001212E+02</rscale>
<asrwt>0</asrwt>
<pdfrwt beam="2">  1        2 0.82817987E-02 0.20001212E+02</pdfrwt>
<pdfrwt beam="1">  1       -2 0.28582569E-03 0.20001212E+02</pdfrwt>
<totfact> 0.46852878E+06</totfact>
</mgrwt>
</event>
<event>
 4    1  0.4046313E-006  0.2002581E+02  0.7818608E-02  0.1744815E+00
          2   -1    0    0  501    0  0.00000000000E+00  0.00000000000E+00  0.76420638080E+02  0.76420638124E+02  0.26000000000E-02 0. -1.
         -2   -1    0    0    0  501 -0.00000000000E+00 -0.00000000000E+00 -0.13119251888E+01  0.13119277651E+01  0.26000000000E-02 0.  1.
        -11    1    1    2    0    0  0.77466391487E+01 -0.63437075302E+01  0.37273956754E+02  0.38595348109E+02  0.51100000000E-03 0. -1.
         11    1    1    2    0    0 -0.77466391487E+01  0.63437075302E+01  0.37834756138E+02  0.39137217780E+02  0.51100000000E-03 0.  1.
<mgrwt>
<rscale>  0 0.20025810E+02</rscale>
<asrwt>0</asrwt>
<pdfrwt beam="1">  1        2 0.11757018E-01 0.20025810E+02</pdfrwt>
<pdfrwt beam="2">  1       -2 0.20183490E-03 0.20025810E+02</pdfrwt>
<totfact> 0.49703782E+06</totfact>
</mgrwt>
</event>
<event>
 5    1  0.4046313E-006  0.2000090E+02  0.7818608E-02  0.1745310E+00
         -2   -1    0    0    0  501 -0.00000000000E+00  0.00000000000E+00  0.20947079226E+02  0.20947079387E+02  0.26000000000E-02 0.  1.
          2   -1    0    0  501    0  0.00000000000E+00 -0.00000000000E+00 -0.47743622534E+01  0.47743629614E+01  0.26000000000E-02 0. -1.
       1023    2    1    2    0    0  0.00000000000E+00  0.00000000000E+00  0.16172716973E+02  0.25721442349E+02  0.20000895536E+02 0.  0.
        -11    1    3    3    0    0  0.81228310026E+01 -0.58333930241E+01  0.80736520264E+01  0.12852731810E+02  0.51100000000E-03 0.  1.
         11    1    3    3    0    0 -0.81228310026E+01  0.58333930241E+01  0.80990649462E+01  0.12868710539E+02  0.51100000000E-03 0. -1.
<mgrwt>
<rscale>  0 0.20000896E+02</rscale>
<asrwt>0</asrwt>
<pdfrwt beam="2">  1        2 0.73451736E-03 0.20000896E+02</pdfrwt>
<pdfrwt beam="1">  1       -2 0.32226276E-02 0.20000896E+02</pdfrwt>
<totfact> 0.37284741E+06</totfact>
</mgrwt>
</event>
<event>
 5    1  0.4046313E-006  0.2000089E+02  0.7818608E-02  0.1745310E+00
         -2   -1    0    0    0  501 -0.00000000000E+00  0.00000000000E+00  0.97703777893E+01  0.97703781352E+01  0.26000000000E-02 0.  1.
          2   -1    0    0  501    0  0.00000000000E+00 -0.00000000000E+00 -0.10235932597E+02  0.10235932927E+02  0.26000000000E-02 0. -1.
       1023    2    1    2    0    0  0.00000000000E+00  0.00000000000E+00 -0.46555480767E+00  0.20006311062E+02  0.20000893506E+02 0.  0.
        -11    1    3    3    0    0 -0.99898993239E+01 -0.45379506534E+00 -0.16264038620E+00  0.10001523415E+02  0.51100000000E-03 0. -1.
         11    1    3    3    0    0  0.99898993239E+01  0.45379506534E+00 -0.30291442147E+00  0.10004787647E+02  0.51100000000E-03 0.  1.
<mgrwt>
<rscale>  0 0.20000894E+02</rscale>
<asrwt>0</asrwt>
<pdfrwt beam="2">  1        2 0.15747589E-02 0.20000894E+02</pdfrwt>
<pdfrwt beam="1">  1       -2 0.15031351E-02 0.20000894E+02</pdfrwt>
<totfact> 0.39526679E+06</totfact>
</mgrwt>
</event>
<event>
 5    1  0.4047759E-006  0.2000147E+02  0.7818608E-02  0.1745299E+00
         -2   -1    0    0    0  501 -0.00000000000E+00  0.00000000000E+00  0.39747044818E+01  0.39747053321E+01  0.26000000000E-02 0. -1.
          2   -1    0    0  501    0  0.00000000000E+00 -0.00000000000E+00 -0.25162803270E+02  0.25162803404E+02  0.26000000000E-02 0.  1.
       1023    2    1    2    0    0  0.00000000000E+00  0.00000000000E+00 -0.21188098788E+02  0.29137508736E+02  0.20001472073E+02 0.  0.
        -11    1    3    3    0    0 -0.27962656932E+00  0.99961538934E+01 -0.10762917270E+02  0.14691551045E+02  0.51100000000E-03 0. -1.
         11    1    3    3    0    0  0.27962656932E+00 -0.99961538934E+01 -0.10425181517E+02  0.14445957691E+02  0.51100000000E-03 0.  1.
<mgrwt>
<rscale>  0 0.20001472E+02</rscale>
<asrwt>0</asrwt>
<pdfrwt beam="2">  1        2 0.38712005E-02 0.20001472E+02</pdfrwt>
<pdfrwt beam="1">  1       -2 0.61149309E-03 0.20001472E+02</pdfrwt>
<totfact> 0.42577031E+06</totfact>
</mgrwt>
</event>
<event>
 5    1  0.4046313E-006  0.2000041E+02  0.7818608E-02  0.1745320E+00
         -2   -1    0    0    0  501 -0.00000000000E+00  0.00000000000E+00  0.27167456329E+01  0.27167468771E+01  0.26000000000E-02 0. -1.
          2   -1    0    0  501    0  0.00000000000E+00 -0.00000000000E+00 -0.36810228362E+02  0.36810228454E+02  0.26000000000E-02 0.  1.
       1023    2    1    2    0    0  0.00000000000E+00  0.00000000000E+00 -0.34093482730E+02  0.39526975331E+02  0.20000405351E+02 0.  0.
        -11    1    3    3    0    0  0.99490752185E+01  0.10097678313E+01 -0.17082343214E+02  0.19794195582E+02  0.51100000000E-03 0. -1.
         11    1    3    3    0    0 -0.99490752185E+01 -0.10097678313E+01 -0.17011139515E+02  0.19732779750E+02  0.51100000000E-03 0.  1.
<mgrwt>
<rscale>  0 0.20000405E+02</rscale>
<asrwt>0</asrwt>
<pdfrwt beam="2">  1        2 0.56631118E-02 0.20000405E+02</pdfrwt>
<pdfrwt beam="1">  1       -2 0.41796100E-03 0.20000405E+02</pdfrwt>
<totfact> 0.44420523E+06</totfact>
</mgrwt>
</event>
<event>
 5    1  0.4046313E-006  0.2000415E+02  0.7818608E-02  0.1745246E+00
         -2   -1    0    0    0  501 -0.00000000000E+00  0.00000000000E+00  0.52973033897E+01  0.52973040278E+01  0.26000000000E-02 0.  1.
          2   -1    0    0  501    0  0.00000000000E+00 -0.00000000000E+00 -0.18885360850E+02  0.18885361029E+02  0.26000000000E-02 0. -1.
       1023    2    1    2    0    0  0.00000000000E+00  0.00000000000E+00 -0.13588057460E+02  0.24182665056E+02  0.20004149162E+02 0.  0.
        -11    1    3    3    0    0 -0.97609210704E+01 -0.21826555095E+01 -0.68471432202E+01  0.12121177160E+02  0.51100000000E-03 0. -1.
         11    1    3    3    0    0  0.97609210704E+01  0.21826555095E+01 -0.67409142397E+01  0.12061487896E+02  0.51100000000E-03 0.  1.
<mgrwt>
<rscale>  0 0.20004149E+02</rscale>
<asrwt>0</asrwt>
<pdfrwt beam="2">  1        2 0.29054402E-02 0.20004149E+02</pdfrwt>
<pdfrwt beam="1">  1       -2 0.81496982E-03 0.20004149E+02</pdfrwt>
<totfact> 0.41450468E+06</totfact>
</mgrwt>
</event>
<event>
 5    1  0.4046313E-006  0.2000221E+02  0.7818608E-02  0.1745284E+00
         -2   -1    0    0    0  501 -0.00000000000E+00  0.00000000000E+00  0.10006809523E+03  0.10006809526E+03  0.26000000000E-02 0. -1.
          2   -1    0    0  501    0  0.00000000000E+00 -0.00000000000E+00 -0.99953816892E+00  0.99954155048E+00  0.26000000000E-02 0.  1.
       1023    2    1    2    0    0  0.00000000000E+00  0.00000000000E+00  0.99068557060E+02  0.10106763681E+03  0.20002205205E+02 0.  0.
        -11    1    3    3    0    0  0.99239153030E+01  0.12395288646E+01  0.49731678763E+02  0.50727314138E+02  0.51100000000E-03 0. -1.
         11    1    3    3    0    0 -0.99239153030E+01 -0.12395288646E+01  0.49336878297E+02  0.50340322675E+02  0.51100000000E-03 0.  1.
<mgrwt>
<rscale>  0 0.20002205E+02</rscale>
<asrwt>0</asrwt>
<pdfrwt beam="2">  1        2 0.15377530E-03 0.20002205E+02</pdfrwt>
<pdfrwt beam="1">  1       -2 0.15395098E-01 0.20002205E+02</pdfrwt>
<totfact> 0.29718645E+06</totfact>
</mgrwt>
</event>
<event>
 4    1  0.4046313E-006  0.2006054E+02  0.7818608E-02  0.1744127E+00
          2   -1    0    0  501    0  0.00000000000E+00  0.00000000000E+00  0.41113706220E+02  0.41113706302E+02  0.26000000000E-02 0. -1.
         -2   -1    0    0    0  501 -0.00000000000E+00 -0.00000000000E+00 -0.24470247944E+01  0.24470261756E+01  0.26000000000E-02 0.  1.
        -11    1    1    2    0    0 -0.50175471963E+01  0.86535352039E+01  0.20939106660E+02  0.23205724281E+02  0.51100000000E-03 0. -1.
         11    1    1    2    0    0  0.50175471963E+01 -0.86535352039E+01  0.17727574765E+02  0.20355008197E+02  0.51100000000E-03 0.  1.
<mgrwt>
<rscale>  0 0.20060537E+02</rscale>
<asrwt>0</asrwt>
<pdfrwt beam="1">  1        2 0.63251850E-02 0.20060537E+02</pdfrwt>
<pdfrwt beam="2">  1       -2 0.37646551E-03 0.20060537E+02</pdfrwt>
<totfact> 0.44756447E+06</totfact>
</mgrwt>
</event>
<event>
 5    1  0.4046313E-006  0.2000049E+02  0.7818608E-02  0.1745318E+00
         -2   -1    0    0    0  501 -0.00000000000E+00  0.00000000000E+00  0.58346625894E+01  0.58346631687E+01  0.26000000000E-02 0.  1.
          2   -1    0    0  501    0  0.00000000000E+00 -0.00000000000E+00 -0.17139784752E+02  0.17139784949E+02  0.26000000000E-02 0. -1.
       1023    2    1    2    0    0  0.00000000000E+00  0.00000000000E+00 -0.11305122162E+02  0.22974448118E+02  0.20000486974E+02 0.  0.
        -11    1    3    3    0    0 -0.24028013341E+01  0.97072054283E+01 -0.56069293807E+01  0.11464769898E+02  0.51100000000E-03 0. -1.
         11    1    3    3    0    0  0.24028013341E+01 -0.97072054283E+01 -0.56981927816E+01  0.11509678219E+02  0.51100000000E-03 0.  1.
<mgrwt>
<rscale>  0 0.20000487E+02</rscale>
<asrwt>0</asrwt>
<pdfrwt beam="2">  1        2 0.26368900E-02 0.20000487E+02</pdfrwt>
<pdfrwt beam="1">  1       -2 0.89764047E-03 0.20000487E+02</pdfrwt>
<totfact> 0.41128798E+06</totfact>
</mgrwt>
</event>
<event>
 4    1  0.4046313E-006  0.2006668E+02  0.7818608E-02  0.1744005E+00
         -2   -1    0    0    0  501 -0.00000000000E+00  0.00000000000E+00  0.40889503014E+01  0.40889511281E+01  0.26000000000E-02 0.  1.
          2   -1    0    0  501    0  0.00000000000E+00 -0.00000000000E+00 -0.24619485886E+02  0.24619486024E+02  0.26000000000E-02 0. -1.
        -11    1    1    2    0    0 -0.19559687212E+01 -0.98134275028E+01 -0.11315307009E+02  0.15105143030E+02  0.51100000000E-03 0. -1.
         11    1    1    2    0    0  0.19559687212E+01  0.98134275028E+01 -0.92152285756E+01  0.13603294121E+02  0.51100000000E-03 0.  1.
<mgrwt>
<rscale>  0 0.20066676E+02</rscale>
<asrwt>0</asrwt>
<pdfrwt beam="2">  1        2 0.37876132E-02 0.20066676E+02</pdfrwt>
<pdfrwt beam="1">  1       -2 0.62906937E-03 0.20066676E+02</pdfrwt>
<totfact> 0.42175588E+06</totfact>
</mgrwt>
</event>
<event>
 5    1  0.4046313E-006  0.2000125E+02  0.7818608E-02  0.1745303E+00
         -2   -1    0    0    0  501 -0.00000000000E+00  0.00000000000E+00  0.17112087715E+01  0.17112107467E+01  0.26000000000E-02 0.  1.
          2   -1    0    0  501    0  0.00000000000E+00 -0.00000000000E+00 -0.58445467146E+02  0.58445467204E+02  0.26000000000E-02 0. -1.
       1023    2    1    2    0    0  0.00000000000E+00  0.00000000000E+00 -0.56734258375E+02  0.60156677951E+02  0.20001245680E+02 0.  0.
        -11    1    3    3    0    0  0.37482713667E+01  0.92716189723E+01 -0.28365438238E+02  0.30076744227E+02  0.51100000000E-03 0.  1.
         11    1    3    3    0    0 -0.37482713667E+01 -0.92716189723E+01 -0.28368820137E+02  0.30079933724E+02  0.51100000000E-03 0. -1.
<mgrwt>
<rscale>  0 0.20001246E+02</rscale>
<asrwt>0</asrwt>
<pdfrwt beam="2">  1        2 0.89916089E-02 0.20001246E+02</pdfrwt>
<pdfrwt beam="1">  1       -2 0.26326309E-03 0.20001246E+02</pdfrwt>
<totfact> 0.47481482E+06</totfact>
</mgrwt>
</event>
<event>
 5    1  0.4046313E-006  0.2000559E+02  0.7818608E-02  0.1745217E+00
          2   -1    0    0  501    0  0.00000000000E+00  0.00000000000E+00  0.47610441079E+01  0.47610448179E+01  0.26000000000E-02 0.  1.
         -2   -1    0    0    0  501 -0.00000000000E+00 -0.00000000000E+00 -0.21015542866E+02  0.21015543027E+02  0.26000000000E-02 0. -1.
       1023    2    1    2    0    0  0.00000000000E+00  0.00000000000E+00 -0.16254498758E+02  0.25776587844E+02  0.20005592994E+02 0.  0.
        -11    1    3    3    0    0 -0.51896956226E+01  0.85504163873E+01 -0.79782294403E+01  0.12794323207E+02  0.51100000000E-03 0. -1.
         11    1    3    3    0    0  0.51896956226E+01 -0.85504163873E+01 -0.82762693174E+01  0.12982264638E+02  0.51100000000E-03 0.  1.
<mgrwt>
<rscale>  0 0.20005593E+02</rscale>
<asrwt>0</asrwt>
<pdfrwt beam="1">  1        2 0.73246841E-03 0.20005593E+02</pdfrwt>
<pdfrwt beam="2">  1       -2 0.32331604E-02 0.20005593E+02</pdfrwt>
<totfact> 0.37255390E+06</totfact>
</mgrwt>
</event>
<event>
 5    1  0.4046313E-006  0.2000024E+02  0.7818608E-02  0.1745323E+00
         -2   -1    0    0    0  501 -0.00000000000E+00  0.00000000000E+00  0.32600927717E+02  0.32600927821E+02  0.26000000000E-02 0.  1.
          2   -1    0    0  501    0  0.00000000000E+00 -0.00000000000E+00 -0.30674709096E+01  0.30674720115E+01  0.26000000000E-02 0. -1.
       1023    2    1    2    0    0  0.00000000000E+00  0.00000000000E+00  0.29533456807E+02  0.35668399832E+02  0.20000241888E+02 0.  0.
        -11    1    3    3    0    0 -0.93709834987E+01  0.34909992507E+01  0.14760776845E+02  0.17829272022E+02  0.51100000000E-03 0.  1.
         11    1    3    3    0    0  0.93709834987E+01 -0.34909992507E+01  0.14772679962E+02  0.17839127810E+02  0.51100000000E-03 0. -1.
<mgrwt>
<rscale>  0 0.20000242E+02</rscale>
<asrwt>0</asrwt>
<pdfrwt beam="2">  1        2 0.47191870E-03 0.20000242E+02</pdfrwt>
<pdfrwt beam="1">  1       -2 0.50155274E-02 0.20000242E+02</pdfrwt>
<totfact> 0.35750152E+06</totfact>
</mgrwt>
</event>
<event>
 5    1  0.4046313E-006  0.2000093E+02  0.7818608E-02  0.1745310E+00
          2   -1    0    0  501    0  0.00000000000E+00  0.00000000000E+00  0.24430799592E+01  0.24430813427E+01  0.26000000000E-02 0.  1.
         -2   -1    0    0    0  501 -0.00000000000E+00 -0.00000000000E+00 -0.40935748046E+02  0.40935748129E+02  0.26000000000E-02 0. -1.
       1023    2    1    2    0    0  0.00000000000E+00  0.00000000000E+00 -0.38492668087E+02  0.43378829472E+02  0.20000933725E+02 0.  0.
        -11    1    3    3    0    0 -0.99706424673E+01  0.77135432935E+00 -0.19191530962E+02  0.21640784636E+02  0.51100000000E-03 0. -1.
         11    1    3    3    0    0  0.99706424673E+01 -0.77135432935E+00 -0.19301137125E+02  0.21738044836E+02  0.51100000000E-03 0.  1.
<mgrwt>
<rscale>  0 0.20000934E+02</rscale>
<asrwt>0</asrwt>
<pdfrwt beam="1">  1        2 0.37585860E-03 0.20000934E+02</pdfrwt>
<pdfrwt beam="2">  1       -2 0.62978070E-02 0.20000934E+02</pdfrwt>
<totfact> 0.34816968E+06</totfact>
</mgrwt>
</event>
<event>
 5    1  0.4046313E-006  0.2000756E+02  0.7818608E-02  0.1745178E+00
         -2   -1    0    0    0  501 -0.00000000000E+00  0.00000000000E+00  0.10479535219E+03  0.10479535222E+03  0.26000000000E-02 0. -1.
          2   -1    0    0  501    0  0.00000000000E+00 -0.00000000000E+00 -0.95496032588E+00  0.95496386529E+00  0.26000000000E-02 0.  1.
       1023    2    1    2    0    0  0.00000000000E+00  0.00000000000E+00  0.10384039187E+03  0.10575031609E+03  0.20007557825E+02 0.  0.
        -11    1    3    3    0    0 -0.74988697688E+01 -0.66183980718E+01  0.52968694461E+02  0.53904719960E+02  0.51100000000E-03 0.  1.
         11    1    3    3    0    0  0.74988697688E+01  0.66183980718E+01  0.50871697406E+02  0.51845596130E+02  0.51100000000E-03 0. -1.
<mgrwt>
<rscale>  0 0.20007558E+02</rscale>
<asrwt>0</asrwt>
<pdfrwt beam="2">  1        2 0.14691713E-03 0.20007558E+02</pdfrwt>
<pdfrwt beam="1">  1       -2 0.16122375E-01 0.20007558E+02</pdfrwt>
<totfact> 0.29361921E+06</totfact>
</mgrwt>
</event>
<event>
 5    1  0.4046313E-006  0.2000064E+02  0.7818608E-02  0.1745315E+00
          2   -1    0    0  501    0  0.00000000000E+00  0.00000000000E+00  0.45718769460E+01  0.45718776853E+01  0.26000000000E-02 0.  1.
         -2   -1    0    0    0  501 -0.00000000000E+00 -0.00000000000E+00 -0.21874262733E+02  0.21874262887E+02  0.26000000000E-02 0. -1.
       1023    2    1    2    0    0  0.00000000000E+00  0.00000000000E+00 -0.17302385787E+02  0.26446140573E+02  0.20000644921E+02 0.  0.
        -11    1    3    3    0    0 -0.53236732565E+01 -0.84651615280E+01 -0.87535503365E+01  0.13290037637E+02  0.51100000000E-03 0. -1.
         11    1    3    3    0    0  0.53236732565E+01  0.84651615280E+01 -0.85488354504E+01  0.13156102936E+02  0.51100000000E-03 0.  1.
<mgrwt>
<rscale>  0 0.20000645E+02</rscale>
<asrwt>0</asrwt>
<pdfrwt beam="1">  1        2 0.70336576E-03 0.20000645E+02</pdfrwt>
<pdfrwt beam="2">  1       -2 0.33652712E-02 0.20000645E+02</pdfrwt>
<totfact> 0.37147424E+06</totfact>
</mgrwt>
</event>
<event>
 5    1  0.4046313E-006  0.2000029E+02  0.7818608E-02  0.1745322E+00
          2   -1    0    0  501    0  0.00000000000E+00  0.00000000000E+00  0.95067132554E+02  0.95067132590E+02  0.26000000000E-02 0.  1.
         -2   -1    0    0    0  501 -0.00000000000E+00 -0.00000000000E+00 -0.10519173319E+01  0.10519205451E+01  0.26000000000E-02 0. -1.
       1023    2    1    2    0    0  0.00000000000E+00  0.00000000000E+00  0.94015215222E+02  0.96119053135E+02  0.20000292054E+02 0.  0.
        -11    1    3    3    0    0  0.97810036513E+01  0.20815348516E+01  0.46787346387E+02  0.47844086385E+02  0.51100000000E-03 0. -1.
         11    1    3    3    0    0 -0.97810036513E+01 -0.20815348516E+01  0.47227868835E+02  0.48274966750E+02  0.51100000000E-03 0.  1.
<mgrwt>
<rscale>  0 0.20000292E+02</rscale>
<asrwt>0</asrwt>
<pdfrwt beam="1">  1        2 0.14625714E-01 0.20000292E+02</pdfrwt>
<pdfrwt beam="2">  1       -2 0.16183368E-03 0.20000292E+02</pdfrwt>
<totfact> 0.52161778E+06</totfact>
</mgrwt>
</event>
<event>
 5    1  0.4046313E-006  0.2000043E+02  0.7818608E-02  0.1745319E+00
         -2   -1    0    0    0  501 -0.00000000000E+00  0.00000000000E+00  0.20301574020E+02  0.20301574187E+02  0.26000000000E-02 0. -1.
          2   -1    0    0  501    0  0.00000000000E+00 -0.00000000000E+00 -0.49259394304E+01  0.49259401166E+01  0.26000000000E-02 0.  1.
       1023    2    1    2    0    0  0.00000000000E+00  0.00000000000E+00  0.15375634590E+02  0.25227514303E+02  0.20000433467E+02 0.  0.
        -11    1    3    3    0    0  0.99846882455E+01 -0.55707548517E+00  0.76896030383E+01  0.12614845524E+02  0.51100000000E-03 0.  1.
         11    1    3    3    0    0 -0.99846882455E+01  0.55707548517E+00  0.76860315515E+01  0.12612668779E+02  0.51100000000E-03 0. -1.
<mgrwt>
<rscale>  0 0.20000433E+02</rscale>
<asrwt>0</asrwt>
<pdfrwt beam="2">  1        2 0.75783692E-03 0.20000433E+02</pdfrwt>
<pdfrwt beam="1">  1       -2 0.31233191E-02 0.20000433E+02</pdfrwt>
<totfact> 0.37385311E+06</totfact>
</mgrwt>
</event>
<event>
 5    1  0.4046313E-006  0.2000025E+02  0.7818608E-02  0.1745323E+00
         -2   -1    0    0    0  501 -0.00000000000E+00  0.00000000000E+00  0.63739161630E+02  0.63739161683E+02  0.26000000000E-02 0. -1.
          2   -1    0    0  501    0  0.00000000000E+00 -0.00000000000E+00 -0.15689327814E+01  0.15689349357E+01  0.26000000000E-02 0.  1.
       1023    2    1    2    0    0  0.00000000000E+00  0.00000000000E+00  0.62170228848E+02  0.65308096619E+02  0.20000253220E+02 0.  0.
        -11    1    3    3    0    0  0.56990387825E+01  0.82171673150E+01  0.31217763416E+02  0.32780323895E+02  0.51100000000E-03 0. -1.
         11    1    3    3    0    0 -0.56990387825E+01 -0.82171673150E+01  0.30952465432E+02  0.32527772723E+02  0.51100000000E-03 0.  1.
<mgrwt>
<rscale>  0 0.20000253E+02</rscale>
<asrwt>0</asrwt>
<pdfrwt beam="2">  1        2 0.24137447E-03 0.20000253E+02</pdfrwt>
<pdfrwt beam="1">  1       -2 0.98060241E-02 0.20000253E+02</pdfrwt>
<totfact> 0.32624545E+06</totfact>
</mgrwt>
</event>
<event>
 5    1  0.4046313E-006  0.2000036E+02  0.7818608E-02  0.1745321E+00
         -2   -1    0    0    0  501 -0.00000000000E+00  0.00000000000E+00  0.21060331635E+02  0.21060331796E+02  0.26000000000E-02 0. -1.
          2   -1    0    0  501    0  0.00000000000E+00 -0.00000000000E+00 -0.47484335731E+01  0.47484342849E+01  0.26000000000E-02 0.  1.
       1023    2    1    2    0    0  0.00000000000E+00  0.00000000000E+00  0.16311898062E+02  0.25808766081E+02  0.20000359702E+02 0.  0.
        -11    1    3    3    0    0 -0.12043568724E+00 -0.99993400583E+01  0.82177063748E+01  0.12943415495E+02  0.51100000000E-03 0. -1.
         11    1    3    3    0    0  0.12043568724E+00  0.99993400583E+01  0.80941916874E+01  0.12865350586E+02  0.51100000000E-03 0.  1.
<mgrwt>
<rscale>  0 0.20000360E+02</rscale>
<asrwt>0</asrwt>
<pdfrwt beam="2">  1        2 0.73052833E-03 0.20000360E+02</pdfrwt>
<pdfrwt beam="1">  1       -2 0.32400510E-02 0.20000360E+02</pdfrwt>
<totfact> 0.37269802E+06</totfact>
</mgrwt>
</event>
<event>
 5    1  0.4046313E-006  0.2000067E+02  0.7818608E-02  0.1745315E+00
          2   -1    0    0  501    0  0.00000000000E+00  0.00000000000E+00  0.27917482390E+01  0.27917494497E+01  0.26000000000E-02 0. -1.
         -2   -1    0    0    0  501 -0.00000000000E+00 -0.00000000000E+00 -0.35822256848E+02  0.35822256943E+02  0.26000000000E-02 0.  1.
       1023    2    1    2    0    0  0.00000000000E+00  0.00000000000E+00 -0.33030508609E+02  0.38614006392E+02  0.20000674756E+02 0.  0.
        -11    1    3    3    0    0 -0.89526385530E+01  0.44558673739E+01 -0.16423548253E+02  0.19228557631E+02  0.51100000000E-03 0. -1.
         11    1    3    3    0    0  0.89526385530E+01 -0.44558673739E+01 -0.16606960357E+02  0.19385448761E+02  0.51100000000E-03 0.  1.
<mgrwt>
<rscale>  0 0.20000675E+02</rscale>
<asrwt>0</asrwt>
<pdfrwt beam="1">  1        2 0.42949985E-03 0.20000675E+02</pdfrwt>
<pdfrwt beam="2">  1       -2 0.55111162E-02 0.20000675E+02</pdfrwt>
<totfact> 0.35377093E+06</totfact>
</mgrwt>
</event>
<event>
 5    1  0.4046313E-006  0.2000118E+02  0.7818608E-02  0.1745305E+00
         -2   -1    0    0    0  501 -0.00000000000E+00  0.00000000000E+00  0.38609582164E+02  0.38609582252E+02  0.26000000000E-02 0.  1.
          2   -1    0    0  501    0  0.00000000000E+00 -0.00000000000E+00 -0.25903348029E+01  0.25903361078E+01  0.26000000000E-02 0. -1.
       1023    2    1    2    0    0  0.00000000000E+00  0.00000000000E+00  0.36019247362E+02  0.41199918360E+02  0.20001177274E+02 0.  0.
        -11    1    3    3    0    0 -0.11198302596E+01  0.99372754718E+01  0.18197391356E+02  0.20764116067E+02  0.51100000000E-03 0. -1.
         11    1    3    3    0    0  0.11198302596E+01 -0.99372754718E+01  0.17821856005E+02  0.20435802293E+02  0.51100000000E-03 0.  1.
<mgrwt>
<rscale>  0 0.20001177E+02</rscale>
<asrwt>0</asrwt>
<pdfrwt beam="2">  1        2 0.39851319E-03 0.20001177E+02</pdfrwt>
<pdfrwt beam="1">  1       -2 0.59399352E-02 0.20001177E+02</pdfrwt>
<totfact> 0.35066322E+06</totfact>
</mgrwt>
</event>
<event>
 5    1  0.4046313E-006  0.2000308E+02  0.7818608E-02  0.1745267E+00
          2   -1    0    0  501    0  0.00000000000E+00  0.00000000000E+00  0.45826164422E+01  0.45826171798E+01  0.26000000000E-02 0.  1.
         -2   -1    0    0    0  501 -0.00000000000E+00 -0.00000000000E+00 -0.21828310637E+02  0.21828310792E+02  0.26000000000E-02 0. -1.
       1023    2    1    2    0    0  0.00000000000E+00  0.00000000000E+00 -0.17245694195E+02  0.26410927972E+02  0.20003078465E+02 0.  0.
        -11    1    3    3    0    0  0.43475913216E+01  0.90057542991E+01 -0.88342090858E+01  0.13343478228E+02  0.51100000000E-03 0. -1.
         11    1    3    3    0    0 -0.43475913216E+01 -0.90057542991E+01 -0.84114851089E+01  0.13067449743E+02  0.51100000000E-03 0.  1.
<mgrwt>
<rscale>  0 0.20003078E+02</rscale>
<asrwt>0</asrwt>
<pdfrwt beam="1">  1        2 0.70501800E-03 0.20003078E+02</pdfrwt>
<pdfrwt beam="2">  1       -2 0.33582016E-02 0.20003078E+02</pdfrwt>
<totfact> 0.37144371E+06</totfact>
</mgrwt>
</event>
<event>
 5    1  0.4046313E-006  0.2000075E+02  0.7818608E-02  0.1745313E+00
          2   -1    0    0  501    0  0.00000000000E+00  0.00000000000E+00  0.90695484342E+00  0.90695857017E+00  0.26000000000E-02 0. -1.
         -2   -1    0    0    0  501 -0.00000000000E+00 -0.00000000000E+00 -0.11026711653E+03  0.11026711656E+03  0.26000000000E-02 0.  1.
       1023    2    1    2    0    0  0.00000000000E+00  0.00000000000E+00 -0.10936016169E+03  0.11117407513E+03  0.20000750413E+02 0.  0.
        -11    1    3    3    0    0  0.51418737666E+01 -0.85768921998E+01 -0.54265670087E+02  0.55179388325E+02  0.51100000000E-03 0. -1.
         11    1    3    3    0    0 -0.51418737666E+01  0.85768921998E+01 -0.55094491601E+02  0.55994686807E+02  0.51100000000E-03 0.  1.
<mgrwt>
<rscale>  0 0.20000750E+02</rscale>
<asrwt>0</asrwt>
<pdfrwt beam="1">  1        2 0.13953189E-03 0.20000750E+02</pdfrwt>
<pdfrwt beam="2">  1       -2 0.16964161E-01 0.20000750E+02</pdfrwt>
<totfact> 0.28999457E+06</totfact>
</mgrwt>
</event>
<event>
 5    1  0.4046313E-006  0.2000021E+02  0.7818608E-02  0.1745324E+00
          2   -1    0    0  501    0  0.00000000000E+00  0.00000000000E+00  0.84182529927E+02  0.84182529967E+02  0.26000000000E-02 0. -1.
         -2   -1    0    0    0  501 -0.00000000000E+00 -0.00000000000E+00 -0.11879181475E+01  0.11879209928E+01  0.26000000000E-02 0.  1.
       1023    2    1    2    0    0  0.00000000000E+00  0.00000000000E+00  0.82994611779E+02  0.85370450960E+02  0.20000207816E+02 0.  0.
        -11    1    3    3    0    0  0.99942003574E+01 -0.34348807765E+00  0.41466211156E+02  0.42654996105E+02  0.51100000000E-03 0. -1.
         11    1    3    3    0    0 -0.99942003574E+01  0.34348807765E+00  0.41528400623E+02  0.42715454854E+02  0.51100000000E-03 0.  1.
<mgrwt>
<rscale>  0 0.20000208E+02</rscale>
<asrwt>0</asrwt>
<pdfrwt beam="1">  1        2 0.12951163E-01 0.20000208E+02</pdfrwt>
<pdfrwt beam="2">  1       -2 0.18275680E-03 0.20000208E+02</pdfrwt>
<totfact> 0.50822754E+06</totfact>
</mgrwt>
</event>
<event>
 4    1  0.4046313E-006  0.2025921E+02  0.7818608E-02  0.1740222E+00
          2   -1    0    0  501    0  0.00000000000E+00  0.00000000000E+00  0.89655607891E+00  0.89655984889E+00  0.26000000000E-02 0.  1.
         -2   -1    0    0    0  501 -0.00000000000E+00 -0.00000000000E+00 -0.11444754148E+03  0.11444754151E+03  0.26000000000E-02 0. -1.
        -11    1    1    2    0    0  0.93073083363E+01  0.39957029844E+01 -0.57522765138E+02  0.58407706171E+02  0.51100000000E-03 0. -1.
         11    1    1    2    0    0 -0.93073083363E+01 -0.39957029844E+01 -0.56028220268E+02  0.56936395192E+02  0.51100000000E-03 0.  1.
<mgrwt>
<rscale>  0 0.20259206E+02</rscale>
<asrwt>0</asrwt>
<pdfrwt beam="1">  1        2 0.13793209E-03 0.20259206E+02</pdfrwt>
<pdfrwt beam="2">  1       -2 0.17607303E-01 0.20259206E+02</pdfrwt>
<totfact> 0.27918965E+06</totfact>
</mgrwt>
</event>
<event>
 5    1  0.4046313E-006  0.2000043E+02  0.7818608E-02  0.1745319E+00
         -2   -1    0    0    0  501 -0.00000000000E+00  0.00000000000E+00  0.11290824556E+02  0.11290824855E+02  0.26000000000E-02 0.  1.
          2   -1    0    0  501    0  0.00000000000E+00 -0.00000000000E+00 -0.88571336690E+01  0.88571340506E+01  0.26000000000E-02 0. -1.
       1023    2    1    2    0    0  0.00000000000E+00  0.00000000000E+00  0.24336908868E+01  0.20147958906E+02  0.20000434914E+02 0.  0.
        -11    1    3    3    0    0 -0.90852922299E+01 -0.41787330555E+01  0.12188783329E+01  0.10074225008E+02  0.51100000000E-03 0. -1.
         11    1    3    3    0    0  0.90852922299E+01  0.41787330555E+01  0.12148125539E+01  0.10073733898E+02  0.51100000000E-03 0.  1.
<mgrwt>
<rscale>  0 0.20000435E+02</rscale>
<asrwt>0</asrwt>
<pdfrwt beam="2">  1        2 0.13626360E-02 0.20000435E+02</pdfrwt>
<pdfrwt beam="1">  1       -2 0.17370500E-02 0.20000435E+02</pdfrwt>
<totfact> 0.39112354E+06</totfact>
</mgrwt>
</event>
<event>
 5    1  0.4046313E-006  0.2000103E+02  0.7818608E-02  0.1745308E+00
          2   -1    0    0  501    0  0.00000000000E+00  0.00000000000E+00  0.87913547527E+00  0.87913931995E+00  0.26000000000E-02 0. -1.
         -2   -1    0    0    0  501 -0.00000000000E+00 -0.00000000000E+00 -0.11375954965E+03  0.11375954968E+03  0.26000000000E-02 0.  1.
       1023    2    1    2    0    0  0.00000000000E+00  0.00000000000E+00 -0.11288041417E+03  0.11463868900E+03  0.20001027756E+02 0.  0.
        -11    1    3    3    0    0 -0.17791421142E+01 -0.98409821910E+01 -0.56436507986E+02  0.57315702133E+02  0.51100000000E-03 0. -1.
         11    1    3    3    0    0  0.17791421142E+01  0.98409821910E+01 -0.56443906188E+02  0.57322986865E+02  0.51100000000E-03 0.  1.
<mgrwt>
<rscale>  0 0.20001028E+02</rscale>
<asrwt>0</asrwt>
<pdfrwt beam="1">  1        2 0.13525200E-03 0.20001028E+02</pdfrwt>
<pdfrwt beam="2">  1       -2 0.17501458E-01 0.20001028E+02</pdfrwt>
<totfact> 0.28758256E+06</totfact>
</mgrwt>
</event>
<event>
 5    1  0.4046313E-006  0.2000180E+02  0.7818608E-02  0.1745292E+00
         -2   -1    0    0    0  501 -0.00000000000E+00  0.00000000000E+00  0.31150161150E+02  0.31150161258E+02  0.26000000000E-02 0. -1.
          2   -1    0    0  501    0  0.00000000000E+00 -0.00000000000E+00 -0.32108332394E+01  0.32108342921E+01  0.26000000000E-02 0.  1.
       1023    2    1    2    0    0  0.00000000000E+00  0.00000000000E+00  0.27939327911E+02  0.34360995551E+02  0.20001799197E+02 0.  0.
        -11    1    3    3    0    0  0.45084846807E+01  0.89268674488E+01  0.14057191619E+02  0.17251667544E+02  0.51100000000E-03 0. -1.
         11    1    3    3    0    0 -0.45084846807E+01 -0.89268674488E+01  0.13882136291E+02  0.17109328007E+02  0.51100000000E-03 0.  1.
<mgrwt>
<rscale>  0 0.20001799E+02</rscale>
<asrwt>0</asrwt>
<pdfrwt beam="2">  1        2 0.49397442E-03 0.20001799E+02</pdfrwt>
<pdfrwt beam="1">  1       -2 0.47923327E-02 0.20001799E+02</pdfrwt>
<totfact> 0.35917157E+06</totfact>
</mgrwt>
</event>
<event>
 4    1  0.4046313E-006  0.2004743E+02  0.7818608E-02  0.1744386E+00
          2   -1    0    0  501    0  0.00000000000E+00  0.00000000000E+00  0.86372709910E+00  0.86373101236E+00  0.26000000000E-02 0. -1.
         -2   -1    0    0    0  501 -0.00000000000E+00 -0.00000000000E+00 -0.11632686917E+03  0.11632686920E+03  0.26000000000E-02 0.  1.
        -11    1    1    2    0    0  0.42970157098E+01 -0.90446524040E+01 -0.60377139371E+02  0.61201871214E+02  0.51100000000E-03 0.  1.
         11    1    1    2    0    0 -0.42970157098E+01  0.90446524040E+01 -0.55086002703E+02  0.55988729002E+02  0.51100000000E-03 0. -1.
<mgrwt>
<rscale>  0 0.20047434E+02</rscale>
<asrwt>0</asrwt>
<pdfrwt beam="1">  1        2 0.13288149E-03 0.20047434E+02</pdfrwt>
<pdfrwt beam="2">  1       -2 0.17896429E-01 0.20047434E+02</pdfrwt>
<totfact> 0.28439902E+06</totfact>
</mgrwt>
</event>
<event>
 5    1  0.4046313E-006  0.2000169E+02  0.7818608E-02  0.1745295E+00
          2   -1    0    0  501    0  0.00000000000E+00  0.00000000000E+00  0.17691645813E+02  0.17691646004E+02  0.26000000000E-02 0.  1.
         -2   -1    0    0    0  501 -0.00000000000E+00 -0.00000000000E+00 -0.56533385193E+01  0.56533391172E+01  0.26000000000E-02 0. -1.
       1023    2    1    2    0    0  0.00000000000E+00  0.00000000000E+00  0.12038307294E+02  0.23344985121E+02  0.20001687124E+02 0.  0.
        -11    1    3    3    0    0 -0.71048626547E+01 -0.70371480241E+01  0.58699315257E+01  0.11595543197E+02  0.51100000000E-03 0.  1.
         11    1    3    3    0    0  0.71048626547E+01  0.70371480241E+01  0.61683757680E+01  0.11749441924E+02  0.51100000000E-03 0. -1.
<mgrwt>
<rscale>  0 0.20001687E+02</rscale>
<asrwt>0</asrwt>
<pdfrwt beam="1">  1        2 0.27217917E-02 0.20001687E+02</pdfrwt>
<pdfrwt beam="2">  1       -2 0.86974446E-03 0.20001687E+02</pdfrwt>
<totfact> 0.41232121E+06</totfact>
</mgrwt>
</event>
<event>
 5    1  0.4046313E-006  0.2000108E+02  0.7818608E-02  0.1745307E+00
         -2   -1    0    0    0  501 -0.00000000000E+00  0.00000000000E+00  0.33004712670E+02  0.33004712772E+02  0.26000000000E-02 0. -1.
          2   -1    0    0  501    0  0.00000000000E+00 -0.00000000000E+00 -0.30301958796E+01  0.30301969950E+01  0.26000000000E-02 0.  1.
       1023    2    1    2    0    0  0.00000000000E+00  0.00000000000E+00  0.29974516790E+02  0.36034909767E+02  0.20001076599E+02 0.  0.
        -11    1    3    3    0    0 -0.62629308599E+01  0.77961608976E+01  0.15130694080E+02  0.18136767389E+02  0.51100000000E-03 0. -1.
         11    1    3    3    0    0  0.62629308599E+01 -0.77961608976E+01  0.14843822710E+02  0.17898142378E+02  0.51100000000E-03 0.  1.
<mgrwt>
<rscale>  0 0.20001077E+02</rscale>
<asrwt>0</asrwt>
<pdfrwt beam="2">  1        2 0.46618409E-03 0.20001077E+02</pdfrwt>
<pdfrwt beam="1">  1       -2 0.50776480E-02 0.20001077E+02</pdfrwt>
<totfact> 0.35699403E+06</totfact>
</mgrwt>
</event>
<event>
 5    1  0.4046313E-006  0.2000082E+02  0.7818608E-02  0.1745312E+00
          2   -1    0    0  501    0  0.00000000000E+00  0.00000000000E+00  0.30317586417E+01  0.30317597566E+01  0.26000000000E-02 0.  1.
         -2   -1    0    0    0  501 -0.00000000000E+00 -0.00000000000E+00 -0.32986860045E+02  0.32986860148E+02  0.26000000000E-02 0. -1.
       1023    2    1    2    0    0  0.00000000000E+00  0.00000000000E+00 -0.29955101404E+02  0.36018619904E+02  0.20000821976E+02 0.  0.
        -11    1    3    3    0    0  0.86242951091E+01 -0.50620129296E+01 -0.15114447118E+02  0.18123160678E+02  0.51100000000E-03 0. -1.
         11    1    3    3    0    0 -0.86242951091E+01  0.50620129296E+01 -0.14840654286E+02  0.17895459226E+02  0.51100000000E-03 0.  1.
<mgrwt>
<rscale>  0 0.20000822E+02</rscale>
<asrwt>0</asrwt>
<pdfrwt beam="1">  1        2 0.46642452E-03 0.20000822E+02</pdfrwt>
<pdfrwt beam="2">  1       -2 0.50749014E-02 0.20000822E+02</pdfrwt>
<totfact> 0.35702489E+06</totfact>
</mgrwt>
</event>
<event>
 5    1  0.4046313E-006  0.2000109E+02  0.7818608E-02  0.1745307E+00
         -2   -1    0    0    0  501 -0.00000000000E+00  0.00000000000E+00  0.19040973260E+02  0.19040973438E+02  0.26000000000E-02 0. -1.
          2   -1    0    0  501    0  0.00000000000E+00 -0.00000000000E+00 -0.52524017900E+01  0.52524024335E+01  0.26000000000E-02 0.  1.
       1023    2    1    2    0    0  0.00000000000E+00  0.00000000000E+00  0.13788571470E+02  0.24293375871E+02  0.20001085171E+02 0.  0.
        -11    1    3    3    0    0  0.10690877790E+01 -0.99432104557E+01  0.68679845271E+01  0.12131759747E+02  0.51100000000E-03 0. -1.
         11    1    3    3    0    0 -0.10690877790E+01  0.99432104557E+01  0.69205869434E+01  0.12161616124E+02  0.51100000000E-03 0.  1.
<mgrwt>
<rscale>  0 0.20001085E+02</rscale>
<asrwt>0</asrwt>
<pdfrwt beam="2">  1        2 0.80806187E-03 0.20001085E+02</pdfrwt>
<pdfrwt beam="1">  1       -2 0.29293806E-02 0.20001085E+02</pdfrwt>
<totfact> 0.37581731E+06</totfact>
</mgrwt>
</event>
<event>
 5    1  0.4046313E-006  0.2000072E+02  0.7818608E-02  0.1745314E+00
         -2   -1    0    0    0  501 -0.00000000000E+00  0.00000000000E+00  0.29781407077E+02  0.29781407191E+02  0.26000000000E-02 0. -1.
          2   -1    0    0  501    0  0.00000000000E+00 -0.00000000000E+00 -0.33580405654E+01  0.33580415719E+01  0.26000000000E-02 0.  1.
       1023    2    1    2    0    0  0.00000000000E+00  0.00000000000E+00  0.26423366512E+02  0.33139448763E+02  0.20000719149E+02 0.  0.
        -11    1    3    3    0    0  0.99540365978E+01  0.96058771978E+00  0.13278331503E+02  0.16622865611E+02  0.51100000000E-03 0. -1.
         11    1    3    3    0    0 -0.99540365978E+01 -0.96058771978E+00  0.13145035009E+02  0.16516583152E+02  0.51100000000E-03 0.  1.
<mgrwt>
<rscale>  0 0.20000719E+02</rscale>
<asrwt>0</asrwt>
<pdfrwt beam="2">  1        2 0.51662172E-03 0.20000719E+02</pdfrwt>
<pdfrwt beam="1">  1       -2 0.45817549E-02 0.20000719E+02</pdfrwt>
<totfact> 0.36088454E+06</totfact>
</mgrwt>
</event>
<event>
 5    1  0.4046313E-006  0.2000064E+02  0.7818608E-02  0.1745315E+00
         -2   -1    0    0    0  501 -0.00000000000E+00  0.00000000000E+00  0.94369448086E+02  0.94369448122E+02  0.26000000000E-02 0.  1.
          2   -1    0    0  501    0  0.00000000000E+00 -0.00000000000E+00 -0.10597314826E+01  0.10597346721E+01  0.26000000000E-02 0. -1.
       1023    2    1    2    0    0  0.00000000000E+00  0.00000000000E+00  0.93309716604E+02  0.95429182794E+02  0.20000642892E+02 0.  0.
        -11    1    3    3    0    0  0.71954413343E-01  0.10000028259E+02  0.46529877189E+02  0.47592386094E+02  0.51100000000E-03 0. -1.
         11    1    3    3    0    0 -0.71954413343E-01 -0.10000028259E+02  0.46779839415E+02  0.47836796701E+02  0.51100000000E-03 0.  1.
<mgrwt>
<rscale>  0 0.20000643E+02</rscale>
<asrwt>0</asrwt>
<pdfrwt beam="2">  1        2 0.16303586E-03 0.20000643E+02</pdfrwt>
<pdfrwt beam="1">  1       -2 0.14518377E-01 0.20000643E+02</pdfrwt>
<totfact> 0.30143347E+06</totfact>
</mgrwt>
</event>
<event>
 4    1  0.4046313E-006  0.2002246E+02  0.7818608E-02  0.1744882E+00
          2   -1    0    0  501    0  0.00000000000E+00  0.00000000000E+00  0.85602046882E+01  0.85602050831E+01  0.26000000000E-02 0. -1.
         -2   -1    0    0    0  501 -0.00000000000E+00 -0.00000000000E+00 -0.11708220063E+02  0.11708220351E+02  0.26000000000E-02 0.  1.
        -11    1    1    2    0    0 -0.27810620361E+00 -0.10006914137E+02 -0.14774772614E+01  0.10119219976E+02  0.51100000000E-03 0.  1.
         11    1    1    2    0    0  0.27810620361E+00  0.10006914137E+02 -0.16705381131E+01  0.10149205459E+02  0.51100000000E-03 0. -1.
<mgrwt>
<rscale>  0 0.20022464E+02</rscale>
<asrwt>0</asrwt>
<pdfrwt beam="1">  1        2 0.13169546E-02 0.20022464E+02</pdfrwt>
<pdfrwt beam="2">  1       -2 0.18012647E-02 0.20022464E+02</pdfrwt>
<totfact> 0.38916358E+06</totfact>
</mgrwt>
</event>
<event>
 5    1  0.4046313E-006  0.2000061E+02  0.7818608E-02  0.1745316E+00
         -2   -1    0    0    0  501 -0.00000000000E+00  0.00000000000E+00  0.35567175960E+02  0.35567176055E+02  0.26000000000E-02 0. -1.
          2   -1    0    0  501    0  0.00000000000E+00 -0.00000000000E+00 -0.28117511465E+01  0.28117523486E+01  0.26000000000E-02 0.  1.
       1023    2    1    2    0    0  0.00000000000E+00  0.00000000000E+00  0.32755424813E+02  0.38378928403E+02  0.20000607258E+02 0.  0.
        -11    1    3    3    0    0 -0.29187719867E+01 -0.95648624686E+01  0.16407959163E+02  0.19215279028E+02  0.51100000000E-03 0.  1.
         11    1    3    3    0    0  0.29187719867E+01  0.95648624686E+01  0.16347465650E+02  0.19163649376E+02  0.51100000000E-03 0. -1.
<mgrwt>
<rscale>  0 0.20000607E+02</rscale>
<asrwt>0</asrwt>
<pdfrwt beam="2">  1        2 0.43257719E-03 0.20000607E+02</pdfrwt>
<pdfrwt beam="1">  1       -2 0.54718734E-02 0.20000607E+02</pdfrwt>
<totfact> 0.35406163E+06</totfact>
</mgrwt>
</event>
<event>
 5    1  0.4046313E-006  0.2000069E+02  0.7818608E-02  0.1745314E+00
          2   -1    0    0  501    0  0.00000000000E+00  0.00000000000E+00  0.12127988914E+02  0.12127989192E+02  0.26000000000E-02 0.  1.
         -2   -1    0    0    0  501 -0.00000000000E+00 -0.00000000000E+00 -0.82459596873E+01  0.82459600971E+01  0.26000000000E-02 0. -1.
       1023    2    1    2    0    0  0.00000000000E+00  0.00000000000E+00  0.38820292263E+01  0.20373949289E+02  0.20000691456E+02 0.  0.
        -11    1    3    3    0    0  0.82280470677E+01 -0.56834897684E+01  0.18757889927E+01  0.10174546629E+02  0.51100000000E-03 0.  1.
         11    1    3    3    0    0 -0.82280470677E+01  0.56834897684E+01  0.20062402336E+01  0.10199402661E+02  0.51100000000E-03 0. -1.
<mgrwt>
<rscale>  0 0.20000691E+02</rscale>
<asrwt>0</asrwt>
<pdfrwt beam="1">  1        2 0.18658445E-02 0.20000691E+02</pdfrwt>
<pdfrwt beam="2">  1       -2 0.12686092E-02 0.20000691E+02</pdfrwt>
<totfact> 0.40027395E+06</totfact>
</mgrwt>
</event>
<event>
 5    1  0.4046313E-006  0.2000050E+02  0.7818608E-02  0.1745318E+00
          2   -1    0    0  501    0  0.00000000000E+00  0.00000000000E+00  0.12639185918E+02  0.12639186186E+02  0.26000000000E-02 0.  1.
         -2   -1    0    0    0  501 -0.00000000000E+00 -0.00000000000E+00 -0.79122989229E+01  0.79122993501E+01  0.26000000000E-02 0. -1.
       1023    2    1    2    0    0  0.00000000000E+00  0.00000000000E+00  0.47268869955E+01  0.20551485536E+02  0.20000502420E+02 0.  0.
        -11    1    3    3    0    0  0.23458940204E+01 -0.97211988436E+01  0.23736308698E+01  0.10278085886E+02  0.51100000000E-03 0. -1.
         11    1    3    3    0    0 -0.23458940204E+01  0.97211988436E+01  0.23532561257E+01  0.10273399650E+02  0.51100000000E-03 0.  1.
<mgrwt>
<rscale>  0 0.20000502E+02</rscale>
<asrwt>0</asrwt>
<pdfrwt beam="1">  1        2 0.19444902E-02 0.20000502E+02</pdfrwt>
<pdfrwt beam="2">  1       -2 0.12172768E-02 0.20000502E+02</pdfrwt>
<totfact> 0.40152926E+06</totfact>
</mgrwt>
</event>
<event>
 5    1  0.4046313E-006  0.2000440E+02  0.7818608E-02  0.1745241E+00
         -2   -1    0    0    0  501 -0.00000000000E+00  0.00000000000E+00  0.73024595331E+02  0.73024595377E+02  0.26000000000E-02 0. -1.
          2   -1    0    0  501    0  0.00000000000E+00 -0.00000000000E+00 -0.13700026725E+01  0.13700051397E+01  0.26000000000E-02 0.  1.
       1023    2    1    2    0    0  0.00000000000E+00  0.00000000000E+00  0.71654592658E+02  0.74394600517E+02  0.20004397942E+02 0.  0.
        -11    1    3    3    0    0  0.91941547795E+01 -0.39382839495E+01  0.35967505620E+02  0.37332345538E+02  0.51100000000E-03 0.  1.
         11    1    3    3    0    0 -0.91941547795E+01  0.39382839495E+01  0.35687087038E+02  0.37062254979E+02  0.51100000000E-03 0. -1.
<mgrwt>
<rscale>  0 0.20004398E+02</rscale>
<asrwt>0</asrwt>
<pdfrwt beam="2">  1        2 0.21076982E-03 0.20004398E+02</pdfrwt>
<pdfrwt beam="1">  1       -2 0.11234554E-01 0.20004398E+02</pdfrwt>
<totfact> 0.31813292E+06</totfact>
</mgrwt>
</event>
<event>
 4    1  0.4046313E-006  0.2024444E+02  0.7818608E-02  0.1740510E+00
          2   -1    0    0  501    0  0.00000000000E+00  0.00000000000E+00  0.20741267131E+01  0.20741283427E+01  0.26000000000E-02 0.  1.
         -2   -1    0    0    0  501 -0.00000000000E+00 -0.00000000000E+00 -0.49398759246E+02  0.49398759315E+02  0.26000000000E-02 0. -1.
        -11    1    1    2    0    0  0.46219877270E+01  0.89991869960E+01 -0.22814483049E+02  0.24956938397E+02  0.51100000000E-03 0.  1.
         11    1    1    2    0    0 -0.46219877270E+01 -0.89991869960E+01 -0.24510149485E+02  0.26515949260E+02  0.51100000000E-03 0. -1.
<mgrwt>
<rscale>  0 0.20244439E+02</rscale>
<asrwt>0</asrwt>
<pdfrwt beam="1">  1        2 0.31909659E-03 0.20244439E+02</pdfrwt>
<pdfrwt beam="2">  1       -2 0.75998084E-02 0.20244439E+02</pdfrwt>
<totfact> 0.33067280E+06</totfact>
</mgrwt>
</event>
<event>
 5    1  0.4046313E-006  0.2000041E+02  0.7818608E-02  0.1745320E+00
         -2   -1    0    0    0  501 -0.00000000000E+00  0.00000000000E+00  0.69943759868E+02  0.69943759917E+02  0.26000000000E-02 0. -1.
          2   -1    0    0  501    0  0.00000000000E+00 -0.00000000000E+00 -0.14297773378E+01  0.14297797018E+01  0.26000000000E-02 0.  1.
       1023    2    1    2    0    0  0.00000000000E+00  0.00000000000E+00  0.68513982531E+02  0.71373539619E+02  0.20000408883E+02 0.  0.
        -11    1    3    3    0    0  0.14357181497E+01  0.98966035639E+01  0.34234449439E+02  0.35665131113E+02  0.51100000000E-03 0.  1.
         11    1    3    3    0    0 -0.14357181497E+01 -0.98966035639E+01  0.34279533092E+02  0.35708408505E+02  0.51100000000E-03 0. -1.
<mgrwt>
<rscale>  0 0.20000409E+02</rscale>
<asrwt>0</asrwt>
<pdfrwt beam="2">  1        2 0.21996588E-03 0.20000409E+02</pdfrwt>
<pdfrwt beam="1">  1       -2 0.10760581E-01 0.20000409E+02</pdfrwt>
<totfact> 0.32086572E+06</totfact>
</mgrwt>
</event>
<event>
 5    1  0.4046313E-006  0.2000041E+02  0.7818608E-02  0.1745320E+00
         -2   -1    0    0    0  501 -0.00000000000E+00  0.00000000000E+00  0.30057557895E+02  0.30057558007E+02  0.26000000000E-02 0.  1.
          2   -1    0    0  501    0  0.00000000000E+00 -0.00000000000E+00 -0.33270867577E+01  0.33270877736E+01  0.26000000000E-02 0. -1.
       1023    2    1    2    0    0  0.00000000000E+00  0.00000000000E+00  0.26730471137E+02  0.33384645781E+02  0.20000412163E+02 0.  0.
        -11    1    3    3    0    0 -0.94437655440E+01 -0.32888921933E+01  0.13450379489E+02  0.16760496060E+02  0.51100000000E-03 0.  1.
         11    1    3    3    0    0  0.94437655440E+01  0.32888921933E+01  0.13280091648E+02  0.16624149721E+02  0.51100000000E-03 0. -1.
<mgrwt>
<rscale>  0 0.20000412E+02</rscale>
<asrwt>0</asrwt>
<pdfrwt beam="2">  1        2 0.51185961E-03 0.20000412E+02</pdfrwt>
<pdfrwt beam="1">  1       -2 0.46242396E-02 0.20000412E+02</pdfrwt>
<totfact> 0.36055644E+06</totfact>
</mgrwt>
</event>
<event>
 5    1  0.4046313E-006  0.2000054E+02  0.7818608E-02  0.1745317E+00
          2   -1    0    0  501    0  0.00000000000E+00  0.00000000000E+00  0.14103699725E+01  0.14103723690E+01  0.26000000000E-02 0. -1.
         -2   -1    0    0    0  501 -0.00000000000E+00 -0.00000000000E+00 -0.70907168897E+02  0.70907168945E+02  0.26000000000E-02 0.  1.
       1023    2    1    2    0    0  0.00000000000E+00  0.00000000000E+00 -0.69496798924E+02  0.72317541314E+02  0.20000543015E+02 0.  0.
        -11    1    3    3    0    0 -0.62146558938E-01 -0.10000055963E+02 -0.34824975066E+02  0.36232359433E+02  0.51100000000E-03 0. -1.
         11    1    3    3    0    0  0.62146558938E-01  0.10000055963E+02 -0.34671823858E+02  0.36085181881E+02  0.51100000000E-03 0.  1.
<mgrwt>
<rscale>  0 0.20000543E+02</rscale>
<asrwt>0</asrwt>
<pdfrwt beam="1">  1        2 0.21698024E-03 0.20000543E+02</pdfrwt>
<pdfrwt beam="2">  1       -2 0.10908793E-01 0.20000543E+02</pdfrwt>
<totfact> 0.32004501E+06</totfact>
</mgrwt>
</event>
<event>
 5    1  0.4046313E-006  0.2000144E+02  0.7818608E-02  0.1745299E+00
         -2   -1    0    0    0  501 -0.00000000000E+00  0.00000000000E+00  0.92056650586E+01  0.92056654258E+01  0.26000000000E-02 0.  1.
          2   -1    0    0  501    0  0.00000000000E+00 -0.00000000000E+00 -0.10864440847E+02  0.10864441158E+02  0.26000000000E-02 0. -1.
       1023    2    1    2    0    0  0.00000000000E+00  0.00000000000E+00 -0.16587757880E+01  0.20070106583E+02  0.20001440977E+02 0.  0.
        -11    1    3    3    0    0 -0.69130233449E+01  0.72264077075E+01 -0.76960225838E+00  0.10030112064E+02  0.51100000000E-03 0. -1.
         11    1    3    3    0    0  0.69130233449E+01 -0.72264077075E+01 -0.88917352960E+00  0.10039994519E+02  0.51100000000E-03 0.  1.
<mgrwt>
<rscale>  0 0.20001441E+02</rscale>
<asrwt>0</asrwt>
<pdfrwt beam="2">  1        2 0.16714525E-02 0.20001441E+02</pdfrwt>
<pdfrwt beam="1">  1       -2 0.14162562E-02 0.20001441E+02</pdfrwt>
<totfact> 0.39697924E+06</totfact>
</mgrwt>
</event>
<event>
 5    1  0.4046313E-006  0.2000018E+02  0.7818608E-02  0.1745324E+00
         -2   -1    0    0    0  501 -0.00000000000E+00  0.00000000000E+00  0.26753524850E+01  0.26753537484E+01  0.26000000000E-02 0.  1.
          2   -1    0    0  501    0  0.00000000000E+00 -0.00000000000E+00 -0.37378924926E+02  0.37378925016E+02  0.26000000000E-02 0. -1.
       1023    2    1    2    0    0  0.00000000000E+00  0.00000000000E+00 -0.34703572441E+02  0.40054278764E+02  0.20000182679E+02 0.  0.
        -11    1    3    3    0    0 -0.99996533458E+01  0.83683552216E-01 -0.17267850439E+02  0.19954416279E+02  0.51100000000E-03 0. -1.
         11    1    3    3    0    0  0.99996533458E+01 -0.83683552216E-01 -0.17435722002E+02  0.20099862486E+02  0.51100000000E-03 0.  1.
<mgrwt>
<rscale>  0 0.20000183E+02</rscale>
<asrwt>0</asrwt>
<pdfrwt beam="2">  1        2 0.57506036E-02 0.20000183E+02</pdfrwt>
<pdfrwt beam="1">  1       -2 0.41159282E-03 0.20000183E+02</pdfrwt>
<totfact> 0.44506818E+06</totfact>
</mgrwt>
</event>
<event>
 5    1  0.4046313E-006  0.2000074E+02  0.7818608E-02  0.1745313E+00
          2   -1    0    0  501    0  0.00000000000E+00  0.00000000000E+00  0.11698299223E+03  0.11698299226E+03  0.26000000000E-02 0. -1.
         -2   -1    0    0    0  501 -0.00000000000E+00 -0.00000000000E+00 -0.85488675278E+00  0.85489070651E+00  0.26000000000E-02 0.  1.
       1023    2    1    2    0    0  0.00000000000E+00  0.00000000000E+00  0.11612810548E+03  0.11783788297E+03  0.20000744487E+02 0.  0.
        -11    1    3    3    0    0 -0.37496123829E+01  0.92708063591E+01  0.58070448328E+02  0.58925244275E+02  0.51100000000E-03 0. -1.
         11    1    3    3    0    0  0.37496123829E+01 -0.92708063591E+01  0.58057657150E+02  0.58912638692E+02  0.51100000000E-03 0.  1.
<mgrwt>
<rscale>  0 0.20000744E+02</rscale>
<asrwt>0</asrwt>
<pdfrwt beam="1">  1        2 0.17997387E-01 0.20000744E+02</pdfrwt>
<pdfrwt beam="2">  1       -2 0.13152132E-03 0.20000744E+02</pdfrwt>
<totfact> 0.54742887E+06</totfact>
</mgrwt>
</event>
<event>
 5    1  0.4146652E-006  0.2000050E+02  0.7818608E-02  0.1745318E+00
         -2   -1    0    0    0  501 -0.00000000000E+00  0.00000000000E+00  0.12902616469E+01  0.12902642665E+01  0.26000000000E-02 0.  1.
          2   -1    0    0  501    0  0.00000000000E+00 -0.00000000000E+00 -0.77507446928E+02  0.77507446971E+02  0.26000000000E-02 0. -1.
       1023    2    1    2    0    0  0.00000000000E+00  0.00000000000E+00 -0.76217185281E+02  0.78797711238E+02  0.20000499099E+02 0.  0.
        -11    1    3    3    0    0 -0.68934046895E+01 -0.72444914291E+01 -0.38335139293E+02  0.39617983153E+02  0.51100000000E-03 0. -1.
         11    1    3    3    0    0  0.68934046895E+01  0.72444914291E+01 -0.37882045988E+02  0.39179728085E+02  0.51100000000E-03 0.  1.
<mgrwt>
<rscale>  0 0.20000499E+02</rscale>
<asrwt>0</asrwt>
<pdfrwt beam="2">  1        2 0.11924219E-01 0.20000499E+02</pdfrwt>
<pdfrwt beam="1">  1       -2 0.19850206E-03 0.20000499E+02</pdfrwt>
<totfact> 0.49981428E+06</totfact>
</mgrwt>
</event>
<event>
 4    1  0.4046313E-006  0.2008478E+02  0.7818608E-02  0.1743647E+00
          2   -1    0    0  501    0  0.00000000000E+00  0.00000000000E+00  0.57468773191E+01  0.57468779073E+01  0.26000000000E-02 0. -1.
         -2   -1    0    0    0  501 -0.00000000000E+00 -0.00000000000E+00 -0.17548583757E+02  0.17548583949E+02  0.26000000000E-02 0.  1.
        -11    1    1    2    0    0  0.58735637167E+01 -0.81040754715E+01 -0.68536151354E+01  0.12130409336E+02  0.51100000000E-03 0. -1.
         11    1    1    2    0    0 -0.58735637167E+01  0.81040754715E+01 -0.49480913021E+01  0.11165052520E+02  0.51100000000E-03 0.  1.
<mgrwt>
<rscale>  0 0.20084777E+02</rscale>
<asrwt>0</asrwt>
<pdfrwt beam="1">  1        2 0.88413504E-03 0.20084777E+02</pdfrwt>
<pdfrwt beam="2">  1       -2 0.26997822E-02 0.20084777E+02</pdfrwt>
<totfact> 0.37489045E+06</totfact>
</mgrwt>
</event>
<event>
 5    1  0.4046313E-006  0.2000046E+02  0.7818608E-02  0.1745319E+00
          2   -1    0    0  501    0  0.00000000000E+00  0.00000000000E+00  0.16807597407E+01  0.16807617517E+01  0.26000000000E-02 0. -1.
         -2   -1    0    0    0  501 -0.00000000000E+00 -0.00000000000E+00 -0.59499587198E+02  0.59499587255E+02  0.26000000000E-02 0.  1.
       1023    2    1    2    0    0  0.00000000000E+00  0.00000000000E+00 -0.57818827457E+02  0.61180349007E+02  0.20000457395E+02 0.  0.
        -11    1    3    3    0    0  0.83851672245E+01  0.54490953455E+01 -0.28817427489E+02  0.30503242398E+02  0.51100000000E-03 0. -1.
         11    1    3    3    0    0 -0.83851672245E+01 -0.54490953455E+01 -0.29001399969E+02  0.30677106609E+02  0.51100000000E-03 0.  1.
<mgrwt>
<rscale>  0 0.20000457E+02</rscale>
<asrwt>0</asrwt>
<pdfrwt beam="1">  1        2 0.25857863E-03 0.20000457E+02</pdfrwt>
<pdfrwt beam="2">  1       -2 0.91537812E-02 0.20000457E+02</pdfrwt>
<totfact> 0.33003750E+06</totfact>
</mgrwt>
</event>
<event>
 5    1  0.4046313E-006  0.2000334E+02  0.7818608E-02  0.1745262E+00
          2   -1    0    0  501    0  0.00000000000E+00  0.00000000000E+00  0.16059535587E+02  0.16059535797E+02  0.26000000000E-02 0. -1.
         -2   -1    0    0    0  501 -0.00000000000E+00 -0.00000000000E+00 -0.62289070633E+01  0.62289076059E+01  0.26000000000E-02 0.  1.
       1023    2    1    2    0    0  0.00000000000E+00  0.00000000000E+00  0.98306285234E+01  0.22288443403E+02  0.20003336026E+02 0.  0.
        -11    1    3    3    0    0 -0.12100484770E+00 -0.10000925697E+02  0.48993293665E+01  0.11137171341E+02  0.51100000000E-03 0.  1.
         11    1    3    3    0    0  0.12100484770E+00  0.10000925697E+02  0.49312991569E+01  0.11151272062E+02  0.51100000000E-03 0. -1.
<mgrwt>
<rscale>  0 0.20003336E+02</rscale>
<asrwt>0</asrwt>
<pdfrwt beam="1">  1        2 0.24706978E-02 0.20003336E+02</pdfrwt>
<pdfrwt beam="2">  1       -2 0.95829345E-03 0.20003336E+02</pdfrwt>
<totfact> 0.40896905E+06</totfact>
</mgrwt>
</event>
<event>
 5    1  0.4230904E-006  0.2000161E+02  0.7818608E-02  0.1745296E+00
          2   -1    0    0  501    0  0.00000000000E+00  0.00000000000E+00  0.87610732286E+02  0.87610732324E+02  0.26000000000E-02 0.  1.
         -2   -1    0    0    0  501 -0.00000000000E+00 -0.00000000000E+00 -0.11415953835E+01  0.11415983443E+01  0.26000000000E-02 0. -1.
       1023    2    1    2    0    0  0.00000000000E+00  0.00000000000E+00  0.86469136902E+02  0.88752330669E+02  0.20001613997E+02 0.  0.
        -11    1    3    3    0    0 -0.39705233669E+01 -0.91780964526E+01  0.43752608887E+02  0.44880878946E+02  0.51100000000E-03 0. -1.
         11    1    3    3    0    0  0.39705233669E+01  0.91780964526E+01  0.42716528015E+02  0.43871451722E+02  0.51100000000E-03 0.  1.
<mgrwt>
<rscale>  0 0.20001614E+02</rscale>
<asrwt>0</asrwt>
<pdfrwt beam="1">  1        2 0.13478573E-01 0.20001614E+02</pdfrwt>
<pdfrwt beam="2">  1       -2 0.17563031E-03 0.20001614E+02</pdfrwt>
<totfact> 0.51240915E+06</totfact>
</mgrwt>
</event>
<event>
 4    1  0.4472627E-006  0.2049003E+02  0.7818608E-02  0.1735755E+00
         -2   -1    0    0    0  501 -0.00000000000E+00  0.00000000000E+00  0.15190156780E+01  0.15190179031E+01  0.26000000000E-02 0.  1.
          2   -1    0    0  501    0  0.00000000000E+00 -0.00000000000E+00 -0.69097531779E+02  0.69097531828E+02  0.26000000000E-02 0. -1.
        -11    1    1    2    0    0  0.10050748189E+02  0.76312514867E+00 -0.40106978308E+02  0.41354196986E+02  0.51100000000E-03 0. -1.
         11    1    1    2    0    0 -0.10050748189E+02 -0.76312514867E+00 -0.27471537793E+02  0.29262352744E+02  0.51100000000E-03 0.  1.
<mgrwt>
<rscale>  0 0.20490028E+02</rscale>
<asrwt>0</asrwt>
<pdfrwt beam="2">  1        2 0.10630387E-01 0.20490028E+02</pdfrwt>
<pdfrwt beam="1">  1       -2 0.23369495E-03 0.20490028E+02</pdfrwt>
<totfact> 0.46340089E+06</totfact>
</mgrwt>
</event>
<event>
 5    1  0.4046313E-006  0.2000089E+02  0.7818608E-02  0.1745310E+00
         -2   -1    0    0    0  501 -0.00000000000E+00  0.00000000000E+00  0.57170865177E+02  0.57170865237E+02  0.26000000000E-02 0. -1.
          2   -1    0    0  501    0  0.00000000000E+00 -0.00000000000E+00 -0.17492973728E+01  0.17492993050E+01  0.26000000000E-02 0.  1.
       1023    2    1    2    0    0  0.00000000000E+00  0.00000000000E+00  0.55421567805E+02  0.58920164542E+02  0.20000890272E+02 0.  0.
        -11    1    3    3    0    0 -0.30883711510E+01 -0.95114635061E+01  0.27870195542E+02  0.29610028270E+02  0.51100000000E-03 0. -1.
         11    1    3    3    0    0  0.30883711510E+01  0.95114635061E+01  0.27551372263E+02  0.29310136271E+02  0.51100000000E-03 0.  1.
<mgrwt>
<rscale>  0 0.20000890E+02</rscale>
<asrwt>0</asrwt>
<pdfrwt beam="2">  1        2 0.26912284E-03 0.20000890E+02</pdfrwt>
<pdfrwt beam="1">  1       -2 0.87955174E-02 0.20000890E+02</pdfrwt>
<totfact> 0.33215528E+06</totfact>
</mgrwt>
</event>
<event>
 5    1  0.4046313E-006  0.2000143E+02  0.7818608E-02  0.1745300E+00
         -2   -1    0    0    0  501 -0.00000000000E+00  0.00000000000E+00  0.71234913630E+01  0.71234918375E+01  0.26000000000E-02 0. -1.
          2   -1    0    0  501    0  0.00000000000E+00 -0.00000000000E+00 -0.14040061116E+02  0.14040061357E+02  0.26000000000E-02 0.  1.
       1023    2    1    2    0    0  0.00000000000E+00  0.00000000000E+00 -0.69165697534E+01  0.21163553195E+02  0.20001426116E+02 0.  0.
        -11    1    3    3    0    0  0.52057894201E+00 -0.99870914862E+01 -0.34958827696E+01  0.10594064158E+02  0.51100000000E-03 0.  1.
         11    1    3    3    0    0 -0.52057894201E+00  0.99870914862E+01 -0.34206869838E+01  0.10569489036E+02  0.51100000000E-03 0. -1.
<mgrwt>
<rscale>  0 0.20001426E+02</rscale>
<asrwt>0</asrwt>
<pdfrwt beam="2">  1        2 0.21600095E-02 0.20001426E+02</pdfrwt>
<pdfrwt beam="1">  1       -2 0.10959218E-02 0.20001426E+02</pdfrwt>
<totfact> 0.40472918E+06</totfact>
</mgrwt>
</event>
<event>
 4    1  0.4046313E-006  0.2003357E+02  0.7818608E-02  0.1744661E+00
         -2   -1    0    0    0  501 -0.00000000000E+00  0.00000000000E+00  0.62067622031E+01  0.62067627477E+01  0.26000000000E-02 0. -1.
          2   -1    0    0  501    0  0.00000000000E+00 -0.00000000000E+00 -0.16165597149E+02  0.16165597358E+02  0.26000000000E-02 0.  1.
        -11    1    1    2    0    0  0.12905190441E+01  0.99255789182E+01 -0.54169033948E+01  0.11380922586E+02  0.51100000000E-03 0.  1.
         11    1    1    2    0    0 -0.12905190441E+01 -0.99255789182E+01 -0.45419315506E+01  0.10991437519E+02  0.51100000000E-03 0. -1.
<mgrwt>
<rscale>  0 0.20033574E+02</rscale>
<asrwt>0</asrwt>
<pdfrwt beam="2">  1        2 0.24870150E-02 0.20033574E+02</pdfrwt>
<pdfrwt beam="1">  1       -2 0.95488656E-03 0.20033574E+02</pdfrwt>
<totfact> 0.40779155E+06</totfact>
</mgrwt>
</event>
<event>
 5    1  0.4046313E-006  0.2000457E+02  0.7818608E-02  0.1745237E+00
         -2   -1    0    0    0  501 -0.00000000000E+00  0.00000000000E+00  0.47622597345E+01  0.47622604442E+01  0.26000000000E-02 0. -1.
          2   -1    0    0  501    0  0.00000000000E+00 -0.00000000000E+00 -0.21008039561E+02  0.21008039722E+02  0.26000000000E-02 0.  1.
       1023    2    1    2    0    0  0.00000000000E+00  0.00000000000E+00 -0.16245779827E+02  0.25770300166E+02  0.20004574689E+02 0.  0.
        -11    1    3    3    0    0 -0.86820799585E+01  0.49663425531E+01 -0.81895930863E+01  0.12927200236E+02  0.51100000000E-03 0. -1.
         11    1    3    3    0    0  0.86820799585E+01 -0.49663425531E+01 -0.80561867402E+01  0.12843099930E+02  0.51100000000E-03 0.  1.
<mgrwt>
<rscale>  0 0.20004575E+02</rscale>
<asrwt>0</asrwt>
<pdfrwt beam="2">  1        2 0.32320061E-02 0.20004575E+02</pdfrwt>
<pdfrwt beam="1">  1       -2 0.73265542E-03 0.20004575E+02</pdfrwt>
<totfact> 0.41840174E+06</totfact>
</mgrwt>
</event>
<event>
 5    1  0.4046313E-006  0.2000007E+02  0.7818608E-02  0.1745327E+00
          2   -1    0    0  501    0  0.00000000000E+00  0.00000000000E+00  0.10170924878E+01  0.10170958110E+01  0.26000000000E-02 0. -1.
         -2   -1    0    0    0  501 -0.00000000000E+00 -0.00000000000E+00 -0.98320046152E+02  0.98320046186E+02  0.26000000000E-02 0.  1.
       1023    2    1    2    0    0  0.00000000000E+00  0.00000000000E+00 -0.97302953664E+02  0.99337141997E+02  0.20000074711E+02 0.  0.
        -11    1    3    3    0    0 -0.58067997181E+01 -0.81413645207E+01 -0.48665191698E+02  0.49682005017E+02  0.51100000000E-03 0. -1.
         11    1    3    3    0    0  0.58067997181E+01  0.81413645207E+01 -0.48637761966E+02  0.49655136981E+02  0.51100000000E-03 0.  1.
<mgrwt>
<rscale>  0 0.20000075E+02</rscale>
<asrwt>0</asrwt>
<pdfrwt beam="1">  1        2 0.15647610E-03 0.20000075E+02</pdfrwt>
<pdfrwt beam="2">  1       -2 0.15126154E-01 0.20000075E+02</pdfrwt>
<totfact> 0.29853061E+06</totfact>
</mgrwt>
</event>
<event>
 5    1  0.4046313E-006  0.2000359E+02  0.7818608E-02  0.1745257E+00
         -2   -1    0    0    0  501 -0.00000000000E+00  0.00000000000E+00  0.53484423099E+01  0.53484429419E+01  0.26000000000E-02 0. -1.
          2   -1    0    0  501    0  0.00000000000E+00 -0.00000000000E+00 -0.18703752718E+02  0.18703752899E+02  0.26000000000E-02 0.  1.
       1023    2    1    2    0    0  0.00000000000E+00  0.00000000000E+00 -0.13355310409E+02  0.24052195841E+02  0.20003594894E+02 0.  0.
        -11    1    3    3    0    0 -0.99003830872E+01  0.14205304977E+01 -0.67034362919E+01  0.12040413222E+02  0.51100000000E-03 0. -1.
         11    1    3    3    0    0  0.99003830872E+01 -0.14205304977E+01 -0.66518741166E+01  0.12011782619E+02  0.51100000000E-03 0.  1.
<mgrwt>
<rscale>  0 0.20003595E+02</rscale>
<asrwt>0</asrwt>
<pdfrwt beam="2">  1        2 0.28775004E-02 0.20003595E+02</pdfrwt>
<pdfrwt beam="1">  1       -2 0.82283735E-03 0.20003595E+02</pdfrwt>
<totfact> 0.41418563E+06</totfact>
</mgrwt>
</event>
<event>
 4    1  0.4046313E-006  0.2005309E+02  0.7818608E-02  0.1744274E+00
         -2   -1    0    0    0  501 -0.00000000000E+00  0.00000000000E+00  0.16182649774E+01  0.16182670660E+01  0.26000000000E-02 0.  1.
          2   -1    0    0  501    0  0.00000000000E+00 -0.00000000000E+00 -0.62123024599E+02  0.62123024654E+02  0.26000000000E-02 0. -1.
        -11    1    1    2    0    0  0.15320739485E+01  0.98956412530E+01 -0.28629670690E+02  0.30330331526E+02  0.51100000000E-03 0. -1.
         11    1    1    2    0    0 -0.15320739485E+01 -0.98956412530E+01 -0.31875088932E+02  0.33410960193E+02  0.51100000000E-03 0.  1.
<mgrwt>
<rscale>  0 0.20053088E+02</rscale>
<asrwt>0</asrwt>
<pdfrwt beam="2">  1        2 0.95573867E-02 0.20053088E+02</pdfrwt>
<pdfrwt beam="1">  1       -2 0.24896406E-03 0.20053088E+02</pdfrwt>
<totfact> 0.47700473E+06</totfact>
</mgrwt>
</event>
<event>
 5    1  0.4046313E-006  0.2000332E+02  0.7818608E-02  0.1745262E+00
          2   -1    0    0  501    0  0.00000000000E+00  0.00000000000E+00  0.12616209776E+02  0.12616210044E+02  0.26000000000E-02 0. -1.
         -2   -1    0    0    0  501 -0.00000000000E+00 -0.00000000000E+00 -0.79289421807E+01  0.79289426070E+01  0.26000000000E-02 0.  1.
       1023    2    1    2    0    0  0.00000000000E+00  0.00000000000E+00  0.46872675951E+01  0.20545152651E+02  0.20003320223E+02 0.  0.
        -11    1    3    3    0    0  0.58877778705E+01  0.80849898419E+01  0.23285483334E+01  0.10269134657E+02  0.51100000000E-03 0.  1.
         11    1    3    3    0    0 -0.58877778705E+01 -0.80849898419E+01  0.23587192617E+01  0.10276017994E+02  0.51100000000E-03 0. -1.
<mgrwt>
<rscale>  0 0.20003320E+02</rscale>
<asrwt>0</asrwt>
<pdfrwt beam="1">  1        2 0.19409554E-02 0.20003320E+02</pdfrwt>
<pdfrwt beam="2">  1       -2 0.12198373E-02 0.20003320E+02</pdfrwt>
<totfact> 0.40134552E+06</totfact>
</mgrwt>
</event>
<event>
 5    1  0.4046313E-006  0.2000035E+02  0.7818608E-02  0.1745321E+00
          2   -1    0    0  501    0  0.00000000000E+00  0.00000000000E+00  0.10392035668E+01  0.10392068193E+01  0.26000000000E-02 0. -1.
         -2   -1    0    0    0  501 -0.00000000000E+00 -0.00000000000E+00 -0.96230703903E+02  0.96230703938E+02  0.26000000000E-02 0.  1.
       1023    2    1    2    0    0  0.00000000000E+00  0.00000000000E+00 -0.95191500336E+02  0.97269910757E+02  0.20000345060E+02 0.  0.
        -11    1    3    3    0    0  0.23943361651E+01 -0.97092408468E+01 -0.47767482379E+02  0.48803018109E+02  0.51100000000E-03 0.  1.
         11    1    3    3    0    0 -0.23943361651E+01  0.97092408468E+01 -0.47424017957E+02  0.48466892648E+02  0.51100000000E-03 0. -1.
<mgrwt>
<rscale>  0 0.20000345E+02</rscale>
<asrwt>0</asrwt>
<pdfrwt beam="1">  1        2 0.15987780E-03 0.20000345E+02</pdfrwt>
<pdfrwt beam="2">  1       -2 0.14804717E-01 0.20000345E+02</pdfrwt>
<totfact> 0.30005988E+06</totfact>
</mgrwt>
</event>
<event>
 5    1  0.4046313E-006  0.2000240E+02  0.7818608E-02  0.1745280E+00
          2   -1    0    0  501    0  0.00000000000E+00  0.00000000000E+00  0.20263926910E+02  0.20263927077E+02  0.26000000000E-02 0. -1.
         -2   -1    0    0    0  501 -0.00000000000E+00 -0.00000000000E+00 -0.49360603490E+01  0.49360610337E+01  0.26000000000E-02 0.  1.
       1023    2    1    2    0    0  0.00000000000E+00  0.00000000000E+00  0.15327866561E+02  0.25199988111E+02  0.20002397543E+02 0.  0.
        -11    1    3    3    0    0  0.79178450781E+01 -0.61088074498E+01  0.75139241973E+01  0.12508751186E+02  0.51100000000E-03 0. -1.
         11    1    3    3    0    0 -0.79178450781E+01  0.61088074498E+01  0.78139423638E+01  0.12691236924E+02  0.51100000000E-03 0.  1.
<mgrwt>
<rscale>  0 0.20002398E+02</rscale>
<asrwt>0</asrwt>
<pdfrwt beam="1">  1        2 0.31175273E-02 0.20002398E+02</pdfrwt>
<pdfrwt beam="2">  1       -2 0.75939397E-03 0.20002398E+02</pdfrwt>
<totfact> 0.41715210E+06</totfact>
</mgrwt>
</event>
<event>
 5    1  0.4046313E-006  0.2000595E+02  0.7818608E-02  0.1745210E+00
         -2   -1    0    0    0  501 -0.00000000000E+00  0.00000000000E+00  0.29601070782E+02  0.29601070896E+02  0.26000000000E-02 0. -1.
          2   -1    0    0  501    0  0.00000000000E+00 -0.00000000000E+00 -0.33802645450E+01  0.33802655449E+01  0.26000000000E-02 0.  1.
       1023    2    1    2    0    0  0.00000000000E+00  0.00000000000E+00  0.26220806237E+02  0.32981336441E+02  0.20005945959E+02 0.  0.
        -11    1    3    3    0    0 -0.72438719898E+01  0.68980130221E+01  0.13203706013E+02  0.16564845843E+02  0.51100000000E-03 0.  1.
         11    1    3    3    0    0  0.72438719898E+01 -0.68980130221E+01  0.13017100224E+02  0.16416490598E+02  0.51100000000E-03 0. -1.
<mgrwt>
<rscale>  0 0.20005946E+02</rscale>
<asrwt>0</asrwt>
<pdfrwt beam="2">  1        2 0.52004077E-03 0.20005946E+02</pdfrwt>
<pdfrwt beam="1">  1       -2 0.45540111E-02 0.20005946E+02</pdfrwt>
<totfact> 0.36090197E+06</totfact>
</mgrwt>
</event>
<event>
 5    1  0.4046313E-006  0.2000072E+02  0.7818608E-02  0.1745314E+00
         -2   -1    0    0    0  501 -0.00000000000E+00  0.00000000000E+00  0.48309403113E+02  0.48309403183E+02  0.26000000000E-02 0.  1.
          2   -1    0    0  501    0  0.00000000000E+00 -0.00000000000E+00 -0.20701383060E+01  0.20701399387E+01  0.26000000000E-02 0. -1.
       1023    2    1    2    0    0  0.00000000000E+00  0.00000000000E+00  0.46239264807E+02  0.50379543122E+02  0.20000718868E+02 0.  0.
        -11    1    3    3    0    0  0.18393333590E+01  0.98297481894E+01  0.23095487746E+02  0.25167611153E+02  0.51100000000E-03 0.  1.
         11    1    3    3    0    0 -0.18393333590E+01 -0.98297481894E+01  0.23143777061E+02  0.25211931969E+02  0.51100000000E-03 0. -1.
<mgrwt>
<rscale>  0 0.20000719E+02</rscale>
<asrwt>0</asrwt>
<pdfrwt beam="2">  1        2 0.31848295E-03 0.20000719E+02</pdfrwt>
<pdfrwt beam="1">  1       -2 0.74322159E-02 0.20000719E+02</pdfrwt>
<totfact> 0.34062133E+06</totfact>
</mgrwt>
</event>
<event>
 5    1  0.4046313E-006  0.2000024E+02  0.7818608E-02  0.1745323E+00
         -2   -1    0    0    0  501 -0.00000000000E+00  0.00000000000E+00  0.21436337311E+02  0.21436337468E+02  0.26000000000E-02 0.  1.
          2   -1    0    0  501    0  0.00000000000E+00 -0.00000000000E+00 -0.46650883650E+01  0.46650890895E+01  0.26000000000E-02 0. -1.
       1023    2    1    2    0    0  0.00000000000E+00  0.00000000000E+00  0.16771248946E+02  0.26101426558E+02  0.20000241927E+02 0.  0.
        -11    1    3    3    0    0  0.27502889672E+01  0.96144539137E+01  0.84177395984E+01  0.13071348579E+02  0.51100000000E-03 0. -1.
         11    1    3    3    0    0 -0.27502889672E+01 -0.96144539137E+01  0.83535093473E+01  0.13030077979E+02  0.51100000000E-03 0.  1.
<mgrwt>
<rscale>  0 0.20000242E+02</rscale>
<asrwt>0</asrwt>
<pdfrwt beam="2">  1        2 0.71770596E-03 0.20000242E+02</pdfrwt>
<pdfrwt beam="1">  1       -2 0.32978982E-02 0.20000242E+02</pdfrwt>
<totfact> 0.37213906E+06</totfact>
</mgrwt>
</event>
<event>
 5    1  0.4046313E-006  0.2000237E+02  0.7818608E-02  0.1745281E+00
          2   -1    0    0  501    0  0.00000000000E+00  0.00000000000E+00  0.31418230072E+01  0.31418240830E+01  0.26000000000E-02 0. -1.
         -2   -1    0    0    0  501 -0.00000000000E+00 -0.00000000000E+00 -0.31836203296E+02  0.31836203402E+02  0.26000000000E-02 0.  1.
       1023    2    1    2    0    0  0.00000000000E+00  0.00000000000E+00 -0.28694380289E+02  0.34978027485E+02  0.20002373524E+02 0.  0.
        -11    1    3    3    0    0 -0.72205332755E+00  0.99739497794E+01 -0.14083716019E+02  0.17272871573E+02  0.51100000000E-03 0.  1.
         11    1    3    3    0    0  0.72205332755E+00 -0.99739497794E+01 -0.14610664270E+02  0.17705155912E+02  0.51100000000E-03 0. -1.
<mgrwt>
<rscale>  0 0.20002374E+02</rscale>
<asrwt>0</asrwt>
<pdfrwt beam="1">  1        2 0.48335750E-03 0.20002374E+02</pdfrwt>
<pdfrwt beam="2">  1       -2 0.48978773E-02 0.20002374E+02</pdfrwt>
<totfact> 0.35832581E+06</totfact>
</mgrwt>
</event>
<event>
 5    1  0.4046313E-006  0.2000138E+02  0.7818608E-02  0.1745301E+00
          2   -1    0    0  501    0  0.00000000000E+00  0.00000000000E+00  0.21792574816E+02  0.21792574971E+02  0.26000000000E-02 0.  1.
         -2   -1    0    0    0  501 -0.00000000000E+00 -0.00000000000E+00 -0.45893511440E+01  0.45893518805E+01  0.26000000000E-02 0. -1.
       1023    2    1    2    0    0  0.00000000000E+00  0.00000000000E+00  0.17203223672E+02  0.26381926852E+02  0.20001378945E+02 0.  0.
        -11    1    3    3    0    0 -0.77780035331E+01 -0.62861861240E+01  0.85782123163E+01  0.13175704981E+02  0.51100000000E-03 0. -1.
         11    1    3    3    0    0  0.77780035331E+01  0.62861861240E+01  0.86250113559E+01  0.13206221871E+02  0.51100000000E-03 0.  1.
<mgrwt>
<rscale>  0 0.20001379E+02</rscale>
<asrwt>0</asrwt>
<pdfrwt beam="1">  1        2 0.33527038E-02 0.20001379E+02</pdfrwt>
<pdfrwt beam="2">  1       -2 0.70605410E-03 0.20001379E+02</pdfrwt>
<totfact> 0.41995630E+06</totfact>
</mgrwt>
</event>
<event>
 5    1  0.4046313E-006  0.2000033E+02  0.7818608E-02  0.1745322E+00
          2   -1    0    0  501    0  0.00000000000E+00  0.00000000000E+00  0.10601659603E+03  0.10601659606E+03  0.26000000000E-02 0. -1.
         -2   -1    0    0    0  501 -0.00000000000E+00 -0.00000000000E+00 -0.94327782631E+00  0.94328140955E+00  0.26000000000E-02 0.  1.
       1023    2    1    2    0    0  0.00000000000E+00  0.00000000000E+00  0.10507331820E+03  0.10695987747E+03  0.20000329757E+02 0.  0.
        -11    1    3    3    0    0  0.48751570520E+01 -0.87312561705E+01  0.52729979501E+02  0.53669849348E+02  0.51100000000E-03 0. -1.
         11    1    3    3    0    0 -0.48751570520E+01  0.87312561705E+01  0.52343338703E+02  0.53290028124E+02  0.51100000000E-03 0.  1.
<mgrwt>
<rscale>  0 0.20000330E+02</rscale>
<asrwt>0</asrwt>
<pdfrwt beam="1">  1        2 0.16310251E-01 0.20000330E+02</pdfrwt>
<pdfrwt beam="2">  1       -2 0.14511989E-03 0.20000330E+02</pdfrwt>
<totfact> 0.53470682E+06</totfact>
</mgrwt>
</event>
<event>
 5    1  0.4046313E-006  0.2000005E+02  0.7818608E-02  0.1745327E+00
          2   -1    0    0  501    0  0.00000000000E+00  0.00000000000E+00  0.51906161914E+01  0.51906168426E+01  0.26000000000E-02 0. -1.
         -2   -1    0    0    0  501 -0.00000000000E+00 -0.00000000000E+00 -0.19265623183E+02  0.19265623359E+02  0.26000000000E-02 0.  1.
       1023    2    1    2    0    0  0.00000000000E+00  0.00000000000E+00 -0.14075006992E+02  0.24456240201E+02  0.20000046574E+02 0.  0.
        -11    1    3    3    0    0 -0.16253028985E+01  0.98670492520E+01 -0.70204267280E+01  0.12218292113E+02  0.51100000000E-03 0. -1.
         11    1    3    3    0    0  0.16253028985E+01 -0.98670492520E+01 -0.70545802639E+01  0.12237948088E+02  0.51100000000E-03 0.  1.
<mgrwt>
<rscale>  0 0.20000047E+02</rscale>
<asrwt>0</asrwt>
<pdfrwt beam="1">  1        2 0.79855641E-03 0.20000047E+02</pdfrwt>
<pdfrwt beam="2">  1       -2 0.29639421E-02 0.20000047E+02</pdfrwt>
<totfact> 0.37549829E+06</totfact>
</mgrwt>
</event>
<event>
 5    1  0.4046313E-006  0.2000127E+02  0.7818608E-02  0.1745303E+00
          2   -1    0    0  501    0  0.00000000000E+00  0.00000000000E+00  0.40855949686E+01  0.40855957959E+01  0.26000000000E-02 0. -1.
         -2   -1    0    0    0  501 -0.00000000000E+00 -0.00000000000E+00 -0.24479355359E+02  0.24479355497E+02  0.26000000000E-02 0.  1.
       1023    2    1    2    0    0  0.00000000000E+00  0.00000000000E+00 -0.20393760390E+02  0.28564951293E+02  0.20001274447E+02 0.  0.
        -11    1    3    3    0    0  0.37007502334E+01 -0.92906790513E+01 -0.10228009120E+02  0.14304699939E+02  0.51100000000E-03 0. -1.
         11    1    3    3    0    0 -0.37007502334E+01  0.92906790513E+01 -0.10165751270E+02  0.14260251354E+02  0.51100000000E-03 0.  1.
<mgrwt>
<rscale>  0 0.20001274E+02</rscale>
<asrwt>0</asrwt>
<pdfrwt beam="1">  1        2 0.62855316E-03 0.20001274E+02</pdfrwt>
<pdfrwt beam="2">  1       -2 0.37660547E-02 0.20001274E+02</pdfrwt>
<totfact> 0.36774924E+06</totfact>
</mgrwt>
</event>
<event>
 5    1  0.4046313E-006  0.2000016E+02  0.7818608E-02  0.1745325E+00
          2   -1    0    0  501    0  0.00000000000E+00  0.00000000000E+00  0.17057019442E+01  0.17057039257E+01  0.26000000000E-02 0. -1.
         -2   -1    0    0    0  501 -0.00000000000E+00 -0.00000000000E+00 -0.58627800177E+02  0.58627800235E+02  0.26000000000E-02 0.  1.
       1023    2    1    2    0    0  0.00000000000E+00  0.00000000000E+00 -0.56922098233E+02  0.60333504161E+02  0.20000161425E+02 0.  0.
        -11    1    3    3    0    0  0.99999712836E+01 -0.31337800403E-01 -0.28356276634E+02  0.30067903693E+02  0.51100000000E-03 0.  1.
         11    1    3    3    0    0 -0.99999712836E+01  0.31337800403E-01 -0.28565821600E+02  0.30265600467E+02  0.51100000000E-03 0. -1.
<mgrwt>
<rscale>  0 0.20000161E+02</rscale>
<asrwt>0</asrwt>
<pdfrwt beam="1">  1        2 0.26241589E-03 0.20000161E+02</pdfrwt>
<pdfrwt beam="2">  1       -2 0.90196601E-02 0.20000161E+02</pdfrwt>
<totfact> 0.33084327E+06</totfact>
</mgrwt>
</event>
<event>
 4    1  0.4046313E-006  0.2006087E+02  0.7818608E-02  0.1744120E+00
         -2   -1    0    0    0  501 -0.00000000000E+00  0.00000000000E+00  0.24886062791E+02  0.24886062927E+02  0.26000000000E-02 0.  1.
          2   -1    0    0  501    0  0.00000000000E+00 -0.00000000000E+00 -0.40428084208E+01  0.40428092569E+01  0.26000000000E-02 0. -1.
        -11    1    1    2    0    0 -0.99702266308E+01 -0.10578265570E+01  0.10842504485E+02  0.14767678215E+02  0.51100000000E-03 0.  1.
         11    1    1    2    0    0  0.99702266308E+01  0.10578265570E+01  0.10000749885E+02  0.14161193969E+02  0.51100000000E-03 0. -1.
<mgrwt>
<rscale>  0 0.20060867E+02</rscale>
<asrwt>0</asrwt>
<pdfrwt beam="2">  1        2 0.62197060E-03 0.20060867E+02</pdfrwt>
<pdfrwt beam="1">  1       -2 0.38286251E-02 0.20060867E+02</pdfrwt>
<totfact> 0.36482366E+06</totfact>
</mgrwt>
</event>
<event>
 5    1  0.4046313E-006  0.2000440E+02  0.7818608E-02  0.1745241E+00
         -2   -1    0    0    0  501 -0.00000000000E+00  0.00000000000E+00  0.16258462293E+01  0.16258483082E+01  0.26000000000E-02 0.  1.
          2   -1    0    0  501    0  0.00000000000E+00 -0.00000000000E+00 -0.61533426514E+02  0.61533426569E+02  0.26000000000E-02 0. -1.
       1023    2    1    2    0    0  0.00000000000E+00  0.00000000000E+00 -0.59907580284E+02  0.63159274877E+02  0.20004395203E+02 0.  0.
        -11    1    3    3    0    0 -0.81486159637E+01  0.57983125308E+01 -0.30438678018E+02  0.32039561327E+02  0.51100000000E-03 0. -1.
         11    1    3    3    0    0  0.81486159637E+01 -0.57983125308E+01 -0.29468902267E+02  0.31119713549E+02  0.51100000000E-03 0.  1.
<mgrwt>
<rscale>  0 0.20004395E+02</rscale>
<asrwt>0</asrwt>
<pdfrwt beam="2">  1        2 0.94666794E-02 0.20004395E+02</pdfrwt>
<pdfrwt beam="1">  1       -2 0.25013040E-03 0.20004395E+02</pdfrwt>
<totfact> 0.47880036E+06</totfact>
</mgrwt>
</event>
<event>
 5    1  0.4046313E-006  0.2000541E+02  0.7818608E-02  0.1745220E+00
          2   -1    0    0  501    0  0.00000000000E+00  0.00000000000E+00  0.12908950875E+02  0.12908951137E+02  0.26000000000E-02 0. -1.
         -2   -1    0    0    0  501 -0.00000000000E+00 -0.00000000000E+00 -0.77507571633E+01  0.77507575993E+01  0.26000000000E-02 0.  1.
       1023    2    1    2    0    0  0.00000000000E+00  0.00000000000E+00  0.51581937118E+01  0.20659708736E+02  0.20005414335E+02 0.  0.
        -11    1    3    3    0    0  0.91042787547E+01  0.41402252832E+01  0.24164878960E+01  0.10289255126E+02  0.51100000000E-03 0.  1.
         11    1    3    3    0    0 -0.91042787547E+01 -0.41402252832E+01  0.27417058159E+01  0.10370453610E+02  0.51100000000E-03 0. -1.
<mgrwt>
<rscale>  0 0.20005414E+02</rscale>
<asrwt>0</asrwt>
<pdfrwt beam="1">  1        2 0.19859925E-02 0.20005414E+02</pdfrwt>
<pdfrwt beam="2">  1       -2 0.11924242E-02 0.20005414E+02</pdfrwt>
<totfact> 0.40194848E+06</totfact>
</mgrwt>
</event>
<event>
 5    1  0.4102105E-006  0.2000050E+02  0.7818608E-02  0.1745318E+00
          2   -1    0    0  501    0  0.00000000000E+00  0.00000000000E+00  0.76804233953E+02  0.76804233997E+02  0.26000000000E-02 0.  1.
         -2   -1    0    0    0  501 -0.00000000000E+00 -0.00000000000E+00 -0.13020749454E+01  0.13020775412E+01  0.26000000000E-02 0. -1.
       1023    2    1    2    0    0  0.00000000000E+00  0.00000000000E+00  0.75502159007E+02  0.78106311538E+02  0.20000497176E+02 0.  0.
        -11    1    3    3    0    0 -0.73144311150E+01  0.68193890564E+01  0.37745662141E+02  0.39047919027E+02  0.51100000000E-03 0. -1.
         11    1    3    3    0    0  0.73144311150E+01 -0.68193890564E+01  0.37756496867E+02  0.39058392511E+02  0.51100000000E-03 0.  1.
<mgrwt>
<rscale>  0 0.20000497E+02</rscale>
<asrwt>0</asrwt>
<pdfrwt beam="1">  1        2 0.11816040E-01 0.20000497E+02</pdfrwt>
<pdfrwt beam="2">  1       -2 0.20031936E-03 0.20000497E+02</pdfrwt>
<totfact> 0.49892053E+06</totfact>
</mgrwt>
</event>
<event>
 5    1  0.4046313E-006  0.2000148E+02  0.7818608E-02  0.1745299E+00
         -2   -1    0    0    0  501 -0.00000000000E+00  0.00000000000E+00  0.32889673301E+01  0.32889683578E+01  0.26000000000E-02 0.  1.
          2   -1    0    0  501    0  0.00000000000E+00 -0.00000000000E+00 -0.30409166756E+02  0.30409166867E+02  0.26000000000E-02 0. -1.
       1023    2    1    2    0    0  0.00000000000E+00  0.00000000000E+00 -0.27120199426E+02  0.33698135225E+02  0.20001477464E+02 0.  0.
        -11    1    3    3    0    0  0.99622569673E+01  0.87378920979E+00 -0.13675645044E+02  0.16942058290E+02  0.51100000000E-03 0.  1.
         11    1    3    3    0    0 -0.99622569673E+01 -0.87378920979E+00 -0.13444554382E+02  0.16756076935E+02  0.51100000000E-03 0. -1.
<mgrwt>
<rscale>  0 0.20001477E+02</rscale>
<asrwt>0</asrwt>
<pdfrwt beam="2">  1        2 0.46783333E-02 0.20001477E+02</pdfrwt>
<pdfrwt beam="1">  1       -2 0.50599508E-03 0.20001477E+02</pdfrwt>
<totfact> 0.43430837E+06</totfact>
</mgrwt>
</event>
<event>
 5    1  0.4046313E-006  0.2000079E+02  0.7818608E-02  0.1745312E+00
          2   -1    0    0  501    0  0.00000000000E+00  0.00000000000E+00  0.25139767519E+02  0.25139767654E+02  0.26000000000E-02 0. -1.
         -2   -1    0    0    0  501 -0.00000000000E+00 -0.00000000000E+00 -0.39780744410E+01  0.39780752906E+01  0.26000000000E-02 0.  1.
       1023    2    1    2    0    0  0.00000000000E+00  0.00000000000E+00  0.21161693078E+02  0.29117842944E+02  0.20000788079E+02 0.  0.
        -11    1    3    3    0    0  0.89152190915E+01 -0.45301348196E+01  0.10481809616E+02  0.14486945366E+02  0.51100000000E-03 0. -1.
         11    1    3    3    0    0 -0.89152190915E+01  0.45301348196E+01  0.10679883462E+02  0.14630897578E+02  0.51100000000E-03 0.  1.
<mgrwt>
<rscale>  0 0.20000788E+02</rscale>
<asrwt>0</asrwt>
<pdfrwt beam="1">  1        2 0.38676566E-02 0.20000788E+02</pdfrwt>
<pdfrwt beam="2">  1       -2 0.61201153E-03 0.20000788E+02</pdfrwt>
<totfact> 0.42576427E+06</totfact>
</mgrwt>
</event>
<event>
 5    1  0.4046313E-006  0.2000500E+02  0.7818608E-02  0.1745229E+00
         -2   -1    0    0    0  501 -0.00000000000E+00  0.00000000000E+00  0.32437109147E+02  0.32437109251E+02  0.26000000000E-02 0.  1.
          2   -1    0    0  501    0  0.00000000000E+00 -0.00000000000E+00 -0.30844298951E+01  0.30844309910E+01  0.26000000000E-02 0. -1.
       1023    2    1    2    0    0  0.00000000000E+00  0.00000000000E+00  0.29352679252E+02  0.35521540242E+02  0.20005000423E+02 0.  0.
        -11    1    3    3    0    0  0.87324027544E+01 -0.48780272570E+01  0.14679108066E+02  0.17763057779E+02  0.51100000000E-03 0.  1.
         11    1    3    3    0    0 -0.87324027544E+01  0.48780272570E+01  0.14673571186E+02  0.17758482463E+02  0.51100000000E-03 0. -1.
<mgrwt>
<rscale>  0 0.20005000E+02</rscale>
<asrwt>0</asrwt>
<pdfrwt beam="2">  1        2 0.47452777E-03 0.20005000E+02</pdfrwt>
<pdfrwt beam="1">  1       -2 0.49903246E-02 0.20005000E+02</pdfrwt>
<totfact> 0.35750950E+06</totfact>
</mgrwt>
</event>
<event>
 5    1  0.4046313E-006  0.2000035E+02  0.7818608E-02  0.1745321E+00
         -2   -1    0    0    0  501 -0.00000000000E+00  0.00000000000E+00  0.27778864945E+01  0.27778877112E+01  0.26000000000E-02 0.  1.
          2   -1    0    0  501    0  0.00000000000E+00 -0.00000000000E+00 -0.35999826302E+02  0.35999826396E+02  0.26000000000E-02 0. -1.
       1023    2    1    2    0    0  0.00000000000E+00  0.00000000000E+00 -0.33221939807E+02  0.38777714107E+02  0.20000345667E+02 0.  0.
        -11    1    3    3    0    0 -0.99521861577E+01  0.97796401721E+00 -0.16673300366E+02  0.19442257284E+02  0.51100000000E-03 0.  1.
         11    1    3    3    0    0  0.99521861577E+01 -0.97796401721E+00 -0.16548639442E+02  0.19335456823E+02  0.51100000000E-03 0. -1.
<mgrwt>
<rscale>  0 0.20000346E+02</rscale>
<asrwt>0</asrwt>
<pdfrwt beam="2">  1        2 0.55384346E-02 0.20000346E+02</pdfrwt>
<pdfrwt beam="1">  1       -2 0.42736728E-03 0.20000346E+02</pdfrwt>
<totfact> 0.44298845E+06</totfact>
</mgrwt>
</event>
<event>
 5    1  0.4046313E-006  0.2000315E+02  0.7818608E-02  0.1745265E+00
         -2   -1    0    0    0  501 -0.00000000000E+00  0.00000000000E+00  0.17855683902E+01  0.17855702832E+01  0.26000000000E-02 0. -1.
          2   -1    0    0  501    0  0.00000000000E+00 -0.00000000000E+00 -0.56022191932E+02  0.56022191993E+02  0.26000000000E-02 0.  1.
       1023    2    1    2    0    0  0.00000000000E+00  0.00000000000E+00 -0.54236623542E+02  0.57807762276E+02  0.20003150904E+02 0.  0.
        -11    1    3    3    0    0  0.61628382889E+01  0.78771964236E+01 -0.27195424365E+02  0.28976230016E+02  0.51100000000E-03 0. -1.
         11    1    3    3    0    0 -0.61628382889E+01 -0.78771964236E+01 -0.27041199177E+02  0.28831532260E+02  0.51100000000E-03 0.  1.
<mgrwt>
<rscale>  0 0.20003151E+02</rscale>
<asrwt>0</asrwt>
<pdfrwt beam="2">  1        2 0.86187976E-02 0.20003151E+02</pdfrwt>
<pdfrwt beam="1">  1       -2 0.27470302E-03 0.20003151E+02</pdfrwt>
<totfact> 0.47142584E+06</totfact>
</mgrwt>
</event>
<event>
 5    1  0.4046313E-006  0.2000093E+02  0.7818608E-02  0.1745310E+00
         -2   -1    0    0    0  501 -0.00000000000E+00  0.00000000000E+00  0.46650611034E+01  0.46650618280E+01  0.26000000000E-02 0.  1.
          2   -1    0    0  501    0  0.00000000000E+00 -0.00000000000E+00 -0.21437937460E+02  0.21437937618E+02  0.26000000000E-02 0. -1.
       1023    2    1    2    0    0  0.00000000000E+00  0.00000000000E+00 -0.16772876357E+02  0.26102999446E+02  0.20000929948E+02 0.  0.
        -11    1    3    3    0    0 -0.77607563429E+01 -0.63070088268E+01 -0.83342332549E+01  0.13017954661E+02  0.51100000000E-03 0. -1.
         11    1    3    3    0    0  0.77607563429E+01  0.63070088268E+01 -0.84386431021E+01  0.13085044785E+02  0.51100000000E-03 0.  1.
<mgrwt>
<rscale>  0 0.20000930E+02</rscale>
<asrwt>0</asrwt>
<pdfrwt beam="2">  1        2 0.32981442E-02 0.20000930E+02</pdfrwt>
<pdfrwt beam="1">  1       -2 0.71770179E-03 0.20000930E+02</pdfrwt>
<totfact> 0.41934550E+06</totfact>
</mgrwt>
</event>
<event>
 5    1  0.4046313E-006  0.2000267E+02  0.7818608E-02  0.1745275E+00
          2   -1    0    0  501    0  0.00000000000E+00  0.00000000000E+00  0.16333199896E+02  0.16333200103E+02  0.26000000000E-02 0.  1.
         -2   -1    0    0    0  501 -0.00000000000E+00 -0.00000000000E+00 -0.61241363418E+01  0.61241368937E+01  0.26000000000E-02 0. -1.
       1023    2    1    2    0    0  0.00000000000E+00  0.00000000000E+00  0.10209063555E+02  0.22457336997E+02  0.20002674979E+02 0.  0.
        -11    1    3    3    0    0 -0.95742604926E+01  0.28905607497E+01  0.50255744264E+01  0.11192774634E+02  0.51100000000E-03 0. -1.
         11    1    3    3    0    0  0.95742604926E+01 -0.28905607497E+01  0.51834891282E+01  0.11264562363E+02  0.51100000000E-03 0.  1.
<mgrwt>
<rscale>  0 0.20002675E+02</rscale>
<asrwt>0</asrwt>
<pdfrwt beam="1">  1        2 0.25128000E-02 0.20002675E+02</pdfrwt>
<pdfrwt beam="2">  1       -2 0.94217490E-03 0.20002675E+02</pdfrwt>
<totfact> 0.40956101E+06</totfact>
</mgrwt>
</event>
<event>
 5    1  0.4046313E-006  0.2000032E+02  0.7818608E-02  0.1745322E+00
          2   -1    0    0  501    0  0.00000000000E+00  0.00000000000E+00  0.46505888097E+01  0.46505895365E+01  0.26000000000E-02 0. -1.
         -2   -1    0    0    0  501 -0.00000000000E+00 -0.00000000000E+00 -0.21503344406E+02  0.21503344563E+02  0.26000000000E-02 0.  1.
       1023    2    1    2    0    0  0.00000000000E+00  0.00000000000E+00 -0.16852755596E+02  0.26153934099E+02  0.20000322440E+02 0.  0.
        -11    1    3    3    0    0  0.33882217766E+01  0.94085584835E+01 -0.84877775476E+01  0.13116531077E+02  0.51100000000E-03 0.  1.
         11    1    3    3    0    0 -0.33882217766E+01 -0.94085584835E+01 -0.83649780482E+01  0.13037403022E+02  0.51100000000E-03 0. -1.
<mgrwt>
<rscale>  0 0.20000322E+02</rscale>
<asrwt>0</asrwt>
<pdfrwt beam="1">  1        2 0.71547528E-03 0.20000322E+02</pdfrwt>
<pdfrwt beam="2">  1       -2 0.33082068E-02 0.20000322E+02</pdfrwt>
<totfact> 0.37203602E+06</totfact>
</mgrwt>
</event>
<event>
 5    1  0.4046313E-006  0.2000432E+02  0.7818608E-02  0.1745242E+00
          2   -1    0    0  501    0  0.00000000000E+00  0.00000000000E+00  0.11488841286E+03  0.11488841289E+03  0.26000000000E-02 0. -1.
         -2   -1    0    0    0  501 -0.00000000000E+00 -0.00000000000E+00 -0.87078362660E+00  0.87078750815E+00  0.26000000000E-02 0.  1.
       1023    2    1    2    0    0  0.00000000000E+00  0.00000000000E+00  0.11401762924E+03  0.11575920040E+03  0.20004317051E+02 0.  0.
        -11    1    3    3    0    0  0.58499748949E+00 -0.99842955989E+01  0.56304967753E+02  0.57186342553E+02  0.51100000000E-03 0.  1.
         11    1    3    3    0    0 -0.58499748949E+00  0.99842955989E+01  0.57712661485E+02  0.58572857849E+02  0.51100000000E-03 0. -1.
<mgrwt>
<rscale>  0 0.20004317E+02</rscale>
<asrwt>0</asrwt>
<pdfrwt beam="1">  1        2 0.17675138E-01 0.20004317E+02</pdfrwt>
<pdfrwt beam="2">  1       -2 0.13396703E-03 0.20004317E+02</pdfrwt>
<totfact> 0.54480573E+06</totfact>
</mgrwt>
</event>
<event>
 5    1  0.4046313E-006  0.2000385E+02  0.7818608E-02  0.1745252E+00
          2   -1    0    0  501    0  0.00000000000E+00  0.00000000000E+00  0.34703351916E+01  0.34703361655E+01  0.26000000000E-02 0.  1.
         -2   -1    0    0    0  501 -0.00000000000E+00 -0.00000000000E+00 -0.28826746990E+02  0.28826747107E+02  0.26000000000E-02 0. -1.
       1023    2    1    2    0    0  0.00000000000E+00  0.00000000000E+00 -0.25356411799E+02  0.32297083273E+02  0.20003848846E+02 0.  0.
        -11    1    3    3    0    0  0.99583340868E+01 -0.92773573954E+00 -0.12521832453E+02  0.16025772980E+02  0.51100000000E-03 0.  1.
         11    1    3    3    0    0 -0.99583340868E+01  0.92773573954E+00 -0.12834579346E+02  0.16271310293E+02  0.51100000000E-03 0. -1.
<mgrwt>
<rscale>  0 0.20003849E+02</rscale>
<asrwt>0</asrwt>
<pdfrwt beam="1">  1        2 0.53389783E-03 0.20003849E+02</pdfrwt>
<pdfrwt beam="2">  1       -2 0.44348841E-02 0.20003849E+02</pdfrwt>
<totfact> 0.36194987E+06</totfact>
</mgrwt>
</event>
<event>
 5    1  0.4046313E-006  0.2000125E+02  0.7818608E-02  0.1745303E+00
         -2   -1    0    0    0  501 -0.00000000000E+00  0.00000000000E+00  0.91960605259E+01  0.91960608935E+01  0.26000000000E-02 0. -1.
          2   -1    0    0  501    0  0.00000000000E+00 -0.00000000000E+00 -0.10875581701E+02  0.10875582011E+02  0.26000000000E-02 0.  1.
       1023    2    1    2    0    0  0.00000000000E+00  0.00000000000E+00 -0.16795211747E+01  0.20071642905E+02  0.20001251399E+02 0.  0.
        -11    1    3    3    0    0 -0.62131926793E+01 -0.78363684804E+01 -0.84873013419E+00  0.10036571991E+02  0.51100000000E-03 0.  1.
         11    1    3    3    0    0  0.62131926793E+01  0.78363684804E+01 -0.83079104050E+00  0.10035070914E+02  0.51100000000E-03 0. -1.
<mgrwt>
<rscale>  0 0.20001251E+02</rscale>
<asrwt>0</asrwt>
<pdfrwt beam="2">  1        2 0.16731665E-02 0.20001251E+02</pdfrwt>
<pdfrwt beam="1">  1       -2 0.14147786E-02 0.20001251E+02</pdfrwt>
<totfact> 0.39701786E+06</totfact>
</mgrwt>
</event>
<event>
 5    1  0.4046313E-006  0.2000388E+02  0.7818608E-02  0.1745251E+00
          2   -1    0    0  501    0  0.00000000000E+00  0.00000000000E+00  0.71821045729E+02  0.71821045776E+02  0.26000000000E-02 0. -1.
         -2   -1    0    0    0  501 -0.00000000000E+00 -0.00000000000E+00 -0.13928881519E+01  0.13928905785E+01  0.26000000000E-02 0.  1.
       1023    2    1    2    0    0  0.00000000000E+00  0.00000000000E+00  0.70428157577E+02  0.73213936354E+02  0.20003877045E+02 0.  0.
        -11    1    3    3    0    0 -0.90939789002E+01 -0.41634643273E+01  0.35442249115E+02  0.36826456659E+02  0.51100000000E-03 0.  1.
         11    1    3    3    0    0  0.90939789002E+01  0.41634643273E+01  0.34985908462E+02  0.36387479696E+02  0.51100000000E-03 0. -1.
<mgrwt>
<rscale>  0 0.20003877E+02</rscale>
<asrwt>0</asrwt>
<pdfrwt beam="1">  1        2 0.11049392E-01 0.20003877E+02</pdfrwt>
<pdfrwt beam="2">  1       -2 0.21429066E-03 0.20003877E+02</pdfrwt>
<totfact> 0.49234739E+06</totfact>
</mgrwt>
</event>
<event>
 4    1  0.4046313E-006  0.2003465E+02  0.7818608E-02  0.1744640E+00
          2   -1    0    0  501    0  0.00000000000E+00  0.00000000000E+00  0.28266643888E+02  0.28266644008E+02  0.26000000000E-02 0.  1.
         -2   -1    0    0    0  501 -0.00000000000E+00 -0.00000000000E+00 -0.35500067681E+01  0.35500077202E+01  0.26000000000E-02 0. -1.
        -11    1    1    2    0    0  0.85188049958E+01 -0.52586688261E+01  0.12915636726E+02  0.16341276225E+02  0.51100000000E-03 0.  1.
         11    1    1    2    0    0 -0.85188049958E+01  0.52586688261E+01  0.11801000394E+02  0.15475375503E+02  0.51100000000E-03 0. -1.
<mgrwt>
<rscale>  0 0.20034649E+02</rscale>
<asrwt>0</asrwt>
<pdfrwt beam="1">  1        2 0.43487143E-02 0.20034649E+02</pdfrwt>
<pdfrwt beam="2">  1       -2 0.54615500E-03 0.20034649E+02</pdfrwt>
<totfact> 0.42928652E+06</totfact>
</mgrwt>
</event>
<event>
 5    1  0.4046313E-006  0.2000070E+02  0.7818608E-02  0.1745314E+00
          2   -1    0    0  501    0  0.00000000000E+00  0.00000000000E+00  0.17476645526E+01  0.17476664866E+01  0.26000000000E-02 0. -1.
         -2   -1    0    0    0  501 -0.00000000000E+00 -0.00000000000E+00 -0.57223188708E+02  0.57223188767E+02  0.26000000000E-02 0.  1.
       1023    2    1    2    0    0  0.00000000000E+00  0.00000000000E+00 -0.55475524155E+02  0.58970855254E+02  0.20000699713E+02 0.  0.
        -11    1    3    3    0    0 -0.92200435810E+01 -0.38726964764E+01 -0.27749317568E+02  0.29496298198E+02  0.51100000000E-03 0. -1.
         11    1    3    3    0    0  0.92200435810E+01  0.38726964764E+01 -0.27726206587E+02  0.29474557055E+02  0.51100000000E-03 0.  1.
<mgrwt>
<rscale>  0 0.20000700E+02</rscale>
<asrwt>0</asrwt>
<pdfrwt beam="1">  1        2 0.26887167E-03 0.20000700E+02</pdfrwt>
<pdfrwt beam="2">  1       -2 0.88035662E-02 0.20000700E+02</pdfrwt>
<totfact> 0.33211394E+06</totfact>
</mgrwt>
</event>
<event>
 5    1  0.4046313E-006  0.2000034E+02  0.7818608E-02  0.1745321E+00
          2   -1    0    0  501    0  0.00000000000E+00  0.00000000000E+00  0.31294465201E+02  0.31294465309E+02  0.26000000000E-02 0. -1.
         -2   -1    0    0    0  501 -0.00000000000E+00 -0.00000000000E+00 -0.31955620737E+01  0.31955631314E+01  0.26000000000E-02 0.  1.
       1023    2    1    2    0    0  0.00000000000E+00  0.00000000000E+00  0.28098903127E+02  0.34490028440E+02  0.20000342619E+02 0.  0.
        -11    1    3    3    0    0 -0.80019989603E+01  0.59975346751E+01  0.14104429925E+02  0.17289804895E+02  0.51100000000E-03 0. -1.
         11    1    3    3    0    0  0.80019989603E+01 -0.59975346751E+01  0.13994473203E+02  0.17200223546E+02  0.51100000000E-03 0.  1.
<mgrwt>
<rscale>  0 0.20000343E+02</rscale>
<asrwt>0</asrwt>
<pdfrwt beam="1">  1        2 0.48145333E-02 0.20000343E+02</pdfrwt>
<pdfrwt beam="2">  1       -2 0.49162501E-03 0.20000343E+02</pdfrwt>
<totfact> 0.43575687E+06</totfact>
</mgrwt>
</event>
<event>
 5    1  0.4145752E-006  0.2000152E+02  0.7818608E-02  0.1745298E+00
         -2   -1    0    0    0  501 -0.00000000000E+00  0.00000000000E+00  0.19243119317E+01  0.19243136882E+01  0.26000000000E-02 0. -1.
          2   -1    0    0  501    0  0.00000000000E+00 -0.00000000000E+00 -0.51974489382E+02  0.51974489447E+02  0.26000000000E-02 0.  1.
       1023    2    1    2    0    0  0.00000000000E+00  0.00000000000E+00 -0.50050177450E+02  0.53898803135E+02  0.20001517858E+02 0.  0.
        -11    1    3    3    0    0 -0.83545023869E+01 -0.54968837359E+01 -0.25137428918E+02  0.27053720147E+02  0.51100000000E-03 0. -1.
         11    1    3    3    0    0  0.83545023869E+01  0.54968837359E+01 -0.24912748532E+02  0.26845082988E+02  0.51100000000E-03 0.  1.
<mgrwt>
<rscale>  0 0.20001518E+02</rscale>
<asrwt>0</asrwt>
<pdfrwt beam="2">  1        2 0.79960744E-02 0.20001518E+02</pdfrwt>
<pdfrwt beam="1">  1       -2 0.29604817E-03 0.20001518E+02</pdfrwt>
<totfact> 0.46594976E+06</totfact>
</mgrwt>
</event>
<event>
 5    1  0.4046313E-006  0.2000093E+02  0.7818608E-02  0.1745310E+00
         -2   -1    0    0    0  501 -0.00000000000E+00  0.00000000000E+00  0.11214952927E+02  0.11214953228E+02  0.26000000000E-02 0. -1.
          2   -1    0    0  501    0  0.00000000000E+00 -0.00000000000E+00 -0.89174969716E+01  0.89174973507E+01  0.26000000000E-02 0.  1.
       1023    2    1    2    0    0  0.00000000000E+00  0.00000000000E+00  0.22974559550E+01  0.20132450579E+02  0.20000931539E+02 0.  0.
        -11    1    3    3    0    0 -0.54033115304E+01  0.84150313008E+01  0.11769849852E+01  0.10069449896E+02  0.51100000000E-03 0. -1.
         11    1    3    3    0    0  0.54033115304E+01 -0.84150313008E+01  0.11204709698E+01  0.10063000683E+02  0.51100000000E-03 0.  1.
<mgrwt>
<rscale>  0 0.20000932E+02</rscale>
<asrwt>0</asrwt>
<pdfrwt beam="2">  1        2 0.13719227E-02 0.20000932E+02</pdfrwt>
<pdfrwt beam="1">  1       -2 0.17253774E-02 0.20000932E+02</pdfrwt>
<totfact> 0.39129587E+06</totfact>
</mgrwt>
</event>
<event>
 5    1  0.4046313E-006  0.2000232E+02  0.7818608E-02  0.1745282E+00
         -2   -1    0    0    0  501 -0.00000000000E+00  0.00000000000E+00  0.24130704751E+01  0.24130718758E+01  0.26000000000E-02 0.  1.
          2   -1    0    0  501    0  0.00000000000E+00 -0.00000000000E+00 -0.41450578577E+02  0.41450578659E+02  0.26000000000E-02 0. -1.
       1023    2    1    2    0    0  0.00000000000E+00  0.00000000000E+00 -0.39037508102E+02  0.43863650535E+02  0.20002319850E+02 0.  0.
        -11    1    3    3    0    0 -0.67162827226E+01  0.74098676374E+01 -0.19315300729E+02  0.21750757102E+02  0.51100000000E-03 0.  1.
         11    1    3    3    0    0  0.67162827226E+01 -0.74098676374E+01 -0.19722207373E+02  0.22112893432E+02  0.51100000000E-03 0. -1.
<mgrwt>
<rscale>  0 0.20002320E+02</rscale>
<asrwt>0</asrwt>
<pdfrwt beam="2">  1        2 0.63770117E-02 0.20002320E+02</pdfrwt>
<pdfrwt beam="1">  1       -2 0.37124176E-03 0.20002320E+02</pdfrwt>
<totfact> 0.45097051E+06</totfact>
</mgrwt>
</event>
<event>
 5    1  0.4046313E-006  0.2000083E+02  0.7818608E-02  0.1745312E+00
         -2   -1    0    0    0  501 -0.00000000000E+00  0.00000000000E+00  0.38811035611E+02  0.38811035698E+02  0.26000000000E-02 0. -1.
          2   -1    0    0  501    0  0.00000000000E+00 -0.00000000000E+00 -0.25768006566E+01  0.25768019683E+01  0.26000000000E-02 0.  1.
       1023    2    1    2    0    0  0.00000000000E+00  0.00000000000E+00  0.36234234954E+02  0.41387837666E+02  0.20000833082E+02 0.  0.
        -11    1    3    3    0    0 -0.92387585495E+01 -0.38279426653E+01  0.18164582938E+02  0.20735473908E+02  0.51100000000E-03 0.  1.
         11    1    3    3    0    0  0.92387585495E+01  0.38279426653E+01  0.18069652016E+02  0.20652363758E+02  0.51100000000E-03 0. -1.
<mgrwt>
<rscale>  0 0.20000833E+02</rscale>
<asrwt>0</asrwt>
<pdfrwt beam="2">  1        2 0.39643096E-03 0.20000833E+02</pdfrwt>
<pdfrwt beam="1">  1       -2 0.59709289E-02 0.20000833E+02</pdfrwt>
<totfact> 0.35045717E+06</totfact>
</mgrwt>
</event>
<event>
 5    1  0.4046313E-006  0.2000030E+02  0.7818608E-02  0.1745322E+00
          2   -1    0    0  501    0  0.00000000000E+00  0.00000000000E+00  0.97546803857E+01  0.97546807322E+01  0.26000000000E-02 0. -1.
         -2   -1    0    0    0  501 -0.00000000000E+00 -0.00000000000E+00 -0.10251792771E+02  0.10251793100E+02  0.26000000000E-02 0.  1.
       1023    2    1    2    0    0  0.00000000000E+00  0.00000000000E+00 -0.49711238505E+00  0.20006473833E+02  0.20000296860E+02 0.  0.
        -11    1    3    3    0    0  0.29959353451E+01 -0.95408136890E+01 -0.23392558231E+00  0.10002873381E+02  0.51100000000E-03 0. -1.
         11    1    3    3    0    0 -0.29959353451E+01  0.95408136890E+01 -0.26318680274E+00  0.10003600452E+02  0.51100000000E-03 0.  1.
<mgrwt>
<rscale>  0 0.20000297E+02</rscale>
<asrwt>0</asrwt>
<pdfrwt beam="1">  1        2 0.15007201E-02 0.20000297E+02</pdfrwt>
<pdfrwt beam="2">  1       -2 0.15771989E-02 0.20000297E+02</pdfrwt>
<totfact> 0.39390108E+06</totfact>
</mgrwt>
</event>
<event>
 5    1  0.4046313E-006  0.2000086E+02  0.7818608E-02  0.1745311E+00
         -2   -1    0    0    0  501 -0.00000000000E+00  0.00000000000E+00  0.76473886643E+02  0.76473886687E+02  0.26000000000E-02 0. -1.
          2   -1    0    0  501    0  0.00000000000E+00 -0.00000000000E+00 -0.13077466827E+01  0.13077492673E+01  0.26000000000E-02 0.  1.
       1023    2    1    2    0    0  0.00000000000E+00  0.00000000000E+00  0.75166139960E+02  0.77781635954E+02  0.20000857362E+02 0.  0.
        -11    1    3    3    0    0 -0.23937246929E+01 -0.97097119633E+01  0.37535562715E+02  0.38844908197E+02  0.51100000000E-03 0. -1.
         11    1    3    3    0    0  0.23937246929E+01  0.97097119633E+01  0.37630577246E+02  0.38936727757E+02  0.51100000000E-03 0.  1.
<mgrwt>
<rscale>  0 0.20000857E+02</rscale>
<asrwt>0</asrwt>
<pdfrwt beam="2">  1        2 0.20119196E-03 0.20000857E+02</pdfrwt>
<pdfrwt beam="1">  1       -2 0.11765216E-01 0.20000857E+02</pdfrwt>
<totfact> 0.31540564E+06</totfact>
</mgrwt>
</event>
<event>
 4    1  0.4046313E-006  0.2528606E+02  0.7818608E-02  0.1656927E+00
          2   -1    0    0  501    0  0.00000000000E+00  0.00000000000E+00  0.73355568963E+02  0.73355569009E+02  0.26000000000E-02 0.  1.
         -2   -1    0    0    0  501 -0.00000000000E+00 -0.00000000000E+00 -0.21790594446E+01  0.21790609957E+01  0.26000000000E-02 0. -1.
        -11    1    1    2    0    0 -0.12029125064E+02 -0.38344450911E+01  0.37577352644E+02  0.39641647934E+02  0.51100000000E-03 0.  1.
         11    1    1    2    0    0  0.12029125064E+02  0.38344450911E+01  0.33599156875E+02  0.35892982071E+02  0.51100000000E-03 0. -1.
<mgrwt>
<rscale>  0 0.25286060E+02</rscale>
<asrwt>0</asrwt>
<pdfrwt beam="1">  1        2 0.11285470E-01 0.25286060E+02</pdfrwt>
<pdfrwt beam="2">  1       -2 0.33524010E-03 0.25286060E+02</pdfrwt>
<totfact> 0.29091368E+06</totfact>
</mgrwt>
</event>
<event>
 5    1  0.4046313E-006  0.2000197E+02  0.7818608E-02  0.1745289E+00
          2   -1    0    0  501    0  0.00000000000E+00  0.00000000000E+00  0.53457232899E+02  0.53457232963E+02  0.26000000000E-02 0. -1.
         -2   -1    0    0    0  501 -0.00000000000E+00 -0.00000000000E+00 -0.18710214416E+01  0.18710232481E+01  0.26000000000E-02 0.  1.
       1023    2    1    2    0    0  0.00000000000E+00  0.00000000000E+00  0.51586211458E+02  0.55328256211E+02  0.20001967972E+02 0.  0.
        -11    1    3    3    0    0  0.36690664805E+01  0.93025948110E+01  0.25408210709E+02  0.27305264891E+02  0.51100000000E-03 0.  1.
         11    1    3    3    0    0 -0.36690664805E+01 -0.93025948110E+01  0.26178000749E+02  0.28022991320E+02  0.51100000000E-03 0. -1.
<mgrwt>
<rscale>  0 0.20001968E+02</rscale>
<asrwt>0</asrwt>
<pdfrwt beam="1">  1        2 0.82241892E-02 0.20001968E+02</pdfrwt>
<pdfrwt beam="2">  1       -2 0.28784962E-03 0.20001968E+02</pdfrwt>
<totfact> 0.46797420E+06</totfact>
</mgrwt>
</event>
<event>
 5    1  0.4046313E-006  0.2000116E+02  0.7818608E-02  0.1745305E+00
          2   -1    0    0  501    0  0.00000000000E+00  0.00000000000E+00  0.45358086021E+01  0.45358093473E+01  0.26000000000E-02 0. -1.
         -2   -1    0    0    0  501 -0.00000000000E+00 -0.00000000000E+00 -0.22049337966E+02  0.22049338120E+02  0.26000000000E-02 0.  1.
       1023    2    1    2    0    0  0.00000000000E+00  0.00000000000E+00 -0.17513529364E+02  0.26585147467E+02  0.20001158843E+02 0.  0.
        -11    1    3    3    0    0  0.10545368944E+01 -0.99445457135E+01 -0.88557952183E+01  0.13357812198E+02  0.51100000000E-03 0. -1.
         11    1    3    3    0    0 -0.10545368944E+01  0.99445457135E+01 -0.86577341461E+01  0.13227335269E+02  0.51100000000E-03 0.  1.
<mgrwt>
<rscale>  0 0.20001159E+02</rscale>
<asrwt>0</asrwt>
<pdfrwt beam="1">  1        2 0.69781679E-03 0.20001159E+02</pdfrwt>
<pdfrwt beam="2">  1       -2 0.33922059E-02 0.20001159E+02</pdfrwt>
<totfact> 0.37119658E+06</totfact>
</mgrwt>
</event>
<event>
 5    1  0.4046313E-006  0.2000065E+02  0.7818608E-02  0.1745315E+00
          2   -1    0    0  501    0  0.00000000000E+00  0.00000000000E+00  0.15013648022E+01  0.15013670535E+01  0.26000000000E-02 0. -1.
         -2   -1    0    0    0  501 -0.00000000000E+00 -0.00000000000E+00 -0.66610338347E+02  0.66610338398E+02  0.26000000000E-02 0.  1.
       1023    2    1    2    0    0  0.00000000000E+00  0.00000000000E+00 -0.65108973545E+02  0.68111705452E+02  0.20000649575E+02 0.  0.
        -11    1    3    3    0    0 -0.99999141006E+01  0.80799146640E-01 -0.32414693298E+02  0.33922222103E+02  0.51100000000E-03 0.  1.
         11    1    3    3    0    0  0.99999141006E+01 -0.80799146640E-01 -0.32694280247E+02  0.34189483349E+02  0.51100000000E-03 0. -1.
<mgrwt>
<rscale>  0 0.20000650E+02</rscale>
<asrwt>0</asrwt>
<pdfrwt beam="1">  1        2 0.23097943E-03 0.20000650E+02</pdfrwt>
<pdfrwt beam="2">  1       -2 0.10247742E-01 0.20000650E+02</pdfrwt>
<totfact> 0.32371828E+06</totfact>
</mgrwt>
</event>
<event>
 5    1  0.4046313E-006  0.2000317E+02  0.7818608E-02  0.1745265E+00
          2   -1    0    0  501    0  0.00000000000E+00  0.00000000000E+00  0.11123218744E+02  0.11123219048E+02  0.26000000000E-02 0.  1.
         -2   -1    0    0    0  501 -0.00000000000E+00 -0.00000000000E+00 -0.89930493716E+01  0.89930497474E+01  0.26000000000E-02 0. -1.
       1023    2    1    2    0    0  0.00000000000E+00  0.00000000000E+00  0.21301693726E+01  0.20116268795E+02  0.20003165967E+02 0.  0.
        -11    1    3    3    0    0 -0.91783197382E+01  0.39697283779E+01  0.88698078575E+00  0.10039274465E+02  0.51100000000E-03 0. -1.
         11    1    3    3    0    0  0.91783197382E+01 -0.39697283779E+01  0.12431885868E+01  0.10076994330E+02  0.51100000000E-03 0.  1.
<mgrwt>
<rscale>  0 0.20003166E+02</rscale>
<asrwt>0</asrwt>
<pdfrwt beam="1">  1        2 0.17112645E-02 0.20003166E+02</pdfrwt>
<pdfrwt beam="2">  1       -2 0.13835461E-02 0.20003166E+02</pdfrwt>
<totfact> 0.39759247E+06</totfact>
</mgrwt>
</event>
<event>
 4    1  0.4046313E-006  0.2001621E+02  0.7818608E-02  0.1745006E+00
          2   -1    0    0  501    0  0.00000000000E+00  0.00000000000E+00  0.68935676163E+02  0.68935676212E+02  0.26000000000E-02 0.  1.
         -2   -1    0    0    0  501 -0.00000000000E+00 -0.00000000000E+00 -0.14529794100E+01  0.14529817363E+01  0.26000000000E-02 0. -1.
        -11    1    1    2    0    0  0.76882991021E+01  0.63989479551E+01  0.32597926966E+02  0.34098113156E+02  0.51100000000E-03 0. -1.
         11    1    1    2    0    0 -0.76882991021E+01 -0.63989479551E+01  0.34884769786E+02  0.36290544792E+02  0.51100000000E-03 0.  1.
<mgrwt>
<rscale>  0 0.20016214E+02</rscale>
<asrwt>0</asrwt>
<pdfrwt beam="1">  1        2 0.10605490E-01 0.20016214E+02</pdfrwt>
<pdfrwt beam="2">  1       -2 0.22353545E-03 0.20016214E+02</pdfrwt>
<totfact> 0.48793411E+06</totfact>
</mgrwt>
</event>
<event>
 5    1  0.4046313E-006  0.2000061E+02  0.7818608E-02  0.1745316E+00
         -2   -1    0    0    0  501 -0.00000000000E+00  0.00000000000E+00  0.30673163661E+01  0.30673174681E+01  0.26000000000E-02 0. -1.
          2   -1    0    0  501    0  0.00000000000E+00 -0.00000000000E+00 -0.32603779148E+02  0.32603779251E+02  0.26000000000E-02 0.  1.
       1023    2    1    2    0    0  0.00000000000E+00  0.00000000000E+00 -0.29536462782E+02  0.35671096719E+02  0.20000612679E+02 0.  0.
        -11    1    3    3    0    0 -0.88238193139E+01  0.47059152791E+01 -0.14721020092E+02  0.17796456352E+02  0.51100000000E-03 0. -1.
         11    1    3    3    0    0  0.88238193139E+01 -0.47059152791E+01 -0.14815442690E+02  0.17874640367E+02  0.51100000000E-03 0.  1.
<mgrwt>
<rscale>  0 0.20000613E+02</rscale>
<asrwt>0</asrwt>
<pdfrwt beam="2">  1        2 0.50159659E-02 0.20000613E+02</pdfrwt>
<pdfrwt beam="1">  1       -2 0.47189494E-03 0.20000613E+02</pdfrwt>
<totfact> 0.43778373E+06</totfact>
</mgrwt>
</event>
<event>
 5    1  0.4046313E-006  0.2000058E+02  0.7818608E-02  0.1745317E+00
         -2   -1    0    0    0  501 -0.00000000000E+00  0.00000000000E+00  0.98308569780E+02  0.98308569814E+02  0.26000000000E-02 0. -1.
          2   -1    0    0  501    0  0.00000000000E+00 -0.00000000000E+00 -0.10172628436E+01  0.10172661662E+01  0.26000000000E-02 0.  1.
       1023    2    1    2    0    0  0.00000000000E+00  0.00000000000E+00  0.97291306936E+02  0.99325835980E+02  0.20000582188E+02 0.  0.
        -11    1    3    3    0    0 -0.66839522212E+01  0.74384306498E+01  0.48739074616E+02  0.49754425557E+02  0.51100000000E-03 0.  1.
         11    1    3    3    0    0  0.66839522212E+01 -0.74384306498E+01  0.48552232320E+02  0.49571410423E+02  0.51100000000E-03 0. -1.
<mgrwt>
<rscale>  0 0.20000582E+02</rscale>
<asrwt>0</asrwt>
<pdfrwt beam="2">  1        2 0.15650216E-03 0.20000582E+02</pdfrwt>
<pdfrwt beam="1">  1       -2 0.15124402E-01 0.20000582E+02</pdfrwt>
<totfact> 0.29852243E+06</totfact>
</mgrwt>
</event>
<event>
 5    1  0.4404724E-006  0.2000062E+02  0.7818608E-02  0.1745316E+00
          2   -1    0    0  501    0  0.00000000000E+00  0.00000000000E+00  0.10575535563E+03  0.10575535567E+03  0.26000000000E-02 0. -1.
         -2   -1    0    0    0  501 -0.00000000000E+00 -0.00000000000E+00 -0.94563494450E+00  0.94563851881E+00  0.26000000000E-02 0.  1.
       1023    2    1    2    0    0  0.00000000000E+00  0.00000000000E+00  0.10480972069E+03  0.10670099418E+03  0.20000615216E+02 0.  0.
        -11    1    3    3    0    0 -0.57393184969E+01  0.81892792908E+01  0.52648161456E+02  0.53589485695E+02  0.51100000000E-03 0.  1.
         11    1    3    3    0    0  0.57393184969E+01 -0.81892792908E+01  0.52161559233E+02  0.53111508489E+02  0.51100000000E-03 0. -1.
<mgrwt>
<rscale>  0 0.20000615E+02</rscale>
<asrwt>0</asrwt>
<pdfrwt beam="1">  1        2 0.16270044E-01 0.20000615E+02</pdfrwt>
<pdfrwt beam="2">  1       -2 0.14548268E-03 0.20000615E+02</pdfrwt>
<totfact> 0.53438204E+06</totfact>
</mgrwt>
</event>
<event>
 5    1  0.4046313E-006  0.2000945E+02  0.7818608E-02  0.1745140E+00
          2   -1    0    0  501    0  0.00000000000E+00  0.00000000000E+00  0.45121779964E+02  0.45121780039E+02  0.26000000000E-02 0. -1.
         -2   -1    0    0    0  501 -0.00000000000E+00 -0.00000000000E+00 -0.22183189977E+01  0.22183205214E+01  0.26000000000E-02 0.  1.
       1023    2    1    2    0    0  0.00000000000E+00  0.00000000000E+00  0.42903460967E+02  0.47340100561E+02  0.20009451721E+02 0.  0.
        -11    1    3    3    0    0  0.48097940482E+01  0.87677681056E+01  0.22148213787E+02  0.24301260266E+02  0.51100000000E-03 0. -1.
         11    1    3    3    0    0 -0.48097940482E+01 -0.87677681056E+01  0.20755247180E+02  0.23038840294E+02  0.51100000000E-03 0.  1.
<mgrwt>
<rscale>  0 0.20009452E+02</rscale>
<asrwt>0</asrwt>
<pdfrwt beam="1">  1        2 0.69418126E-02 0.20009452E+02</pdfrwt>
<pdfrwt beam="2">  1       -2 0.34127996E-03 0.20009452E+02</pdfrwt>
<totfact> 0.45590669E+06</totfact>
</mgrwt>
</event>
<event>
 5    1  0.4046313E-006  0.2000283E+02  0.7818608E-02  0.1745272E+00
          2   -1    0    0  501    0  0.00000000000E+00  0.00000000000E+00  0.85722248645E+00  0.85722642941E+00  0.26000000000E-02 0. -1.
         -2   -1    0    0    0  501 -0.00000000000E+00 -0.00000000000E+00 -0.11668855016E+03  0.11668855019E+03  0.26000000000E-02 0.  1.
       1023    2    1    2    0    0  0.00000000000E+00  0.00000000000E+00 -0.11583132767E+03  0.11754577661E+03  0.20002828055E+02 0.  0.
        -11    1    3    3    0    0 -0.40790475242E+01  0.91313972968E+01 -0.58415577017E+02  0.59265510069E+02  0.51100000000E-03 0. -1.
         11    1    3    3    0    0  0.40790475242E+01 -0.91313972968E+01 -0.57415750653E+02  0.58280266546E+02  0.51100000000E-03 0.  1.
<mgrwt>
<rscale>  0 0.20002828E+02</rscale>
<asrwt>0</asrwt>
<pdfrwt beam="1">  1        2 0.13188078E-03 0.20002828E+02</pdfrwt>
<pdfrwt beam="2">  1       -2 0.17952072E-01 0.20002828E+02</pdfrwt>
<totfact> 0.28553952E+06</totfact>
</mgrwt>
</event>
<event>
 5    1  0.4046313E-006  0.2000416E+02  0.7818608E-02  0.1745245E+00
         -2   -1    0    0    0  501 -0.00000000000E+00  0.00000000000E+00  0.28194470368E+02  0.28194470488E+02  0.26000000000E-02 0. -1.
          2   -1    0    0  501    0  0.00000000000E+00 -0.00000000000E+00 -0.35482706881E+01  0.35482716406E+01  0.26000000000E-02 0.  1.
       1023    2    1    2    0    0  0.00000000000E+00  0.00000000000E+00  0.24646199680E+02  0.31742742129E+02  0.20004162546E+02 0.  0.
        -11    1    3    3    0    0 -0.97816180835E+01  0.20858730992E+01  0.12487321832E+02  0.15998878890E+02  0.51100000000E-03 0.  1.
         11    1    3    3    0    0  0.97816180835E+01 -0.20858730992E+01  0.12158877848E+02  0.15743863239E+02  0.51100000000E-03 0. -1.
<mgrwt>
<rscale>  0 0.20004163E+02</rscale>
<asrwt>0</asrwt>
<pdfrwt beam="2">  1        2 0.54588785E-03 0.20004163E+02</pdfrwt>
<pdfrwt beam="1">  1       -2 0.43376112E-02 0.20004163E+02</pdfrwt>
<totfact> 0.36273595E+06</totfact>
</mgrwt>
</event>
<event>
 5    1  0.4046313E-006  0.2000047E+02  0.7818608E-02  0.1745319E+00
          2   -1    0    0  501    0  0.00000000000E+00  0.00000000000E+00  0.88230993413E+01  0.88230997244E+01  0.26000000000E-02 0.  1.
         -2   -1    0    0    0  501 -0.00000000000E+00 -0.00000000000E+00 -0.11334417901E+02  0.11334418200E+02  0.26000000000E-02 0. -1.
       1023    2    1    2    0    0  0.00000000000E+00  0.00000000000E+00 -0.25113185601E+01  0.20157517924E+02  0.20000470193E+02 0.  0.
        -11    1    3    3    0    0 -0.31189785215E+01  0.95012339161E+01 -0.11983907559E+01  0.10071624179E+02  0.51100000000E-03 0.  1.
         11    1    3    3    0    0  0.31189785215E+01 -0.95012339161E+01 -0.13129278042E+01  0.10085893745E+02  0.51100000000E-03 0. -1.
<mgrwt>
<rscale>  0 0.20000470E+02</rscale>
<asrwt>0</asrwt>
<pdfrwt beam="1">  1        2 0.13574000E-02 0.20000470E+02</pdfrwt>
<pdfrwt beam="2">  1       -2 0.17437567E-02 0.20000470E+02</pdfrwt>
<totfact> 0.39101168E+06</totfact>
</mgrwt>
</event>
<event>
 5    1  0.4046313E-006  0.2000165E+02  0.7818608E-02  0.1745295E+00
         -2   -1    0    0    0  501 -0.00000000000E+00  0.00000000000E+00  0.28860120776E+02  0.28860120893E+02  0.26000000000E-02 0.  1.
          2   -1    0    0  501    0  0.00000000000E+00 -0.00000000000E+00 -0.34655598071E+01  0.34655607824E+01  0.26000000000E-02 0. -1.
       1023    2    1    2    0    0  0.00000000000E+00  0.00000000000E+00  0.25394560969E+02  0.32325681675E+02  0.20001649157E+02 0.  0.
        -11    1    3    3    0    0  0.16694280544E+00  0.99990544267E+01  0.12837547628E+02  0.16273032560E+02  0.51100000000E-03 0. -1.
         11    1    3    3    0    0 -0.16694280544E+00 -0.99990544267E+01  0.12557013341E+02  0.16052649116E+02  0.51100000000E-03 0.  1.
<mgrwt>
<rscale>  0 0.20001649E+02</rscale>
<asrwt>0</asrwt>
<pdfrwt beam="2">  1        2 0.53316316E-03 0.20001649E+02</pdfrwt>
<pdfrwt beam="1">  1       -2 0.44400185E-02 0.20001649E+02</pdfrwt>
<totfact> 0.36199472E+06</totfact>
</mgrwt>
</event>
<event>
 5    1  0.4046313E-006  0.2000026E+02  0.7818608E-02  0.1745323E+00
          2   -1    0    0  501    0  0.00000000000E+00  0.00000000000E+00  0.69855500055E+02  0.69855500103E+02  0.26000000000E-02 0. -1.
         -2   -1    0    0    0  501 -0.00000000000E+00 -0.00000000000E+00 -0.14315621854E+01  0.14315645464E+01  0.26000000000E-02 0.  1.
       1023    2    1    2    0    0  0.00000000000E+00  0.00000000000E+00  0.68423937869E+02  0.71287064649E+02  0.20000257818E+02 0.  0.
        -11    1    3    3    0    0 -0.98153206128E+01 -0.19136174656E+01  0.34252200078E+02  0.35682147651E+02  0.51100000000E-03 0.  1.
         11    1    3    3    0    0  0.98153206128E+01  0.19136174656E+01  0.34171737792E+02  0.35604916999E+02  0.51100000000E-03 0. -1.
<mgrwt>
<rscale>  0 0.20000258E+02</rscale>
<asrwt>0</asrwt>
<pdfrwt beam="1">  1        2 0.10746999E-01 0.20000258E+02</pdfrwt>
<pdfrwt beam="2">  1       -2 0.22024054E-03 0.20000258E+02</pdfrwt>
<totfact> 0.48999626E+06</totfact>
</mgrwt>
</event>
<event>
 5    1  0.4046313E-006  0.2000026E+02  0.7818608E-02  0.1745323E+00
          2   -1    0    0  501    0  0.00000000000E+00  0.00000000000E+00  0.99521145445E+01  0.99521148841E+01  0.26000000000E-02 0. -1.
         -2   -1    0    0    0  501 -0.00000000000E+00 -0.00000000000E+00 -0.10048379986E+02  0.10048380322E+02  0.26000000000E-02 0.  1.
       1023    2    1    2    0    0  0.00000000000E+00  0.00000000000E+00 -0.96265441254E-01  0.20000495206E+02  0.20000263535E+02 0.  0.
        -11    1    3    3    0    0  0.74299814565E+01  0.66930185507E+01 -0.87034839890E-01  0.10000434845E+02  0.51100000000E-03 0.  1.
         11    1    3    3    0    0 -0.74299814565E+01 -0.66930185507E+01 -0.92306013631E-02  0.10000060361E+02  0.51100000000E-03 0. -1.
<mgrwt>
<rscale>  0 0.20000264E+02</rscale>
<asrwt>0</asrwt>
<pdfrwt beam="1">  1        2 0.15310946E-02 0.20000264E+02</pdfrwt>
<pdfrwt beam="2">  1       -2 0.15459047E-02 0.20000264E+02</pdfrwt>
<totfact> 0.39448099E+06</totfact>
</mgrwt>
</event>
<event>
 5    1  0.4046313E-006  0.2000253E+02  0.7818608E-02  0.1745278E+00
         -2   -1    0    0    0  501 -0.00000000000E+00  0.00000000000E+00  0.19655212790E+02  0.19655212962E+02  0.26000000000E-02 0. -1.
          2   -1    0    0  501    0  0.00000000000E+00 -0.00000000000E+00 -0.50889954935E+01  0.50889961576E+01  0.26000000000E-02 0.  1.
       1023    2    1    2    0    0  0.00000000000E+00  0.00000000000E+00  0.14566217297E+02  0.24744209120E+02  0.20002529806E+02 0.  0.
        -11    1    3    3    0    0  0.67145834358E+01  0.74120381700E+01  0.73287096097E+01  0.12398948558E+02  0.51100000000E-03 0.  1.
         11    1    3    3    0    0 -0.67145834358E+01 -0.74120381700E+01  0.72375076871E+01  0.12345260562E+02  0.51100000000E-03 0. -1.
<mgrwt>
<rscale>  0 0.20002530E+02</rscale>
<asrwt>0</asrwt>
<pdfrwt beam="2">  1        2 0.78292245E-03 0.20002530E+02</pdfrwt>
<pdfrwt beam="1">  1       -2 0.30238790E-02 0.20002530E+02</pdfrwt>
<totfact> 0.37477762E+06</totfact>
</mgrwt>
</event>
<event>
 5    1  0.4046313E-006  0.2000170E+02  0.7818608E-02  0.1745294E+00
         -2   -1    0    0    0  501 -0.00000000000E+00  0.00000000000E+00  0.88064535121E+02  0.88064535159E+02  0.26000000000E-02 0.  1.
          2   -1    0    0  501    0  0.00000000000E+00 -0.00000000000E+00 -0.11357228168E+01  0.11357257928E+01  0.26000000000E-02 0. -1.
       1023    2    1    2    0    0  0.00000000000E+00  0.00000000000E+00  0.86928812304E+02  0.89200260952E+02  0.20001703560E+02 0.  0.
        -11    1    3    3    0    0 -0.48347657401E+01  0.87543408190E+01  0.43731728846E+02  0.44860645906E+02  0.51100000000E-03 0.  1.
         11    1    3    3    0    0  0.48347657401E+01 -0.87543408190E+01  0.43197083458E+02  0.44339615046E+02  0.51100000000E-03 0. -1.
<mgrwt>
<rscale>  0 0.20001704E+02</rscale>
<asrwt>0</asrwt>
<pdfrwt beam="2">  1        2 0.17472679E-03 0.20001704E+02</pdfrwt>
<pdfrwt beam="1">  1       -2 0.13548393E-01 0.20001704E+02</pdfrwt>
<totfact> 0.30618051E+06</totfact>
</mgrwt>
</event>
<event>
 5    1  0.4046313E-006  0.2000049E+02  0.7818608E-02  0.1745318E+00
          2   -1    0    0  501    0  0.00000000000E+00  0.00000000000E+00  0.81103973752E+02  0.81103973793E+02  0.26000000000E-02 0. -1.
         -2   -1    0    0    0  501 -0.00000000000E+00 -0.00000000000E+00 -0.12330437683E+01  0.12330465094E+01  0.26000000000E-02 0.  1.
       1023    2    1    2    0    0  0.00000000000E+00  0.00000000000E+00  0.79870929983E+02  0.82337020303E+02  0.20000486392E+02 0.  0.
        -11    1    3    3    0    0  0.99846013888E+01  0.55735364792E+00  0.39753406895E+02  0.40991904908E+02  0.51100000000E-03 0. -1.
         11    1    3    3    0    0 -0.99846013888E+01 -0.55735364792E+00  0.40117523089E+02  0.41345115395E+02  0.51100000000E-03 0.  1.
<mgrwt>
<rscale>  0 0.20000486E+02</rscale>
<asrwt>0</asrwt>
<pdfrwt beam="1">  1        2 0.12477536E-01 0.20000486E+02</pdfrwt>
<pdfrwt beam="2">  1       -2 0.18969923E-03 0.20000486E+02</pdfrwt>
<totfact> 0.50435855E+06</totfact>
</mgrwt>
</event>
<event>
 5    1  0.4046313E-006  0.2000046E+02  0.7818608E-02  0.1745319E+00
         -2   -1    0    0    0  501 -0.00000000000E+00  0.00000000000E+00  0.48058856653E+02  0.48058856723E+02  0.26000000000E-02 0.  1.
          2   -1    0    0  501    0  0.00000000000E+00 -0.00000000000E+00 -0.20808764473E+01  0.20808780716E+01  0.26000000000E-02 0. -1.
       1023    2    1    2    0    0  0.00000000000E+00  0.00000000000E+00  0.45977980206E+02  0.50139734795E+02  0.20000458533E+02 0.  0.
        -11    1    3    3    0    0 -0.93655693599E+01  0.35056666772E+01  0.22909839747E+02  0.24997286769E+02  0.51100000000E-03 0.  1.
         11    1    3    3    0    0  0.93655693599E+01 -0.35056666772E+01  0.23068140458E+02  0.25142448026E+02  0.51100000000E-03 0. -1.
<mgrwt>
<rscale>  0 0.20000459E+02</rscale>
<asrwt>0</asrwt>
<pdfrwt beam="2">  1        2 0.32013500E-03 0.20000459E+02</pdfrwt>
<pdfrwt beam="1">  1       -2 0.73936696E-02 0.20000459E+02</pdfrwt>
<totfact> 0.34087929E+06</totfact>
</mgrwt>
</event>
<event>
 5    1  0.4078978E-006  0.2000062E+02  0.7818608E-02  0.1745316E+00
         -2   -1    0    0    0  501 -0.00000000000E+00  0.00000000000E+00  0.16020282881E+01  0.16020303979E+01  0.26000000000E-02 0. -1.
          2   -1    0    0  501    0  0.00000000000E+00 -0.00000000000E+00 -0.62424704550E+02  0.62424704604E+02  0.26000000000E-02 0.  1.
       1023    2    1    2    0    0  0.00000000000E+00  0.00000000000E+00 -0.60822676262E+02  0.64026735002E+02  0.20000621174E+02 0.  0.
        -11    1    3    3    0    0  0.88245653108E+01 -0.47039768394E+01 -0.30166269938E+02  0.31780563136E+02  0.51100000000E-03 0. -1.
         11    1    3    3    0    0 -0.88245653108E+01  0.47039768394E+01 -0.30656406324E+02  0.32246171865E+02  0.51100000000E-03 0.  1.
<mgrwt>
<rscale>  0 0.20000621E+02</rscale>
<asrwt>0</asrwt>
<pdfrwt beam="2">  1        2 0.96037990E-02 0.20000621E+02</pdfrwt>
<pdfrwt beam="1">  1       -2 0.24646610E-03 0.20000621E+02</pdfrwt>
<totfact> 0.48019138E+06</totfact>
</mgrwt>
</event>
<event>
 5    1  0.4046313E-006  0.2000082E+02  0.7818608E-02  0.1745312E+00
         -2   -1    0    0    0  501 -0.00000000000E+00  0.00000000000E+00  0.86238912908E+02  0.86238912947E+02  0.26000000000E-02 0. -1.
          2   -1    0    0  501    0  0.00000000000E+00 -0.00000000000E+00 -0.11596630053E+01  0.11596659200E+01  0.26000000000E-02 0.  1.
       1023    2    1    2    0    0  0.00000000000E+00  0.00000000000E+00  0.85079249903E+02  0.87398578867E+02  0.20000820583E+02 0.  0.
        -11    1    3    3    0    0 -0.88959418980E+01 -0.45679406455E+01  0.42251693777E+02  0.43418999197E+02  0.51100000000E-03 0. -1.
         11    1    3    3    0    0  0.88959418980E+01  0.45679406455E+01  0.42827556126E+02  0.43979579671E+02  0.51100000000E-03 0.  1.
<mgrwt>
<rscale>  0 0.20000821E+02</rscale>
<asrwt>0</asrwt>
<pdfrwt beam="2">  1        2 0.17840993E-03 0.20000821E+02</pdfrwt>
<pdfrwt beam="1">  1       -2 0.13267524E-01 0.20000821E+02</pdfrwt>
<totfact> 0.30762366E+06</totfact>
</mgrwt>
</event>
<event>
 5    1  0.4046313E-006  0.2000101E+02  0.7818608E-02  0.1745308E+00
          2   -1    0    0  501    0  0.00000000000E+00  0.00000000000E+00  0.44262461701E+01  0.44262469338E+01  0.26000000000E-02 0.  1.
         -2   -1    0    0    0  501 -0.00000000000E+00 -0.00000000000E+00 -0.22594777908E+02  0.22594778058E+02  0.26000000000E-02 0. -1.
       1023    2    1    2    0    0  0.00000000000E+00  0.00000000000E+00 -0.18168531738E+02  0.27021024991E+02  0.20001006127E+02 0.  0.
        -11    1    3    3    0    0  0.99576895326E+01  0.92027099627E+00 -0.92019001577E+01  0.13589608026E+02  0.51100000000E-03 0. -1.
         11    1    3    3    0    0 -0.99576895326E+01 -0.92027099627E+00 -0.89666315803E+01  0.13431416965E+02  0.51100000000E-03 0.  1.
<mgrwt>
<rscale>  0 0.20001006E+02</rscale>
<asrwt>0</asrwt>
<pdfrwt beam="1">  1        2 0.68096103E-03 0.20001006E+02</pdfrwt>
<pdfrwt beam="2">  1       -2 0.34761197E-02 0.20001006E+02</pdfrwt>
<totfact> 0.37041043E+06</totfact>
</mgrwt>
</event>
<event>
 5    1  0.4046313E-006  0.2000190E+02  0.7818608E-02  0.1745290E+00
         -2   -1    0    0    0  501 -0.00000000000E+00  0.00000000000E+00  0.23904118396E+01  0.23904132536E+01  0.26000000000E-02 0. -1.
          2   -1    0    0  501    0  0.00000000000E+00 -0.00000000000E+00 -0.41841729150E+02  0.41841729231E+02  0.26000000000E-02 0.  1.
       1023    2    1    2    0    0  0.00000000000E+00  0.00000000000E+00 -0.39451317311E+02  0.44232142485E+02  0.20001899691E+02 0.  0.
        -11    1    3    3    0    0 -0.98673675458E+01  0.16284759783E+01 -0.19623808193E+02  0.22025229274E+02  0.51100000000E-03 0.  1.
         11    1    3    3    0    0  0.98673675458E+01 -0.16284759783E+01 -0.19827509117E+02  0.22206913211E+02  0.51100000000E-03 0. -1.
<mgrwt>
<rscale>  0 0.20001900E+02</rscale>
<asrwt>0</asrwt>
<pdfrwt beam="2">  1        2 0.64371887E-02 0.20001900E+02</pdfrwt>
<pdfrwt beam="1">  1       -2 0.36775581E-03 0.20001900E+02</pdfrwt>
<totfact> 0.45156130E+06</totfact>
</mgrwt>
</event>
<event>
 5    1  0.4046313E-006  0.2000243E+02  0.7818608E-02  0.1745280E+00
          2   -1    0    0  501    0  0.00000000000E+00  0.00000000000E+00  0.26073233551E+02  0.26073233680E+02  0.26000000000E-02 0. -1.
         -2   -1    0    0    0  501 -0.00000000000E+00 -0.00000000000E+00 -0.38362832295E+01  0.38362841106E+01  0.26000000000E-02 0.  1.
       1023    2    1    2    0    0  0.00000000000E+00  0.00000000000E+00  0.22236950321E+02  0.29909517791E+02  0.20002432225E+02 0.  0.
        -11    1    3    3    0    0 -0.18578482452E+01  0.98270198004E+01  0.11191808686E+02  0.15009280469E+02  0.51100000000E-03 0.  1.
         11    1    3    3    0    0  0.18578482452E+01 -0.98270198004E+01  0.11045141635E+02  0.14900237322E+02  0.51100000000E-03 0. -1.
<mgrwt>
<rscale>  0 0.20002432E+02</rscale>
<asrwt>0</asrwt>
<pdfrwt beam="1">  1        2 0.40112668E-02 0.20002432E+02</pdfrwt>
<pdfrwt beam="2">  1       -2 0.59019750E-03 0.20002432E+02</pdfrwt>
<totfact> 0.42724617E+06</totfact>
</mgrwt>
</event>
<event>
 5    1  0.4046313E-006  0.2000118E+02  0.7818608E-02  0.1745305E+00
          2   -1    0    0  501    0  0.00000000000E+00  0.00000000000E+00  0.40093649965E+01  0.40093658395E+01  0.26000000000E-02 0.  1.
         -2   -1    0    0    0  501 -0.00000000000E+00 -0.00000000000E+00 -0.24944554482E+02  0.24944554617E+02  0.26000000000E-02 0. -1.
       1023    2    1    2    0    0  0.00000000000E+00  0.00000000000E+00 -0.20935189485E+02  0.28953920457E+02  0.20001183741E+02 0.  0.
        -11    1    3    3    0    0  0.90246655128E+01  0.43089652422E+01 -0.10479568968E+02  0.14485618216E+02  0.51100000000E-03 0. -1.
         11    1    3    3    0    0 -0.90246655128E+01 -0.43089652422E+01 -0.10455620517E+02  0.14468302241E+02  0.51100000000E-03 0.  1.
<mgrwt>
<rscale>  0 0.20001184E+02</rscale>
<asrwt>0</asrwt>
<pdfrwt beam="1">  1        2 0.61682548E-03 0.20001184E+02</pdfrwt>
<pdfrwt beam="2">  1       -2 0.38376237E-02 0.20001184E+02</pdfrwt>
<totfact> 0.36711751E+06</totfact>
</mgrwt>
</event>
<event>
 5    1  0.4046313E-006  0.2000721E+02  0.7818608E-02  0.1745185E+00
          2   -1    0    0  501    0  0.00000000000E+00  0.00000000000E+00  0.21920323792E+01  0.21920339212E+01  0.26000000000E-02 0.  1.
         -2   -1    0    0    0  501 -0.00000000000E+00 -0.00000000000E+00 -0.45652633782E+02  0.45652633856E+02  0.26000000000E-02 0. -1.
       1023    2    1    2    0    0  0.00000000000E+00  0.00000000000E+00 -0.43460601403E+02  0.47844667777E+02  0.20007207712E+02 0.  0.
        -11    1    3    3    0    0 -0.98228603085E+01  0.18855636525E+01 -0.21329042266E+02  0.23557843262E+02  0.51100000000E-03 0. -1.
         11    1    3    3    0    0  0.98228603085E+01 -0.18855636525E+01 -0.22131559137E+02  0.24286824515E+02  0.51100000000E-03 0.  1.
<mgrwt>
<rscale>  0 0.20007208E+02</rscale>
<asrwt>0</asrwt>
<pdfrwt beam="1">  1        2 0.33723591E-03 0.20007208E+02</pdfrwt>
<pdfrwt beam="2">  1       -2 0.70234816E-02 0.20007208E+02</pdfrwt>
<totfact> 0.34303942E+06</totfact>
</mgrwt>
</event>
<event>
 4    1  0.4046313E-006  0.2004371E+02  0.7818608E-02  0.1744460E+00
         -2   -1    0    0    0  501 -0.00000000000E+00  0.00000000000E+00  0.27942738109E+01  0.27942750205E+01  0.26000000000E-02 0.  1.
          2   -1    0    0  501    0  0.00000000000E+00 -0.00000000000E+00 -0.35944055413E+02  0.35944055507E+02  0.26000000000E-02 0. -1.
        -11    1    1    2    0    0 -0.80235379033E+01  0.59840087375E+01 -0.17545165409E+02  0.20199464115E+02  0.51100000000E-03 0. -1.
         11    1    1    2    0    0  0.80235379033E+01 -0.59840087375E+01 -0.15604616193E+02  0.18538866412E+02  0.51100000000E-03 0.  1.
<mgrwt>
<rscale>  0 0.20043708E+02</rscale>
<asrwt>0</asrwt>
<pdfrwt beam="2">  1        2 0.55298544E-02 0.20043708E+02</pdfrwt>
<pdfrwt beam="1">  1       -2 0.42988840E-03 0.20043708E+02</pdfrwt>
<totfact> 0.44076380E+06</totfact>
</mgrwt>
</event>
<event>
 5    1  0.4046313E-006  0.2000189E+02  0.7818608E-02  0.1745291E+00
          2   -1    0    0  501    0  0.00000000000E+00  0.00000000000E+00  0.33633485461E+02  0.33633485562E+02  0.26000000000E-02 0. -1.
         -2   -1    0    0    0  501 -0.00000000000E+00 -0.00000000000E+00 -0.29737872131E+01  0.29737883497E+01  0.26000000000E-02 0.  1.
       1023    2    1    2    0    0  0.00000000000E+00  0.00000000000E+00  0.30659698248E+02  0.36607273912E+02  0.20001885075E+02 0.  0.
        -11    1    3    3    0    0  0.33102743138E+01 -0.94370090975E+01  0.15442590082E+02  0.18398060916E+02  0.51100000000E-03 0.  1.
         11    1    3    3    0    0 -0.33102743138E+01  0.94370090975E+01  0.15217108166E+02  0.18209212996E+02  0.51100000000E-03 0. -1.
<mgrwt>
<rscale>  0 0.20001885E+02</rscale>
<asrwt>0</asrwt>
<pdfrwt beam="1">  1        2 0.51743830E-02 0.20001885E+02</pdfrwt>
<pdfrwt beam="2">  1       -2 0.45750577E-03 0.20001885E+02</pdfrwt>
<totfact> 0.43930960E+06</totfact>
</mgrwt>
</event>
<event>
 5    1  0.4046313E-006  0.2000026E+02  0.7818608E-02  0.1745323E+00
          2   -1    0    0  501    0  0.00000000000E+00  0.00000000000E+00  0.91788067717E+00  0.91788435956E+00  0.26000000000E-02 0. -1.
         -2   -1    0    0    0  501 -0.00000000000E+00 -0.00000000000E+00 -0.10894920082E+03  0.10894920085E+03  0.26000000000E-02 0.  1.
       1023    2    1    2    0    0  0.00000000000E+00  0.00000000000E+00 -0.10803132014E+03  0.10986708521E+03  0.20000257020E+02 0.  0.
        -11    1    3    3    0    0  0.85306430608E+01 -0.52182961770E+01 -0.54065987415E+02  0.54983029032E+02  0.51100000000E-03 0. -1.
         11    1    3    3    0    0 -0.85306430608E+01  0.52182961770E+01 -0.53965332729E+02  0.54884056180E+02  0.51100000000E-03 0.  1.
<mgrwt>
<rscale>  0 0.20000257E+02</rscale>
<asrwt>0</asrwt>
<pdfrwt beam="1">  1        2 0.14121278E-03 0.20000257E+02</pdfrwt>
<pdfrwt beam="2">  1       -2 0.16761406E-01 0.20000257E+02</pdfrwt>
<totfact> 0.29092700E+06</totfact>
</mgrwt>
</event>
<event>
 5    1  0.4046313E-006  0.2000043E+02  0.7818608E-02  0.1745320E+00
         -2   -1    0    0    0  501 -0.00000000000E+00  0.00000000000E+00  0.12271658427E+02  0.12271658702E+02  0.26000000000E-02 0. -1.
          2   -1    0    0  501    0  0.00000000000E+00 -0.00000000000E+00 -0.81492081933E+01  0.81492086080E+01  0.26000000000E-02 0.  1.
       1023    2    1    2    0    0  0.00000000000E+00  0.00000000000E+00  0.41224502335E+01  0.20420867310E+02  0.20000430640E+02 0.  0.
        -11    1    3    3    0    0  0.99951095619E+01 -0.31756211509E+00  0.20251940285E+01  0.10203159901E+02  0.51100000000E-03 0.  1.
         11    1    3    3    0    0 -0.99951095619E+01  0.31756211509E+00  0.20972562050E+01  0.10217707409E+02  0.51100000000E-03 0. -1.
<mgrwt>
<rscale>  0 0.20000431E+02</rscale>
<asrwt>0</asrwt>
<pdfrwt beam="2">  1        2 0.12537244E-02 0.20000431E+02</pdfrwt>
<pdfrwt beam="1">  1       -2 0.18879475E-02 0.20000431E+02</pdfrwt>
<totfact> 0.38874011E+06</totfact>
</mgrwt>
</event>
<event>
 5    1  0.4046313E-006  0.2000984E+02  0.7818608E-02  0.1745132E+00
          2   -1    0    0  501    0  0.00000000000E+00  0.00000000000E+00  0.74597361385E+01  0.74597365916E+01  0.26000000000E-02 0.  1.
         -2   -1    0    0    0  501 -0.00000000000E+00 -0.00000000000E+00 -0.13418492589E+02  0.13418492841E+02  0.26000000000E-02 0. -1.
       1023    2    1    2    0    0  0.00000000000E+00  0.00000000000E+00 -0.59587564504E+01  0.20878229433E+02  0.20009839725E+02 0.  0.
        -11    1    3    3    0    0  0.69207491455E+01  0.72186527920E+01 -0.32970656679E+01  0.10529784383E+02  0.51100000000E-03 0.  1.
         11    1    3    3    0    0 -0.69207491455E+01 -0.72186527920E+01 -0.26616907826E+01  0.10348445050E+02  0.51100000000E-03 0. -1.
<mgrwt>
<rscale>  0 0.20009840E+02</rscale>
<asrwt>0</asrwt>
<pdfrwt beam="1">  1        2 0.11476518E-02 0.20009840E+02</pdfrwt>
<pdfrwt beam="2">  1       -2 0.20643835E-02 0.20009840E+02</pdfrwt>
<totfact> 0.38578865E+06</totfact>
</mgrwt>
</event>
<event>
 5    1  0.4046313E-006  0.2000015E+02  0.7818608E-02  0.1745325E+00
          2   -1    0    0  501    0  0.00000000000E+00  0.00000000000E+00  0.87551335361E+01  0.87551339221E+01  0.26000000000E-02 0.  1.
         -2   -1    0    0    0  501 -0.00000000000E+00 -0.00000000000E+00 -0.11422041344E+02  0.11422041640E+02  0.26000000000E-02 0. -1.
       1023    2    1    2    0    0  0.00000000000E+00  0.00000000000E+00 -0.26669078075E+01  0.20177175562E+02  0.20000150409E+02 0.  0.
        -11    1    3    3    0    0 -0.76385024303E+01 -0.64540411643E+01 -0.13216409300E+01  0.10087026407E+02  0.51100000000E-03 0. -1.
         11    1    3    3    0    0  0.76385024303E+01  0.64540411643E+01 -0.13452668775E+01  0.10090149155E+02  0.51100000000E-03 0.  1.
<mgrwt>
<rscale>  0 0.20000150E+02</rscale>
<asrwt>0</asrwt>
<pdfrwt beam="1">  1        2 0.13469437E-02 0.20000150E+02</pdfrwt>
<pdfrwt beam="2">  1       -2 0.17572372E-02 0.20000150E+02</pdfrwt>
<totfact> 0.39080457E+06</totfact>
</mgrwt>
</event>
<event>
 5    1  0.4046313E-006  0.2000192E+02  0.7818608E-02  0.1745290E+00
         -2   -1    0    0    0  501 -0.00000000000E+00  0.00000000000E+00  0.25077613299E+02  0.25077613434E+02  0.26000000000E-02 0.  1.
          2   -1    0    0  501    0  0.00000000000E+00 -0.00000000000E+00 -0.39883852408E+01  0.39883860882E+01  0.26000000000E-02 0. -1.
       1023    2    1    2    0    0  0.00000000000E+00  0.00000000000E+00  0.21089228058E+02  0.29065999522E+02  0.20001919611E+02 0.  0.
        -11    1    3    3    0    0  0.99856297359E+01  0.55352970423E+00  0.10543679512E+02  0.14532321710E+02  0.51100000000E-03 0.  1.
         11    1    3    3    0    0 -0.99856297359E+01 -0.55352970423E+00  0.10545548546E+02  0.14533677812E+02  0.51100000000E-03 0. -1.
<mgrwt>
<rscale>  0 0.20001920E+02</rscale>
<asrwt>0</asrwt>
<pdfrwt beam="2">  1        2 0.61359782E-03 0.20001920E+02</pdfrwt>
<pdfrwt beam="1">  1       -2 0.38580943E-02 0.20001920E+02</pdfrwt>
<totfact> 0.36690768E+06</totfact>
</mgrwt>
</event>
<event>
 5    1  0.4046313E-006  0.2000238E+02  0.7818608E-02  0.1745281E+00
         -2   -1    0    0    0  501 -0.00000000000E+00  0.00000000000E+00  0.66902529618E+02  0.66902529668E+02  0.26000000000E-02 0.  1.
          2   -1    0    0  501    0  0.00000000000E+00 -0.00000000000E+00 -0.14950666480E+01  0.14950689087E+01  0.26000000000E-02 0. -1.
       1023    2    1    2    0    0  0.00000000000E+00  0.00000000000E+00  0.65407462970E+02  0.68397598577E+02  0.20002381832E+02 0.  0.
        -11    1    3    3    0    0  0.25254745727E+01  0.96765047739E+01  0.32344230849E+02  0.33855014930E+02  0.51100000000E-03 0. -1.
         11    1    3    3    0    0 -0.25254745727E+01 -0.96765047739E+01  0.33063232121E+02  0.34542583647E+02  0.51100000000E-03 0.  1.
<mgrwt>
<rscale>  0 0.20002382E+02</rscale>
<asrwt>0</asrwt>
<pdfrwt beam="2">  1        2 0.23001049E-03 0.20002382E+02</pdfrwt>
<pdfrwt beam="1">  1       -2 0.10292694E-01 0.20002382E+02</pdfrwt>
<totfact> 0.32340393E+06</totfact>
</mgrwt>
</event>
<event>
 5    1  0.4046313E-006  0.2000097E+02  0.7818608E-02  0.1745309E+00
          2   -1    0    0  501    0  0.00000000000E+00  0.00000000000E+00  0.65769739604E+01  0.65769744743E+01  0.26000000000E-02 0. -1.
         -2   -1    0    0    0  501 -0.00000000000E+00 -0.00000000000E+00 -0.15206035022E+02  0.15206035244E+02  0.26000000000E-02 0.  1.
       1023    2    1    2    0    0  0.00000000000E+00  0.00000000000E+00 -0.86290610613E+01  0.21783009718E+02  0.20000970416E+02 0.  0.
        -11    1    3    3    0    0 -0.36408651824E+01  0.93139178622E+01 -0.43895037736E+01  0.10921204552E+02  0.51100000000E-03 0.  1.
         11    1    3    3    0    0  0.36408651824E+01 -0.93139178622E+01 -0.42395572877E+01  0.10861805167E+02  0.51100000000E-03 0. -1.
<mgrwt>
<rscale>  0 0.20000970E+02</rscale>
<asrwt>0</asrwt>
<pdfrwt beam="1">  1        2 0.10118422E-02 0.20000970E+02</pdfrwt>
<pdfrwt beam="2">  1       -2 0.23393901E-02 0.20000970E+02</pdfrwt>
<totfact> 0.38253872E+06</totfact>
</mgrwt>
</event>
<event>
 5    1  0.4046313E-006  0.2000046E+02  0.7818608E-02  0.1745319E+00
         -2   -1    0    0    0  501 -0.00000000000E+00  0.00000000000E+00  0.52172601632E+01  0.52172608110E+01  0.26000000000E-02 0. -1.
          2   -1    0    0  501    0  0.00000000000E+00 -0.00000000000E+00 -0.19168036628E+02  0.19168036804E+02  0.26000000000E-02 0.  1.
       1023    2    1    2    0    0  0.00000000000E+00  0.00000000000E+00 -0.13950776465E+02  0.24385297615E+02  0.20000464390E+02 0.  0.
        -11    1    3    3    0    0  0.78747017905E+01  0.61637392462E+01 -0.69204020225E+01  0.12161191315E+02  0.51100000000E-03 0.  1.
         11    1    3    3    0    0 -0.78747017905E+01 -0.61637392462E+01 -0.70303744423E+01  0.12224106300E+02  0.51100000000E-03 0. -1.
<mgrwt>
<rscale>  0 0.20000464E+02</rscale>
<asrwt>0</asrwt>
<pdfrwt beam="2">  1        2 0.29489287E-02 0.20000464E+02</pdfrwt>
<pdfrwt beam="1">  1       -2 0.80265548E-03 0.20000464E+02</pdfrwt>
<totfact> 0.41521019E+06</totfact>
</mgrwt>
</event>
<event>
 5    1  0.4046313E-006  0.2000123E+02  0.7818608E-02  0.1745304E+00
          2   -1    0    0  501    0  0.00000000000E+00  0.00000000000E+00  0.17559742552E+02  0.17559742744E+02  0.26000000000E-02 0.  1.
         -2   -1    0    0    0  501 -0.00000000000E+00 -0.00000000000E+00 -0.56955416904E+01  0.56955422838E+01  0.26000000000E-02 0. -1.
       1023    2    1    2    0    0  0.00000000000E+00  0.00000000000E+00  0.11864200861E+02  0.23255285028E+02  0.20001225454E+02 0.  0.
        -11    1    3    3    0    0 -0.51153964177E+01 -0.85932705104E+01  0.59018686993E+01  0.11612219124E+02  0.51100000000E-03 0. -1.
         11    1    3    3    0    0  0.51153964177E+01  0.85932705104E+01  0.59623321619E+01  0.11643065904E+02  0.51100000000E-03 0.  1.
<mgrwt>
<rscale>  0 0.20001225E+02</rscale>
<asrwt>0</asrwt>
<pdfrwt beam="1">  1        2 0.27014989E-02 0.20001225E+02</pdfrwt>
<pdfrwt beam="2">  1       -2 0.87623725E-03 0.20001225E+02</pdfrwt>
<totfact> 0.41208402E+06</totfact>
</mgrwt>
</event>
<event>
 5    1  0.4046313E-006  0.2000048E+02  0.7818608E-02  0.1745318E+00
          2   -1    0    0  501    0  0.00000000000E+00  0.00000000000E+00  0.32209220200E+02  0.32209220305E+02  0.26000000000E-02 0. -1.
         -2   -1    0    0    0  501 -0.00000000000E+00 -0.00000000000E+00 -0.31048501016E+01  0.31048511902E+01  0.26000000000E-02 0.  1.
       1023    2    1    2    0    0  0.00000000000E+00  0.00000000000E+00  0.29104370099E+02  0.35314071495E+02  0.20000482163E+02 0.  0.
        -11    1    3    3    0    0 -0.99307726351E+01  0.11766644760E+01  0.14541444251E+02  0.17648183634E+02  0.51100000000E-03 0.  1.
         11    1    3    3    0    0  0.99307726351E+01 -0.11766644760E+01  0.14562925848E+02  0.17665887861E+02  0.51100000000E-03 0. -1.
<mgrwt>
<rscale>  0 0.20000482E+02</rscale>
<asrwt>0</asrwt>
<pdfrwt beam="1">  1        2 0.49552647E-02 0.20000482E+02</pdfrwt>
<pdfrwt beam="2">  1       -2 0.47766934E-03 0.20000482E+02</pdfrwt>
<totfact> 0.43717783E+06</totfact>
</mgrwt>
</event>
<event>
 4    1  0.4046313E-006  0.2001511E+02  0.7818608E-02  0.1745028E+00
         -2   -1    0    0    0  501 -0.00000000000E+00  0.00000000000E+00  0.24268090616E+02  0.24268090755E+02  0.26000000000E-02 0.  1.
          2   -1    0    0  501    0  0.00000000000E+00 -0.00000000000E+00 -0.41268641173E+01  0.41268649364E+01  0.26000000000E-02 0. -1.
        -11    1    1    2    0    0  0.97228903339E+01  0.23687533956E+01  0.99650518429E+01  0.14122600596E+02  0.51100000000E-03 0. -1.
         11    1    1    2    0    0 -0.97228903339E+01 -0.23687533956E+01  0.10176174655E+02  0.14272355095E+02  0.51100000000E-03 0.  1.
<mgrwt>
<rscale>  0 0.20015107E+02</rscale>
<asrwt>0</asrwt>
<pdfrwt beam="2">  1        2 0.63490225E-03 0.20015107E+02</pdfrwt>
<pdfrwt beam="1">  1       -2 0.37335525E-02 0.20015107E+02</pdfrwt>
<totfact> 0.36748702E+06</totfact>
</mgrwt>
</event>
<event>
 5    1  0.4046313E-006  0.2000101E+02  0.7818608E-02  0.1745308E+00
          2   -1    0    0  501    0  0.00000000000E+00  0.00000000000E+00  0.28538534869E+02  0.28538534988E+02  0.26000000000E-02 0. -1.
         -2   -1    0    0    0  501 -0.00000000000E+00 -0.00000000000E+00 -0.35043864816E+01  0.35043874461E+01  0.26000000000E-02 0.  1.
       1023    2    1    2    0    0  0.00000000000E+00  0.00000000000E+00  0.25034148388E+02  0.32042922434E+02  0.20001007290E+02 0.  0.
        -11    1    3    3    0    0  0.71509516415E+01  0.69909767291E+01  0.12493975261E+02  0.16003414732E+02  0.51100000000E-03 0. -1.
         11    1    3    3    0    0 -0.71509516415E+01 -0.69909767291E+01  0.12540173127E+02  0.16039507702E+02  0.51100000000E-03 0.  1.
<mgrwt>
<rscale>  0 0.20001007E+02</rscale>
<asrwt>0</asrwt>
<pdfrwt beam="1">  1        2 0.43905440E-02 0.20001007E+02</pdfrwt>
<pdfrwt beam="2">  1       -2 0.53913645E-03 0.20001007E+02</pdfrwt>
<totfact> 0.43134691E+06</totfact>
</mgrwt>
</event>
<event>
 5    1  0.4046313E-006  0.2000053E+02  0.7818608E-02  0.1745318E+00
         -2   -1    0    0    0  501 -0.00000000000E+00  0.00000000000E+00  0.48507807706E+01  0.48507814674E+01  0.26000000000E-02 0.  1.
          2   -1    0    0  501    0  0.00000000000E+00 -0.00000000000E+00 -0.20616318181E+02  0.20616318345E+02  0.26000000000E-02 0. -1.
       1023    2    1    2    0    0  0.00000000000E+00  0.00000000000E+00 -0.15765537410E+02  0.25467099812E+02  0.20000525068E+02 0.  0.
        -11    1    3    3    0    0 -0.75011711630E+01 -0.66132248728E+01 -0.79517923377E+01  0.12776279336E+02  0.51100000000E-03 0. -1.
         11    1    3    3    0    0  0.75011711630E+01  0.66132248728E+01 -0.78137450726E+01  0.12690820476E+02  0.51100000000E-03 0.  1.
<mgrwt>
<rscale>  0 0.20000525E+02</rscale>
<asrwt>0</asrwt>
<pdfrwt beam="2">  1        2 0.31717413E-02 0.20000525E+02</pdfrwt>
<pdfrwt beam="1">  1       -2 0.74627404E-03 0.20000525E+02</pdfrwt>
<totfact> 0.41788323E+06</totfact>
</mgrwt>
</event>
<event>
 5    1  0.4046313E-006  0.2000093E+02  0.7818608E-02  0.1745310E+00
         -2   -1    0    0    0  501 -0.00000000000E+00  0.00000000000E+00  0.58197417700E+01  0.58197423508E+01  0.26000000000E-02 0.  1.
          2   -1    0    0  501    0  0.00000000000E+00 -0.00000000000E+00 -0.17184484940E+02  0.17184485136E+02  0.26000000000E-02 0. -1.
       1023    2    1    2    0    0  0.00000000000E+00  0.00000000000E+00 -0.11364743170E+02  0.23004227487E+02  0.20000927353E+02 0.  0.
        -11    1    3    3    0    0 -0.98347543179E+01 -0.18129757276E+01 -0.56823612615E+01  0.11502108644E+02  0.51100000000E-03 0.  1.
         11    1    3    3    0    0  0.98347543179E+01  0.18129757276E+01 -0.56823819083E+01  0.11502118844E+02  0.51100000000E-03 0. -1.
<mgrwt>
<rscale>  0 0.20000927E+02</rscale>
<asrwt>0</asrwt>
<pdfrwt beam="2">  1        2 0.26437670E-02 0.20000927E+02</pdfrwt>
<pdfrwt beam="1">  1       -2 0.89534495E-03 0.20000927E+02</pdfrwt>
<totfact> 0.41135640E+06</totfact>
</mgrwt>
</event>
<event>
 5    1  0.4046313E-006  0.2000086E+02  0.7818608E-02  0.1745311E+00
         -2   -1    0    0    0  501 -0.00000000000E+00  0.00000000000E+00  0.63029351271E+01  0.63029356634E+01  0.26000000000E-02 0. -1.
          2   -1    0    0  501    0  0.00000000000E+00 -0.00000000000E+00 -0.15866983481E+02  0.15866983694E+02  0.26000000000E-02 0.  1.
       1023    2    1    2    0    0  0.00000000000E+00  0.00000000000E+00 -0.95640483541E+01  0.22169919358E+02  0.20000857567E+02 0.  0.
        -11    1    3    3    0    0  0.98972595786E+01  0.14327673006E+01 -0.47792454136E+01  0.11083760927E+02  0.51100000000E-03 0.  1.
         11    1    3    3    0    0 -0.98972595786E+01 -0.14327673006E+01 -0.47848029405E+01  0.11086158430E+02  0.51100000000E-03 0. -1.
<mgrwt>
<rscale>  0 0.20000858E+02</rscale>
<asrwt>0</asrwt>
<pdfrwt beam="2">  1        2 0.24410744E-02 0.20000858E+02</pdfrwt>
<pdfrwt beam="1">  1       -2 0.96968239E-03 0.20000858E+02</pdfrwt>
<totfact> 0.40868533E+06</totfact>
</mgrwt>
</event>
<event>
 5    1  0.4046313E-006  0.2000037E+02  0.7818608E-02  0.1745321E+00
         -2   -1    0    0    0  501 -0.00000000000E+00  0.00000000000E+00  0.15957818495E+01  0.15957839676E+01  0.26000000000E-02 0. -1.
          2   -1    0    0  501    0  0.00000000000E+00 -0.00000000000E+00 -0.62667454955E+02  0.62667455009E+02  0.26000000000E-02 0.  1.
       1023    2    1    2    0    0  0.00000000000E+00  0.00000000000E+00 -0.61071673106E+02  0.64263238977E+02  0.20000365693E+02 0.  0.
        -11    1    3    3    0    0  0.72299766426E+01  0.69087634959E+01 -0.30564827578E+02  0.32159170705E+02  0.51100000000E-03 0. -1.
         11    1    3    3    0    0 -0.72299766426E+01 -0.69087634959E+01 -0.30506845528E+02  0.32104068272E+02  0.51100000000E-03 0.  1.
<mgrwt>
<rscale>  0 0.20000366E+02</rscale>
<asrwt>0</asrwt>
<pdfrwt beam="2">  1        2 0.96411452E-02 0.20000366E+02</pdfrwt>
<pdfrwt beam="1">  1       -2 0.24550512E-03 0.20000366E+02</pdfrwt>
<totfact> 0.48052857E+06</totfact>
</mgrwt>
</event>
<event>
 5    1  0.4046313E-006  0.2000047E+02  0.7818608E-02  0.1745319E+00
         -2   -1    0    0    0  501 -0.00000000000E+00  0.00000000000E+00  0.78447173550E+02  0.78447173593E+02  0.26000000000E-02 0. -1.
          2   -1    0    0  501    0  0.00000000000E+00 -0.00000000000E+00 -0.12748021072E+01  0.12748047586E+01  0.26000000000E-02 0.  1.
       1023    2    1    2    0    0  0.00000000000E+00  0.00000000000E+00  0.77172371442E+02  0.79721978351E+02  0.20000472949E+02 0.  0.
        -11    1    3    3    0    0 -0.65036712884E+01  0.75964538032E+01  0.38468030637E+02  0.39746612836E+02  0.51100000000E-03 0. -1.
         11    1    3    3    0    0  0.65036712884E+01 -0.75964538032E+01  0.38704340806E+02  0.39975365515E+02  0.51100000000E-03 0.  1.
<mgrwt>
<rscale>  0 0.20000473E+02</rscale>
<asrwt>0</asrwt>
<pdfrwt beam="2">  1        2 0.19612354E-03 0.20000473E+02</pdfrwt>
<pdfrwt beam="1">  1       -2 0.12068801E-01 0.20000473E+02</pdfrwt>
<totfact> 0.31381327E+06</totfact>
</mgrwt>
</event>
<event>
 5    1  0.4046313E-006  0.2000023E+02  0.7818608E-02  0.1745323E+00
          2   -1    0    0  501    0  0.00000000000E+00  0.00000000000E+00  0.12438629247E+01  0.12438656421E+01  0.26000000000E-02 0.  1.
         -2   -1    0    0    0  501 -0.00000000000E+00 -0.00000000000E+00 -0.80396505885E+02  0.80396505927E+02  0.26000000000E-02 0. -1.
       1023    2    1    2    0    0  0.00000000000E+00  0.00000000000E+00 -0.79152642960E+02  0.81640371569E+02  0.20000234557E+02 0.  0.
        -11    1    3    3    0    0 -0.94316566066E+01  0.33234901985E+01 -0.39677294266E+02  0.40918081749E+02  0.51100000000E-03 0.  1.
         11    1    3    3    0    0  0.94316566066E+01 -0.33234901985E+01 -0.39475348694E+02  0.40722289820E+02  0.51100000000E-03 0. -1.
<mgrwt>
<rscale>  0 0.20000235E+02</rscale>
<asrwt>0</asrwt>
<pdfrwt beam="1">  1        2 0.19136380E-03 0.20000235E+02</pdfrwt>
<pdfrwt beam="2">  1       -2 0.12368689E-01 0.20000235E+02</pdfrwt>
<totfact> 0.31225255E+06</totfact>
</mgrwt>
</event>
<event>
 5    1  0.4046313E-006  0.2000138E+02  0.7818608E-02  0.1745301E+00
          2   -1    0    0  501    0  0.00000000000E+00  0.00000000000E+00  0.40605467740E+01  0.40605476064E+01  0.26000000000E-02 0. -1.
         -2   -1    0    0    0  501 -0.00000000000E+00 -0.00000000000E+00 -0.24630613933E+02  0.24630614071E+02  0.26000000000E-02 0.  1.
       1023    2    1    2    0    0  0.00000000000E+00  0.00000000000E+00 -0.20570067159E+02  0.28691161677E+02  0.20001377339E+02 0.  0.
        -11    1    3    3    0    0  0.28973737390E+01 -0.95716404513E+01 -0.10210523307E+02  0.14292160858E+02  0.51100000000E-03 0. -1.
         11    1    3    3    0    0 -0.28973737390E+01  0.95716404513E+01 -0.10359543852E+02  0.14399000819E+02  0.51100000000E-03 0.  1.
<mgrwt>
<rscale>  0 0.20001377E+02</rscale>
<asrwt>0</asrwt>
<pdfrwt beam="1">  1        2 0.62469960E-03 0.20001377E+02</pdfrwt>
<pdfrwt beam="2">  1       -2 0.37893252E-02 0.20001377E+02</pdfrwt>
<totfact> 0.36753778E+06</totfact>
</mgrwt>
</event>
<event>
 5    1  0.4046313E-006  0.2000135E+02  0.7818608E-02  0.1745301E+00
         -2   -1    0    0    0  501 -0.00000000000E+00  0.00000000000E+00  0.13566968150E+01  0.13566993063E+01  0.26000000000E-02 0.  1.
          2   -1    0    0  501    0  0.00000000000E+00 -0.00000000000E+00 -0.73718334788E+02  0.73718334834E+02  0.26000000000E-02 0. -1.
       1023    2    1    2    0    0  0.00000000000E+00  0.00000000000E+00 -0.72361637973E+02  0.75075034140E+02  0.20001352480E+02 0.  0.
        -11    1    3    3    0    0 -0.50219340855E+01 -0.86481536440E+01 -0.35970436119E+02  0.37334737957E+02  0.51100000000E-03 0. -1.
         11    1    3    3    0    0  0.50219340855E+01  0.86481536440E+01 -0.36391201853E+02  0.37740296183E+02  0.51100000000E-03 0.  1.
<mgrwt>
<rscale>  0 0.20001352E+02</rscale>
<asrwt>0</asrwt>
<pdfrwt beam="2">  1        2 0.11341279E-01 0.20001352E+02</pdfrwt>
<pdfrwt beam="1">  1       -2 0.20872284E-03 0.20001352E+02</pdfrwt>
<totfact> 0.49492869E+06</totfact>
</mgrwt>
</event>
<event>
 5    1  0.4046313E-006  0.2000299E+02  0.7818608E-02  0.1745269E+00
         -2   -1    0    0    0  501 -0.00000000000E+00  0.00000000000E+00  0.30004056482E+02  0.30004056594E+02  0.26000000000E-02 0. -1.
          2   -1    0    0  501    0  0.00000000000E+00 -0.00000000000E+00 -0.33338793881E+01  0.33338804019E+01  0.26000000000E-02 0.  1.
       1023    2    1    2    0    0  0.00000000000E+00  0.00000000000E+00  0.26670177093E+02  0.33337936996E+02  0.20002992200E+02 0.  0.
        -11    1    3    3    0    0  0.90526410189E+01  0.42514950058E+01  0.13445701442E+02  0.16757458242E+02  0.51100000000E-03 0. -1.
         11    1    3    3    0    0 -0.90526410189E+01 -0.42514950058E+01  0.13224475651E+02  0.16580478754E+02  0.51100000000E-03 0.  1.
<mgrwt>
<rscale>  0 0.20002992E+02</rscale>
<asrwt>0</asrwt>
<pdfrwt beam="2">  1        2 0.51290461E-03 0.20002992E+02</pdfrwt>
<pdfrwt beam="1">  1       -2 0.46160087E-02 0.20002992E+02</pdfrwt>
<totfact> 0.36052083E+06</totfact>
</mgrwt>
</event>
<event>
 5    1  0.4939430E-006  0.2000067E+02  0.7818608E-02  0.1745315E+00
         -2   -1    0    0    0  501 -0.00000000000E+00  0.00000000000E+00  0.20939498529E+01  0.20939514671E+01  0.26000000000E-02 0. -1.
          2   -1    0    0  501    0  0.00000000000E+00 -0.00000000000E+00 -0.47759795958E+02  0.47759796029E+02  0.26000000000E-02 0.  1.
       1023    2    1    2    0    0  0.00000000000E+00  0.00000000000E+00 -0.45665846105E+02  0.49853747496E+02  0.20000665961E+02 0.  0.
        -11    1    3    3    0    0 -0.99999835678E+01  0.31243970859E-01 -0.23026191032E+02  0.25103906494E+02  0.51100000000E-03 0. -1.
         11    1    3    3    0    0  0.99999835678E+01 -0.31243970859E-01 -0.22639655073E+02  0.24749841002E+02  0.51100000000E-03 0.  1.
<mgrwt>
<rscale>  0 0.20000666E+02</rscale>
<asrwt>0</asrwt>
<pdfrwt beam="2">  1        2 0.73476602E-02 0.20000666E+02</pdfrwt>
<pdfrwt beam="1">  1       -2 0.32214630E-03 0.20000666E+02</pdfrwt>
<totfact> 0.46010074E+06</totfact>
</mgrwt>
</event>
<event>
 5    1  0.4046313E-006  0.2000615E+02  0.7818608E-02  0.1745206E+00
         -2   -1    0    0    0  501 -0.00000000000E+00  0.00000000000E+00  0.48228909644E+01  0.48228916652E+01  0.26000000000E-02 0. -1.
          2   -1    0    0  501    0  0.00000000000E+00 -0.00000000000E+00 -0.20747199384E+02  0.20747199547E+02  0.26000000000E-02 0.  1.
       1023    2    1    2    0    0  0.00000000000E+00  0.00000000000E+00 -0.15924308420E+02  0.25570091212E+02  0.20006148204E+02 0.  0.
        -11    1    3    3    0    0  0.96804826261E+01 -0.25138529882E+01 -0.77397095106E+01  0.12646513523E+02  0.51100000000E-03 0. -1.
         11    1    3    3    0    0 -0.96804826261E+01  0.25138529882E+01 -0.81845989090E+01  0.12923577689E+02  0.51100000000E-03 0.  1.
<mgrwt>
<rscale>  0 0.20006148E+02</rscale>
<asrwt>0</asrwt>
<pdfrwt beam="2">  1        2 0.31918769E-02 0.20006148E+02</pdfrwt>
<pdfrwt beam="1">  1       -2 0.74198330E-03 0.20006148E+02</pdfrwt>
<totfact> 0.41785618E+06</totfact>
</mgrwt>
</event>
<event>
 5    1  0.4046313E-006  0.2000250E+02  0.7818608E-02  0.1745278E+00
          2   -1    0    0  501    0  0.00000000000E+00  0.00000000000E+00  0.89776645410E+01  0.89776649175E+01  0.26000000000E-02 0.  1.
         -2   -1    0    0    0  501 -0.00000000000E+00 -0.00000000000E+00 -0.11141538945E+02  0.11141539249E+02  0.26000000000E-02 0. -1.
       1023    2    1    2    0    0  0.00000000000E+00  0.00000000000E+00 -0.21638744042E+01  0.20119204166E+02  0.20002500440E+02 0.  0.
        -11    1    3    3    0    0 -0.47067764484E+01 -0.88243928877E+01 -0.11189120763E+01  0.10063578830E+02  0.51100000000E-03 0. -1.
         11    1    3    3    0    0  0.47067764484E+01  0.88243928877E+01 -0.10449623279E+01  0.10055625336E+02  0.51100000000E-03 0.  1.
<mgrwt>
<rscale>  0 0.20002500E+02</rscale>
<asrwt>0</asrwt>
<pdfrwt beam="1">  1        2 0.13811792E-02 0.20002500E+02</pdfrwt>
<pdfrwt beam="2">  1       -2 0.17140830E-02 0.20002500E+02</pdfrwt>
<totfact> 0.39141825E+06</totfact>
</mgrwt>
</event>
<event>
 5    1  0.4046313E-006  0.2000059E+02  0.7818608E-02  0.1745316E+00
          2   -1    0    0  501    0  0.00000000000E+00  0.00000000000E+00  0.76295887433E+01  0.76295891863E+01  0.26000000000E-02 0.  1.
         -2   -1    0    0    0  501 -0.00000000000E+00 -0.00000000000E+00 -0.13107637748E+02  0.13107638006E+02  0.26000000000E-02 0. -1.
       1023    2    1    2    0    0  0.00000000000E+00  0.00000000000E+00 -0.54780490051E+01  0.20737227193E+02  0.20000589260E+02 0.  0.
        -11    1    3    3    0    0  0.92466535185E+01  0.38085737019E+01 -0.27311630479E+01  0.10366536875E+02  0.51100000000E-03 0.  1.
         11    1    3    3    0    0 -0.92466535185E+01 -0.38085737019E+01 -0.27468859572E+01  0.10370690317E+02  0.51100000000E-03 0. -1.
<mgrwt>
<rscale>  0 0.20000589E+02</rscale>
<asrwt>0</asrwt>
<pdfrwt beam="1">  1        2 0.11737829E-02 0.20000589E+02</pdfrwt>
<pdfrwt beam="2">  1       -2 0.20165597E-02 0.20000589E+02</pdfrwt>
<totfact> 0.38684638E+06</totfact>
</mgrwt>
</event>
<event>
 5    1  0.4046313E-006  0.2000026E+02  0.7818608E-02  0.1745323E+00
         -2   -1    0    0    0  501 -0.00000000000E+00  0.00000000000E+00  0.20844699573E+01  0.20844715788E+01  0.26000000000E-02 0. -1.
          2   -1    0    0  501    0  0.00000000000E+00 -0.00000000000E+00 -0.47975038760E+02  0.47975038830E+02  0.26000000000E-02 0.  1.
       1023    2    1    2    0    0  0.00000000000E+00  0.00000000000E+00 -0.45890568803E+02  0.50059510409E+02  0.20000256933E+02 0.  0.
        -11    1    3    3    0    0 -0.27182604817E+01 -0.96235457630E+01 -0.22866293519E+02  0.24957342660E+02  0.51100000000E-03 0. -1.
         11    1    3    3    0    0  0.27182604817E+01  0.96235457630E+01 -0.23024275284E+02  0.25102167749E+02  0.51100000000E-03 0.  1.
<mgrwt>
<rscale>  0 0.20000257E+02</rscale>
<asrwt>0</asrwt>
<pdfrwt beam="2">  1        2 0.73807745E-02 0.20000257E+02</pdfrwt>
<pdfrwt beam="1">  1       -2 0.32068785E-03 0.20000257E+02</pdfrwt>
<totfact> 0.46042540E+06</totfact>
</mgrwt>
</event>
<event>
 5    1  0.4046313E-006  0.2000069E+02  0.7818608E-02  0.1745314E+00
         -2   -1    0    0    0  501 -0.00000000000E+00  0.00000000000E+00  0.24906976354E+01  0.24906989925E+01  0.26000000000E-02 0.  1.
          2   -1    0    0  501    0  0.00000000000E+00 -0.00000000000E+00 -0.40152154562E+02  0.40152154646E+02  0.26000000000E-02 0. -1.
       1023    2    1    2    0    0  0.00000000000E+00  0.00000000000E+00 -0.37661456926E+02  0.42642853639E+02  0.20000690704E+02 0.  0.
        -11    1    3    3    0    0  0.67222683143E+01 -0.74037575093E+01 -0.18934967844E+02  0.21413489301E+02  0.51100000000E-03 0. -1.
         11    1    3    3    0    0 -0.67222683143E+01  0.74037575093E+01 -0.18726489083E+02  0.21229364338E+02  0.51100000000E-03 0.  1.
<mgrwt>
<rscale>  0 0.20000691E+02</rscale>
<asrwt>0</asrwt>
<pdfrwt beam="2">  1        2 0.61772542E-02 0.20000691E+02</pdfrwt>
<pdfrwt beam="1">  1       -2 0.38318439E-03 0.20000691E+02</pdfrwt>
<totfact> 0.44915215E+06</totfact>
</mgrwt>
</event>
<event>
 5    1  0.4046313E-006  0.2000522E+02  0.7818608E-02  0.1745224E+00
         -2   -1    0    0    0  501 -0.00000000000E+00  0.00000000000E+00  0.20344652670E+02  0.20344652836E+02  0.26000000000E-02 0.  1.
          2   -1    0    0  501    0  0.00000000000E+00 -0.00000000000E+00 -0.49178629405E+01  0.49178636278E+01  0.26000000000E-02 0. -1.
       1023    2    1    2    0    0  0.00000000000E+00  0.00000000000E+00  0.15426789729E+02  0.25262516464E+02  0.20005221736E+02 0.  0.
        -11    1    3    3    0    0  0.82591366287E+01 -0.56424612919E+01  0.76642164861E+01  0.12601226999E+02  0.51100000000E-03 0. -1.
         11    1    3    3    0    0 -0.82591366287E+01  0.56424612919E+01  0.77625732430E+01  0.12661289464E+02  0.51100000000E-03 0.  1.
<mgrwt>
<rscale>  0 0.20005222E+02</rscale>
<asrwt>0</asrwt>
<pdfrwt beam="2">  1        2 0.75659436E-03 0.20005222E+02</pdfrwt>
<pdfrwt beam="1">  1       -2 0.31299466E-02 0.20005222E+02</pdfrwt>
<totfact> 0.37359244E+06</totfact>
</mgrwt>
</event>
<event>
 5    1  0.4046313E-006  0.2000234E+02  0.7818608E-02  0.1745282E+00
         -2   -1    0    0    0  501 -0.00000000000E+00  0.00000000000E+00  0.15221083216E+02  0.15221083438E+02  0.26000000000E-02 0.  1.
          2   -1    0    0  501    0  0.00000000000E+00 -0.00000000000E+00 -0.65713690933E+01  0.65713696077E+01  0.26000000000E-02 0. -1.
       1023    2    1    2    0    0  0.00000000000E+00  0.00000000000E+00  0.86497141230E+01  0.21792453046E+02  0.20002336247E+02 0.  0.
        -11    1    3    3    0    0 -0.32882466200E+01 -0.94451458812E+01  0.43293525678E+01  0.10898010849E+02  0.51100000000E-03 0. -1.
         11    1    3    3    0    0  0.32882466200E+01  0.94451458812E+01  0.43203615553E+01  0.10894442197E+02  0.51100000000E-03 0.  1.
<mgrwt>
<rscale>  0 0.20002336E+02</rscale>
<asrwt>0</asrwt>
<pdfrwt beam="2">  1        2 0.10109799E-02 0.20002336E+02</pdfrwt>
<pdfrwt beam="1">  1       -2 0.23417051E-02 0.20002336E+02</pdfrwt>
<totfact> 0.38245346E+06</totfact>
</mgrwt>
</event>
<event>
 5    1  0.4046313E-006  0.2000327E+02  0.7818608E-02  0.1745263E+00
          2   -1    0    0  501    0  0.00000000000E+00  0.00000000000E+00  0.11674116213E+03  0.11674116216E+03  0.26000000000E-02 0. -1.
         -2   -1    0    0    0  501 -0.00000000000E+00 -0.00000000000E+00 -0.85687436706E+00  0.85687831162E+00  0.26000000000E-02 0.  1.
       1023    2    1    2    0    0  0.00000000000E+00  0.00000000000E+00  0.11588428776E+03  0.11759804047E+03  0.20003274037E+02 0.  0.
        -11    1    3    3    0    0 -0.66097333941E+01 -0.75055043446E+01  0.58574554376E+02  0.59422214631E+02  0.51100000000E-03 0.  1.
         11    1    3    3    0    0  0.66097333941E+01  0.75055043446E+01  0.57309733386E+02  0.58175825839E+02  0.51100000000E-03 0. -1.
<mgrwt>
<rscale>  0 0.20003274E+02</rscale>
<asrwt>0</asrwt>
<pdfrwt beam="1">  1        2 0.17960169E-01 0.20003274E+02</pdfrwt>
<pdfrwt beam="2">  1       -2 0.13182720E-03 0.20003274E+02</pdfrwt>
<totfact> 0.54699892E+06</totfact>
</mgrwt>
</event>
<event>
 5    1  0.4046313E-006  0.2000656E+02  0.7818608E-02  0.1745198E+00
          2   -1    0    0  501    0  0.00000000000E+00  0.00000000000E+00  0.93419351932E+00  0.93419713741E+00  0.26000000000E-02 0. -1.
         -2   -1    0    0    0  501 -0.00000000000E+00 -0.00000000000E+00 -0.10711422539E+03  0.10711422542E+03  0.26000000000E-02 0.  1.
       1023    2    1    2    0    0  0.00000000000E+00  0.00000000000E+00 -0.10618003187E+03  0.10804842256E+03  0.20006560159E+02 0.  0.
        -11    1    3    3    0    0  0.47212789356E+01 -0.88177935441E+01 -0.52295288418E+02  0.53243226318E+02  0.51100000000E-03 0. -1.
         11    1    3    3    0    0 -0.47212789356E+01  0.88177935441E+01 -0.53884743449E+02  0.54805196237E+02  0.51100000000E-03 0.  1.
<mgrwt>
<rscale>  0 0.20006560E+02</rscale>
<asrwt>0</asrwt>
<pdfrwt beam="1">  1        2 0.14372245E-03 0.20006560E+02</pdfrwt>
<pdfrwt beam="2">  1       -2 0.16479102E-01 0.20006560E+02</pdfrwt>
<totfact> 0.29201203E+06</totfact>
</mgrwt>
</event>
<event>
 5    1  0.4372996E-006  0.2000100E+02  0.7818608E-02  0.1745308E+00
          2   -1    0    0  501    0  0.00000000000E+00  0.00000000000E+00  0.10397592172E+03  0.10397592175E+03  0.26000000000E-02 0.  1.
         -2   -1    0    0    0  501 -0.00000000000E+00 -0.00000000000E+00 -0.96185541524E+00  0.96185892928E+00  0.26000000000E-02 0. -1.
       1023    2    1    2    0    0  0.00000000000E+00  0.00000000000E+00  0.10301406631E+03  0.10493778068E+03  0.20000998920E+02 0.  0.
        -11    1    3    3    0    0  0.49346393267E+01  0.86978040514E+01  0.51962269365E+02  0.52915781185E+02  0.51100000000E-03 0. -1.
         11    1    3    3    0    0 -0.49346393267E+01 -0.86978040514E+01  0.51051796941E+02  0.52021999498E+02  0.51100000000E-03 0.  1.
<mgrwt>
<rscale>  0 0.20000999E+02</rscale>
<asrwt>0</asrwt>
<pdfrwt beam="1">  1        2 0.15996290E-01 0.20000999E+02</pdfrwt>
<pdfrwt beam="2">  1       -2 0.14797808E-03 0.20000999E+02</pdfrwt>
<totfact> 0.53225746E+06</totfact>
</mgrwt>
</event>
<event>
 5    1  0.4046313E-006  0.2000047E+02  0.7818608E-02  0.1745319E+00
         -2   -1    0    0    0  501 -0.00000000000E+00  0.00000000000E+00  0.35803742228E+02  0.35803742323E+02  0.26000000000E-02 0.  1.
          2   -1    0    0  501    0  0.00000000000E+00 -0.00000000000E+00 -0.27931347737E+01  0.27931359838E+01  0.26000000000E-02 0. -1.
       1023    2    1    2    0    0  0.00000000000E+00  0.00000000000E+00  0.33010607455E+02  0.38596878307E+02  0.20000470257E+02 0.  0.
        -11    1    3    3    0    0  0.91574695108E+01 -0.40178386392E+01  0.16410229301E+02  0.19217125205E+02  0.51100000000E-03 0. -1.
         11    1    3    3    0    0 -0.91574695108E+01  0.40178386392E+01  0.16600378153E+02  0.19379753101E+02  0.51100000000E-03 0.  1.
<mgrwt>
<rscale>  0 0.20000470E+02</rscale>
<asrwt>0</asrwt>
<pdfrwt beam="2">  1        2 0.42971317E-03 0.20000470E+02</pdfrwt>
<pdfrwt beam="1">  1       -2 0.55082677E-02 0.20000470E+02</pdfrwt>
<totfact> 0.35379970E+06</totfact>
</mgrwt>
</event>
<event>
 5    1  0.4046313E-006  0.2000062E+02  0.7818608E-02  0.1745316E+00
         -2   -1    0    0    0  501 -0.00000000000E+00  0.00000000000E+00  0.73886532479E+02  0.73886532524E+02  0.26000000000E-02 0.  1.
          2   -1    0    0  501    0  0.00000000000E+00 -0.00000000000E+00 -0.13535098030E+01  0.13535123002E+01  0.26000000000E-02 0. -1.
       1023    2    1    2    0    0  0.00000000000E+00  0.00000000000E+00  0.72533022676E+02  0.75240044825E+02  0.20000624159E+02 0.  0.
        -11    1    3    3    0    0 -0.86231916841E+01 -0.50638094746E+01  0.36522767394E+02  0.37867058766E+02  0.51100000000E-03 0. -1.
         11    1    3    3    0    0  0.86231916841E+01  0.50638094746E+01  0.36010255282E+02  0.37372986059E+02  0.51100000000E-03 0.  1.
<mgrwt>
<rscale>  0 0.20000624E+02</rscale>
<asrwt>0</asrwt>
<pdfrwt beam="2">  1        2 0.20823241E-03 0.20000624E+02</pdfrwt>
<pdfrwt beam="1">  1       -2 0.11367162E-01 0.20000624E+02</pdfrwt>
<totfact> 0.31754638E+06</totfact>
</mgrwt>
</event>
<event>
 5    1  0.4046313E-006  0.2000101E+02  0.7818608E-02  0.1745308E+00
         -2   -1    0    0    0  501 -0.00000000000E+00  0.00000000000E+00  0.99991195642E+02  0.99991195675E+02  0.26000000000E-02 0. -1.
          2   -1    0    0  501    0  0.00000000000E+00 -0.00000000000E+00 -0.10001873290E+01  0.10001907084E+01  0.26000000000E-02 0.  1.
       1023    2    1    2    0    0  0.00000000000E+00  0.00000000000E+00  0.98991008313E+02  0.10099138638E+03  0.20001009899E+02 0.  0.
        -11    1    3    3    0    0 -0.30849581818E+01  0.95125765142E+01  0.49175357724E+02  0.50181888032E+02  0.51100000000E-03 0.  1.
         11    1    3    3    0    0  0.30849581818E+01 -0.95125765142E+01  0.49815650588E+02  0.50809498352E+02  0.51100000000E-03 0. -1.
<mgrwt>
<rscale>  0 0.20001010E+02</rscale>
<asrwt>0</asrwt>
<pdfrwt beam="2">  1        2 0.15387522E-03 0.20001010E+02</pdfrwt>
<pdfrwt beam="1">  1       -2 0.15383263E-01 0.20001010E+02</pdfrwt>
<totfact> 0.29728108E+06</totfact>
</mgrwt>
</event>
<event>
 5    1  0.4336742E-006  0.2000072E+02  0.7818608E-02  0.1745314E+00
         -2   -1    0    0    0  501 -0.00000000000E+00  0.00000000000E+00  0.88255939795E+00  0.88256322771E+00  0.26000000000E-02 0. -1.
          2   -1    0    0  501    0  0.00000000000E+00 -0.00000000000E+00 -0.11331470415E+03  0.11331470418E+03  0.26000000000E-02 0.  1.
       1023    2    1    2    0    0  0.00000000000E+00  0.00000000000E+00 -0.11243214475E+03  0.11419726740E+03  0.20000717732E+02 0.  0.
        -11    1    3    3    0    0  0.79770436945E+01  0.60309763940E+01 -0.56012211350E+02  0.56897923714E+02  0.51100000000E-03 0.  1.
         11    1    3    3    0    0 -0.79770436945E+01 -0.60309763940E+01 -0.56419933399E+02  0.57299343690E+02  0.51100000000E-03 0. -1.
<mgrwt>
<rscale>  0 0.20000718E+02</rscale>
<asrwt>0</asrwt>
<pdfrwt beam="2">  1        2 0.17433020E-01 0.20000718E+02</pdfrwt>
<pdfrwt beam="1">  1       -2 0.13577876E-03 0.20000718E+02</pdfrwt>
<totfact> 0.54320400E+06</totfact>
</mgrwt>
</event>
<event>
 5    1  0.4046313E-006  0.2000088E+02  0.7818608E-02  0.1745311E+00
          2   -1    0    0  501    0  0.00000000000E+00  0.00000000000E+00  0.12750664246E+02  0.12750664511E+02  0.26000000000E-02 0. -1.
         -2   -1    0    0    0  501 -0.00000000000E+00 -0.00000000000E+00 -0.78434165833E+01  0.78434170143E+01  0.26000000000E-02 0.  1.
       1023    2    1    2    0    0  0.00000000000E+00  0.00000000000E+00  0.49072476627E+01  0.20594081525E+02  0.20000877837E+02 0.  0.
        -11    1    3    3    0    0  0.84800025898E+01 -0.52999643769E+01  0.25497301367E+01  0.10319941393E+02  0.51100000000E-03 0.  1.
         11    1    3    3    0    0 -0.84800025898E+01  0.52999643769E+01  0.23575175261E+01  0.10274140133E+02  0.51100000000E-03 0. -1.
<mgrwt>
<rscale>  0 0.20000878E+02</rscale>
<asrwt>0</asrwt>
<pdfrwt beam="1">  1        2 0.19616407E-02 0.20000878E+02</pdfrwt>
<pdfrwt beam="2">  1       -2 0.12066795E-02 0.20000878E+02</pdfrwt>
<totfact> 0.40177919E+06</totfact>
</mgrwt>
</event>
<event>
 5    1  0.4046313E-006  0.2000411E+02  0.7818608E-02  0.1745246E+00
         -2   -1    0    0    0  501 -0.00000000000E+00  0.00000000000E+00  0.35871127902E+01  0.35871137325E+01  0.26000000000E-02 0. -1.
          2   -1    0    0  501    0  0.00000000000E+00 -0.00000000000E+00 -0.27889038409E+02  0.27889038530E+02  0.26000000000E-02 0.  1.
       1023    2    1    2    0    0  0.00000000000E+00  0.00000000000E+00 -0.24301925619E+02  0.31476152263E+02  0.20004113889E+02 0.  0.
        -11    1    3    3    0    0 -0.55672122459E+01  0.83075996401E+01 -0.12428355523E+02  0.15952243893E+02  0.51100000000E-03 0.  1.
         11    1    3    3    0    0  0.55672122459E+01 -0.83075996401E+01 -0.11873570096E+02  0.15523908369E+02  0.51100000000E-03 0. -1.
<mgrwt>
<rscale>  0 0.20004114E+02</rscale>
<asrwt>0</asrwt>
<pdfrwt beam="2">  1        2 0.42906212E-02 0.20004114E+02</pdfrwt>
<pdfrwt beam="1">  1       -2 0.55186361E-03 0.20004114E+02</pdfrwt>
<totfact> 0.43014676E+06</totfact>
</mgrwt>
</event>
<event>
 5    1  0.4046313E-006  0.2000421E+02  0.7818608E-02  0.1745244E+00
         -2   -1    0    0    0  501 -0.00000000000E+00  0.00000000000E+00  0.24190342035E+01  0.24190356007E+01  0.26000000000E-02 0.  1.
          2   -1    0    0  501    0  0.00000000000E+00 -0.00000000000E+00 -0.41356194769E+02  0.41356194850E+02  0.26000000000E-02 0. -1.
       1023    2    1    2    0    0  0.00000000000E+00  0.00000000000E+00 -0.38937160565E+02  0.43775230451E+02  0.20004207762E+02 0.  0.
        -11    1    3    3    0    0  0.35726478980E+00 -0.99953579751E+01 -0.19655069268E+02  0.22053493315E+02  0.51100000000E-03 0. -1.
         11    1    3    3    0    0 -0.35726478980E+00  0.99953579751E+01 -0.19282091297E+02  0.21721737137E+02  0.51100000000E-03 0.  1.
<mgrwt>
<rscale>  0 0.20004208E+02</rscale>
<asrwt>0</asrwt>
<pdfrwt beam="2">  1        2 0.63624911E-02 0.20004208E+02</pdfrwt>
<pdfrwt beam="1">  1       -2 0.37215925E-03 0.20004208E+02</pdfrwt>
<totfact> 0.45073789E+06</totfact>
</mgrwt>
</event>
<event>
 5    1  0.4046313E-006  0.2000127E+02  0.7818608E-02  0.1745303E+00
         -2   -1    0    0    0  501 -0.00000000000E+00  0.00000000000E+00  0.18767069819E+02  0.18767069999E+02  0.26000000000E-02 0.  1.
          2   -1    0    0  501    0  0.00000000000E+00 -0.00000000000E+00 -0.53291572536E+01  0.53291578878E+01  0.26000000000E-02 0. -1.
       1023    2    1    2    0    0  0.00000000000E+00  0.00000000000E+00  0.13437912566E+02  0.24096227887E+02  0.20001267567E+02 0.  0.
        -11    1    3    3    0    0 -0.37365785088E+00 -0.99936040041E+01  0.66821255552E+01  0.12027574293E+02  0.51100000000E-03 0. -1.
         11    1    3    3    0    0  0.37365785088E+00  0.99936040041E+01  0.67557870106E+01  0.12068653594E+02  0.51100000000E-03 0.  1.
<mgrwt>
<rscale>  0 0.20001268E+02</rscale>
<asrwt>0</asrwt>
<pdfrwt beam="2">  1        2 0.81987041E-03 0.20001268E+02</pdfrwt>
<pdfrwt beam="1">  1       -2 0.28872416E-02 0.20001268E+02</pdfrwt>
<totfact> 0.37625415E+06</totfact>
</mgrwt>
</event>
<event>
 5    1  0.4046313E-006  0.2000301E+02  0.7818608E-02  0.1745268E+00
         -2   -1    0    0    0  501 -0.00000000000E+00  0.00000000000E+00  0.47510195892E+01  0.47510203007E+01  0.26000000000E-02 0.  1.
          2   -1    0    0  501    0  0.00000000000E+00 -0.00000000000E+00 -0.21054453507E+02  0.21054453668E+02  0.26000000000E-02 0. -1.
       1023    2    1    2    0    0  0.00000000000E+00  0.00000000000E+00 -0.16303433918E+02  0.25805473968E+02  0.20003013003E+02 0.  0.
        -11    1    3    3    0    0  0.67506503850E+00  0.99772723468E+01 -0.83693382975E+01  0.13040226228E+02  0.51100000000E-03 0. -1.
         11    1    3    3    0    0 -0.67506503850E+00 -0.99772723468E+01 -0.79340956204E+01  0.12765247740E+02  0.51100000000E-03 0.  1.
<mgrwt>
<rscale>  0 0.20003013E+02</rscale>
<asrwt>0</asrwt>
<pdfrwt beam="2">  1        2 0.32391467E-02 0.20003013E+02</pdfrwt>
<pdfrwt beam="1">  1       -2 0.73092617E-03 0.20003013E+02</pdfrwt>
<totfact> 0.41855897E+06</totfact>
</mgrwt>
</event>
<event>
 5    1  0.4046313E-006  0.2000107E+02  0.7818608E-02  0.1745307E+00
         -2   -1    0    0    0  501 -0.00000000000E+00  0.00000000000E+00  0.19308786839E+02  0.19308787014E+02  0.26000000000E-02 0.  1.
          2   -1    0    0  501    0  0.00000000000E+00 -0.00000000000E+00 -0.51795447272E+01  0.51795453798E+01  0.26000000000E-02 0. -1.
       1023    2    1    2    0    0  0.00000000000E+00  0.00000000000E+00  0.14129242112E+02  0.24488332394E+02  0.20001073491E+02 0.  0.
        -11    1    3    3    0    0  0.18769878354E+01  0.98227600563E+01  0.71040382522E+01  0.12266909073E+02  0.51100000000E-03 0.  1.
         11    1    3    3    0    0 -0.18769878354E+01 -0.98227600563E+01  0.70252038600E+01  0.12221423321E+02  0.51100000000E-03 0. -1.
<mgrwt>
<rscale>  0 0.20001073E+02</rscale>
<asrwt>0</asrwt>
<pdfrwt beam="2">  1        2 0.79685310E-03 0.20001073E+02</pdfrwt>
<pdfrwt beam="1">  1       -2 0.29705827E-02 0.20001073E+02</pdfrwt>
<totfact> 0.37538740E+06</totfact>
</mgrwt>
</event>
<event>
 4    1  0.4046313E-006  0.2001747E+02  0.7818608E-02  0.1744981E+00
          2   -1    0    0  501    0  0.00000000000E+00  0.00000000000E+00  0.41668692114E+02  0.41668692195E+02  0.26000000000E-02 0. -1.
         -2   -1    0    0    0  501 -0.00000000000E+00 -0.00000000000E+00 -0.24040757990E+01  0.24040772049E+01  0.26000000000E-02 0.  1.
        -11    1    1    2    0    0 -0.90503171137E+01  0.42710977420E+01  0.19289723624E+02  0.21731174693E+02  0.51100000000E-03 0.  1.
         11    1    1    2    0    0  0.90503171137E+01 -0.42710977420E+01  0.19974892691E+02  0.22341594707E+02  0.51100000000E-03 0. -1.
<mgrwt>
<rscale>  0 0.20017465E+02</rscale>
<asrwt>0</asrwt>
<pdfrwt beam="1">  1        2 0.64105678E-02 0.20017465E+02</pdfrwt>
<pdfrwt beam="2">  1       -2 0.36985795E-03 0.20017465E+02</pdfrwt>
<totfact> 0.45052637E+06</totfact>
</mgrwt>
</event>
<event>
 5    1  0.4046313E-006  0.2000992E+02  0.7818608E-02  0.1745131E+00
         -2   -1    0    0    0  501 -0.00000000000E+00  0.00000000000E+00  0.69857469215E+02  0.69857469264E+02  0.26000000000E-02 0. -1.
          2   -1    0    0  501    0  0.00000000000E+00 -0.00000000000E+00 -0.14329051736E+01  0.14329075324E+01  0.26000000000E-02 0.  1.
       1023    2    1    2    0    0  0.00000000000E+00  0.00000000000E+00  0.68424564042E+02  0.71290376796E+02  0.20009919026E+02 0.  0.
        -11    1    3    3    0    0 -0.89566160551E+01  0.44501238301E+01  0.35185646020E+02  0.36579423989E+02  0.51100000000E-03 0. -1.
         11    1    3    3    0    0  0.89566160551E+01 -0.44501238301E+01  0.33238918022E+02  0.34710952807E+02  0.51100000000E-03 0.  1.
<mgrwt>
<rscale>  0 0.20009919E+02</rscale>
<asrwt>0</asrwt>
<pdfrwt beam="2">  1        2 0.22044717E-03 0.20009919E+02</pdfrwt>
<pdfrwt beam="1">  1       -2 0.10747302E-01 0.20009919E+02</pdfrwt>
<totfact> 0.32060598E+06</totfact>
</mgrwt>
</event>
<event>
 4    1  0.4046313E-006  0.2014252E+02  0.7818608E-02  0.1742509E+00
         -2   -1    0    0    0  501 -0.00000000000E+00  0.00000000000E+00  0.14783783147E+02  0.14783783375E+02  0.26000000000E-02 0.  1.
          2   -1    0    0  501    0  0.00000000000E+00 -0.00000000000E+00 -0.68609148197E+01  0.68609153124E+01  0.26000000000E-02 0. -1.
        -11    1    1    2    0    0 -0.58758196087E+01  0.81218862549E+01  0.50032712410E+01  0.11203705449E+02  0.51100000000E-03 0. -1.
         11    1    1    2    0    0  0.58758196087E+01 -0.81218862549E+01  0.29195970861E+01  0.10440993239E+02  0.51100000000E-03 0.  1.
<mgrwt>
<rscale>  0 0.20142521E+02</rscale>
<asrwt>0</asrwt>
<pdfrwt beam="2">  1        2 0.10555254E-02 0.20142521E+02</pdfrwt>
<pdfrwt beam="1">  1       -2 0.22744282E-02 0.20142521E+02</pdfrwt>
<totfact> 0.37756508E+06</totfact>
</mgrwt>
</event>
<event>
 5    1  0.4046313E-006  0.2000040E+02  0.7818608E-02  0.1745320E+00
         -2   -1    0    0    0  501 -0.00000000000E+00  0.00000000000E+00  0.11477010384E+02  0.11477010679E+02  0.26000000000E-02 0. -1.
          2   -1    0    0  501    0  0.00000000000E+00 -0.00000000000E+00 -0.87134206173E+01  0.87134210052E+01  0.26000000000E-02 0.  1.
       1023    2    1    2    0    0  0.00000000000E+00  0.00000000000E+00  0.27635897670E+01  0.20190431684E+02  0.20000402576E+02 0.  0.
        -11    1    3    3    0    0  0.15643461973E+01  0.98769854970E+01  0.13366034584E+01  0.10089030211E+02  0.51100000000E-03 0. -1.
         11    1    3    3    0    0 -0.15643461973E+01 -0.98769854970E+01  0.14269863086E+01  0.10101401473E+02  0.51100000000E-03 0.  1.
<mgrwt>
<rscale>  0 0.20000403E+02</rscale>
<asrwt>0</asrwt>
<pdfrwt beam="2">  1        2 0.13405263E-02 0.20000403E+02</pdfrwt>
<pdfrwt beam="1">  1       -2 0.17656939E-02 0.20000403E+02</pdfrwt>
<totfact> 0.39065655E+06</totfact>
</mgrwt>
</event>
<event>
 4    1  0.4046313E-006  0.2001557E+02  0.7818608E-02  0.1745019E+00
         -2   -1    0    0    0  501 -0.00000000000E+00  0.00000000000E+00  0.62989270703E+01  0.62989276069E+01  0.26000000000E-02 0.  1.
          2   -1    0    0  501    0  0.00000000000E+00 -0.00000000000E+00 -0.15900450534E+02  0.15900450746E+02  0.26000000000E-02 0. -1.
        -11    1    1    2    0    0 -0.47467833141E+01 -0.88053680690E+01 -0.44692752315E+01  0.10956316900E+02  0.51100000000E-03 0. -1.
         11    1    1    2    0    0  0.47467833141E+01  0.88053680690E+01 -0.51322482319E+01  0.11243061453E+02  0.51100000000E-03 0.  1.
<mgrwt>
<rscale>  0 0.20015573E+02</rscale>
<asrwt>0</asrwt>
<pdfrwt beam="2">  1        2 0.24462232E-02 0.20015573E+02</pdfrwt>
<pdfrwt beam="1">  1       -2 0.96906577E-03 0.20015573E+02</pdfrwt>
<totfact> 0.40807519E+06</totfact>
</mgrwt>
</event>
<event>
 5    1  0.4046313E-006  0.2000477E+02  0.7818608E-02  0.1745233E+00
          2   -1    0    0  501    0  0.00000000000E+00  0.00000000000E+00  0.93275420857E+02  0.93275420894E+02  0.26000000000E-02 0. -1.
         -2   -1    0    0    0  501 -0.00000000000E+00 -0.00000000000E+00 -0.10726033541E+01  0.10726065053E+01  0.26000000000E-02 0.  1.
       1023    2    1    2    0    0  0.00000000000E+00  0.00000000000E+00  0.92202817503E+02  0.94348027399E+02  0.20004767395E+02 0.  0.
        -11    1    3    3    0    0  0.99947669725E+01 -0.38778207974E+00  0.46309010513E+02  0.47376895179E+02  0.51100000000E-03 0. -1.
         11    1    3    3    0    0 -0.99947669725E+01  0.38778207974E+00  0.45893806990E+02  0.46971132220E+02  0.51100000000E-03 0.  1.
<mgrwt>
<rscale>  0 0.20004767E+02</rscale>
<asrwt>0</asrwt>
<pdfrwt beam="1">  1        2 0.14350060E-01 0.20004767E+02</pdfrwt>
<pdfrwt beam="2">  1       -2 0.16501620E-03 0.20004767E+02</pdfrwt>
<totfact> 0.51918282E+06</totfact>
</mgrwt>
</event>
<event>
 5    1  0.4046313E-006  0.2000092E+02  0.7818608E-02  0.1745310E+00
         -2   -1    0    0    0  501 -0.00000000000E+00  0.00000000000E+00  0.15059885367E+02  0.15059885591E+02  0.26000000000E-02 0. -1.
          2   -1    0    0  501    0  0.00000000000E+00 -0.00000000000E+00 -0.66407662370E+01  0.66407667460E+01  0.26000000000E-02 0.  1.
       1023    2    1    2    0    0  0.00000000000E+00  0.00000000000E+00  0.84191191300E+01  0.21700652337E+02  0.20000918603E+02 0.  0.
        -11    1    3    3    0    0  0.85689065427E+01 -0.51557677386E+01  0.41738100093E+01  0.10836456550E+02  0.51100000000E-03 0. -1.
         11    1    3    3    0    0 -0.85689065427E+01  0.51557677386E+01  0.42453091207E+01  0.10864195787E+02  0.51100000000E-03 0.  1.
<mgrwt>
<rscale>  0 0.20000919E+02</rscale>
<asrwt>0</asrwt>
<pdfrwt beam="2">  1        2 0.10216564E-02 0.20000919E+02</pdfrwt>
<pdfrwt beam="1">  1       -2 0.23169055E-02 0.20000919E+02</pdfrwt>
<totfact> 0.38282238E+06</totfact>
</mgrwt>
</event>
<event>
 5    1  0.4046313E-006  0.2000187E+02  0.7818608E-02  0.1745291E+00
         -2   -1    0    0    0  501 -0.00000000000E+00  0.00000000000E+00  0.70089190629E+02  0.70089190677E+02  0.26000000000E-02 0. -1.
          2   -1    0    0  501    0  0.00000000000E+00 -0.00000000000E+00 -0.14270197025E+01  0.14270220710E+01  0.26000000000E-02 0.  1.
       1023    2    1    2    0    0  0.00000000000E+00  0.00000000000E+00  0.68662170926E+02  0.71516212748E+02  0.20001874150E+02 0.  0.
        -11    1    3    3    0    0 -0.76596095126E+01 -0.64292284123E+01  0.33905825475E+02  0.35349817500E+02  0.51100000000E-03 0.  1.
         11    1    3    3    0    0  0.76596095126E+01  0.64292284123E+01  0.34756345451E+02  0.36166395248E+02  0.51100000000E-03 0. -1.
<mgrwt>
<rscale>  0 0.20001874E+02</rscale>
<asrwt>0</asrwt>
<pdfrwt beam="2">  1        2 0.21954165E-03 0.20001874E+02</pdfrwt>
<pdfrwt beam="1">  1       -2 0.10782954E-01 0.20001874E+02</pdfrwt>
<totfact> 0.32069091E+06</totfact>
</mgrwt>
</event>
<event>
 5    1  0.4046313E-006  0.2000585E+02  0.7818608E-02  0.1745212E+00
          2   -1    0    0  501    0  0.00000000000E+00  0.00000000000E+00  0.47893927286E+01  0.47893934344E+01  0.26000000000E-02 0.  1.
         -2   -1    0    0    0  501 -0.00000000000E+00 -0.00000000000E+00 -0.20891690340E+02  0.20891690502E+02  0.26000000000E-02 0. -1.
       1023    2    1    2    0    0  0.00000000000E+00  0.00000000000E+00 -0.16102297611E+02  0.25681083936E+02  0.20005851238E+02 0.  0.
        -11    1    3    3    0    0  0.26237954541E+01 -0.96499808628E+01 -0.77581790146E+01  0.12656846966E+02  0.51100000000E-03 0.  1.
         11    1    3    3    0    0 -0.26237954541E+01  0.96499808628E+01 -0.83441185967E+01  0.13024236970E+02  0.51100000000E-03 0. -1.
<mgrwt>
<rscale>  0 0.20005851E+02</rscale>
<asrwt>0</asrwt>
<pdfrwt beam="1">  1        2 0.73682973E-03 0.20005851E+02</pdfrwt>
<pdfrwt beam="2">  1       -2 0.32141062E-02 0.20005851E+02</pdfrwt>
<totfact> 0.37273075E+06</totfact>
</mgrwt>
</event>
<event>
 5    1  0.4046313E-006  0.2000003E+02  0.7818608E-02  0.1745327E+00
          2   -1    0    0  501    0  0.00000000000E+00  0.00000000000E+00  0.33618256234E+01  0.33618266288E+01  0.26000000000E-02 0.  1.
         -2   -1    0    0    0  501 -0.00000000000E+00 -0.00000000000E+00 -0.29745839314E+02  0.29745839428E+02  0.26000000000E-02 0. -1.
       1023    2    1    2    0    0  0.00000000000E+00  0.00000000000E+00 -0.26384013691E+02  0.33107666057E+02  0.20000034332E+02 0.  0.
        -11    1    3    3    0    0  0.99567700564E+01  0.92901698572E+00 -0.13193228853E+02  0.16554806865E+02  0.51100000000E-03 0. -1.
         11    1    3    3    0    0 -0.99567700564E+01 -0.92901698572E+00 -0.13190784838E+02  0.16552859192E+02  0.51100000000E-03 0.  1.
<mgrwt>
<rscale>  0 0.20000034E+02</rscale>
<asrwt>0</asrwt>
<pdfrwt beam="1">  1        2 0.51720405E-03 0.20000034E+02</pdfrwt>
<pdfrwt beam="2">  1       -2 0.45762829E-02 0.20000034E+02</pdfrwt>
<totfact> 0.36095541E+06</totfact>
</mgrwt>
</event>
<event>
 4    1  0.4046313E-006  0.2004911E+02  0.7818608E-02  0.1744353E+00
          2   -1    0    0  501    0  0.00000000000E+00  0.00000000000E+00  0.10603552190E+03  0.10603552193E+03  0.26000000000E-02 0. -1.
         -2   -1    0    0    0  501 -0.00000000000E+00 -0.00000000000E+00 -0.94771583866E+00  0.94771940512E+00  0.26000000000E-02 0.  1.
        -11    1    1    2    0    0 -0.11271060000E+01  0.99608617052E+01  0.52271715040E+02  0.53224255066E+02  0.51100000000E-03 0.  1.
         11    1    1    2    0    0  0.11271060000E+01 -0.99608617052E+01  0.52816091019E+02  0.53758986268E+02  0.51100000000E-03 0. -1.
<mgrwt>
<rscale>  0 0.20049113E+02</rscale>
<asrwt>0</asrwt>
<pdfrwt beam="1">  1        2 0.16313150E-01 0.20049113E+02</pdfrwt>
<pdfrwt beam="2">  1       -2 0.14580278E-03 0.20049113E+02</pdfrwt>
<totfact> 0.53186425E+06</totfact>
</mgrwt>
</event>
<event>
 5    1  0.4046313E-006  0.2000141E+02  0.7818608E-02  0.1745300E+00
          2   -1    0    0  501    0  0.00000000000E+00  0.00000000000E+00  0.36891650895E+01  0.36891660057E+01  0.26000000000E-02 0. -1.
         -2   -1    0    0    0  501 -0.00000000000E+00 -0.00000000000E+00 -0.27110211111E+02  0.27110211236E+02  0.26000000000E-02 0.  1.
       1023    2    1    2    0    0  0.00000000000E+00  0.00000000000E+00 -0.23421046022E+02  0.30799377241E+02  0.20001405994E+02 0.  0.
        -11    1    3    3    0    0  0.34498012160E+01  0.93861391882E+01 -0.11532784953E+02  0.15264529679E+02  0.51100000000E-03 0.  1.
         11    1    3    3    0    0 -0.34498012160E+01 -0.93861391882E+01 -0.11888261068E+02  0.15534847562E+02  0.51100000000E-03 0. -1.
<mgrwt>
<rscale>  0 0.20001406E+02</rscale>
<asrwt>0</asrwt>
<pdfrwt beam="1">  1        2 0.56756396E-03 0.20001406E+02</pdfrwt>
<pdfrwt beam="2">  1       -2 0.41708017E-02 0.20001406E+02</pdfrwt>
<totfact> 0.36423645E+06</totfact>
</mgrwt>
</event>
<event>
 5    1  0.4046313E-006  0.2000037E+02  0.7818608E-02  0.1745321E+00
          2   -1    0    0  501    0  0.00000000000E+00  0.00000000000E+00  0.17542967907E+01  0.17542987174E+01  0.26000000000E-02 0. -1.
         -2   -1    0    0    0  501 -0.00000000000E+00 -0.00000000000E+00 -0.57004960870E+02  0.57004960929E+02  0.26000000000E-02 0.  1.
       1023    2    1    2    0    0  0.00000000000E+00  0.00000000000E+00 -0.55250664079E+02  0.58759259646E+02  0.20000367822E+02 0.  0.
        -11    1    3    3    0    0 -0.96393702474E+01 -0.26619094296E+01 -0.27688166169E+02  0.29438712041E+02  0.51100000000E-03 0.  1.
         11    1    3    3    0    0  0.96393702474E+01  0.26619094296E+01 -0.27562497910E+02  0.29320547605E+02  0.51100000000E-03 0. -1.
<mgrwt>
<rscale>  0 0.20000368E+02</rscale>
<asrwt>0</asrwt>
<pdfrwt beam="1">  1        2 0.26989201E-03 0.20000368E+02</pdfrwt>
<pdfrwt beam="2">  1       -2 0.87699927E-02 0.20000368E+02</pdfrwt>
<totfact> 0.33232738E+06</totfact>
</mgrwt>
</event>
<event>
 5    1  0.4046313E-006  0.2000097E+02  0.7818608E-02  0.1745309E+00
         -2   -1    0    0    0  501 -0.00000000000E+00  0.00000000000E+00  0.33706604843E+01  0.33706614870E+01  0.26000000000E-02 0. -1.
          2   -1    0    0  501    0  0.00000000000E+00 -0.00000000000E+00 -0.29670656213E+02  0.29670656327E+02  0.26000000000E-02 0.  1.
       1023    2    1    2    0    0  0.00000000000E+00  0.00000000000E+00 -0.26299995728E+02  0.33041317814E+02  0.20000972665E+02 0.  0.
        -11    1    3    3    0    0  0.83476998564E+01  0.55067998619E+01 -0.13196401110E+02  0.16557594636E+02  0.51100000000E-03 0.  1.
         11    1    3    3    0    0 -0.83476998564E+01 -0.55067998619E+01 -0.13103594618E+02  0.16483723177E+02  0.51100000000E-03 0. -1.
<mgrwt>
<rscale>  0 0.20000973E+02</rscale>
<asrwt>0</asrwt>
<pdfrwt beam="2">  1        2 0.45647162E-02 0.20000973E+02</pdfrwt>
<pdfrwt beam="1">  1       -2 0.51856326E-03 0.20000973E+02</pdfrwt>
<totfact> 0.43316158E+06</totfact>
</mgrwt>
</event>
<event>
 5    1  0.4046313E-006  0.2000072E+02  0.7818608E-02  0.1745314E+00
          2   -1    0    0  501    0  0.00000000000E+00  0.00000000000E+00  0.29917569635E+02  0.29917569748E+02  0.26000000000E-02 0.  1.
         -2   -1    0    0    0  501 -0.00000000000E+00 -0.00000000000E+00 -0.33427566021E+01  0.33427576132E+01  0.26000000000E-02 0. -1.
       1023    2    1    2    0    0  0.00000000000E+00  0.00000000000E+00  0.26574813033E+02  0.33260327361E+02  0.20000717198E+02 0.  0.
        -11    1    3    3    0    0 -0.26645072098E+01 -0.96388573092E+01  0.13290263656E+02  0.16632446519E+02  0.51100000000E-03 0.  1.
         11    1    3    3    0    0  0.26645072098E+01  0.96388573092E+01  0.13284549377E+02  0.16627880843E+02  0.51100000000E-03 0. -1.
<mgrwt>
<rscale>  0 0.20000717E+02</rscale>
<asrwt>0</asrwt>
<pdfrwt beam="1">  1        2 0.46027032E-02 0.20000717E+02</pdfrwt>
<pdfrwt beam="2">  1       -2 0.51427033E-03 0.20000717E+02</pdfrwt>
<totfact> 0.43356659E+06</totfact>
</mgrwt>
</event>
<event>
 5    1  0.4046313E-006  0.2000050E+02  0.7818608E-02  0.1745318E+00
          2   -1    0    0  501    0  0.00000000000E+00  0.00000000000E+00  0.66340580160E+01  0.66340585255E+01  0.26000000000E-02 0.  1.
         -2   -1    0    0    0  501 -0.00000000000E+00 -0.00000000000E+00 -0.15074478003E+02  0.15074478227E+02  0.26000000000E-02 0. -1.
       1023    2    1    2    0    0  0.00000000000E+00  0.00000000000E+00 -0.84404199870E+01  0.21708536753E+02  0.20000496954E+02 0.  0.
        -11    1    3    3    0    0 -0.40953725244E+01 -0.91230666850E+01 -0.41654270397E+01  0.10832968408E+02  0.51100000000E-03 0.  1.
         11    1    3    3    0    0  0.40953725244E+01  0.91230666850E+01 -0.42749929473E+01  0.10875568344E+02  0.51100000000E-03 0. -1.
<mgrwt>
<rscale>  0 0.20000497E+02</rscale>
<asrwt>0</asrwt>
<pdfrwt beam="1">  1        2 0.10206244E-02 0.20000497E+02</pdfrwt>
<pdfrwt beam="2">  1       -2 0.23191505E-02 0.20000497E+02</pdfrwt>
<totfact> 0.38281159E+06</totfact>
</mgrwt>
</event>
<event>
 5    1  0.4046313E-006  0.2000114E+02  0.7818608E-02  0.1745305E+00
          2   -1    0    0  501    0  0.00000000000E+00  0.00000000000E+00  0.11474473274E+01  0.11474502730E+01  0.26000000000E-02 0. -1.
         -2   -1    0    0    0  501 -0.00000000000E+00 -0.00000000000E+00 -0.87159809977E+02  0.87159810016E+02  0.26000000000E-02 0.  1.
       1023    2    1    2    0    0  0.00000000000E+00  0.00000000000E+00 -0.86012362649E+02  0.88307260289E+02  0.20001142246E+02 0.  0.
        -11    1    3    3    0    0  0.98993200172E+01  0.14170015766E+01 -0.42636991083E+02  0.43794034288E+02  0.51100000000E-03 0. -1.
         11    1    3    3    0    0 -0.98993200172E+01 -0.14170015766E+01 -0.43375371566E+02  0.44513226001E+02  0.51100000000E-03 0.  1.
<mgrwt>
<rscale>  0 0.20001142E+02</rscale>
<asrwt>0</asrwt>
<pdfrwt beam="1">  1        2 0.17653066E-03 0.20001142E+02</pdfrwt>
<pdfrwt beam="2">  1       -2 0.13409197E-01 0.20001142E+02</pdfrwt>
<totfact> 0.30689817E+06</totfact>
</mgrwt>
</event>
<event>
 5    1  0.4046313E-006  0.2000978E+02  0.7818608E-02  0.1745134E+00
         -2   -1    0    0    0  501 -0.00000000000E+00  0.00000000000E+00  0.62805363382E+01  0.62805368764E+01  0.26000000000E-02 0.  1.
          2   -1    0    0  501    0  0.00000000000E+00 -0.00000000000E+00 -0.15937787793E+02  0.15937788005E+02  0.26000000000E-02 0. -1.
       1023    2    1    2    0    0  0.00000000000E+00  0.00000000000E+00 -0.96572514547E+01  0.22218324881E+02  0.20009783979E+02 0.  0.
        -11    1    3    3    0    0 -0.57538347593E+01  0.81812622239E+01 -0.45607577063E+01  0.10992732924E+02  0.51100000000E-03 0.  1.
         11    1    3    3    0    0  0.57538347593E+01 -0.81812622239E+01 -0.50964937485E+01  0.11225591958E+02  0.51100000000E-03 0. -1.
<mgrwt>
<rscale>  0 0.20009784E+02</rscale>
<asrwt>0</asrwt>
<pdfrwt beam="2">  1        2 0.24519674E-02 0.20009784E+02</pdfrwt>
<pdfrwt beam="1">  1       -2 0.96623643E-03 0.20009784E+02</pdfrwt>
<totfact> 0.40841964E+06</totfact>
</mgrwt>
</event>
<event>
 5    1  0.4046313E-006  0.2000389E+02  0.7818608E-02  0.1745251E+00
         -2   -1    0    0    0  501 -0.00000000000E+00  0.00000000000E+00  0.85667972072E+00  0.85668366618E+00  0.26000000000E-02 0.  1.
          2   -1    0    0  501    0  0.00000000000E+00 -0.00000000000E+00 -0.11677483126E+03  0.11677483129E+03  0.26000000000E-02 0. -1.
       1023    2    1    2    0    0  0.00000000000E+00  0.00000000000E+00 -0.11591815154E+03  0.11763151496E+03  0.20003885981E+02 0.  0.
        -11    1    3    3    0    0  0.36498117808E+01  0.93118675026E+01 -0.57471996006E+02  0.58335772281E+02  0.51100000000E-03 0. -1.
         11    1    3    3    0    0 -0.36498117808E+01 -0.93118675026E+01 -0.58446155534E+02  0.59295742675E+02  0.51100000000E-03 0.  1.
<mgrwt>
<rscale>  0 0.20003886E+02</rscale>
<asrwt>0</asrwt>
<pdfrwt beam="2">  1        2 0.17965346E-01 0.20003886E+02</pdfrwt>
<pdfrwt beam="1">  1       -2 0.13179728E-03 0.20003886E+02</pdfrwt>
<totfact> 0.54700068E+06</totfact>
</mgrwt>
</event>
<event>
 5    1  0.4046313E-006  0.2000039E+02  0.7818608E-02  0.1745320E+00
         -2   -1    0    0    0  501 -0.00000000000E+00  0.00000000000E+00  0.39638957721E+01  0.39638966248E+01  0.26000000000E-02 0. -1.
          2   -1    0    0  501    0  0.00000000000E+00 -0.00000000000E+00 -0.25228679166E+02  0.25228679300E+02  0.26000000000E-02 0.  1.
       1023    2    1    2    0    0  0.00000000000E+00  0.00000000000E+00 -0.21264783394E+02  0.29192575925E+02  0.20000386905E+02 0.  0.
        -11    1    3    3    0    0  0.98340657722E+01 -0.18143576341E+01 -0.10550789859E+02  0.14536846637E+02  0.51100000000E-03 0. -1.
         11    1    3    3    0    0 -0.98340657722E+01  0.18143576341E+01 -0.10713993535E+02  0.14655729288E+02  0.51100000000E-03 0.  1.
<mgrwt>
<rscale>  0 0.20000387E+02</rscale>
<asrwt>0</asrwt>
<pdfrwt beam="2">  1        2 0.38813352E-02 0.20000387E+02</pdfrwt>
<pdfrwt beam="1">  1       -2 0.60983021E-03 0.20000387E+02</pdfrwt>
<totfact> 0.42593298E+06</totfact>
</mgrwt>
</event>
<event>
 5    1  0.4046313E-006  0.2000070E+02  0.7818608E-02  0.1745314E+00
          2   -1    0    0  501    0  0.00000000000E+00  0.00000000000E+00  0.58062670917E+01  0.58062676738E+01  0.26000000000E-02 0. -1.
         -2   -1    0    0    0  501 -0.00000000000E+00 -0.00000000000E+00 -0.17223969524E+02  0.17223969721E+02  0.26000000000E-02 0.  1.
       1023    2    1    2    0    0  0.00000000000E+00  0.00000000000E+00 -0.11417702433E+02  0.23030237394E+02  0.20000697628E+02 0.  0.
        -11    1    3    3    0    0 -0.20466815263E+01 -0.97886292691E+01 -0.57415801909E+01  0.11531344743E+02  0.51100000000E-03 0.  1.
         11    1    3    3    0    0  0.20466815263E+01  0.97886292691E+01 -0.56761222417E+01  0.11498892651E+02  0.51100000000E-03 0. -1.
<mgrwt>
<rscale>  0 0.20000698E+02</rscale>
<asrwt>0</asrwt>
<pdfrwt beam="1">  1        2 0.89327193E-03 0.20000698E+02</pdfrwt>
<pdfrwt beam="2">  1       -2 0.26498415E-02 0.20000698E+02</pdfrwt>
<totfact> 0.37887183E+06</totfact>
</mgrwt>
</event>
<event>
 4    1  0.4046313E-006  0.2004052E+02  0.7818608E-02  0.1744524E+00
          2   -1    0    0  501    0  0.00000000000E+00  0.00000000000E+00  0.45692169489E+02  0.45692169563E+02  0.26000000000E-02 0.  1.
         -2   -1    0    0    0  501 -0.00000000000E+00 -0.00000000000E+00 -0.21974341086E+01  0.21974356467E+01  0.26000000000E-02 0. -1.
        -11    1    1    2    0    0  0.92788598546E+01 -0.37321441994E+01  0.20275401178E+02  0.22607919713E+02  0.51100000000E-03 0. -1.
         11    1    1    2    0    0 -0.92788598546E+01  0.37321441994E+01  0.23219334202E+02  0.25281685498E+02  0.51100000000E-03 0.  1.
<mgrwt>
<rscale>  0 0.20040516E+02</rscale>
<asrwt>0</asrwt>
<pdfrwt beam="1">  1        2 0.70295646E-02 0.20040516E+02</pdfrwt>
<pdfrwt beam="2">  1       -2 0.33806691E-03 0.20040516E+02</pdfrwt>
<totfact> 0.45514291E+06</totfact>
</mgrwt>
</event>
<event>
 5    1  0.4046313E-006  0.2000055E+02  0.7818608E-02  0.1745317E+00
         -2   -1    0    0    0  501 -0.00000000000E+00  0.00000000000E+00  0.87337621437E+00  0.87338008440E+00  0.26000000000E-02 0.  1.
          2   -1    0    0  501    0  0.00000000000E+00 -0.00000000000E+00 -0.11450427268E+03  0.11450427271E+03  0.26000000000E-02 0. -1.
       1023    2    1    2    0    0  0.00000000000E+00  0.00000000000E+00 -0.11363089647E+03  0.11537765280E+03  0.20000553309E+02 0.  0.
        -11    1    3    3    0    0  0.99437795572E+01  0.10604691419E+01 -0.57085176556E+02  0.57954471177E+02  0.51100000000E-03 0.  1.
         11    1    3    3    0    0 -0.99437795572E+01 -0.10604691419E+01 -0.56545719911E+02  0.57423181619E+02  0.51100000000E-03 0. -1.
<mgrwt>
<rscale>  0 0.20000553E+02</rscale>
<asrwt>0</asrwt>
<pdfrwt beam="2">  1        2 0.17616030E-01 0.20000553E+02</pdfrwt>
<pdfrwt beam="1">  1       -2 0.13436596E-03 0.20000553E+02</pdfrwt>
<totfact> 0.54458843E+06</totfact>
</mgrwt>
</event>
<event>
 5    1  0.4046313E-006  0.2000428E+02  0.7818608E-02  0.1745243E+00
         -2   -1    0    0    0  501 -0.00000000000E+00  0.00000000000E+00  0.40610587275E+02  0.40610587359E+02  0.26000000000E-02 0.  1.
          2   -1    0    0  501    0  0.00000000000E+00 -0.00000000000E+00 -0.24634651331E+01  0.24634665051E+01  0.26000000000E-02 0. -1.
       1023    2    1    2    0    0  0.00000000000E+00  0.00000000000E+00  0.38147122142E+02  0.43074053864E+02  0.20004279255E+02 0.  0.
        -11    1    3    3    0    0  0.31414344830E+01  0.94945981275E+01  0.19426013660E+02  0.21849165000E+02  0.51100000000E-03 0. -1.
         11    1    3    3    0    0 -0.31414344830E+01 -0.94945981275E+01  0.18721108482E+02  0.21224888863E+02  0.51100000000E-03 0.  1.
<mgrwt>
<rscale>  0 0.20004279E+02</rscale>
<asrwt>0</asrwt>
<pdfrwt beam="2">  1        2 0.37899476E-03 0.20004279E+02</pdfrwt>
<pdfrwt beam="1">  1       -2 0.62477826E-02 0.20004279E+02</pdfrwt>
<totfact> 0.34838871E+06</totfact>
</mgrwt>
</event>
<event>
 5    1  0.4046313E-006  0.2000031E+02  0.7818608E-02  0.1745322E+00
         -2   -1    0    0    0  501 -0.00000000000E+00  0.00000000000E+00  0.17897272294E+02  0.17897272483E+02  0.26000000000E-02 0. -1.
          2   -1    0    0  501    0  0.00000000000E+00 -0.00000000000E+00 -0.55876144537E+01  0.55876150586E+01  0.26000000000E-02 0.  1.
       1023    2    1    2    0    0  0.00000000000E+00  0.00000000000E+00  0.12309657840E+02  0.23484887541E+02  0.20000306665E+02 0.  0.
        -11    1    3    3    0    0  0.97600368801E+01 -0.21780853304E+01  0.61239665723E+01  0.11726267200E+02  0.51100000000E-03 0.  1.
         11    1    3    3    0    0 -0.97600368801E+01  0.21780853304E+01  0.61856912676E+01  0.11758620341E+02  0.51100000000E-03 0. -1.
<mgrwt>
<rscale>  0 0.20000307E+02</rscale>
<asrwt>0</asrwt>
<pdfrwt beam="2">  1        2 0.85963304E-03 0.20000307E+02</pdfrwt>
<pdfrwt beam="1">  1       -2 0.27534266E-02 0.20000307E+02</pdfrwt>
<totfact> 0.37773545E+06</totfact>
</mgrwt>
</event>
<event>
 5    1  0.4046313E-006  0.2000894E+02  0.7818608E-02  0.1745150E+00
         -2   -1    0    0    0  501 -0.00000000000E+00  0.00000000000E+00  0.99881240573E+02  0.99881240607E+02  0.26000000000E-02 0. -1.
          2   -1    0    0  501    0  0.00000000000E+00 -0.00000000000E+00 -0.10020825023E+01  0.10020858752E+01  0.26000000000E-02 0.  1.
       1023    2    1    2    0    0  0.00000000000E+00  0.00000000000E+00  0.98879158071E+02  0.10088332648E+03  0.20008939535E+02 0.  0.
        -11    1    3    3    0    0  0.82443037800E+01  0.56600027310E+01  0.50911604587E+02  0.51884445238E+02  0.51100000000E-03 0.  1.
         11    1    3    3    0    0 -0.82443037800E+01 -0.56600027310E+01  0.47967553484E+02  0.48998881245E+02  0.51100000000E-03 0. -1.
<mgrwt>
<rscale>  0 0.20008940E+02</rscale>
<asrwt>0</asrwt>
<pdfrwt beam="2">  1        2 0.15416680E-03 0.20008940E+02</pdfrwt>
<pdfrwt beam="1">  1       -2 0.15366345E-01 0.20008940E+02</pdfrwt>
<totfact> 0.29710398E+06</totfact>
</mgrwt>
</event>
<event>
 5    1  0.4046313E-006  0.2000018E+02  0.7818608E-02  0.1745325E+00
         -2   -1    0    0    0  501 -0.00000000000E+00  0.00000000000E+00  0.45823333638E+01  0.45823341014E+01  0.26000000000E-02 0. -1.
          2   -1    0    0  501    0  0.00000000000E+00 -0.00000000000E+00 -0.21823329752E+02  0.21823329907E+02  0.26000000000E-02 0.  1.
       1023    2    1    2    0    0  0.00000000000E+00  0.00000000000E+00 -0.17240996388E+02  0.26405664008E+02  0.20000178381E+02 0.  0.
        -11    1    3    3    0    0  0.49301330376E+01 -0.87002357600E+01 -0.86711096529E+01  0.13235877641E+02  0.51100000000E-03 0. -1.
         11    1    3    3    0    0 -0.49301330376E+01  0.87002357600E+01 -0.85698867351E+01  0.13169786367E+02  0.51100000000E-03 0.  1.
<mgrwt>
<rscale>  0 0.20000178E+02</rscale>
<asrwt>0</asrwt>
<pdfrwt beam="2">  1        2 0.33574354E-02 0.20000178E+02</pdfrwt>
<pdfrwt beam="1">  1       -2 0.70497444E-03 0.20000178E+02</pdfrwt>
<totfact> 0.42006766E+06</totfact>
</mgrwt>
</event>
<event>
 5    1  0.4046313E-006  0.2000007E+02  0.7818608E-02  0.1745327E+00
          2   -1    0    0  501    0  0.00000000000E+00  0.00000000000E+00  0.12071550847E+01  0.12071578847E+01  0.26000000000E-02 0. -1.
         -2   -1    0    0    0  501 -0.00000000000E+00 -0.00000000000E+00 -0.82839895009E+02  0.82839895050E+02  0.26000000000E-02 0.  1.
       1023    2    1    2    0    0  0.00000000000E+00  0.00000000000E+00 -0.81632739924E+02  0.84047052934E+02  0.20000071985E+02 0.  0.
        -11    1    3    3    0    0 -0.94721370207E+01 -0.32061408397E+01 -0.40820060460E+02  0.42027110953E+02  0.51100000000E-03 0. -1.
         11    1    3    3    0    0  0.94721370207E+01  0.32061408397E+01 -0.40812679464E+02  0.42019941981E+02  0.51100000000E-03 0.  1.
<mgrwt>
<rscale>  0 0.20000072E+02</rscale>
<asrwt>0</asrwt>
<pdfrwt beam="1">  1        2 0.18571645E-03 0.20000072E+02</pdfrwt>
<pdfrwt beam="2">  1       -2 0.12744595E-01 0.20000072E+02</pdfrwt>
<totfact> 0.31031490E+06</totfact>
</mgrwt>
</event>
<event>
 5    1  0.4046313E-006  0.2000101E+02  0.7818608E-02  0.1745308E+00
         -2   -1    0    0    0  501 -0.00000000000E+00  0.00000000000E+00  0.34959241017E+01  0.34959250686E+01  0.26000000000E-02 0.  1.
          2   -1    0    0  501    0  0.00000000000E+00 -0.00000000000E+00 -0.28607620730E+02  0.28607620848E+02  0.26000000000E-02 0. -1.
       1023    2    1    2    0    0  0.00000000000E+00  0.00000000000E+00 -0.25111696628E+02  0.32103545917E+02  0.20001008797E+02 0.  0.
        -11    1    3    3    0    0 -0.97996314875E+01 -0.19938283505E+01 -0.12626894019E+02  0.16107345579E+02  0.51100000000E-03 0.  1.
         11    1    3    3    0    0  0.97996314875E+01  0.19938283505E+01 -0.12484802609E+02  0.15996200337E+02  0.51100000000E-03 0. -1.
<mgrwt>
<rscale>  0 0.20001009E+02</rscale>
<asrwt>0</asrwt>
<pdfrwt beam="2">  1        2 0.44011724E-02 0.20001009E+02</pdfrwt>
<pdfrwt beam="1">  1       -2 0.53783458E-03 0.20001009E+02</pdfrwt>
<totfact> 0.43145810E+06</totfact>
</mgrwt>
</event>
<event>
 4    1  0.4046313E-006  0.2002607E+02  0.7818608E-02  0.1744810E+00
          2   -1    0    0  501    0  0.00000000000E+00  0.00000000000E+00  0.11236278237E+01  0.11236308318E+01  0.26000000000E-02 0. -1.
         -2   -1    0    0    0  501 -0.00000000000E+00 -0.00000000000E+00 -0.89229495909E+02  0.89229495947E+02  0.26000000000E-02 0.  1.
        -11    1    1    2    0    0 -0.89413180356E+01  0.45053861874E+01 -0.43496525312E+02  0.44633993630E+02  0.51100000000E-03 0. -1.
         11    1    1    2    0    0  0.89413180356E+01 -0.45053861874E+01 -0.44609342774E+02  0.45719133149E+02  0.51100000000E-03 0.  1.
<mgrwt>
<rscale>  0 0.20026071E+02</rscale>
<asrwt>0</asrwt>
<pdfrwt beam="1">  1        2 0.17286612E-03 0.20026071E+02</pdfrwt>
<pdfrwt beam="2">  1       -2 0.13727609E-01 0.20026071E+02</pdfrwt>
<totfact> 0.30447532E+06</totfact>
</mgrwt>
</event>
<event>
 5    1  0.4307439E-006  0.2000058E+02  0.7818608E-02  0.1745317E+00
          2   -1    0    0  501    0  0.00000000000E+00  0.00000000000E+00  0.90285347133E+02  0.90285347170E+02  0.26000000000E-02 0. -1.
         -2   -1    0    0    0  501 -0.00000000000E+00 -0.00000000000E+00 -0.11076617108E+01  0.11076647623E+01  0.26000000000E-02 0.  1.
       1023    2    1    2    0    0  0.00000000000E+00  0.00000000000E+00  0.89177685422E+02  0.91393011932E+02  0.20000576314E+02 0.  0.
        -11    1    3    3    0    0  0.97822484752E+01  0.20759824124E+01  0.44865845776E+02  0.45966794598E+02  0.51100000000E-03 0. -1.
         11    1    3    3    0    0 -0.97822484752E+01 -0.20759824124E+01  0.44311839646E+02  0.45426217334E+02  0.51100000000E-03 0.  1.
<mgrwt>
<rscale>  0 0.20000576E+02</rscale>
<asrwt>0</asrwt>
<pdfrwt beam="1">  1        2 0.13890058E-01 0.20000576E+02</pdfrwt>
<pdfrwt beam="2">  1       -2 0.17040968E-03 0.20000576E+02</pdfrwt>
<totfact> 0.51576506E+06</totfact>
</mgrwt>
</event>
<event>
 5    1  0.4046313E-006  0.2000387E+02  0.7818608E-02  0.1745251E+00
          2   -1    0    0  501    0  0.00000000000E+00  0.00000000000E+00  0.40604276438E+02  0.40604276522E+02  0.26000000000E-02 0.  1.
         -2   -1    0    0    0  501 -0.00000000000E+00 -0.00000000000E+00 -0.24637471205E+01  0.24637484924E+01  0.26000000000E-02 0. -1.
       1023    2    1    2    0    0  0.00000000000E+00  0.00000000000E+00  0.38140529318E+02  0.43068025014E+02  0.20003869675E+02 0.  0.
        -11    1    3    3    0    0  0.94461696959E+01 -0.32868059347E+01  0.19229717167E+02  0.21675221746E+02  0.51100000000E-03 0.  1.
         11    1    3    3    0    0 -0.94461696959E+01  0.32868059347E+01  0.18910812151E+02  0.21392803268E+02  0.51100000000E-03 0. -1.
<mgrwt>
<rscale>  0 0.20003870E+02</rscale>
<asrwt>0</asrwt>
<pdfrwt beam="1">  1        2 0.62468115E-02 0.20003870E+02</pdfrwt>
<pdfrwt beam="2">  1       -2 0.37903815E-03 0.20003870E+02</pdfrwt>
<totfact> 0.44965590E+06</totfact>
</mgrwt>
</event>
<event>
 5    1  0.4046313E-006  0.2000006E+02  0.7818608E-02  0.1745327E+00
          2   -1    0    0  501    0  0.00000000000E+00  0.00000000000E+00  0.12593928358E+01  0.12593955196E+01  0.26000000000E-02 0. -1.
         -2   -1    0    0    0  501 -0.00000000000E+00 -0.00000000000E+00 -0.79403765281E+02  0.79403765323E+02  0.26000000000E-02 0.  1.
       1023    2    1    2    0    0  0.00000000000E+00  0.00000000000E+00 -0.78144372445E+02  0.80663160843E+02  0.20000064309E+02 0.  0.
        -11    1    3    3    0    0  0.60529059161E+01  0.79600851224E+01 -0.39055245069E+02  0.40315168272E+02  0.51100000000E-03 0. -1.
         11    1    3    3    0    0 -0.60529059161E+01 -0.79600851224E+01 -0.39089127376E+02  0.40347992571E+02  0.51100000000E-03 0.  1.
<mgrwt>
<rscale>  0 0.20000064E+02</rscale>
<asrwt>0</asrwt>
<pdfrwt beam="1">  1        2 0.19375302E-03 0.20000064E+02</pdfrwt>
<pdfrwt beam="2">  1       -2 0.12215960E-01 0.20000064E+02</pdfrwt>
<totfact> 0.31305527E+06</totfact>
</mgrwt>
</event>
<event>
 5    1  0.4046313E-006  0.2000514E+02  0.7818608E-02  0.1745226E+00
         -2   -1    0    0    0  501 -0.00000000000E+00  0.00000000000E+00  0.14488038820E+01  0.14488062149E+01  0.26000000000E-02 0. -1.
          2   -1    0    0  501    0  0.00000000000E+00 -0.00000000000E+00 -0.69057900984E+02  0.69057901033E+02  0.26000000000E-02 0.  1.
       1023    2    1    2    0    0  0.00000000000E+00  0.00000000000E+00 -0.67609097102E+02  0.70506707248E+02  0.20005143238E+02 0.  0.
        -11    1    3    3    0    0 -0.73577634106E+01 -0.67757334622E+01 -0.33576346763E+02  0.35034530232E+02  0.51100000000E-03 0. -1.
         11    1    3    3    0    0  0.73577634106E+01  0.67757334622E+01 -0.34032750339E+02  0.35472177016E+02  0.51100000000E-03 0.  1.
<mgrwt>
<rscale>  0 0.20005143E+02</rscale>
<asrwt>0</asrwt>
<pdfrwt beam="2">  1        2 0.10624290E-01 0.20005143E+02</pdfrwt>
<pdfrwt beam="1">  1       -2 0.22289314E-03 0.20005143E+02</pdfrwt>
<totfact> 0.48869254E+06</totfact>
</mgrwt>
</event>
<event>
 5    1  0.4046313E-006  0.2000563E+02  0.7818608E-02  0.1745216E+00
         -2   -1    0    0    0  501 -0.00000000000E+00  0.00000000000E+00  0.66118381116E+01  0.66118386229E+01  0.26000000000E-02 0. -1.
          2   -1    0    0  501    0  0.00000000000E+00 -0.00000000000E+00 -0.15132900754E+02  0.15132900977E+02  0.26000000000E-02 0.  1.
       1023    2    1    2    0    0  0.00000000000E+00  0.00000000000E+00 -0.85210626420E+01  0.21744739600E+02  0.20005629001E+02 0.  0.
        -11    1    3    3    0    0 -0.21534920305E+01 -0.97681788051E+01 -0.42191055079E+01  0.10856136359E+02  0.51100000000E-03 0. -1.
         11    1    3    3    0    0  0.21534920305E+01  0.97681788051E+01 -0.43019571341E+01  0.10888603241E+02  0.51100000000E-03 0.  1.
<mgrwt>
<rscale>  0 0.20005629E+02</rscale>
<asrwt>0</asrwt>
<pdfrwt beam="2">  1        2 0.23281386E-02 0.20005629E+02</pdfrwt>
<pdfrwt beam="1">  1       -2 0.10172059E-02 0.20005629E+02</pdfrwt>
<totfact> 0.40692077E+06</totfact>
</mgrwt>
</event>
<event>
 5    1  0.4046313E-006  0.2000021E+02  0.7818608E-02  0.1745324E+00
         -2   -1    0    0    0  501 -0.00000000000E+00  0.00000000000E+00  0.92011022890E+00  0.92011390237E+00  0.26000000000E-02 0.  1.
          2   -1    0    0  501    0  0.00000000000E+00 -0.00000000000E+00 -0.10868465219E+03  0.10868465222E+03  0.26000000000E-02 0. -1.
       1023    2    1    2    0    0  0.00000000000E+00  0.00000000000E+00 -0.10776454196E+03  0.10960476612E+03  0.20000206321E+02 0.  0.
        -11    1    3    3    0    0 -0.82309843794E+01  0.56790449132E+01 -0.53676637789E+02  0.54600202376E+02  0.51100000000E-03 0.  1.
         11    1    3    3    0    0  0.82309843794E+01 -0.56790449132E+01 -0.54087904170E+02  0.55004563745E+02  0.51100000000E-03 0. -1.
<mgrwt>
<rscale>  0 0.20000206E+02</rscale>
<asrwt>0</asrwt>
<pdfrwt beam="2">  1        2 0.16720706E-01 0.20000206E+02</pdfrwt>
<pdfrwt beam="1">  1       -2 0.14155579E-03 0.20000206E+02</pdfrwt>
<totfact> 0.53784659E+06</totfact>
</mgrwt>
</event>
<event>
 5    1  0.4046313E-006  0.2000028E+02  0.7818608E-02  0.1745323E+00
          2   -1    0    0  501    0  0.00000000000E+00  0.00000000000E+00  0.91552620361E+00  0.91552989547E+00  0.26000000000E-02 0. -1.
         -2   -1    0    0    0  501 -0.00000000000E+00 -0.00000000000E+00 -0.10922964159E+03  0.10922964162E+03  0.26000000000E-02 0.  1.
       1023    2    1    2    0    0  0.00000000000E+00  0.00000000000E+00 -0.10831411539E+03  0.11014517152E+03  0.20000280409E+02 0.  0.
        -11    1    3    3    0    0  0.52060264623E+01  0.85380082733E+01 -0.53881310517E+02  0.54801422610E+02  0.51100000000E-03 0.  1.
         11    1    3    3    0    0 -0.52060264623E+01 -0.85380082733E+01 -0.54432804873E+02  0.55343748910E+02  0.51100000000E-03 0. -1.
<mgrwt>
<rscale>  0 0.20000280E+02</rscale>
<asrwt>0</asrwt>
<pdfrwt beam="1">  1        2 0.14085056E-03 0.20000280E+02</pdfrwt>
<pdfrwt beam="2">  1       -2 0.16804550E-01 0.20000280E+02</pdfrwt>
<totfact> 0.29073070E+06</totfact>
</mgrwt>
</event>
<event>
 5    1  0.4046313E-006  0.2000029E+02  0.7818608E-02  0.1745322E+00
          2   -1    0    0  501    0  0.00000000000E+00  0.00000000000E+00  0.47318663542E+02  0.47318663614E+02  0.26000000000E-02 0. -1.
         -2   -1    0    0    0  501 -0.00000000000E+00 -0.00000000000E+00 -0.21133909763E+01  0.21133925756E+01  0.26000000000E-02 0.  1.
       1023    2    1    2    0    0  0.00000000000E+00  0.00000000000E+00  0.45205272566E+02  0.49432056189E+02  0.20000287782E+02 0.  0.
        -11    1    3    3    0    0  0.49719797653E+01 -0.86764111632E+01  0.22487128789E+02  0.24610397293E+02  0.51100000000E-03 0. -1.
         11    1    3    3    0    0 -0.49719797653E+01  0.86764111632E+01  0.22718143777E+02  0.24821658897E+02  0.51100000000E-03 0.  1.
<mgrwt>
<rscale>  0 0.20000288E+02</rscale>
<asrwt>0</asrwt>
<pdfrwt beam="1">  1        2 0.72797941E-02 0.20000288E+02</pdfrwt>
<pdfrwt beam="2">  1       -2 0.32513722E-03 0.20000288E+02</pdfrwt>
<totfact> 0.45949678E+06</totfact>
</mgrwt>
</event>
<event>
 5    1  0.4046313E-006  0.2000321E+02  0.7818608E-02  0.1745264E+00
          2   -1    0    0  501    0  0.00000000000E+00  0.00000000000E+00  0.10235140669E+02  0.10235140999E+02  0.26000000000E-02 0.  1.
         -2   -1    0    0    0  501 -0.00000000000E+00 -0.00000000000E+00 -0.97733942391E+01  0.97733945849E+01  0.26000000000E-02 0. -1.
       1023    2    1    2    0    0  0.00000000000E+00  0.00000000000E+00  0.46174642987E+00  0.20008535584E+02  0.20003206904E+02 0.  0.
        -11    1    3    3    0    0  0.17106512164E+01  0.98534765124E+01  0.10941439867E+00  0.10001464830E+02  0.51100000000E-03 0. -1.
         11    1    3    3    0    0 -0.17106512164E+01 -0.98534765124E+01  0.35233203120E+00  0.10007070755E+02  0.51100000000E-03 0.  1.
<mgrwt>
<rscale>  0 0.20003207E+02</rscale>
<asrwt>0</asrwt>
<pdfrwt beam="1">  1        2 0.15746371E-02 0.20003207E+02</pdfrwt>
<pdfrwt beam="2">  1       -2 0.15035992E-02 0.20003207E+02</pdfrwt>
<totfact> 0.39516020E+06</totfact>
</mgrwt>
</event>
<event>
 5    1  0.4518011E-006  0.2000207E+02  0.7818608E-02  0.1745287E+00
         -2   -1    0    0    0  501 -0.00000000000E+00  0.00000000000E+00  0.17241324313E+02  0.17241324509E+02  0.26000000000E-02 0. -1.
          2   -1    0    0  501    0  0.00000000000E+00 -0.00000000000E+00 -0.58012170664E+01  0.58012176490E+01  0.26000000000E-02 0.  1.
       1023    2    1    2    0    0  0.00000000000E+00  0.00000000000E+00  0.11440107247E+02  0.23042542158E+02  0.20002067276E+02 0.  0.
        -11    1    3    3    0    0 -0.99916744853E+01  0.41476630500E+00  0.58615371661E+01  0.11591514496E+02  0.51100000000E-03 0. -1.
         11    1    3    3    0    0  0.99916744853E+01 -0.41476630500E+00  0.55785700807E+01  0.11451027662E+02  0.51100000000E-03 0.  1.
<mgrwt>
<rscale>  0 0.20002067E+02</rscale>
<asrwt>0</asrwt>
<pdfrwt beam="2">  1        2 0.89249501E-03 0.20002067E+02</pdfrwt>
<pdfrwt beam="1">  1       -2 0.26525114E-02 0.20002067E+02</pdfrwt>
<totfact> 0.37878555E+06</totfact>
</mgrwt>
</event>
<event>
 5    1  0.4046313E-006  0.2000202E+02  0.7818608E-02  0.1745288E+00
         -2   -1    0    0    0  501 -0.00000000000E+00  0.00000000000E+00  0.32351610743E+01  0.32351621191E+01  0.26000000000E-02 0.  1.
          2   -1    0    0  501    0  0.00000000000E+00 -0.00000000000E+00 -0.30916605126E+02  0.30916605236E+02  0.26000000000E-02 0. -1.
       1023    2    1    2    0    0  0.00000000000E+00  0.00000000000E+00 -0.27681444052E+02  0.34151767355E+02  0.20002021614E+02 0.  0.
        -11    1    3    3    0    0 -0.40171322462E+01 -0.91585476802E+01 -0.13946936566E+02  0.17161975030E+02  0.51100000000E-03 0.  1.
         11    1    3    3    0    0  0.40171322462E+01  0.91585476802E+01 -0.13734507486E+02  0.16989792325E+02  0.51100000000E-03 0. -1.
<mgrwt>
<rscale>  0 0.20002022E+02</rscale>
<asrwt>0</asrwt>
<pdfrwt beam="2">  1        2 0.47564007E-02 0.20002022E+02</pdfrwt>
<pdfrwt beam="1">  1       -2 0.49771720E-03 0.20002022E+02</pdfrwt>
<totfact> 0.43508178E+06</totfact>
</mgrwt>
</event>
<event>
 5    1  0.4046313E-006  0.2000221E+02  0.7818608E-02  0.1745284E+00
         -2   -1    0    0    0  501 -0.00000000000E+00  0.00000000000E+00  0.19227173915E+02  0.19227174091E+02  0.26000000000E-02 0.  1.
          2   -1    0    0  501    0  0.00000000000E+00 -0.00000000000E+00 -0.52021195599E+01  0.52021202096E+01  0.26000000000E-02 0. -1.
       1023    2    1    2    0    0  0.00000000000E+00  0.00000000000E+00  0.14025054356E+02  0.24429294301E+02  0.20002206637E+02 0.  0.
        -11    1    3    3    0    0 -0.31955721968E+01  0.94759772906E+01  0.68568852060E+01  0.12125291842E+02  0.51100000000E-03 0. -1.
         11    1    3    3    0    0  0.31955721968E+01 -0.94759772906E+01  0.71681691495E+01  0.12304002458E+02  0.51100000000E-03 0.  1.
<mgrwt>
<rscale>  0 0.20002207E+02</rscale>
<asrwt>0</asrwt>
<pdfrwt beam="2">  1        2 0.80032616E-03 0.20002207E+02</pdfrwt>
<pdfrwt beam="1">  1       -2 0.29580268E-02 0.20002207E+02</pdfrwt>
<totfact> 0.37547198E+06</totfact>
</mgrwt>
</event>
<event>
 5    1  0.4046313E-006  0.2000216E+02  0.7818608E-02  0.1745285E+00
          2   -1    0    0  501    0  0.00000000000E+00  0.00000000000E+00  0.85429923709E+02  0.85429923749E+02  0.26000000000E-02 0.  1.
         -2   -1    0    0    0  501 -0.00000000000E+00 -0.00000000000E+00 -0.11708018052E+01  0.11708046921E+01  0.26000000000E-02 0. -1.
       1023    2    1    2    0    0  0.00000000000E+00  0.00000000000E+00  0.84259121904E+02  0.86600728441E+02  0.20002163444E+02 0.  0.
        -11    1    3    3    0    0  0.82086669214E+01  0.57128499289E+01  0.41901757540E+02  0.43078720410E+02  0.51100000000E-03 0. -1.
         11    1    3    3    0    0 -0.82086669214E+01 -0.57128499289E+01  0.42357364364E+02  0.43522008031E+02  0.51100000000E-03 0.  1.
<mgrwt>
<rscale>  0 0.20002163E+02</rscale>
<asrwt>0</asrwt>
<pdfrwt beam="1">  1        2 0.13143067E-01 0.20002163E+02</pdfrwt>
<pdfrwt beam="2">  1       -2 0.18012355E-03 0.20002163E+02</pdfrwt>
<totfact> 0.50967245E+06</totfact>
</mgrwt>
</event>
<event>
 5    1  0.4046313E-006  0.2000084E+02  0.7818608E-02  0.1745311E+00
          2   -1    0    0  501    0  0.00000000000E+00  0.00000000000E+00  0.15260251782E+01  0.15260273931E+01  0.26000000000E-02 0. -1.
         -2   -1    0    0    0  501 -0.00000000000E+00 -0.00000000000E+00 -0.65535148411E+02  0.65535148462E+02  0.26000000000E-02 0.  1.
       1023    2    1    2    0    0  0.00000000000E+00  0.00000000000E+00 -0.64009123232E+02  0.67061175855E+02  0.20000836235E+02 0.  0.
        -11    1    3    3    0    0 -0.91205560301E+01 -0.41015990595E+01 -0.32093595678E+02  0.33615569918E+02  0.51100000000E-03 0.  1.
         11    1    3    3    0    0  0.91205560301E+01  0.41015990595E+01 -0.31915527555E+02  0.33445605937E+02  0.51100000000E-03 0. -1.
<mgrwt>
<rscale>  0 0.20000836E+02</rscale>
<asrwt>0</asrwt>
<pdfrwt beam="1">  1        2 0.23477333E-03 0.20000836E+02</pdfrwt>
<pdfrwt beam="2">  1       -2 0.10082328E-01 0.20000836E+02</pdfrwt>
<totfact> 0.32464730E+06</totfact>
</mgrwt>
</event>
<event>
 5    1  0.4046313E-006  0.2000077E+02  0.7818608E-02  0.1745313E+00
          2   -1    0    0  501    0  0.00000000000E+00  0.00000000000E+00  0.21121117765E+02  0.21121117925E+02  0.26000000000E-02 0. -1.
         -2   -1    0    0    0  501 -0.00000000000E+00 -0.00000000000E+00 -0.47349619963E+01  0.47349627101E+01  0.26000000000E-02 0.  1.
       1023    2    1    2    0    0  0.00000000000E+00  0.00000000000E+00  0.16386155769E+02  0.25856080635E+02  0.20000770108E+02 0.  0.
        -11    1    3    3    0    0 -0.55386705506E+00  0.99846984507E+01  0.82991239769E+01  0.12995246474E+02  0.51100000000E-03 0.  1.
         11    1    3    3    0    0  0.55386705506E+00 -0.99846984507E+01  0.80870317917E+01  0.12860834161E+02  0.51100000000E-03 0. -1.
<mgrwt>
<rscale>  0 0.20000770E+02</rscale>
<asrwt>0</asrwt>
<pdfrwt beam="1">  1        2 0.32494028E-02 0.20000770E+02</pdfrwt>
<pdfrwt beam="2">  1       -2 0.72845577E-03 0.20000770E+02</pdfrwt>
<totfact> 0.41878473E+06</totfact>
</mgrwt>
</event>
<event>
 5    1  0.4046313E-006  0.2000024E+02  0.7818608E-02  0.1745323E+00
         -2   -1    0    0    0  501 -0.00000000000E+00  0.00000000000E+00  0.83977779519E+02  0.83977779559E+02  0.26000000000E-02 0.  1.
          2   -1    0    0  501    0  0.00000000000E+00 -0.00000000000E+00 -0.11908188875E+01  0.11908217259E+01  0.26000000000E-02 0. -1.
       1023    2    1    2    0    0  0.00000000000E+00  0.00000000000E+00  0.82786960631E+02  0.85168601285E+02  0.20000244855E+02 0.  0.
        -11    1    3    3    0    0 -0.97337657522E+01  0.22924201293E+01  0.41532288810E+02  0.42719227519E+02  0.51100000000E-03 0.  1.
         11    1    3    3    0    0  0.97337657522E+01 -0.22924201293E+01  0.41254671822E+02  0.42449373766E+02  0.51100000000E-03 0. -1.
<mgrwt>
<rscale>  0 0.20000245E+02</rscale>
<asrwt>0</asrwt>
<pdfrwt beam="2">  1        2 0.18320313E-03 0.20000245E+02</pdfrwt>
<pdfrwt beam="1">  1       -2 0.12919658E-01 0.20000245E+02</pdfrwt>
<totfact> 0.30941268E+06</totfact>
</mgrwt>
</event>
<event>
 4    1  0.4046313E-006  0.2003627E+02  0.7818608E-02  0.1744608E+00
          2   -1    0    0  501    0  0.00000000000E+00  0.00000000000E+00  0.36699054804E+02  0.36699054896E+02  0.26000000000E-02 0. -1.
         -2   -1    0    0    0  501 -0.00000000000E+00 -0.00000000000E+00 -0.27347582935E+01  0.27347595295E+01  0.26000000000E-02 0.  1.
        -11    1    1    2    0    0 -0.10014827656E+02 -0.15049946679E+00  0.17393327052E+02  0.20071055012E+02  0.51100000000E-03 0. -1.
         11    1    1    2    0    0  0.10014827656E+02  0.15049946679E+00  0.16570969458E+02  0.19362759414E+02  0.51100000000E-03 0.  1.
<mgrwt>
<rscale>  0 0.20036274E+02</rscale>
<asrwt>0</asrwt>
<pdfrwt beam="1">  1        2 0.56460081E-02 0.20036274E+02</pdfrwt>
<pdfrwt beam="2">  1       -2 0.42073218E-03 0.20036274E+02</pdfrwt>
<totfact> 0.44226267E+06</totfact>
</mgrwt>
</event>
<event>
 5    1  0.4395425E-006  0.2000114E+02  0.7818608E-02  0.1745305E+00
         -2   -1    0    0    0  501 -0.00000000000E+00  0.00000000000E+00  0.98502915638E+00  0.98503258774E+00  0.26000000000E-02 0. -1.
          2   -1    0    0  501    0  0.00000000000E+00 -0.00000000000E+00 -0.10153123011E+03  0.10153123014E+03  0.26000000000E-02 0.  1.
       1023    2    1    2    0    0  0.00000000000E+00  0.00000000000E+00 -0.10054620095E+03  0.10251626273E+03  0.20001139921E+02 0.  0.
        -11    1    3    3    0    0  0.67056386093E+01  0.74192440823E+01 -0.50144720550E+02  0.51132218524E+02  0.51100000000E-03 0. -1.
         11    1    3    3    0    0 -0.67056386093E+01 -0.74192440823E+01 -0.50401480405E+02  0.51384044208E+02  0.51100000000E-03 0.  1.
<mgrwt>
<rscale>  0 0.20001140E+02</rscale>
<asrwt>0</asrwt>
<pdfrwt beam="2">  1        2 0.15620181E-01 0.20001140E+02</pdfrwt>
<pdfrwt beam="1">  1       -2 0.15154329E-03 0.20001140E+02</pdfrwt>
<totfact> 0.52934300E+06</totfact>
</mgrwt>
</event>
<event>
 5    1  0.4046313E-006  0.2001075E+02  0.7818608E-02  0.1745114E+00
          2   -1    0    0  501    0  0.00000000000E+00  0.00000000000E+00  0.44476659909E+01  0.44476667509E+01  0.26000000000E-02 0.  1.
         -2   -1    0    0    0  501 -0.00000000000E+00 -0.00000000000E+00 -0.22507873045E+02  0.22507873195E+02  0.26000000000E-02 0. -1.
       1023    2    1    2    0    0  0.00000000000E+00  0.00000000000E+00 -0.18060207054E+02  0.26955539946E+02  0.20010748485E+02 0.  0.
        -11    1    3    3    0    0  0.96079536994E+01  0.27867780451E+01 -0.92579399891E+01  0.13630420363E+02  0.51100000000E-03 0.  1.
         11    1    3    3    0    0 -0.96079536994E+01 -0.27867780451E+01 -0.88022670646E+01  0.13325119583E+02  0.51100000000E-03 0. -1.
<mgrwt>
<rscale>  0 0.20010748E+02</rscale>
<asrwt>0</asrwt>
<pdfrwt beam="1">  1        2 0.68425639E-03 0.20010748E+02</pdfrwt>
<pdfrwt beam="2">  1       -2 0.34627497E-02 0.20010748E+02</pdfrwt>
<totfact> 0.37014389E+06</totfact>
</mgrwt>
</event>
<event>
 5    1  0.4046313E-006  0.2000065E+02  0.7818608E-02  0.1745315E+00
         -2   -1    0    0    0  501 -0.00000000000E+00  0.00000000000E+00  0.15459824874E+02  0.15459825092E+02  0.26000000000E-02 0.  1.
          2   -1    0    0  501    0  0.00000000000E+00 -0.00000000000E+00 -0.64687959105E+01  0.64687964330E+01  0.26000000000E-02 0. -1.
       1023    2    1    2    0    0  0.00000000000E+00  0.00000000000E+00  0.89910289631E+01  0.21928621525E+02  0.20000645994E+02 0.  0.
        -11    1    3    3    0    0  0.88830938581E+01  0.45931018177E+01  0.45204917405E+01  0.10974551774E+02  0.51100000000E-03 0. -1.
         11    1    3    3    0    0 -0.88830938581E+01 -0.45931018177E+01  0.44705372226E+01  0.10954069751E+02  0.51100000000E-03 0.  1.
<mgrwt>
<rscale>  0 0.20000646E+02</rscale>
<asrwt>0</asrwt>
<pdfrwt beam="2">  1        2 0.99519944E-03 0.20000646E+02</pdfrwt>
<pdfrwt beam="1">  1       -2 0.23784346E-02 0.20000646E+02</pdfrwt>
<totfact> 0.38206862E+06</totfact>
</mgrwt>
</event>
<event>
 5    1  0.4046313E-006  0.2000180E+02  0.7818608E-02  0.1745292E+00
          2   -1    0    0  501    0  0.00000000000E+00  0.00000000000E+00  0.28744667189E+02  0.28744667306E+02  0.26000000000E-02 0.  1.
         -2   -1    0    0    0  501 -0.00000000000E+00 -0.00000000000E+00 -0.34795316753E+01  0.34795326467E+01  0.26000000000E-02 0. -1.
       1023    2    1    2    0    0  0.00000000000E+00  0.00000000000E+00  0.25265135513E+02  0.32224199953E+02  0.20001799672E+02 0.  0.
        -11    1    3    3    0    0  0.68480979389E+00 -0.99768735699E+01  0.12801741713E+02  0.16244739513E+02  0.51100000000E-03 0. -1.
         11    1    3    3    0    0 -0.68480979389E+00  0.99768735699E+01  0.12463393800E+02  0.15979460440E+02  0.51100000000E-03 0.  1.
<mgrwt>
<rscale>  0 0.20001800E+02</rscale>
<asrwt>0</asrwt>
<pdfrwt beam="1">  1        2 0.44222564E-02 0.20001800E+02</pdfrwt>
<pdfrwt beam="2">  1       -2 0.53531267E-03 0.20001800E+02</pdfrwt>
<totfact> 0.43164029E+06</totfact>
</mgrwt>
</event>
<event>
 5    1  0.4046313E-006  0.2000279E+02  0.7818608E-02  0.1745273E+00
          2   -1    0    0  501    0  0.00000000000E+00  0.00000000000E+00  0.32345185147E+01  0.32345195597E+01  0.26000000000E-02 0.  1.
         -2   -1    0    0    0  501 -0.00000000000E+00 -0.00000000000E+00 -0.30925114248E+02  0.30925114357E+02  0.26000000000E-02 0. -1.
       1023    2    1    2    0    0  0.00000000000E+00  0.00000000000E+00 -0.27690595733E+02  0.34159633917E+02  0.20002787238E+02 0.  0.
        -11    1    3    3    0    0  0.95209353755E+01 -0.30606161264E+01 -0.14034638508E+02  0.17233300897E+02  0.51100000000E-03 0.  1.
         11    1    3    3    0    0 -0.95209353755E+01  0.30606161264E+01 -0.13655957225E+02  0.16926333020E+02  0.51100000000E-03 0. -1.
<mgrwt>
<rscale>  0 0.20002787E+02</rscale>
<asrwt>0</asrwt>
<pdfrwt beam="1">  1        2 0.49761834E-03 0.20002787E+02</pdfrwt>
<pdfrwt beam="2">  1       -2 0.47577098E-02 0.20002787E+02</pdfrwt>
<totfact> 0.35940493E+06</totfact>
</mgrwt>
</event>
<event>
 5    1  0.4046313E-006  0.2000067E+02  0.7818608E-02  0.1745315E+00
         -2   -1    0    0    0  501 -0.00000000000E+00  0.00000000000E+00  0.72337747224E+02  0.72337747270E+02  0.26000000000E-02 0.  1.
          2   -1    0    0  501    0  0.00000000000E+00 -0.00000000000E+00 -0.13824950559E+01  0.13824975008E+01  0.26000000000E-02 0. -1.
       1023    2    1    2    0    0  0.00000000000E+00  0.00000000000E+00  0.70955252168E+02  0.73720244771E+02  0.20000666962E+02 0.  0.
        -11    1    3    3    0    0  0.85261362164E+01  0.52254841944E+01  0.35762791691E+02  0.37134592412E+02  0.51100000000E-03 0.  1.
         11    1    3    3    0    0 -0.85261362164E+01 -0.52254841944E+01  0.35192460477E+02  0.36585652359E+02  0.51100000000E-03 0. -1.
<mgrwt>
<rscale>  0 0.20000667E+02</rscale>
<asrwt>0</asrwt>
<pdfrwt beam="2">  1        2 0.21269182E-03 0.20000667E+02</pdfrwt>
<pdfrwt beam="1">  1       -2 0.11128880E-01 0.20000667E+02</pdfrwt>
<totfact> 0.31883700E+06</totfact>
</mgrwt>
</event>
<event>
 5    1  0.4069781E-006  0.2000119E+02  0.7818608E-02  0.1745305E+00
         -2   -1    0    0    0  501 -0.00000000000E+00  0.00000000000E+00  0.16237805456E+01  0.16237826271E+01  0.26000000000E-02 0.  1.
          2   -1    0    0  501    0  0.00000000000E+00 -0.00000000000E+00 -0.61591933666E+02  0.61591933721E+02  0.26000000000E-02 0. -1.
       1023    2    1    2    0    0  0.00000000000E+00  0.00000000000E+00 -0.59968153120E+02  0.63215716348E+02  0.20001185083E+02 0.  0.
        -11    1    3    3    0    0 -0.94575184227E+01 -0.32504384906E+01 -0.29848287663E+02  0.31479045121E+02  0.51100000000E-03 0. -1.
         11    1    3    3    0    0  0.94575184227E+01  0.32504384906E+01 -0.30119865458E+02  0.31736671227E+02  0.51100000000E-03 0.  1.
<mgrwt>
<rscale>  0 0.20001185E+02</rscale>
<asrwt>0</asrwt>
<pdfrwt beam="2">  1        2 0.94756805E-02 0.20001185E+02</pdfrwt>
<pdfrwt beam="1">  1       -2 0.24981260E-03 0.20001185E+02</pdfrwt>
<totfact> 0.47904932E+06</totfact>
</mgrwt>
</event>
<event>
 5    1  0.4046313E-006  0.2000130E+02  0.7818608E-02  0.1745302E+00
          2   -1    0    0  501    0  0.00000000000E+00  0.00000000000E+00  0.44515530062E+02  0.44515530138E+02  0.26000000000E-02 0.  1.
         -2   -1    0    0    0  501 -0.00000000000E+00 -0.00000000000E+00 -0.22466993644E+01  0.22467008689E+01  0.26000000000E-02 0. -1.
       1023    2    1    2    0    0  0.00000000000E+00  0.00000000000E+00  0.42268830697E+02  0.46762231007E+02  0.20001304962E+02 0.  0.
        -11    1    3    3    0    0  0.15612723197E+01 -0.98777489626E+01  0.20960179156E+02  0.23223621732E+02  0.51100000000E-03 0. -1.
         11    1    3    3    0    0 -0.15612723197E+01  0.98777489626E+01  0.21308651541E+02  0.23538609275E+02  0.51100000000E-03 0.  1.
<mgrwt>
<rscale>  0 0.20001305E+02</rscale>
<asrwt>0</asrwt>
<pdfrwt beam="1">  1        2 0.68485432E-02 0.20001305E+02</pdfrwt>
<pdfrwt beam="2">  1       -2 0.34564618E-03 0.20001305E+02</pdfrwt>
<totfact> 0.45545288E+06</totfact>
</mgrwt>
</event>
<event>
 5    1  0.4046313E-006  0.2000321E+02  0.7818608E-02  0.1745264E+00
          2   -1    0    0  501    0  0.00000000000E+00  0.00000000000E+00  0.25219129023E+01  0.25219142425E+01  0.26000000000E-02 0.  1.
         -2   -1    0    0    0  501 -0.00000000000E+00 -0.00000000000E+00 -0.39665176953E+02  0.39665177038E+02  0.26000000000E-02 0. -1.
       1023    2    1    2    0    0  0.00000000000E+00  0.00000000000E+00 -0.37143264051E+02  0.42187091281E+02  0.20003214901E+02 0.  0.
        -11    1    3    3    0    0  0.55588533667E+01  0.83130744387E+01 -0.18898998248E+02  0.21381772434E+02  0.51100000000E-03 0. -1.
         11    1    3    3    0    0 -0.55588533667E+01 -0.83130744387E+01 -0.18244265803E+02  0.20805318847E+02  0.51100000000E-03 0.  1.
<mgrwt>
<rscale>  0 0.20003215E+02</rscale>
<asrwt>0</asrwt>
<pdfrwt beam="1">  1        2 0.38798674E-03 0.20003215E+02</pdfrwt>
<pdfrwt beam="2">  1       -2 0.61023345E-02 0.20003215E+02</pdfrwt>
<totfact> 0.34944247E+06</totfact>
</mgrwt>
</event>
<event>
 5    1  0.4046313E-006  0.2000103E+02  0.7818608E-02  0.1745308E+00
         -2   -1    0    0    0  501 -0.00000000000E+00  0.00000000000E+00  0.82966962672E+00  0.82967370062E+00  0.26000000000E-02 0.  1.
          2   -1    0    0  501    0  0.00000000000E+00 -0.00000000000E+00 -0.12054202257E+03  0.12054202259E+03  0.26000000000E-02 0. -1.
       1023    2    1    2    0    0  0.00000000000E+00  0.00000000000E+00 -0.11971235294E+03  0.12137169630E+03  0.20001030353E+02 0.  0.
        -11    1    3    3    0    0  0.40167423086E+01  0.91578720615E+01 -0.59265834107E+02  0.60103576700E+02  0.51100000000E-03 0.  1.
         11    1    3    3    0    0 -0.40167423086E+01 -0.91578720615E+01 -0.60446518833E+02  0.61268119595E+02  0.51100000000E-03 0. -1.
<mgrwt>
<rscale>  0 0.20001030E+02</rscale>
<asrwt>0</asrwt>
<pdfrwt beam="2">  1        2 0.18544913E-01 0.20001030E+02</pdfrwt>
<pdfrwt beam="1">  1       -2 0.12764189E-03 0.20001030E+02</pdfrwt>
<totfact> 0.55147723E+06</totfact>
</mgrwt>
</event>
<event>
 5    1  0.4046313E-006  0.2000085E+02  0.7818608E-02  0.1745311E+00
          2   -1    0    0  501    0  0.00000000000E+00  0.00000000000E+00  0.33034366658E+01  0.33034376890E+01  0.26000000000E-02 0. -1.
         -2   -1    0    0    0  501 -0.00000000000E+00 -0.00000000000E+00 -0.30274078593E+02  0.30274078704E+02  0.26000000000E-02 0.  1.
       1023    2    1    2    0    0  0.00000000000E+00  0.00000000000E+00 -0.26970641927E+02  0.33577516393E+02  0.20000852012E+02 0.  0.
        -11    1    3    3    0    0  0.76552565824E+01 -0.64344963862E+01 -0.13574518254E+02  0.16860404597E+02  0.51100000000E-03 0.  1.
         11    1    3    3    0    0 -0.76552565824E+01  0.64344963862E+01 -0.13396123673E+02  0.16717111796E+02  0.51100000000E-03 0. -1.
<mgrwt>
<rscale>  0 0.20000852E+02</rscale>
<asrwt>0</asrwt>
<pdfrwt beam="1">  1        2 0.50822113E-03 0.20000852E+02</pdfrwt>
<pdfrwt beam="2">  1       -2 0.46575505E-02 0.20000852E+02</pdfrwt>
<totfact> 0.36027356E+06</totfact>
</mgrwt>
</event>
<event>
 5    1  0.4046313E-006  0.2000024E+02  0.7818608E-02  0.1745323E+00
          2   -1    0    0  501    0  0.00000000000E+00  0.00000000000E+00  0.15254643258E+02  0.15254643479E+02  0.26000000000E-02 0.  1.
         -2   -1    0    0    0  501 -0.00000000000E+00 -0.00000000000E+00 -0.65555399504E+01  0.65555404659E+01  0.26000000000E-02 0. -1.
       1023    2    1    2    0    0  0.00000000000E+00  0.00000000000E+00  0.86991033075E+01  0.21810183945E+02  0.20000243133E+02 0.  0.
        -11    1    3    3    0    0  0.83882674428E+01 -0.54441410780E+01  0.43201220984E+01  0.10893353844E+02  0.51100000000E-03 0. -1.
         11    1    3    3    0    0 -0.83882674428E+01  0.54441410780E+01  0.43789812091E+01  0.10916830101E+02  0.51100000000E-03 0.  1.
<mgrwt>
<rscale>  0 0.20000243E+02</rscale>
<asrwt>0</asrwt>
<pdfrwt beam="1">  1        2 0.23468682E-02 0.20000243E+02</pdfrwt>
<pdfrwt beam="2">  1       -2 0.10085447E-02 0.20000243E+02</pdfrwt>
<totfact> 0.40742811E+06</totfact>
</mgrwt>
</event>
<event>
 5    1  0.4046313E-006  0.2000057E+02  0.7818608E-02  0.1745317E+00
         -2   -1    0    0    0  501 -0.00000000000E+00  0.00000000000E+00  0.31828927882E+02  0.31828927988E+02  0.26000000000E-02 0.  1.
          2   -1    0    0  501    0  0.00000000000E+00 -0.00000000000E+00 -0.31419758080E+01  0.31419768838E+01  0.26000000000E-02 0. -1.
       1023    2    1    2    0    0  0.00000000000E+00  0.00000000000E+00  0.28686952074E+02  0.34970904872E+02  0.20000574199E+02 0.  0.
        -11    1    3    3    0    0 -0.96287034441E+01  0.27002836486E+01  0.14259986356E+02  0.17416965089E+02  0.51100000000E-03 0. -1.
         11    1    3    3    0    0  0.96287034441E+01 -0.27002836486E+01  0.14426965719E+02  0.17553939783E+02  0.51100000000E-03 0.  1.
<mgrwt>
<rscale>  0 0.20000574E+02</rscale>
<asrwt>0</asrwt>
<pdfrwt beam="2">  1        2 0.48338096E-03 0.20000574E+02</pdfrwt>
<pdfrwt beam="1">  1       -2 0.48967585E-02 0.20000574E+02</pdfrwt>
<totfact> 0.35840480E+06</totfact>
</mgrwt>
</event>
<event>
 5    1  0.4046313E-006  0.2000038E+02  0.7818608E-02  0.1745320E+00
         -2   -1    0    0    0  501 -0.00000000000E+00  0.00000000000E+00  0.10766434516E+02  0.10766434830E+02  0.26000000000E-02 0.  1.
          2   -1    0    0  501    0  0.00000000000E+00 -0.00000000000E+00 -0.92884820136E+01  0.92884823775E+01  0.26000000000E-02 0. -1.
       1023    2    1    2    0    0  0.00000000000E+00  0.00000000000E+00  0.14779525023E+01  0.20054917207E+02  0.20000384011E+02 0.  0.
        -11    1    3    3    0    0  0.22756788571E+01  0.97376830524E+01  0.79063756776E+00  0.10031265798E+02  0.51100000000E-03 0. -1.
         11    1    3    3    0    0 -0.22756788571E+01 -0.97376830524E+01  0.68731493456E+00  0.10023651409E+02  0.51100000000E-03 0.  1.
<mgrwt>
<rscale>  0 0.20000384E+02</rscale>
<asrwt>0</asrwt>
<pdfrwt beam="2">  1        2 0.14289973E-02 0.20000384E+02</pdfrwt>
<pdfrwt beam="1">  1       -2 0.16563746E-02 0.20000384E+02</pdfrwt>
<totfact> 0.39248873E+06</totfact>
</mgrwt>
</event>
<event>
 5    1  0.4046313E-006  0.2000969E+02  0.7818608E-02  0.1745135E+00
         -2   -1    0    0    0  501 -0.00000000000E+00  0.00000000000E+00  0.12421650143E+01  0.12421677354E+01  0.26000000000E-02 0.  1.
          2   -1    0    0  501    0  0.00000000000E+00 -0.00000000000E+00 -0.80582550610E+02  0.80582550652E+02  0.26000000000E-02 0. -1.
       1023    2    1    2    0    0  0.00000000000E+00  0.00000000000E+00 -0.79340385596E+02  0.81824718387E+02  0.20009691469E+02 0.  0.
        -11    1    3    3    0    0 -0.93141800971E+01  0.36432634910E+01 -0.40749152982E+02  0.41958560375E+02  0.51100000000E-03 0. -1.
         11    1    3    3    0    0  0.93141800971E+01 -0.36432634910E+01 -0.38591232614E+02  0.39866158013E+02  0.51100000000E-03 0.  1.
<mgrwt>
<rscale>  0 0.20009691E+02</rscale>
<asrwt>0</asrwt>
<pdfrwt beam="2">  1        2 0.12397312E-01 0.20009691E+02</pdfrwt>
<pdfrwt beam="1">  1       -2 0.19110259E-03 0.20009691E+02</pdfrwt>
<totfact> 0.50319002E+06</totfact>
</mgrwt>
</event>
<event>
 5    1  0.4446524E-006  0.2000128E+02  0.7818608E-02  0.1745303E+00
          2   -1    0    0  501    0  0.00000000000E+00  0.00000000000E+00  0.93513431605E+02  0.93513431641E+02  0.26000000000E-02 0.  1.
         -2   -1    0    0    0  501 -0.00000000000E+00 -0.00000000000E+00 -0.10695003935E+01  0.10695035539E+01  0.26000000000E-02 0. -1.
       1023    2    1    2    0    0  0.00000000000E+00  0.00000000000E+00  0.92443931212E+02  0.94582935195E+02  0.20001280266E+02 0.  0.
        -11    1    3    3    0    0 -0.79044729062E+01  0.61260506623E+01  0.46506253850E+02  0.47569326631E+02  0.51100000000E-03 0.  1.
         11    1    3    3    0    0  0.79044729062E+01 -0.61260506623E+01  0.45937677361E+02  0.47013608565E+02  0.51100000000E-03 0. -1.
<mgrwt>
<rscale>  0 0.20001280E+02</rscale>
<asrwt>0</asrwt>
<pdfrwt beam="1">  1        2 0.14386687E-01 0.20001280E+02</pdfrwt>
<pdfrwt beam="2">  1       -2 0.16453871E-03 0.20001280E+02</pdfrwt>
<totfact> 0.51967278E+06</totfact>
</mgrwt>
</event>
<event>
 5    1  0.4046313E-006  0.2000057E+02  0.7818608E-02  0.1745317E+00
         -2   -1    0    0    0  501 -0.00000000000E+00  0.00000000000E+00  0.35300884352E+01  0.35300893927E+01  0.26000000000E-02 0.  1.
          2   -1    0    0  501    0  0.00000000000E+00 -0.00000000000E+00 -0.28329499442E+02  0.28329499562E+02  0.26000000000E-02 0. -1.
       1023    2    1    2    0    0  0.00000000000E+00  0.00000000000E+00 -0.24799411007E+02  0.31859588954E+02  0.20000565543E+02 0.  0.
        -11    1    3    3    0    0 -0.54016324205E+01  0.84158368244E+01 -0.12333776728E+02  0.15878475711E+02  0.51100000000E-03 0. -1.
         11    1    3    3    0    0  0.54016324205E+01 -0.84158368244E+01 -0.12465634279E+02  0.15981113244E+02  0.51100000000E-03 0.  1.
<mgrwt>
<rscale>  0 0.20000566E+02</rscale>
<asrwt>0</asrwt>
<pdfrwt beam="2">  1        2 0.43583845E-02 0.20000566E+02</pdfrwt>
<pdfrwt beam="1">  1       -2 0.54309063E-03 0.20000566E+02</pdfrwt>
<totfact> 0.43103109E+06</totfact>
</mgrwt>
</event>
<event>
 5    1  0.4046313E-006  0.2000028E+02  0.7818608E-02  0.1745322E+00
          2   -1    0    0  501    0  0.00000000000E+00  0.00000000000E+00  0.19950069635E+02  0.19950069804E+02  0.26000000000E-02 0. -1.
         -2   -1    0    0    0  501 -0.00000000000E+00 -0.00000000000E+00 -0.50126550829E+01  0.50126557572E+01  0.26000000000E-02 0.  1.
       1023    2    1    2    0    0  0.00000000000E+00  0.00000000000E+00  0.14937414552E+02  0.24962725561E+02  0.20000282847E+02 0.  0.
        -11    1    3    3    0    0  0.95563381869E+01 -0.29455749092E+01  0.74024611933E+01  0.12441721869E+02  0.51100000000E-03 0. -1.
         11    1    3    3    0    0 -0.95563381869E+01  0.29455749092E+01  0.75349533584E+01  0.12521003692E+02  0.51100000000E-03 0.  1.
<mgrwt>
<rscale>  0 0.20000283E+02</rscale>
<asrwt>0</asrwt>
<pdfrwt beam="1">  1        2 0.30692415E-02 0.20000283E+02</pdfrwt>
<pdfrwt beam="2">  1       -2 0.77117777E-03 0.20000283E+02</pdfrwt>
<totfact> 0.41667452E+06</totfact>
</mgrwt>
</event>
<event>
 5    1  0.4046313E-006  0.2000035E+02  0.7818608E-02  0.1745321E+00
          2   -1    0    0  501    0  0.00000000000E+00  0.00000000000E+00  0.31995741762E+01  0.31995752326E+01  0.26000000000E-02 0. -1.
         -2   -1    0    0    0  501 -0.00000000000E+00 -0.00000000000E+00 -0.31255236916E+02  0.31255237025E+02  0.26000000000E-02 0.  1.
       1023    2    1    2    0    0  0.00000000000E+00  0.00000000000E+00 -0.28055662740E+02  0.34454812257E+02  0.20000346894E+02 0.  0.
        -11    1    3    3    0    0  0.96959201680E+01 -0.24473778947E+01 -0.13934387310E+02  0.17151317046E+02  0.51100000000E-03 0. -1.
         11    1    3    3    0    0 -0.96959201680E+01  0.24473778947E+01 -0.14121275431E+02  0.17303495211E+02  0.51100000000E-03 0.  1.
<mgrwt>
<rscale>  0 0.20000347E+02</rscale>
<asrwt>0</asrwt>
<pdfrwt beam="1">  1        2 0.49224229E-03 0.20000347E+02</pdfrwt>
<pdfrwt beam="2">  1       -2 0.48084979E-02 0.20000347E+02</pdfrwt>
<totfact> 0.35910174E+06</totfact>
</mgrwt>
</event>
<event>
 5    1  0.4046313E-006  0.2000012E+02  0.7818608E-02  0.1745326E+00
          2   -1    0    0  501    0  0.00000000000E+00  0.00000000000E+00  0.95861124973E+02  0.95861125008E+02  0.26000000000E-02 0.  1.
         -2   -1    0    0    0  501 -0.00000000000E+00 -0.00000000000E+00 -0.10431865241E+01  0.10431897642E+01  0.26000000000E-02 0. -1.
       1023    2    1    2    0    0  0.00000000000E+00  0.00000000000E+00  0.94817938449E+02  0.96904314773E+02  0.20000119245E+02 0.  0.
        -11    1    3    3    0    0 -0.80340589161E+01 -0.59543375972E+01  0.47259370728E+02  0.48305779786E+02  0.51100000000E-03 0. -1.
         11    1    3    3    0    0  0.80340589161E+01  0.59543375972E+01  0.47558567721E+02  0.48598534987E+02  0.51100000000E-03 0.  1.
<mgrwt>
<rscale>  0 0.20000119E+02</rscale>
<asrwt>0</asrwt>
<pdfrwt beam="1">  1        2 0.14747869E-01 0.20000119E+02</pdfrwt>
<pdfrwt beam="2">  1       -2 0.16049044E-03 0.20000119E+02</pdfrwt>
<totfact> 0.52258981E+06</totfact>
</mgrwt>
</event>
<event>
 5    1  0.4046313E-006  0.2000062E+02  0.7818608E-02  0.1745316E+00
          2   -1    0    0  501    0  0.00000000000E+00  0.00000000000E+00  0.28608315999E+02  0.28608316117E+02  0.26000000000E-02 0. -1.
         -2   -1    0    0    0  501 -0.00000000000E+00 -0.00000000000E+00 -0.34957049728E+01  0.34957059397E+01  0.26000000000E-02 0.  1.
       1023    2    1    2    0    0  0.00000000000E+00  0.00000000000E+00  0.25112611026E+02  0.32104022057E+02  0.20000624982E+02 0.  0.
        -11    1    3    3    0    0 -0.90357070898E+01  0.42849386470E+01  0.12493154776E+02  0.16002612859E+02  0.51100000000E-03 0. -1.
         11    1    3    3    0    0  0.90357070898E+01 -0.42849386470E+01  0.12619456250E+02  0.16101409197E+02  0.51100000000E-03 0.  1.
<mgrwt>
<rscale>  0 0.20000625E+02</rscale>
<asrwt>0</asrwt>
<pdfrwt beam="1">  1        2 0.44012794E-02 0.20000625E+02</pdfrwt>
<pdfrwt beam="2">  1       -2 0.53780086E-03 0.20000625E+02</pdfrwt>
<totfact> 0.43147779E+06</totfact>
</mgrwt>
</event>
<event>
 5    1  0.4046313E-006  0.2000117E+02  0.7818608E-02  0.1745305E+00
         -2   -1    0    0    0  501 -0.00000000000E+00  0.00000000000E+00  0.10583007205E+02  0.10583007525E+02  0.26000000000E-02 0. -1.
          2   -1    0    0  501    0  0.00000000000E+00 -0.00000000000E+00 -0.94502149766E+01  0.94502153343E+01  0.26000000000E-02 0.  1.
       1023    2    1    2    0    0  0.00000000000E+00  0.00000000000E+00  0.11327922287E+01  0.20033222859E+02  0.20001169963E+02 0.  0.
        -11    1    3    3    0    0 -0.13674955452E+01  0.99066315226E+01  0.54883177879E+00  0.10015618242E+02  0.51100000000E-03 0. -1.
         11    1    3    3    0    0  0.13674955452E+01 -0.99066315226E+01  0.58396044988E+00  0.10017604617E+02  0.51100000000E-03 0.  1.
<mgrwt>
<rscale>  0 0.20001170E+02</rscale>
<asrwt>0</asrwt>
<pdfrwt beam="2">  1        2 0.14538793E-02 0.20001170E+02</pdfrwt>
<pdfrwt beam="1">  1       -2 0.16281550E-02 0.20001170E+02</pdfrwt>
<totfact> 0.39294913E+06</totfact>
</mgrwt>
</event>
<event>
 5    1  0.4046313E-006  0.2000498E+02  0.7818608E-02  0.1745229E+00
         -2   -1    0    0    0  501 -0.00000000000E+00  0.00000000000E+00  0.23859989561E+02  0.23859989703E+02  0.26000000000E-02 0. -1.
          2   -1    0    0  501    0  0.00000000000E+00 -0.00000000000E+00 -0.41932047951E+01  0.41932056012E+01  0.26000000000E-02 0.  1.
       1023    2    1    2    0    0  0.00000000000E+00  0.00000000000E+00  0.19666784766E+02  0.28053195304E+02  0.20004982973E+02 0.  0.
        -11    1    3    3    0    0  0.91847103724E+01  0.39568911252E+01  0.95750334110E+01  0.13845474246E+02  0.51100000000E-03 0.  1.
         11    1    3    3    0    0 -0.91847103724E+01 -0.39568911252E+01  0.10091751355E+02  0.14207721059E+02  0.51100000000E-03 0. -1.
<mgrwt>
<rscale>  0 0.20004983E+02</rscale>
<asrwt>0</asrwt>
<pdfrwt beam="2">  1        2 0.64510852E-03 0.20004983E+02</pdfrwt>
<pdfrwt beam="1">  1       -2 0.36707676E-02 0.20004983E+02</pdfrwt>
<totfact> 0.36845767E+06</totfact>
</mgrwt>
</event>
<event>
 5    1  0.4046313E-006  0.2000066E+02  0.7818608E-02  0.1745315E+00
         -2   -1    0    0    0  501 -0.00000000000E+00  0.00000000000E+00  0.68082427433E+02  0.68082427483E+02  0.26000000000E-02 0.  1.
          2   -1    0    0  501    0  0.00000000000E+00 -0.00000000000E+00 -0.14689033681E+01  0.14689056691E+01  0.26000000000E-02 0. -1.
       1023    2    1    2    0    0  0.00000000000E+00  0.00000000000E+00  0.66613524065E+02  0.69551333152E+02  0.20000658860E+02 0.  0.
        -11    1    3    3    0    0 -0.13215915456E+01  0.99125900999E+01  0.33387701306E+02  0.34853187020E+02  0.51100000000E-03 0.  1.
         11    1    3    3    0    0  0.13215915456E+01 -0.99125900999E+01  0.33225822759E+02  0.34698146132E+02  0.51100000000E-03 0. -1.
<mgrwt>
<rscale>  0 0.20000659E+02</rscale>
<asrwt>0</asrwt>
<pdfrwt beam="2">  1        2 0.22598537E-03 0.20000659E+02</pdfrwt>
<pdfrwt beam="1">  1       -2 0.10474217E-01 0.20000659E+02</pdfrwt>
<totfact> 0.32244720E+06</totfact>
</mgrwt>
</event>
<event>
 5    1  0.4046313E-006  0.2000462E+02  0.7818608E-02  0.1745236E+00
          2   -1    0    0  501    0  0.00000000000E+00  0.00000000000E+00  0.25307391095E+01  0.25307404451E+01  0.26000000000E-02 0. -1.
         -2   -1    0    0    0  501 -0.00000000000E+00 -0.00000000000E+00 -0.39532374613E+02  0.39532374698E+02  0.26000000000E-02 0.  1.
       1023    2    1    2    0    0  0.00000000000E+00  0.00000000000E+00 -0.37001635503E+02  0.42063115143E+02  0.20004615109E+02 0.  0.
        -11    1    3    3    0    0  0.30430497517E+01  0.95271751945E+01 -0.18211464204E+02  0.20777022109E+02  0.51100000000E-03 0.  1.
         11    1    3    3    0    0 -0.30430497517E+01 -0.95271751945E+01 -0.18790171299E+02  0.21286093034E+02  0.51100000000E-03 0. -1.
<mgrwt>
<rscale>  0 0.20004615E+02</rscale>
<asrwt>0</asrwt>
<pdfrwt beam="1">  1        2 0.38934462E-03 0.20004615E+02</pdfrwt>
<pdfrwt beam="2">  1       -2 0.60819034E-02 0.20004615E+02</pdfrwt>
<totfact> 0.34953206E+06</totfact>
</mgrwt>
</event>
<event>
 5    1  0.4046313E-006  0.2000071E+02  0.7818608E-02  0.1745314E+00
          2   -1    0    0  501    0  0.00000000000E+00  0.00000000000E+00  0.12111032557E+01  0.12111060465E+01  0.26000000000E-02 0.  1.
         -2   -1    0    0    0  501 -0.00000000000E+00 -0.00000000000E+00 -0.82575126893E+02  0.82575126934E+02  0.26000000000E-02 0. -1.
       1023    2    1    2    0    0  0.00000000000E+00  0.00000000000E+00 -0.81364023637E+02  0.83786232981E+02  0.20000712352E+02 0.  0.
        -11    1    3    3    0    0  0.98738781968E+01 -0.15842149823E+01 -0.40419874954E+02  0.41638557844E+02  0.51100000000E-03 0.  1.
         11    1    3    3    0    0 -0.98738781968E+01  0.15842149823E+01 -0.40944148683E+02  0.42147675137E+02  0.51100000000E-03 0. -1.
<mgrwt>
<rscale>  0 0.20000712E+02</rscale>
<asrwt>0</asrwt>
<pdfrwt beam="1">  1        2 0.18632386E-03 0.20000712E+02</pdfrwt>
<pdfrwt beam="2">  1       -2 0.12703862E-01 0.20000712E+02</pdfrwt>
<totfact> 0.31050253E+06</totfact>
</mgrwt>
</event>
<event>
 5    1  0.4046313E-006  0.2000199E+02  0.7818608E-02  0.1745289E+00
         -2   -1    0    0    0  501 -0.00000000000E+00  0.00000000000E+00  0.16125934688E+01  0.16125955648E+01  0.26000000000E-02 0.  1.
          2   -1    0    0  501    0  0.00000000000E+00 -0.00000000000E+00 -0.62024179703E+02  0.62024179757E+02  0.26000000000E-02 0. -1.
       1023    2    1    2    0    0  0.00000000000E+00  0.00000000000E+00 -0.60411586234E+02  0.63636775322E+02  0.20001985454E+02 0.  0.
        -11    1    3    3    0    0 -0.48244427130E+01 -0.87598952260E+01 -0.30504981498E+02  0.32102412812E+02  0.51100000000E-03 0. -1.
         11    1    3    3    0    0  0.48244427130E+01  0.87598952260E+01 -0.29906604736E+02  0.31534362510E+02  0.51100000000E-03 0.  1.
<mgrwt>
<rscale>  0 0.20001985E+02</rscale>
<asrwt>0</asrwt>
<pdfrwt beam="2">  1        2 0.95421798E-02 0.20001985E+02</pdfrwt>
<pdfrwt beam="1">  1       -2 0.24809152E-03 0.20001985E+02</pdfrwt>
<totfact> 0.47958428E+06</totfact>
</mgrwt>
</event>
<event>
 4    1  0.4046313E-006  0.2002604E+02  0.7818608E-02  0.1744811E+00
          2   -1    0    0  501    0  0.00000000000E+00  0.00000000000E+00  0.11723152404E+01  0.11723181235E+01  0.26000000000E-02 0. -1.
         -2   -1    0    0    0  501 -0.00000000000E+00 -0.00000000000E+00 -0.85523486025E+02  0.85523486064E+02  0.26000000000E-02 0.  1.
        -11    1    1    2    0    0  0.99884754496E+01  0.59499932587E+00 -0.40573526854E+02  0.41789170220E+02  0.51100000000E-03 0. -1.
         11    1    1    2    0    0 -0.99884754496E+01 -0.59499932587E+00 -0.43777643931E+02  0.44906633968E+02  0.51100000000E-03 0.  1.
<mgrwt>
<rscale>  0 0.20026044E+02</rscale>
<asrwt>0</asrwt>
<pdfrwt beam="1">  1        2 0.18035648E-03 0.20026044E+02</pdfrwt>
<pdfrwt beam="2">  1       -2 0.13157455E-01 0.20026044E+02</pdfrwt>
<totfact> 0.30733465E+06</totfact>
</mgrwt>
</event>
<event>
 5    1  0.4046313E-006  0.2000467E+02  0.7818608E-02  0.1745235E+00
          2   -1    0    0  501    0  0.00000000000E+00  0.00000000000E+00  0.25317513381E+01  0.25317526732E+01  0.26000000000E-02 0.  1.
         -2   -1    0    0    0  501 -0.00000000000E+00 -0.00000000000E+00 -0.39516768379E+02  0.39516768465E+02  0.26000000000E-02 0. -1.
       1023    2    1    2    0    0  0.00000000000E+00  0.00000000000E+00 -0.36985017041E+02  0.42048521138E+02  0.20004665565E+02 0.  0.
        -11    1    3    3    0    0 -0.75271492580E+01 -0.65855130534E+01 -0.18787549472E+02  0.21283772541E+02  0.51100000000E-03 0. -1.
         11    1    3    3    0    0  0.75271492580E+01  0.65855130534E+01 -0.18197467569E+02  0.20764748597E+02  0.51100000000E-03 0.  1.
<mgrwt>
<rscale>  0 0.20004666E+02</rscale>
<asrwt>0</asrwt>
<pdfrwt beam="1">  1        2 0.38950034E-03 0.20004666E+02</pdfrwt>
<pdfrwt beam="2">  1       -2 0.60795025E-02 0.20004666E+02</pdfrwt>
<totfact> 0.34954695E+06</totfact>
</mgrwt>
</event>
<event>
 5    1  0.4046313E-006  0.2000204E+02  0.7818608E-02  0.1745288E+00
         -2   -1    0    0    0  501 -0.00000000000E+00  0.00000000000E+00  0.49737501163E+01  0.49737507958E+01  0.26000000000E-02 0. -1.
          2   -1    0    0  501    0  0.00000000000E+00 -0.00000000000E+00 -0.20109644570E+02  0.20109644738E+02  0.26000000000E-02 0.  1.
       1023    2    1    2    0    0  0.00000000000E+00  0.00000000000E+00 -0.15135894454E+02  0.25083395534E+02  0.20002035661E+02 0.  0.
        -11    1    3    3    0    0  0.87453721550E-01  0.10000631665E+02 -0.75788460093E+01  0.12548274342E+02  0.51100000000E-03 0.  1.
         11    1    3    3    0    0 -0.87453721550E-01 -0.10000631665E+02 -0.75570484448E+01  0.12535121193E+02  0.51100000000E-03 0. -1.
<mgrwt>
<rscale>  0 0.20002036E+02</rscale>
<asrwt>0</asrwt>
<pdfrwt beam="2">  1        2 0.30937915E-02 0.20002036E+02</pdfrwt>
<pdfrwt beam="1">  1       -2 0.76519240E-03 0.20002036E+02</pdfrwt>
<totfact> 0.41688603E+06</totfact>
</mgrwt>
</event>
<event>
 4    1  0.4046313E-006  0.2006802E+02  0.7818608E-02  0.1743979E+00
          2   -1    0    0  501    0  0.00000000000E+00  0.00000000000E+00  0.10880322022E+02  0.10880322333E+02  0.26000000000E-02 0.  1.
         -2   -1    0    0    0  501 -0.00000000000E+00 -0.00000000000E+00 -0.92535300538E+01  0.92535304191E+01  0.26000000000E-02 0. -1.
        -11    1    1    2    0    0 -0.92209320783E+01 -0.38939974896E+01  0.15175447645E+01  0.10123820781E+02  0.51100000000E-03 0.  1.
         11    1    1    2    0    0  0.92209320783E+01  0.38939974896E+01  0.10924720395E+00  0.10010031971E+02  0.51100000000E-03 0. -1.
<mgrwt>
<rscale>  0 0.20068024E+02</rscale>
<asrwt>0</asrwt>
<pdfrwt beam="1">  1        2 0.16738957E-02 0.20068024E+02</pdfrwt>
<pdfrwt beam="2">  1       -2 0.14236201E-02 0.20068024E+02</pdfrwt>
<totfact> 0.39402473E+06</totfact>
</mgrwt>
</event>
<event>
 4    1  0.4046313E-006  0.2002010E+02  0.7818608E-02  0.1744929E+00
         -2   -1    0    0    0  501 -0.00000000000E+00  0.00000000000E+00  0.14766571730E+02  0.14766571959E+02  0.26000000000E-02 0. -1.
          2   -1    0    0  501    0  0.00000000000E+00 -0.00000000000E+00 -0.67856685918E+01  0.67856690899E+01  0.26000000000E-02 0.  1.
        -11    1    1    2    0    0  0.74392717172E+01 -0.66936894096E+01  0.37430182191E+01  0.10684494712E+02  0.51100000000E-03 0.  1.
         11    1    1    2    0    0 -0.74392717172E+01  0.66936894096E+01  0.42378849187E+01  0.10867746337E+02  0.51100000000E-03 0. -1.
<mgrwt>
<rscale>  0 0.20020097E+02</rscale>
<asrwt>0</asrwt>
<pdfrwt beam="2">  1        2 0.10439491E-02 0.20020097E+02</pdfrwt>
<pdfrwt beam="1">  1       -2 0.22717803E-02 0.20020097E+02</pdfrwt>
<totfact> 0.38260213E+06</totfact>
</mgrwt>
</event>
<event>
 5    1  0.4046313E-006  0.2000052E+02  0.7818608E-02  0.1745318E+00
          2   -1    0    0  501    0  0.00000000000E+00  0.00000000000E+00  0.11082044832E+02  0.11082045137E+02  0.26000000000E-02 0.  1.
         -2   -1    0    0    0  501 -0.00000000000E+00 -0.00000000000E+00 -0.90240727884E+01  0.90240731630E+01  0.26000000000E-02 0. -1.
       1023    2    1    2    0    0  0.00000000000E+00  0.00000000000E+00  0.20579720439E+01  0.20106118300E+02  0.20000518598E+02 0.  0.
        -11    1    3    3    0    0 -0.93547444540E+01  0.35339492598E+01  0.95688137707E+00  0.10045678842E+02  0.51100000000E-03 0.  1.
         11    1    3    3    0    0  0.93547444540E+01 -0.35339492598E+01  0.11010906668E+01  0.10060439458E+02  0.51100000000E-03 0. -1.
<mgrwt>
<rscale>  0 0.20000519E+02</rscale>
<asrwt>0</asrwt>
<pdfrwt beam="1">  1        2 0.17049300E-02 0.20000519E+02</pdfrwt>
<pdfrwt beam="2">  1       -2 0.13883190E-02 0.20000519E+02</pdfrwt>
<totfact> 0.39760326E+06</totfact>
</mgrwt>
</event>
<event>
 5    1  0.4046313E-006  0.2000247E+02  0.7818608E-02  0.1745279E+00
          2   -1    0    0  501    0  0.00000000000E+00  0.00000000000E+00  0.10293017658E+02  0.10293017986E+02  0.26000000000E-02 0.  1.
         -2   -1    0    0    0  501 -0.00000000000E+00 -0.00000000000E+00 -0.97177210140E+01  0.97177213619E+01  0.26000000000E-02 0. -1.
       1023    2    1    2    0    0  0.00000000000E+00  0.00000000000E+00  0.57529664373E+00  0.20010739348E+02  0.20002467923E+02 0.  0.
        -11    1    3    3    0    0  0.81682623433E+01  0.57701060997E+01  0.18737521899E+00  0.10002486883E+02  0.51100000000E-03 0.  1.
         11    1    3    3    0    0 -0.81682623433E+01 -0.57701060997E+01  0.38792142474E+00  0.10008252465E+02  0.51100000000E-03 0. -1.
<mgrwt>
<rscale>  0 0.20002468E+02</rscale>
<asrwt>0</asrwt>
<pdfrwt beam="1">  1        2 0.15835412E-02 0.20002468E+02</pdfrwt>
<pdfrwt beam="2">  1       -2 0.14950341E-02 0.20002468E+02</pdfrwt>
<totfact> 0.39535717E+06</totfact>
</mgrwt>
</event>
<event>
 5    1  0.4115055E-006  0.2000263E+02  0.7818608E-02  0.1745276E+00
         -2   -1    0    0    0  501 -0.00000000000E+00  0.00000000000E+00  0.11630817548E+01  0.11630846609E+01  0.26000000000E-02 0. -1.
          2   -1    0    0  501    0  0.00000000000E+00 -0.00000000000E+00 -0.86000994506E+02  0.86000994546E+02  0.26000000000E-02 0.  1.
       1023    2    1    2    0    0  0.00000000000E+00  0.00000000000E+00 -0.84837912751E+02  0.87164079206E+02  0.20002631424E+02 0.  0.
        -11    1    3    3    0    0 -0.51351968497E+01  0.85808090990E+01 -0.41719231213E+02  0.42900988156E+02  0.51100000000E-03 0. -1.
         11    1    3    3    0    0  0.51351968497E+01 -0.85808090990E+01 -0.43118681539E+02  0.44263091051E+02  0.51100000000E-03 0.  1.
<mgrwt>
<rscale>  0 0.20002631E+02</rscale>
<asrwt>0</asrwt>
<pdfrwt beam="2">  1        2 0.13230917E-01 0.20002631E+02</pdfrwt>
<pdfrwt beam="1">  1       -2 0.17893595E-03 0.20002631E+02</pdfrwt>
<totfact> 0.51035604E+06</totfact>
</mgrwt>
</event>
<event>
 5    1  0.4046313E-006  0.2000139E+02  0.7818608E-02  0.1745300E+00
         -2   -1    0    0    0  501 -0.00000000000E+00  0.00000000000E+00  0.11018435702E+03  0.11018435705E+03  0.26000000000E-02 0. -1.
          2   -1    0    0  501    0  0.00000000000E+00 -0.00000000000E+00 -0.90769453412E+00  0.90769825783E+00  0.26000000000E-02 0.  1.
       1023    2    1    2    0    0  0.00000000000E+00  0.00000000000E+00  0.10927666249E+03  0.11109205531E+03  0.20001394667E+02 0.  0.
        -11    1    3    3    0    0  0.42001948371E+01 -0.90759168405E+01  0.54675060069E+02  0.55582156282E+02  0.51100000000E-03 0. -1.
         11    1    3    3    0    0 -0.42001948371E+01  0.90759168405E+01  0.54601602418E+02  0.55509899028E+02  0.51100000000E-03 0.  1.
<mgrwt>
<rscale>  0 0.20001395E+02</rscale>
<asrwt>0</asrwt>
<pdfrwt beam="2">  1        2 0.13964565E-03 0.20001395E+02</pdfrwt>
<pdfrwt beam="1">  1       -2 0.16951434E-01 0.20001395E+02</pdfrwt>
<totfact> 0.29003159E+06</totfact>
</mgrwt>
</event>
<event>
 5    1  0.4046313E-006  0.2000165E+02  0.7818608E-02  0.1745295E+00
         -2   -1    0    0    0  501 -0.00000000000E+00  0.00000000000E+00  0.17674184040E+02  0.17674184231E+02  0.26000000000E-02 0. -1.
          2   -1    0    0  501    0  0.00000000000E+00 -0.00000000000E+00 -0.56589027801E+01  0.56589033774E+01  0.26000000000E-02 0.  1.
       1023    2    1    2    0    0  0.00000000000E+00  0.00000000000E+00  0.12015281259E+02  0.23333087608E+02  0.20001649772E+02 0.  0.
        -11    1    3    3    0    0 -0.94896852992E+01  0.31554512001E+01  0.60941453207E+01  0.11711089053E+02  0.51100000000E-03 0. -1.
         11    1    3    3    0    0  0.94896852992E+01 -0.31554512001E+01  0.59211359387E+01  0.11621998555E+02  0.51100000000E-03 0.  1.
<mgrwt>
<rscale>  0 0.20001650E+02</rscale>
<asrwt>0</asrwt>
<pdfrwt beam="2">  1        2 0.87060051E-03 0.20001650E+02</pdfrwt>
<pdfrwt beam="1">  1       -2 0.27191052E-02 0.20001650E+02</pdfrwt>
<totfact> 0.37805863E+06</totfact>
</mgrwt>
</event>
<event>
 5    1  0.4046313E-006  0.2000002E+02  0.7818608E-02  0.1745328E+00
         -2   -1    0    0    0  501 -0.00000000000E+00  0.00000000000E+00  0.34335412537E+01  0.34335422381E+01  0.26000000000E-02 0. -1.
          2   -1    0    0  501    0  0.00000000000E+00 -0.00000000000E+00 -0.29124495588E+02  0.29124495704E+02  0.26000000000E-02 0.  1.
       1023    2    1    2    0    0  0.00000000000E+00  0.00000000000E+00 -0.25690954335E+02  0.32558037942E+02  0.20000017501E+02 0.  0.
        -11    1    3    3    0    0  0.30156396235E+01 -0.95344634006E+01 -0.12861762074E+02  0.16291869094E+02  0.51100000000E-03 0.  1.
         11    1    3    3    0    0 -0.30156396235E+01  0.95344634006E+01 -0.12829192260E+02  0.16266168848E+02  0.51100000000E-03 0. -1.
<mgrwt>
<rscale>  0 0.20000018E+02</rscale>
<asrwt>0</asrwt>
<pdfrwt beam="2">  1        2 0.44806915E-02 0.20000018E+02</pdfrwt>
<pdfrwt beam="1">  1       -2 0.52823722E-03 0.20000018E+02</pdfrwt>
<totfact> 0.43233595E+06</totfact>
</mgrwt>
</event>
<event>
 5    1  0.4183738E-006  0.2000084E+02  0.7818608E-02  0.1745311E+00
          2   -1    0    0  501    0  0.00000000000E+00  0.00000000000E+00  0.92180118802E+02  0.92180118838E+02  0.26000000000E-02 0. -1.
         -2   -1    0    0    0  501 -0.00000000000E+00 -0.00000000000E+00 -0.10849222162E+01  0.10849253316E+01  0.26000000000E-02 0.  1.
       1023    2    1    2    0    0  0.00000000000E+00  0.00000000000E+00  0.91095196586E+02  0.93265044170E+02  0.20000840559E+02 0.  0.
        -11    1    3    3    0    0 -0.21484657559E+01 -0.97668574179E+01  0.45400391880E+02  0.46488740487E+02  0.51100000000E-03 0.  1.
         11    1    3    3    0    0  0.21484657559E+01  0.97668574179E+01  0.45694804705E+02  0.46776303683E+02  0.51100000000E-03 0. -1.
<mgrwt>
<rscale>  0 0.20000841E+02</rscale>
<asrwt>0</asrwt>
<pdfrwt beam="1">  1        2 0.14181550E-01 0.20000841E+02</pdfrwt>
<pdfrwt beam="2">  1       -2 0.16691144E-03 0.20000841E+02</pdfrwt>
<totfact> 0.51807135E+06</totfact>
</mgrwt>
</event>
<event>
 4    1  0.4046313E-006  0.2003301E+02  0.7818608E-02  0.1744672E+00
         -2   -1    0    0    0  501 -0.00000000000E+00  0.00000000000E+00  0.12595061679E+02  0.12595061948E+02  0.26000000000E-02 0.  1.
          2   -1    0    0  501    0  0.00000000000E+00 -0.00000000000E+00 -0.79658489010E+01  0.79658493253E+01  0.26000000000E-02 0. -1.
        -11    1    1    2    0    0 -0.55376178583E+01 -0.83463204116E+01  0.23802378549E+01  0.10295232317E+02  0.51100000000E-03 0.  1.
         11    1    1    2    0    0  0.55376178583E+01  0.83463204116E+01  0.22489749237E+01  0.10265678956E+02  0.51100000000E-03 0. -1.
<mgrwt>
<rscale>  0 0.20033009E+02</rscale>
<asrwt>0</asrwt>
<pdfrwt beam="2">  1        2 0.12255153E-02 0.20033009E+02</pdfrwt>
<pdfrwt beam="1">  1       -2 0.19377018E-02 0.20033009E+02</pdfrwt>
<totfact> 0.38663991E+06</totfact>
</mgrwt>
</event>
<event>
 5    1  0.4046313E-006  0.2000104E+02  0.7818608E-02  0.1745307E+00
          2   -1    0    0  501    0  0.00000000000E+00  0.00000000000E+00  0.15436725099E+02  0.15436725318E+02  0.26000000000E-02 0. -1.
         -2   -1    0    0    0  501 -0.00000000000E+00 -0.00000000000E+00 -0.64787334047E+01  0.64787339264E+01  0.26000000000E-02 0.  1.
       1023    2    1    2    0    0  0.00000000000E+00  0.00000000000E+00  0.89579916943E+01  0.21915459244E+02  0.20001043440E+02 0.  0.
        -11    1    3    3    0    0  0.97668175689E+01  0.21476006201E+01  0.45740176367E+01  0.10996569986E+02  0.51100000000E-03 0.  1.
         11    1    3    3    0    0 -0.97668175689E+01 -0.21476006201E+01  0.43839740576E+01  0.10918889259E+02  0.51100000000E-03 0. -1.
<mgrwt>
<rscale>  0 0.20001043E+02</rscale>
<asrwt>0</asrwt>
<pdfrwt beam="1">  1        2 0.23748808E-02 0.20001043E+02</pdfrwt>
<pdfrwt beam="2">  1       -2 0.99672828E-03 0.20001043E+02</pdfrwt>
<totfact> 0.40777654E+06</totfact>
</mgrwt>
</event>
<event>
 5    1  0.4046313E-006  0.2000162E+02  0.7818608E-02  0.1745296E+00
          2   -1    0    0  501    0  0.00000000000E+00  0.00000000000E+00  0.99774480498E+00  0.99774819261E+00  0.26000000000E-02 0.  1.
         -2   -1    0    0    0  501 -0.00000000000E+00 -0.00000000000E+00 -0.10024213907E+03  0.10024213910E+03  0.26000000000E-02 0. -1.
       1023    2    1    2    0    0  0.00000000000E+00  0.00000000000E+00 -0.99244394266E+02  0.10123988730E+03  0.20001624603E+02 0.  0.
        -11    1    3    3    0    0 -0.48170972238E+01  0.87642090991E+01 -0.49513681886E+02  0.50513567296E+02  0.51100000000E-03 0.  1.
         11    1    3    3    0    0  0.48170972238E+01 -0.87642090991E+01 -0.49730712380E+02  0.50726320001E+02  0.51100000000E-03 0. -1.
<mgrwt>
<rscale>  0 0.20001625E+02</rscale>
<asrwt>0</asrwt>
<pdfrwt beam="1">  1        2 0.15349954E-03 0.20001625E+02</pdfrwt>
<pdfrwt beam="2">  1       -2 0.15421860E-01 0.20001625E+02</pdfrwt>
<totfact> 0.29707899E+06</totfact>
</mgrwt>
</event>
<event>
 5    1  0.4046313E-006  0.2000068E+02  0.7818608E-02  0.1745315E+00
         -2   -1    0    0    0  501 -0.00000000000E+00  0.00000000000E+00  0.28514239786E+02  0.28514239904E+02  0.26000000000E-02 0. -1.
          2   -1    0    0  501    0  0.00000000000E+00 -0.00000000000E+00 -0.35072569283E+01  0.35072578920E+01  0.26000000000E-02 0.  1.
       1023    2    1    2    0    0  0.00000000000E+00  0.00000000000E+00  0.25006982858E+02  0.32021497796E+02  0.20000678226E+02 0.  0.
        -11    1    3    3    0    0 -0.99901373516E+01 -0.44838413619E+00  0.12417430453E+02  0.15943540133E+02  0.51100000000E-03 0. -1.
         11    1    3    3    0    0  0.99901373516E+01  0.44838413619E+00  0.12589552404E+02  0.16077957664E+02  0.51100000000E-03 0.  1.
<mgrwt>
<rscale>  0 0.20000678E+02</rscale>
<asrwt>0</asrwt>
<pdfrwt beam="2">  1        2 0.53957807E-03 0.20000678E+02</pdfrwt>
<pdfrwt beam="1">  1       -2 0.43868062E-02 0.20000678E+02</pdfrwt>
<totfact> 0.36246852E+06</totfact>
</mgrwt>
</event>
<event>
 5    1  0.4152503E-006  0.2000131E+02  0.7818608E-02  0.1745302E+00
         -2   -1    0    0    0  501 -0.00000000000E+00  0.00000000000E+00  0.15543823029E+01  0.15543844774E+01  0.26000000000E-02 0. -1.
          2   -1    0    0  501    0  0.00000000000E+00 -0.00000000000E+00 -0.64342608203E+02  0.64342608256E+02  0.26000000000E-02 0.  1.
       1023    2    1    2    0    0  0.00000000000E+00  0.00000000000E+00 -0.62788225900E+02  0.65896992733E+02  0.20001308446E+02 0.  0.
        -11    1    3    3    0    0 -0.74814560612E+01  0.66354689814E+01 -0.31041552781E+02  0.32612568631E+02  0.51100000000E-03 0. -1.
         11    1    3    3    0    0  0.74814560612E+01 -0.66354689814E+01 -0.31746673120E+02  0.33284424102E+02  0.51100000000E-03 0.  1.
<mgrwt>
<rscale>  0 0.20001308E+02</rscale>
<asrwt>0</asrwt>
<pdfrwt beam="2">  1        2 0.98988609E-02 0.20001308E+02</pdfrwt>
<pdfrwt beam="1">  1       -2 0.23913596E-03 0.20001308E+02</pdfrwt>
<totfact> 0.48270350E+06</totfact>
</mgrwt>
</event>
<event>
 5    1  0.4046313E-006  0.2000039E+02  0.7818608E-02  0.1745320E+00
          2   -1    0    0  501    0  0.00000000000E+00  0.00000000000E+00  0.41909974246E+02  0.41909974327E+02  0.26000000000E-02 0.  1.
         -2   -1    0    0    0  501 -0.00000000000E+00 -0.00000000000E+00 -0.23861582246E+01  0.23861596411E+01  0.26000000000E-02 0. -1.
       1023    2    1    2    0    0  0.00000000000E+00  0.00000000000E+00  0.39523816021E+02  0.44296133968E+02  0.20000386286E+02 0.  0.
        -11    1    3    3    0    0  0.91325487917E+01 -0.40743198501E+01  0.19802321646E+02  0.22184126589E+02  0.51100000000E-03 0.  1.
         11    1    3    3    0    0 -0.91325487917E+01  0.40743198501E+01  0.19721494376E+02  0.22112007379E+02  0.51100000000E-03 0. -1.
<mgrwt>
<rscale>  0 0.20000386E+02</rscale>
<asrwt>0</asrwt>
<pdfrwt beam="1">  1        2 0.64476881E-02 0.20000386E+02</pdfrwt>
<pdfrwt beam="2">  1       -2 0.36710140E-03 0.20000386E+02</pdfrwt>
<totfact> 0.45173685E+06</totfact>
</mgrwt>
</event>
<event>
 5    1  0.4072022E-006  0.2000054E+02  0.7818608E-02  0.1745317E+00
         -2   -1    0    0    0  501 -0.00000000000E+00  0.00000000000E+00  0.13103514670E+01  0.13103540465E+01  0.26000000000E-02 0. -1.
          2   -1    0    0  501    0  0.00000000000E+00 -0.00000000000E+00 -0.76319414667E+02  0.76319414711E+02  0.26000000000E-02 0.  1.
       1023    2    1    2    0    0  0.00000000000E+00  0.00000000000E+00 -0.75009063200E+02  0.77629768757E+02  0.20000535874E+02 0.  0.
        -11    1    3    3    0    0  0.27069040148E+01 -0.96268817740E+01 -0.37637664450E+02  0.38943522793E+02  0.51100000000E-03 0. -1.
         11    1    3    3    0    0 -0.27069040148E+01  0.96268817740E+01 -0.37371398750E+02  0.38686245964E+02  0.51100000000E-03 0.  1.
<mgrwt>
<rscale>  0 0.20000536E+02</rscale>
<asrwt>0</asrwt>
<pdfrwt beam="2">  1        2 0.11741445E-01 0.20000536E+02</pdfrwt>
<pdfrwt beam="1">  1       -2 0.20159279E-03 0.20000536E+02</pdfrwt>
<totfact> 0.49830096E+06</totfact>
</mgrwt>
</event>
<event>
 5    1  0.4046313E-006  0.2001041E+02  0.7818608E-02  0.1745121E+00
         -2   -1    0    0    0  501 -0.00000000000E+00  0.00000000000E+00  0.72555409534E+01  0.72555414193E+01  0.26000000000E-02 0.  1.
          2   -1    0    0  501    0  0.00000000000E+00 -0.00000000000E+00 -0.13796924717E+02  0.13796924962E+02  0.26000000000E-02 0. -1.
       1023    2    1    2    0    0  0.00000000000E+00  0.00000000000E+00 -0.65413837637E+01  0.21052466381E+02  0.20010413269E+02 0.  0.
        -11    1    3    3    0    0  0.84497320984E+01 -0.53531840331E+01 -0.35050184431E+01  0.10599042710E+02  0.51100000000E-03 0.  1.
         11    1    3    3    0    0 -0.84497320984E+01  0.53531840331E+01 -0.30363653207E+01  0.10453423671E+02  0.51100000000E-03 0. -1.
<mgrwt>
<rscale>  0 0.20010413E+02</rscale>
<asrwt>0</asrwt>
<pdfrwt beam="2">  1        2 0.21226039E-02 0.20010413E+02</pdfrwt>
<pdfrwt beam="1">  1       -2 0.11162371E-02 0.20010413E+02</pdfrwt>
<totfact> 0.40377112E+06</totfact>
</mgrwt>
</event>
<event>
 5    1  0.4269711E-006  0.2000279E+02  0.7818608E-02  0.1745273E+00
         -2   -1    0    0    0  501 -0.00000000000E+00  0.00000000000E+00  0.93890869984E+00  0.93891229976E+00  0.26000000000E-02 0.  1.
          2   -1    0    0  501    0  0.00000000000E+00 -0.00000000000E+00 -0.10653611739E+03  0.10653611742E+03  0.26000000000E-02 0. -1.
       1023    2    1    2    0    0  0.00000000000E+00  0.00000000000E+00 -0.10559720869E+03  0.10747502972E+03  0.20002788068E+02 0.  0.
        -11    1    3    3    0    0 -0.37240567796E+01  0.92815904674E+01 -0.53371323486E+02  0.54300227360E+02  0.51100000000E-03 0. -1.
         11    1    3    3    0    0  0.37240567796E+01 -0.92815904674E+01 -0.52225885204E+02  0.53174802360E+02  0.51100000000E-03 0.  1.
<mgrwt>
<rscale>  0 0.20002788E+02</rscale>
<asrwt>0</asrwt>
<pdfrwt beam="2">  1        2 0.16390163E-01 0.20002788E+02</pdfrwt>
<pdfrwt beam="1">  1       -2 0.14444786E-03 0.20002788E+02</pdfrwt>
<totfact> 0.53517328E+06</totfact>
</mgrwt>
</event>
<event>
 5    1  0.4046313E-006  0.2000037E+02  0.7818608E-02  0.1745321E+00
         -2   -1    0    0    0  501 -0.00000000000E+00  0.00000000000E+00  0.14943531864E+01  0.14943554483E+01  0.26000000000E-02 0.  1.
          2   -1    0    0  501    0  0.00000000000E+00 -0.00000000000E+00 -0.66921027882E+02  0.66921027932E+02  0.26000000000E-02 0. -1.
       1023    2    1    2    0    0  0.00000000000E+00  0.00000000000E+00 -0.65426674695E+02  0.68415383380E+02  0.20000373032E+02 0.  0.
        -11    1    3    3    0    0 -0.30157321849E+01  0.95345770826E+01 -0.32817617677E+02  0.34307416560E+02  0.51100000000E-03 0. -1.
         11    1    3    3    0    0  0.30157321849E+01 -0.95345770826E+01 -0.32609057018E+02  0.34107966821E+02  0.51100000000E-03 0.  1.
<mgrwt>
<rscale>  0 0.20000373E+02</rscale>
<asrwt>0</asrwt>
<pdfrwt beam="2">  1        2 0.10295541E-01 0.20000373E+02</pdfrwt>
<pdfrwt beam="1">  1       -2 0.22990072E-03 0.20000373E+02</pdfrwt>
<totfact> 0.48615448E+06</totfact>
</mgrwt>
</event>
<event>
 5    1  0.4046313E-006  0.2000400E+02  0.7818608E-02  0.1745248E+00
         -2   -1    0    0    0  501 -0.00000000000E+00  0.00000000000E+00  0.42857440630E+02  0.42857440709E+02  0.26000000000E-02 0. -1.
          2   -1    0    0  501    0  0.00000000000E+00 -0.00000000000E+00 -0.23342503687E+01  0.23342518167E+01  0.26000000000E-02 0.  1.
       1023    2    1    2    0    0  0.00000000000E+00  0.00000000000E+00  0.40523190261E+02  0.45191692525E+02  0.20004002709E+02 0.  0.
        -11    1    3    3    0    0 -0.99660028674E+01 -0.84548297809E+00  0.20119140531E+02  0.22468107855E+02  0.51100000000E-03 0.  1.
         11    1    3    3    0    0  0.99660028674E+01  0.84548297809E+00  0.20404049730E+02  0.22723584670E+02  0.51100000000E-03 0. -1.
<mgrwt>
<rscale>  0 0.20004003E+02</rscale>
<asrwt>0</asrwt>
<pdfrwt beam="2">  1        2 0.35911559E-03 0.20004003E+02</pdfrwt>
<pdfrwt beam="1">  1       -2 0.65934519E-02 0.20004003E+02</pdfrwt>
<totfact> 0.34603124E+06</totfact>
</mgrwt>
</event>
<event>
 5    1  0.4046313E-006  0.2000088E+02  0.7818608E-02  0.1745311E+00
          2   -1    0    0  501    0  0.00000000000E+00  0.00000000000E+00  0.10540855602E+02  0.10540855923E+02  0.26000000000E-02 0.  1.
         -2   -1    0    0    0  501 -0.00000000000E+00 -0.00000000000E+00 -0.94877286359E+01  0.94877289921E+01  0.26000000000E-02 0. -1.
       1023    2    1    2    0    0  0.00000000000E+00  0.00000000000E+00  0.10531269665E+01  0.20028584915E+02  0.20000878413E+02 0.  0.
        -11    1    3    3    0    0 -0.79481248936E+01 -0.60692734188E+01  0.52269740924E+00  0.10014089175E+02  0.51100000000E-03 0. -1.
         11    1    3    3    0    0  0.79481248936E+01  0.60692734188E+01  0.53042955721E+00  0.10014495740E+02  0.51100000000E-03 0.  1.
<mgrwt>
<rscale>  0 0.20000878E+02</rscale>
<asrwt>0</asrwt>
<pdfrwt beam="1">  1        2 0.16216701E-02 0.20000878E+02</pdfrwt>
<pdfrwt beam="2">  1       -2 0.14596506E-02 0.20000878E+02</pdfrwt>
<totfact> 0.39612105E+06</totfact>
</mgrwt>
</event>
<event>
 5    1  0.4046313E-006  0.2000039E+02  0.7818608E-02  0.1745320E+00
          2   -1    0    0  501    0  0.00000000000E+00  0.00000000000E+00  0.83620855345E+01  0.83620859387E+01  0.26000000000E-02 0.  1.
         -2   -1    0    0    0  501 -0.00000000000E+00 -0.00000000000E+00 -0.11959199255E+02  0.11959199538E+02  0.26000000000E-02 0. -1.
       1023    2    1    2    0    0  0.00000000000E+00  0.00000000000E+00 -0.35971137205E+01  0.20321285476E+02  0.20000385403E+02 0.  0.
        -11    1    3    3    0    0  0.99605550134E+01  0.88949290933E+00 -0.17985826504E+01  0.10160647303E+02  0.51100000000E-03 0. -1.
         11    1    3    3    0    0 -0.99605550134E+01 -0.88949290933E+00 -0.17985310701E+01  0.10160638173E+02  0.51100000000E-03 0.  1.
<mgrwt>
<rscale>  0 0.20000385E+02</rscale>
<asrwt>0</asrwt>
<pdfrwt beam="1">  1        2 0.12864747E-02 0.20000385E+02</pdfrwt>
<pdfrwt beam="2">  1       -2 0.18398769E-02 0.20000385E+02</pdfrwt>
<totfact> 0.38947975E+06</totfact>
</mgrwt>
</event>
<event>
 4    1  0.4046313E-006  0.2002561E+02  0.7818608E-02  0.1744819E+00
         -2   -1    0    0    0  501 -0.00000000000E+00  0.00000000000E+00  0.36006561323E+01  0.36006570710E+01  0.26000000000E-02 0.  1.
          2   -1    0    0  501    0  0.00000000000E+00 -0.00000000000E+00 -0.27843891649E+02  0.27843891771E+02  0.26000000000E-02 0. -1.
        -11    1    1    2    0    0 -0.19387806537E+01  0.98230940854E+01 -0.12019278815E+02  0.15643372761E+02  0.51100000000E-03 0. -1.
         11    1    1    2    0    0  0.19387806537E+01 -0.98230940854E+01 -0.12223956702E+02  0.15801176081E+02  0.51100000000E-03 0.  1.
<mgrwt>
<rscale>  0 0.20025613E+02</rscale>
<asrwt>0</asrwt>
<pdfrwt beam="2">  1        2 0.42836756E-02 0.20025613E+02</pdfrwt>
<pdfrwt beam="1">  1       -2 0.55394720E-03 0.20025613E+02</pdfrwt>
<totfact> 0.42903812E+06</totfact>
</mgrwt>
</event>
<event>
 5    1  0.4046313E-006  0.2000029E+02  0.7818608E-02  0.1745322E+00
         -2   -1    0    0    0  501 -0.00000000000E+00  0.00000000000E+00  0.35178105824E+02  0.35178105920E+02  0.26000000000E-02 0.  1.
          2   -1    0    0  501    0  0.00000000000E+00 -0.00000000000E+00 -0.28427594428E+01  0.28427606318E+01  0.26000000000E-02 0. -1.
       1023    2    1    2    0    0  0.00000000000E+00  0.00000000000E+00  0.32335346381E+02  0.38020866552E+02  0.20000291692E+02 0.  0.
        -11    1    3    3    0    0  0.22207787473E+01 -0.97504327062E+01  0.16188539218E+02  0.19028179063E+02  0.51100000000E-03 0. -1.
         11    1    3    3    0    0 -0.22207787473E+01  0.97504327062E+01  0.16146807163E+02  0.18992687488E+02  0.51100000000E-03 0.  1.
<mgrwt>
<rscale>  0 0.20000292E+02</rscale>
<asrwt>0</asrwt>
<pdfrwt beam="2">  1        2 0.43734772E-03 0.20000292E+02</pdfrwt>
<pdfrwt beam="1">  1       -2 0.54120162E-02 0.20000292E+02</pdfrwt>
<totfact> 0.35451514E+06</totfact>
</mgrwt>
</event>
<event>
 5    1  0.4046313E-006  0.2001086E+02  0.7818608E-02  0.1745112E+00
          2   -1    0    0  501    0  0.00000000000E+00  0.00000000000E+00  0.83203115107E+01  0.83203119169E+01  0.26000000000E-02 0.  1.
         -2   -1    0    0    0  501 -0.00000000000E+00 -0.00000000000E+00 -0.12031838631E+02  0.12031838912E+02  0.26000000000E-02 0. -1.
       1023    2    1    2    0    0  0.00000000000E+00  0.00000000000E+00 -0.37115271202E+01  0.20352150829E+02  0.20010862295E+02 0.  0.
        -11    1    3    3    0    0 -0.87300083886E+01 -0.48874469321E+01 -0.17621712367E+01  0.10159007417E+02  0.51100000000E-03 0. -1.
         11    1    3    3    0    0  0.87300083886E+01  0.48874469321E+01 -0.19493558834E+01  0.10193143411E+02  0.51100000000E-03 0.  1.
<mgrwt>
<rscale>  0 0.20010862E+02</rscale>
<asrwt>0</asrwt>
<pdfrwt beam="1">  1        2 0.12800480E-02 0.20010862E+02</pdfrwt>
<pdfrwt beam="2">  1       -2 0.18510522E-02 0.20010862E+02</pdfrwt>
<totfact> 0.38886878E+06</totfact>
</mgrwt>
</event>
<event>
 5    1  0.4067509E-006  0.2000265E+02  0.7818608E-02  0.1745275E+00
          2   -1    0    0  501    0  0.00000000000E+00  0.00000000000E+00  0.99083663011E+02  0.99083663045E+02  0.26000000000E-02 0. -1.
         -2   -1    0    0    0  501 -0.00000000000E+00 -0.00000000000E+00 -0.10095136545E+01  0.10095170027E+01  0.26000000000E-02 0.  1.
       1023    2    1    2    0    0  0.00000000000E+00  0.00000000000E+00  0.98074149357E+02  0.10009318005E+03  0.20002647827E+02 0.  0.
        -11    1    3    3    0    0  0.93558408649E+01 -0.35347630682E+01  0.48971538996E+02  0.49982376295E+02  0.51100000000E-03 0. -1.
         11    1    3    3    0    0 -0.93558408649E+01  0.35347630682E+01  0.49102610361E+02  0.50110803753E+02  0.51100000000E-03 0.  1.
<mgrwt>
<rscale>  0 0.20002648E+02</rscale>
<asrwt>0</asrwt>
<pdfrwt beam="1">  1        2 0.15243641E-01 0.20002648E+02</pdfrwt>
<pdfrwt beam="2">  1       -2 0.15531005E-03 0.20002648E+02</pdfrwt>
<totfact> 0.52632716E+06</totfact>
</mgrwt>
</event>
<event>
 5    1  0.4046313E-006  0.2000077E+02  0.7818608E-02  0.1745313E+00
         -2   -1    0    0    0  501 -0.00000000000E+00  0.00000000000E+00  0.13170388677E+02  0.13170388934E+02  0.26000000000E-02 0.  1.
          2   -1    0    0  501    0  0.00000000000E+00 -0.00000000000E+00 -0.75933722785E+01  0.75933727236E+01  0.26000000000E-02 0. -1.
       1023    2    1    2    0    0  0.00000000000E+00  0.00000000000E+00  0.55770163985E+01  0.20763761657E+02  0.20000767142E+02 0.  0.
        -11    1    3    3    0    0  0.70688348001E+00 -0.99752415438E+01  0.27361543412E+01  0.10367818910E+02  0.51100000000E-03 0.  1.
         11    1    3    3    0    0 -0.70688348001E+00  0.99752415438E+01  0.28408620573E+01  0.10395942747E+02  0.51100000000E-03 0. -1.
<mgrwt>
<rscale>  0 0.20000767E+02</rscale>
<asrwt>0</asrwt>
<pdfrwt beam="2">  1        2 0.11682112E-02 0.20000767E+02</pdfrwt>
<pdfrwt beam="1">  1       -2 0.20262137E-02 0.20000767E+02</pdfrwt>
<totfact> 0.38670187E+06</totfact>
</mgrwt>
</event>
<event>
 5    1  0.4046313E-006  0.2000028E+02  0.7818608E-02  0.1745322E+00
          2   -1    0    0  501    0  0.00000000000E+00  0.00000000000E+00  0.12048858482E+01  0.12048886535E+01  0.26000000000E-02 0.  1.
         -2   -1    0    0    0  501 -0.00000000000E+00 -0.00000000000E+00 -0.82997675247E+02  0.82997675287E+02  0.26000000000E-02 0. -1.
       1023    2    1    2    0    0  0.00000000000E+00  0.00000000000E+00 -0.81792789399E+02  0.84202563941E+02  0.20000284414E+02 0.  0.
        -11    1    3    3    0    0  0.86974163314E+01  0.49353520893E+01 -0.40936953967E+02  0.42140680481E+02  0.51100000000E-03 0.  1.
         11    1    3    3    0    0 -0.86974163314E+01 -0.49353520893E+01 -0.40855835432E+02  0.42061883460E+02  0.51100000000E-03 0. -1.
<mgrwt>
<rscale>  0 0.20000284E+02</rscale>
<asrwt>0</asrwt>
<pdfrwt beam="1">  1        2 0.18536734E-03 0.20000284E+02</pdfrwt>
<pdfrwt beam="2">  1       -2 0.12768869E-01 0.20000284E+02</pdfrwt>
<totfact> 0.31018310E+06</totfact>
</mgrwt>
</event>
<event>
 5    1  0.4046313E-006  0.2000991E+02  0.7818608E-02  0.1745131E+00
          2   -1    0    0  501    0  0.00000000000E+00  0.00000000000E+00  0.11655340596E+01  0.11655369596E+01  0.26000000000E-02 0.  1.
         -2   -1    0    0    0  501 -0.00000000000E+00 -0.00000000000E+00 -0.85882504758E+02  0.85882504797E+02  0.26000000000E-02 0. -1.
       1023    2    1    2    0    0  0.00000000000E+00  0.00000000000E+00 -0.84716970698E+02  0.87048041757E+02  0.20009908781E+02 0.  0.
        -11    1    3    3    0    0 -0.99697237095E+01  0.83468091006E+00 -0.41993763775E+02  0.43169066232E+02  0.51100000000E-03 0.  1.
         11    1    3    3    0    0  0.99697237095E+01 -0.83468091006E+00 -0.42723206923E+02  0.43878975525E+02  0.51100000000E-03 0. -1.
<mgrwt>
<rscale>  0 0.20009909E+02</rscale>
<asrwt>0</asrwt>
<pdfrwt beam="1">  1        2 0.17931323E-03 0.20009909E+02</pdfrwt>
<pdfrwt beam="2">  1       -2 0.13212688E-01 0.20009909E+02</pdfrwt>
<totfact> 0.30759608E+06</totfact>
</mgrwt>
</event>
<event>
 5    1  0.4046313E-006  0.2000062E+02  0.7818608E-02  0.1745316E+00
         -2   -1    0    0    0  501 -0.00000000000E+00  0.00000000000E+00  0.56174794055E+01  0.56174800072E+01  0.26000000000E-02 0.  1.
          2   -1    0    0  501    0  0.00000000000E+00 -0.00000000000E+00 -0.17802675636E+02  0.17802675825E+02  0.26000000000E-02 0. -1.
       1023    2    1    2    0    0  0.00000000000E+00  0.00000000000E+00 -0.12185196230E+02  0.23420155833E+02  0.20000617292E+02 0.  0.
        -11    1    3    3    0    0 -0.87147202497E+01 -0.49049178213E+01 -0.60456877518E+01  0.11685671077E+02  0.51100000000E-03 0.  1.
         11    1    3    3    0    0  0.87147202497E+01  0.49049178213E+01 -0.61395084782E+01  0.11734484756E+02  0.51100000000E-03 0. -1.
<mgrwt>
<rscale>  0 0.20000617E+02</rscale>
<asrwt>0</asrwt>
<pdfrwt beam="2">  1        2 0.27388732E-02 0.20000617E+02</pdfrwt>
<pdfrwt beam="1">  1       -2 0.86422767E-03 0.20000617E+02</pdfrwt>
<totfact> 0.41258802E+06</totfact>
</mgrwt>
</event>
<event>
 5    1  0.4046313E-006  0.2000023E+02  0.7818608E-02  0.1745323E+00
         -2   -1    0    0    0  501 -0.00000000000E+00  0.00000000000E+00  0.94865821698E+00  0.94866177990E+00  0.26000000000E-02 0.  1.
          2   -1    0    0  501    0  0.00000000000E+00 -0.00000000000E+00 -0.10541428230E+03  0.10541428233E+03  0.26000000000E-02 0. -1.
       1023    2    1    2    0    0  0.00000000000E+00  0.00000000000E+00 -0.10446562408E+03  0.10636294411E+03  0.20000231626E+02 0.  0.
        -11    1    3    3    0    0 -0.36234802381E+01  0.93205522310E+01 -0.52252052419E+02  0.53200369220E+02  0.51100000000E-03 0.  1.
         11    1    3    3    0    0  0.36234802381E+01 -0.93205522310E+01 -0.52213571664E+02  0.53162574891E+02  0.51100000000E-03 0. -1.
<mgrwt>
<rscale>  0 0.20000232E+02</rscale>
<asrwt>0</asrwt>
<pdfrwt beam="2">  1        2 0.16217573E-01 0.20000232E+02</pdfrwt>
<pdfrwt beam="1">  1       -2 0.14594778E-03 0.20000232E+02</pdfrwt>
<totfact> 0.53400244E+06</totfact>
</mgrwt>
</event>
<event>
 4    1  0.4046313E-006  0.2001616E+02  0.7818608E-02  0.1745007E+00
         -2   -1    0    0    0  501 -0.00000000000E+00  0.00000000000E+00  0.15059837987E+01  0.15059860431E+01  0.26000000000E-02 0. -1.
          2   -1    0    0  501    0  0.00000000000E+00 -0.00000000000E+00 -0.66509094651E+02  0.66509094702E+02  0.26000000000E-02 0.  1.
        -11    1    1    2    0    0  0.61386360885E+01  0.79038554295E+01 -0.32803827844E+02  0.34296427003E+02  0.51100000000E-03 0.  1.
         11    1    1    2    0    0 -0.61386360885E+01 -0.79038554295E+01 -0.32199283009E+02  0.33718653743E+02  0.51100000000E-03 0. -1.
<mgrwt>
<rscale>  0 0.20016163E+02</rscale>
<asrwt>0</asrwt>
<pdfrwt beam="2">  1        2 0.10232166E-01 0.20016163E+02</pdfrwt>
<pdfrwt beam="1">  1       -2 0.23169004E-03 0.20016163E+02</pdfrwt>
<totfact> 0.48476342E+06</totfact>
</mgrwt>
</event>
<event>
 5    1  0.4046313E-006  0.2000079E+02  0.7818608E-02  0.1745312E+00
          2   -1    0    0  501    0  0.00000000000E+00  0.00000000000E+00  0.11263568805E+01  0.11263598813E+01  0.26000000000E-02 0. -1.
         -2   -1    0    0    0  501 -0.00000000000E+00 -0.00000000000E+00 -0.88788725293E+02  0.88788725331E+02  0.26000000000E-02 0.  1.
       1023    2    1    2    0    0  0.00000000000E+00  0.00000000000E+00 -0.87662368413E+02  0.89915085213E+02  0.20000792811E+02 0.  0.
        -11    1    3    3    0    0  0.34292480322E+01  0.93939044489E+01 -0.44066725791E+02  0.45187182974E+02  0.51100000000E-03 0. -1.
         11    1    3    3    0    0 -0.34292480322E+01 -0.93939044489E+01 -0.43595642621E+02  0.44727902239E+02  0.51100000000E-03 0.  1.
<mgrwt>
<rscale>  0 0.20000793E+02</rscale>
<asrwt>0</asrwt>
<pdfrwt beam="1">  1        2 0.17328598E-03 0.20000793E+02</pdfrwt>
<pdfrwt beam="2">  1       -2 0.13659799E-01 0.20000793E+02</pdfrwt>
<totfact> 0.30565388E+06</totfact>
</mgrwt>
</event>
<event>
 5    1  0.4536894E-006  0.2000161E+02  0.7818608E-02  0.1745296E+00
         -2   -1    0    0    0  501 -0.00000000000E+00  0.00000000000E+00  0.94383295075E+00  0.94383653189E+00  0.26000000000E-02 0.  1.
          2   -1    0    0  501    0  0.00000000000E+00 -0.00000000000E+00 -0.10596777698E+03  0.10596777701E+03  0.26000000000E-02 0. -1.
       1023    2    1    2    0    0  0.00000000000E+00  0.00000000000E+00 -0.10502394403E+03  0.10691161355E+03  0.20001607213E+02 0.  0.
        -11    1    3    3    0    0  0.85071919884E+01  0.52576333991E+01 -0.52685011700E+02  0.53625791207E+02  0.51100000000E-03 0.  1.
         11    1    3    3    0    0 -0.85071919884E+01 -0.52576333991E+01 -0.52338932333E+02  0.53285822340E+02  0.51100000000E-03 0. -1.
<mgrwt>
<rscale>  0 0.20001607E+02</rscale>
<asrwt>0</asrwt>
<pdfrwt beam="2">  1        2 0.16302726E-01 0.20001607E+02</pdfrwt>
<pdfrwt beam="1">  1       -2 0.14520543E-03 0.20001607E+02</pdfrwt>
<totfact> 0.53457392E+06</totfact>
</mgrwt>
</event>
<event>
 5    1  0.4110593E-006  0.2000198E+02  0.7818608E-02  0.1745289E+00
          2   -1    0    0  501    0  0.00000000000E+00  0.00000000000E+00  0.11258057493E+03  0.11258057496E+03  0.26000000000E-02 0. -1.
         -2   -1    0    0    0  501 -0.00000000000E+00 -0.00000000000E+00 -0.88842652495E+00  0.88843032942E+00  0.26000000000E-02 0.  1.
       1023    2    1    2    0    0  0.00000000000E+00  0.00000000000E+00  0.11169214841E+03  0.11346900529E+03  0.20001978553E+02 0.  0.
        -11    1    3    3    0    0 -0.97272890487E+01  0.23227696989E+01  0.55470850500E+02  0.56365154721E+02  0.51100000000E-03 0. -1.
         11    1    3    3    0    0  0.97272890487E+01 -0.23227696989E+01  0.56221297905E+02  0.57103850569E+02  0.51100000000E-03 0.  1.
<mgrwt>
<rscale>  0 0.20001979E+02</rscale>
<asrwt>0</asrwt>
<pdfrwt beam="1">  1        2 0.17320101E-01 0.20001979E+02</pdfrwt>
<pdfrwt beam="2">  1       -2 0.13668120E-03 0.20001979E+02</pdfrwt>
<totfact> 0.54227861E+06</totfact>
</mgrwt>
</event>
<event>
 5    1  0.4046313E-006  0.2000061E+02  0.7818608E-02  0.1745316E+00
          2   -1    0    0  501    0  0.00000000000E+00  0.00000000000E+00  0.27819322836E+02  0.27819322958E+02  0.26000000000E-02 0. -1.
         -2   -1    0    0    0  501 -0.00000000000E+00 -0.00000000000E+00 -0.35948418892E+01  0.35948428295E+01  0.26000000000E-02 0.  1.
       1023    2    1    2    0    0  0.00000000000E+00  0.00000000000E+00  0.24224480947E+02  0.31414165787E+02  0.20000608365E+02 0.  0.
        -11    1    3    3    0    0  0.88495799714E+01  0.46569350241E+01  0.12013226699E+02  0.15630730165E+02  0.51100000000E-03 0. -1.
         11    1    3    3    0    0 -0.88495799714E+01 -0.46569350241E+01  0.12211254248E+02  0.15783435623E+02  0.51100000000E-03 0.  1.
<mgrwt>
<rscale>  0 0.20000608E+02</rscale>
<asrwt>0</asrwt>
<pdfrwt beam="1">  1        2 0.42798958E-02 0.20000608E+02</pdfrwt>
<pdfrwt beam="2">  1       -2 0.55305270E-03 0.20000608E+02</pdfrwt>
<totfact> 0.43020273E+06</totfact>
</mgrwt>
</event>
<event>
 5    1  0.4046313E-006  0.2000111E+02  0.7818608E-02  0.1745306E+00
          2   -1    0    0  501    0  0.00000000000E+00  0.00000000000E+00  0.10182860132E+02  0.10182860464E+02  0.26000000000E-02 0. -1.
         -2   -1    0    0    0  501 -0.00000000000E+00 -0.00000000000E+00 -0.98215162787E+01  0.98215166229E+01  0.26000000000E-02 0.  1.
       1023    2    1    2    0    0  0.00000000000E+00  0.00000000000E+00  0.36134385316E+00  0.20004377087E+02  0.20001113300E+02 0.  0.
        -11    1    3    3    0    0 -0.97580969707E+01 -0.21862680269E+01  0.76210279332E-01  0.10000301628E+02  0.51100000000E-03 0.  1.
         11    1    3    3    0    0  0.97580969707E+01  0.21862680269E+01  0.28513357383E+00  0.10004075459E+02  0.51100000000E-03 0. -1.
<mgrwt>
<rscale>  0 0.20001113E+02</rscale>
<asrwt>0</asrwt>
<pdfrwt beam="1">  1        2 0.15665939E-02 0.20001113E+02</pdfrwt>
<pdfrwt beam="2">  1       -2 0.15110026E-02 0.20001113E+02</pdfrwt>
<totfact> 0.39510612E+06</totfact>
</mgrwt>
</event>
<event>
 5    1  0.4046313E-006  0.2000182E+02  0.7818608E-02  0.1745292E+00
          2   -1    0    0  501    0  0.00000000000E+00  0.00000000000E+00  0.23210248013E+02  0.23210248159E+02  0.26000000000E-02 0.  1.
         -2   -1    0    0    0  501 -0.00000000000E+00 -0.00000000000E+00 -0.43092246315E+01  0.43092254158E+01  0.26000000000E-02 0. -1.
       1023    2    1    2    0    0  0.00000000000E+00  0.00000000000E+00  0.18901023382E+02  0.27519473575E+02  0.20001818441E+02 0.  0.
        -11    1    3    3    0    0 -0.47883004490E+01 -0.87800629656E+01  0.94908150647E+01  0.13787418095E+02  0.51100000000E-03 0. -1.
         11    1    3    3    0    0  0.47883004490E+01  0.87800629656E+01  0.94102083170E+01  0.13732055480E+02  0.51100000000E-03 0.  1.
<mgrwt>
<rscale>  0 0.20001818E+02</rscale>
<asrwt>0</asrwt>
<pdfrwt beam="1">  1        2 0.35708074E-02 0.20001818E+02</pdfrwt>
<pdfrwt beam="2">  1       -2 0.66295772E-03 0.20001818E+02</pdfrwt>
<totfact> 0.42242162E+06</totfact>
</mgrwt>
</event>
<event>
 5    1  0.4046313E-006  0.2000129E+02  0.7818608E-02  0.1745302E+00
         -2   -1    0    0    0  501 -0.00000000000E+00  0.00000000000E+00  0.16063264925E+02  0.16063265136E+02  0.26000000000E-02 0. -1.
          2   -1    0    0  501    0  0.00000000000E+00 -0.00000000000E+00 -0.62261881657E+01  0.62261887086E+01  0.26000000000E-02 0.  1.
       1023    2    1    2    0    0  0.00000000000E+00  0.00000000000E+00  0.98370767597E+01  0.22289453845E+02  0.20001291796E+02 0.  0.
        -11    1    3    3    0    0  0.20343605196E+01  0.97909545165E+01  0.50380707707E+01  0.11197480539E+02  0.51100000000E-03 0.  1.
         11    1    3    3    0    0 -0.20343605196E+01 -0.97909545165E+01  0.47990059891E+01  0.11091973306E+02  0.51100000000E-03 0. -1.
<mgrwt>
<rscale>  0 0.20001292E+02</rscale>
<asrwt>0</asrwt>
<pdfrwt beam="2">  1        2 0.95787517E-03 0.20001292E+02</pdfrwt>
<pdfrwt beam="1">  1       -2 0.24712716E-02 0.20001292E+02</pdfrwt>
<totfact> 0.38091822E+06</totfact>
</mgrwt>
</event>
<event>
 5    1  0.4046313E-006  0.2000032E+02  0.7818608E-02  0.1745322E+00
          2   -1    0    0  501    0  0.00000000000E+00  0.00000000000E+00  0.15838766436E+02  0.15838766649E+02  0.26000000000E-02 0.  1.
         -2   -1    0    0    0  501 -0.00000000000E+00 -0.00000000000E+00 -0.63138271462E+01  0.63138276815E+01  0.26000000000E-02 0. -1.
       1023    2    1    2    0    0  0.00000000000E+00  0.00000000000E+00  0.95249392893E+01  0.22152594330E+02  0.20000324175E+02 0.  0.
        -11    1    3    3    0    0 -0.72642906010E+00  0.99737245008E+01  0.47413983130E+01  0.11067237136E+02  0.51100000000E-03 0. -1.
         11    1    3    3    0    0  0.72642906010E+00 -0.99737245008E+01  0.47835409764E+01  0.11085357195E+02  0.51100000000E-03 0.  1.
<mgrwt>
<rscale>  0 0.20000324E+02</rscale>
<asrwt>0</asrwt>
<pdfrwt beam="1">  1        2 0.24367333E-02 0.20000324E+02</pdfrwt>
<pdfrwt beam="2">  1       -2 0.97135809E-03 0.20000324E+02</pdfrwt>
<totfact> 0.40865138E+06</totfact>
</mgrwt>
</event>
<event>
 4    1  0.4046313E-006  0.2001260E+02  0.7818608E-02  0.1745078E+00
          2   -1    0    0  501    0  0.00000000000E+00  0.00000000000E+00  0.11785207043E+01  0.11785235723E+01  0.26000000000E-02 0.  1.
         -2   -1    0    0    0  501 -0.00000000000E+00 -0.00000000000E+00 -0.84959009835E+02  0.84959009875E+02  0.26000000000E-02 0. -1.
        -11    1    1    2    0    0 -0.84379583262E+01 -0.53693197015E+01 -0.40547357008E+02  0.41762625581E+02  0.51100000000E-03 0. -1.
         11    1    1    2    0    0  0.84379583262E+01  0.53693197015E+01 -0.43233132123E+02  0.44374907867E+02  0.51100000000E-03 0.  1.
<mgrwt>
<rscale>  0 0.20012604E+02</rscale>
<asrwt>0</asrwt>
<pdfrwt beam="1">  1        2 0.18131117E-03 0.20012604E+02</pdfrwt>
<pdfrwt beam="2">  1       -2 0.13070612E-01 0.20012604E+02</pdfrwt>
<totfact> 0.30822628E+06</totfact>
</mgrwt>
</event>
<event>
 5    1  0.4046313E-006  0.2000077E+02  0.7818608E-02  0.1745313E+00
         -2   -1    0    0    0  501 -0.00000000000E+00  0.00000000000E+00  0.78471660057E+01  0.78471664365E+01  0.26000000000E-02 0. -1.
          2   -1    0    0  501    0  0.00000000000E+00 -0.00000000000E+00 -0.12744428529E+02  0.12744428794E+02  0.26000000000E-02 0.  1.
       1023    2    1    2    0    0  0.00000000000E+00  0.00000000000E+00 -0.48972625233E+01  0.20591595231E+02  0.20000765333E+02 0.  0.
        -11    1    3    3    0    0 -0.65763313135E+01  0.75337982796E+01 -0.24871965346E+01  0.10304969526E+02  0.51100000000E-03 0.  1.
         11    1    3    3    0    0  0.65763313135E+01 -0.75337982796E+01 -0.24100659887E+01  0.10286625705E+02  0.51100000000E-03 0. -1.
<mgrwt>
<rscale>  0 0.20000765E+02</rscale>
<asrwt>0</asrwt>
<pdfrwt beam="2">  1        2 0.19606814E-02 0.20000765E+02</pdfrwt>
<pdfrwt beam="1">  1       -2 0.12072564E-02 0.20000765E+02</pdfrwt>
<totfact> 0.40176943E+06</totfact>
</mgrwt>
</event>
<event>
 5    1  0.4046313E-006  0.2000044E+02  0.7818608E-02  0.1745319E+00
          2   -1    0    0  501    0  0.00000000000E+00  0.00000000000E+00  0.80575692579E+02  0.80575692621E+02  0.26000000000E-02 0. -1.
         -2   -1    0    0    0  501 -0.00000000000E+00 -0.00000000000E+00 -0.12411227626E+01  0.12411254860E+01  0.26000000000E-02 0.  1.
       1023    2    1    2    0    0  0.00000000000E+00  0.00000000000E+00  0.79334569816E+02  0.81816818107E+02  0.20000443925E+02 0.  0.
        -11    1    3    3    0    0  0.51924448445E+01 -0.85465170015E+01  0.39674027941E+02  0.40914947509E+02  0.51100000000E-03 0. -1.
         11    1    3    3    0    0 -0.51924448445E+01  0.85465170015E+01  0.39660541875E+02  0.40901870598E+02  0.51100000000E-03 0.  1.
<mgrwt>
<rscale>  0 0.20000444E+02</rscale>
<asrwt>0</asrwt>
<pdfrwt beam="1">  1        2 0.12396261E-01 0.20000444E+02</pdfrwt>
<pdfrwt beam="2">  1       -2 0.19094218E-03 0.20000444E+02</pdfrwt>
<totfact> 0.50369644E+06</totfact>
</mgrwt>
</event>
<event>
 5    1  0.4046313E-006  0.2000016E+02  0.7818608E-02  0.1745325E+00
         -2   -1    0    0    0  501 -0.00000000000E+00  0.00000000000E+00  0.73208845597E+01  0.73208850214E+01  0.26000000000E-02 0.  1.
          2   -1    0    0  501    0  0.00000000000E+00 -0.00000000000E+00 -0.13659767155E+02  0.13659767402E+02  0.26000000000E-02 0. -1.
       1023    2    1    2    0    0  0.00000000000E+00  0.00000000000E+00 -0.63388825950E+01  0.20980652424E+02  0.20000158589E+02 0.  0.
        -11    1    3    3    0    0 -0.80799549315E+01 -0.58920193756E+01 -0.31743181604E+01  0.10491799658E+02  0.51100000000E-03 0.  1.
         11    1    3    3    0    0  0.80799549315E+01  0.58920193756E+01 -0.31645644346E+01  0.10488852766E+02  0.51100000000E-03 0. -1.
<mgrwt>
<rscale>  0 0.20000159E+02</rscale>
<asrwt>0</asrwt>
<pdfrwt beam="2">  1        2 0.21015027E-02 0.20000159E+02</pdfrwt>
<pdfrwt beam="1">  1       -2 0.11262900E-02 0.20000159E+02</pdfrwt>
<totfact> 0.40392981E+06</totfact>
</mgrwt>
</event>
<event>
 5    1  0.4046313E-006  0.2000228E+02  0.7818608E-02  0.1745283E+00
          2   -1    0    0  501    0  0.00000000000E+00  0.00000000000E+00  0.21214294974E+02  0.21214295133E+02  0.26000000000E-02 0. -1.
         -2   -1    0    0    0  501 -0.00000000000E+00 -0.00000000000E+00 -0.47148790781E+01  0.47148797950E+01  0.26000000000E-02 0.  1.
       1023    2    1    2    0    0  0.00000000000E+00  0.00000000000E+00  0.16499415896E+02  0.25929174928E+02  0.20002284558E+02 0.  0.
        -11    1    3    3    0    0  0.71461038500E+01 -0.69962370098E+01  0.83707176660E+01  0.13041589130E+02  0.51100000000E-03 0. -1.
         11    1    3    3    0    0 -0.71461038500E+01  0.69962370098E+01  0.81286982296E+01  0.12887585798E+02  0.51100000000E-03 0.  1.
<mgrwt>
<rscale>  0 0.20002285E+02</rscale>
<asrwt>0</asrwt>
<pdfrwt beam="1">  1        2 0.32637378E-02 0.20002285E+02</pdfrwt>
<pdfrwt beam="2">  1       -2 0.72536608E-03 0.20002285E+02</pdfrwt>
<totfact> 0.41888081E+06</totfact>
</mgrwt>
</event>
<event>
 5    1  0.4046313E-006  0.2000234E+02  0.7818608E-02  0.1745282E+00
          2   -1    0    0  501    0  0.00000000000E+00  0.00000000000E+00  0.37136751550E+01  0.37136760652E+01  0.26000000000E-02 0.  1.
         -2   -1    0    0    0  501 -0.00000000000E+00 -0.00000000000E+00 -0.26933788578E+02  0.26933788703E+02  0.26000000000E-02 0. -1.
       1023    2    1    2    0    0  0.00000000000E+00  0.00000000000E+00 -0.23220113423E+02  0.30647464769E+02  0.20002335598E+02 0.  0.
        -11    1    3    3    0    0 -0.41420376180E+01 -0.91031206914E+01 -0.11623337460E+02  0.15333794570E+02  0.51100000000E-03 0. -1.
         11    1    3    3    0    0  0.41420376180E+01  0.91031206914E+01 -0.11596775963E+02  0.15313670198E+02  0.51100000000E-03 0.  1.
<mgrwt>
<rscale>  0 0.20002336E+02</rscale>
<asrwt>0</asrwt>
<pdfrwt beam="1">  1        2 0.57133473E-03 0.20002336E+02</pdfrwt>
<pdfrwt beam="2">  1       -2 0.41436597E-02 0.20002336E+02</pdfrwt>
<totfact> 0.36442865E+06</totfact>
</mgrwt>
</event>
<event>
 5    1  0.4046313E-006  0.2000080E+02  0.7818608E-02  0.1745312E+00
          2   -1    0    0  501    0  0.00000000000E+00  0.00000000000E+00  0.32413892761E+02  0.32413892865E+02  0.26000000000E-02 0. -1.
         -2   -1    0    0    0  501 -0.00000000000E+00 -0.00000000000E+00 -0.30853444875E+01  0.30853455830E+01  0.26000000000E-02 0.  1.
       1023    2    1    2    0    0  0.00000000000E+00  0.00000000000E+00  0.29328548273E+02  0.35499238448E+02  0.20000804648E+02 0.  0.
        -11    1    3    3    0    0 -0.29613759661E+01 -0.95517247284E+01  0.14569463011E+02  0.17671288736E+02  0.51100000000E-03 0.  1.
         11    1    3    3    0    0  0.29613759661E+01  0.95517247284E+01  0.14759085262E+02  0.17827949712E+02  0.51100000000E-03 0. -1.
<mgrwt>
<rscale>  0 0.20000805E+02</rscale>
<asrwt>0</asrwt>
<pdfrwt beam="1">  1        2 0.49867530E-02 0.20000805E+02</pdfrwt>
<pdfrwt beam="2">  1       -2 0.47466846E-03 0.20000805E+02</pdfrwt>
<totfact> 0.43747992E+06</totfact>
</mgrwt>
</event>
<event>
 5    1  0.4046313E-006  0.2000024E+02  0.7818608E-02  0.1745323E+00
         -2   -1    0    0    0  501 -0.00000000000E+00  0.00000000000E+00  0.18582713125E+01  0.18582731314E+01  0.26000000000E-02 0.  1.
          2   -1    0    0  501    0  0.00000000000E+00 -0.00000000000E+00 -0.53814723587E+02  0.53814723650E+02  0.26000000000E-02 0. -1.
       1023    2    1    2    0    0  0.00000000000E+00  0.00000000000E+00 -0.51956452275E+02  0.55672996781E+02  0.20000240940E+02 0.  0.
        -11    1    3    3    0    0  0.41410359405E+01 -0.91024150749E+01 -0.26023990639E+02  0.27879207806E+02  0.51100000000E-03 0.  1.
         11    1    3    3    0    0 -0.41410359405E+01  0.91024150749E+01 -0.25932461636E+02  0.27793788976E+02  0.51100000000E-03 0. -1.
<mgrwt>
<rscale>  0 0.20000241E+02</rscale>
<asrwt>0</asrwt>
<pdfrwt beam="2">  1        2 0.82791872E-02 0.20000241E+02</pdfrwt>
<pdfrwt beam="1">  1       -2 0.28588808E-03 0.20000241E+02</pdfrwt>
<totfact> 0.46855607E+06</totfact>
</mgrwt>
</event>
<event>
 5    1  0.4046313E-006  0.2000036E+02  0.7818608E-02  0.1745321E+00
          2   -1    0    0  501    0  0.00000000000E+00  0.00000000000E+00  0.48186443115E+02  0.48186443185E+02  0.26000000000E-02 0. -1.
         -2   -1    0    0    0  501 -0.00000000000E+00 -0.00000000000E+00 -0.20753462033E+01  0.20753478319E+01  0.26000000000E-02 0.  1.
       1023    2    1    2    0    0  0.00000000000E+00  0.00000000000E+00  0.46111096912E+02  0.50261791017E+02  0.20000359443E+02 0.  0.
        -11    1    3    3    0    0 -0.97936361526E+01  0.20216811525E+01  0.22972563626E+02  0.25054763690E+02  0.51100000000E-03 0.  1.
         11    1    3    3    0    0  0.97936361526E+01 -0.20216811525E+01  0.23138533286E+02  0.25207027327E+02  0.51100000000E-03 0. -1.
<mgrwt>
<rscale>  0 0.20000359E+02</rscale>
<asrwt>0</asrwt>
<pdfrwt beam="1">  1        2 0.74132994E-02 0.20000359E+02</pdfrwt>
<pdfrwt beam="2">  1       -2 0.31928415E-03 0.20000359E+02</pdfrwt>
<totfact> 0.46071812E+06</totfact>
</mgrwt>
</event>
<event>
 5    1  0.4091851E-006  0.2000105E+02  0.7818608E-02  0.1745307E+00
          2   -1    0    0  501    0  0.00000000000E+00  0.00000000000E+00  0.53260456479E+02  0.53260456543E+02  0.26000000000E-02 0.  1.
         -2   -1    0    0    0  501 -0.00000000000E+00 -0.00000000000E+00 -0.18777624744E+01  0.18777642744E+01  0.26000000000E-02 0. -1.
       1023    2    1    2    0    0  0.00000000000E+00  0.00000000000E+00  0.51382694005E+02  0.55138220817E+02  0.20001053764E+02 0.  0.
        -11    1    3    3    0    0  0.99098177691E+01  0.13402252345E+01  0.25417804666E+02  0.27314199351E+02  0.51100000000E-03 0.  1.
         11    1    3    3    0    0 -0.99098177691E+01 -0.13402252345E+01  0.25964889339E+02  0.27824021466E+02  0.51100000000E-03 0. -1.
<mgrwt>
<rscale>  0 0.20001054E+02</rscale>
<asrwt>0</asrwt>
<pdfrwt beam="1">  1        2 0.81939164E-02 0.20001054E+02</pdfrwt>
<pdfrwt beam="2">  1       -2 0.28888668E-03 0.20001054E+02</pdfrwt>
<totfact> 0.46775073E+06</totfact>
</mgrwt>
</event>
<event>
 5    1  0.4142149E-006  0.2000030E+02  0.7818608E-02  0.1745322E+00
          2   -1    0    0  501    0  0.00000000000E+00  0.00000000000E+00  0.10178854036E+03  0.10178854040E+03  0.26000000000E-02 0. -1.
         -2   -1    0    0    0  501 -0.00000000000E+00 -0.00000000000E+00 -0.98245655073E+00  0.98245999108E+00  0.26000000000E-02 0.  1.
       1023    2    1    2    0    0  0.00000000000E+00  0.00000000000E+00  0.10080608381E+03  0.10277100039E+03  0.20000299674E+02 0.  0.
        -11    1    3    3    0    0  0.78281090558E+01  0.62227514736E+01  0.50571063369E+02  0.51550309192E+02  0.51100000000E-03 0. -1.
         11    1    3    3    0    0 -0.78281090558E+01 -0.62227514736E+01  0.50235020443E+02  0.51220691195E+02  0.51100000000E-03 0.  1.
<mgrwt>
<rscale>  0 0.20000300E+02</rscale>
<asrwt>0</asrwt>
<pdfrwt beam="1">  1        2 0.15659779E-01 0.20000300E+02</pdfrwt>
<pdfrwt beam="2">  1       -2 0.15114739E-03 0.20000300E+02</pdfrwt>
<totfact> 0.52969897E+06</totfact>
</mgrwt>
</event>
<event>
 5    1  0.4092869E-006  0.2000044E+02  0.7818608E-02  0.1745319E+00
          2   -1    0    0  501    0  0.00000000000E+00  0.00000000000E+00  0.18032375744E+01  0.18032394488E+01  0.26000000000E-02 0. -1.
         -2   -1    0    0    0  501 -0.00000000000E+00 -0.00000000000E+00 -0.55458239652E+02  0.55458239713E+02  0.26000000000E-02 0.  1.
       1023    2    1    2    0    0  0.00000000000E+00  0.00000000000E+00 -0.53655002078E+02  0.57261479162E+02  0.20000443691E+02 0.  0.
        -11    1    3    3    0    0 -0.99950078984E+01 -0.31933957968E+00 -0.26964089239E+02  0.28758725100E+02  0.51100000000E-03 0.  1.
         11    1    3    3    0    0  0.99950078984E+01  0.31933957968E+00 -0.26690912839E+02  0.28502754062E+02  0.51100000000E-03 0. -1.
<mgrwt>
<rscale>  0 0.20000444E+02</rscale>
<asrwt>0</asrwt>
<pdfrwt beam="1">  1        2 0.27742136E-03 0.20000444E+02</pdfrwt>
<pdfrwt beam="2">  1       -2 0.85320357E-02 0.20000444E+02</pdfrwt>
<totfact> 0.33376128E+06</totfact>
</mgrwt>
</event>
<event>
 5    1  0.4046313E-006  0.2000074E+02  0.7818608E-02  0.1745313E+00
          2   -1    0    0  501    0  0.00000000000E+00  0.00000000000E+00  0.41784653042E+02  0.41784653123E+02  0.26000000000E-02 0. -1.
         -2   -1    0    0    0  501 -0.00000000000E+00 -0.00000000000E+00 -0.23933998209E+01  0.23934012331E+01  0.26000000000E-02 0.  1.
       1023    2    1    2    0    0  0.00000000000E+00  0.00000000000E+00  0.39391253221E+02  0.44178054356E+02  0.20000741395E+02 0.  0.
        -11    1    3    3    0    0 -0.32603704906E+01  0.94539523541E+01  0.19725505089E+02  0.22115668250E+02  0.51100000000E-03 0. -1.
         11    1    3    3    0    0  0.32603704906E+01 -0.94539523541E+01  0.19665748131E+02  0.22062386106E+02  0.51100000000E-03 0.  1.
<mgrwt>
<rscale>  0 0.20000741E+02</rscale>
<asrwt>0</asrwt>
<pdfrwt beam="1">  1        2 0.64284077E-02 0.20000741E+02</pdfrwt>
<pdfrwt beam="2">  1       -2 0.36821550E-03 0.20000741E+02</pdfrwt>
<totfact> 0.45153662E+06</totfact>
</mgrwt>
</event>
<event>
 5    1  0.4046313E-006  0.2000937E+02  0.7818608E-02  0.1745142E+00
         -2   -1    0    0    0  501 -0.00000000000E+00  0.00000000000E+00  0.93816101686E+02  0.93816101722E+02  0.26000000000E-02 0. -1.
          2   -1    0    0  501    0  0.00000000000E+00 -0.00000000000E+00 -0.10669121140E+01  0.10669152821E+01  0.26000000000E-02 0.  1.
       1023    2    1    2    0    0  0.00000000000E+00  0.00000000000E+00  0.92749189572E+02  0.94883017004E+02  0.20009366545E+02 0.  0.
        -11    1    3    3    0    0 -0.91978058898E+01 -0.39322422439E+01  0.45532653466E+02  0.46618501629E+02  0.51100000000E-03 0. -1.
         11    1    3    3    0    0  0.91978058898E+01  0.39322422439E+01  0.47216536107E+02  0.48264515375E+02  0.51100000000E-03 0.  1.
<mgrwt>
<rscale>  0 0.20009367E+02</rscale>
<asrwt>0</asrwt>
<pdfrwt beam="2">  1        2 0.16414053E-03 0.20009367E+02</pdfrwt>
<pdfrwt beam="1">  1       -2 0.14433250E-01 0.20009367E+02</pdfrwt>
<totfact> 0.30156010E+06</totfact>
</mgrwt>
</event>
<event>
 5    1  0.4046313E-006  0.2000304E+02  0.7818608E-02  0.1745268E+00
         -2   -1    0    0    0  501 -0.00000000000E+00  0.00000000000E+00  0.23155828123E+02  0.23155828269E+02  0.26000000000E-02 0.  1.
          2   -1    0    0  501    0  0.00000000000E+00 -0.00000000000E+00 -0.43198808911E+01  0.43198816735E+01  0.26000000000E-02 0. -1.
       1023    2    1    2    0    0  0.00000000000E+00  0.00000000000E+00  0.18835947232E+02  0.27475709942E+02  0.20003042986E+02 0.  0.
        -11    1    3    3    0    0  0.26458352591E+01 -0.96452020718E+01  0.94069254958E+01  0.13730280943E+02  0.51100000000E-03 0. -1.
         11    1    3    3    0    0 -0.26458352591E+01  0.96452020718E+01  0.94290217359E+01  0.13745429000E+02  0.51100000000E-03 0.  1.
<mgrwt>
<rscale>  0 0.20003043E+02</rscale>
<asrwt>0</asrwt>
<pdfrwt beam="2">  1        2 0.66459715E-03 0.20003043E+02</pdfrwt>
<pdfrwt beam="1">  1       -2 0.35624351E-02 0.20003043E+02</pdfrwt>
<totfact> 0.36952596E+06</totfact>
</mgrwt>
</event>
<event>
 5    1  0.4046313E-006  0.2000182E+02  0.7818608E-02  0.1745292E+00
         -2   -1    0    0    0  501 -0.00000000000E+00  0.00000000000E+00  0.20367604733E+02  0.20367604899E+02  0.26000000000E-02 0.  1.
          2   -1    0    0  501    0  0.00000000000E+00 -0.00000000000E+00 -0.49106508984E+01  0.49106515867E+01  0.26000000000E-02 0. -1.
       1023    2    1    2    0    0  0.00000000000E+00  0.00000000000E+00  0.15456953835E+02  0.25278256486E+02  0.20001820645E+02 0.  0.
        -11    1    3    3    0    0  0.99574425061E+01  0.92865358745E+00  0.78191562291E+01  0.12694576131E+02  0.51100000000E-03 0. -1.
         11    1    3    3    0    0 -0.99574425061E+01 -0.92865358745E+00  0.76377976058E+01  0.12583680355E+02  0.51100000000E-03 0.  1.
<mgrwt>
<rscale>  0 0.20001821E+02</rscale>
<asrwt>0</asrwt>
<pdfrwt beam="2">  1        2 0.75548483E-03 0.20001821E+02</pdfrwt>
<pdfrwt beam="1">  1       -2 0.31334777E-02 0.20001821E+02</pdfrwt>
<totfact> 0.37369493E+06</totfact>
</mgrwt>
</event>
<event>
 5    1  0.4165321E-006  0.2000155E+02  0.7818608E-02  0.1745297E+00
         -2   -1    0    0    0  501 -0.00000000000E+00  0.00000000000E+00  0.20566532868E+01  0.20566549302E+01  0.26000000000E-02 0. -1.
          2   -1    0    0  501    0  0.00000000000E+00 -0.00000000000E+00 -0.48630212515E+02  0.48630212585E+02  0.26000000000E-02 0.  1.
       1023    2    1    2    0    0  0.00000000000E+00  0.00000000000E+00 -0.46573559228E+02  0.50686867515E+02  0.20001552921E+02 0.  0.
        -11    1    3    3    0    0  0.97169996258E+01 -0.23645714850E+01 -0.23451976445E+02  0.25495224641E+02  0.51100000000E-03 0. -1.
         11    1    3    3    0    0 -0.97169996258E+01  0.23645714850E+01 -0.23121582783E+02  0.25191642874E+02  0.51100000000E-03 0.  1.
<mgrwt>
<rscale>  0 0.20001553E+02</rscale>
<asrwt>0</asrwt>
<pdfrwt beam="2">  1        2 0.74815704E-02 0.20001553E+02</pdfrwt>
<pdfrwt beam="1">  1       -2 0.31640837E-03 0.20001553E+02</pdfrwt>
<totfact> 0.46128132E+06</totfact>
</mgrwt>
</event>
<event>
 5    1  0.4046313E-006  0.2000161E+02  0.7818608E-02  0.1745296E+00
         -2   -1    0    0    0  501 -0.00000000000E+00  0.00000000000E+00  0.66309315050E+02  0.66309315101E+02  0.26000000000E-02 0.  1.
          2   -1    0    0  501    0  0.00000000000E+00 -0.00000000000E+00 -0.15083251330E+01  0.15083273739E+01  0.26000000000E-02 0. -1.
       1023    2    1    2    0    0  0.00000000000E+00  0.00000000000E+00  0.64800989917E+02  0.67817642475E+02  0.20001608351E+02 0.  0.
        -11    1    3    3    0    0 -0.99714645512E+01 -0.76101752865E+00  0.32680726694E+02  0.34176587754E+02  0.51100000000E-03 0. -1.
         11    1    3    3    0    0  0.99714645512E+01  0.76101752865E+00  0.32120263223E+02  0.33641054721E+02  0.51100000000E-03 0.  1.
<mgrwt>
<rscale>  0 0.20001608E+02</rscale>
<asrwt>0</asrwt>
<pdfrwt beam="2">  1        2 0.23205016E-03 0.20001608E+02</pdfrwt>
<pdfrwt beam="1">  1       -2 0.10201435E-01 0.20001608E+02</pdfrwt>
<totfact> 0.32394564E+06</totfact>
</mgrwt>
</event>
<event>
 5    1  0.4046313E-006  0.2000356E+02  0.7818608E-02  0.1745257E+00
         -2   -1    0    0    0  501 -0.00000000000E+00  0.00000000000E+00  0.13313184645E+01  0.13313210033E+01  0.26000000000E-02 0.  1.
          2   -1    0    0  501    0  0.00000000000E+00 -0.00000000000E+00 -0.75140181509E+02  0.75140181554E+02  0.26000000000E-02 0. -1.
       1023    2    1    2    0    0  0.00000000000E+00  0.00000000000E+00 -0.73808863045E+02  0.76471502558E+02  0.20003560669E+02 0.  0.
        -11    1    3    3    0    0 -0.89261623406E+01 -0.45113195151E+01 -0.36579334762E+02  0.37921973970E+02  0.51100000000E-03 0. -1.
         11    1    3    3    0    0  0.89261623406E+01  0.45113195151E+01 -0.37229528283E+02  0.38549528588E+02  0.51100000000E-03 0.  1.
<mgrwt>
<rscale>  0 0.20003561E+02</rscale>
<asrwt>0</asrwt>
<pdfrwt beam="2">  1        2 0.11560025E-01 0.20003561E+02</pdfrwt>
<pdfrwt beam="1">  1       -2 0.20481848E-03 0.20003561E+02</pdfrwt>
<totfact> 0.49662923E+06</totfact>
</mgrwt>
</event>
<event>
 5    1  0.4054123E-006  0.2000146E+02  0.7818608E-02  0.1745299E+00
          2   -1    0    0  501    0  0.00000000000E+00  0.00000000000E+00  0.29601653052E+02  0.29601653166E+02  0.26000000000E-02 0.  1.
         -2   -1    0    0    0  501 -0.00000000000E+00 -0.00000000000E+00 -0.33786817322E+01  0.33786827326E+01  0.26000000000E-02 0. -1.
       1023    2    1    2    0    0  0.00000000000E+00  0.00000000000E+00  0.26222971320E+02  0.32980335899E+02  0.20001458226E+02 0.  0.
        -11    1    3    3    0    0 -0.85678123700E+01  0.51575518055E+01  0.13247787626E+02  0.16598542908E+02  0.51100000000E-03 0. -1.
         11    1    3    3    0    0  0.85678123700E+01 -0.51575518055E+01  0.12975183694E+02  0.16381792991E+02  0.51100000000E-03 0.  1.
<mgrwt>
<rscale>  0 0.20001458E+02</rscale>
<asrwt>0</asrwt>
<pdfrwt beam="1">  1        2 0.45541005E-02 0.20001458E+02</pdfrwt>
<pdfrwt beam="2">  1       -2 0.51979728E-03 0.20001458E+02</pdfrwt>
<totfact> 0.43302813E+06</totfact>
</mgrwt>
</event>
<event>
 5    1  0.4744705E-006  0.2000064E+02  0.7818608E-02  0.1745315E+00
          2   -1    0    0  501    0  0.00000000000E+00  0.00000000000E+00  0.21790143085E+02  0.21790143240E+02  0.26000000000E-02 0. -1.
         -2   -1    0    0    0  501 -0.00000000000E+00 -0.00000000000E+00 -0.45895242450E+01  0.45895249815E+01  0.26000000000E-02 0.  1.
       1023    2    1    2    0    0  0.00000000000E+00  0.00000000000E+00  0.17200618840E+02  0.26379668222E+02  0.20000640165E+02 0.  0.
        -11    1    3    3    0    0 -0.99842622641E+01 -0.56647266233E+00  0.86057883803E+01  0.13193406616E+02  0.51100000000E-03 0.  1.
         11    1    3    3    0    0  0.99842622641E+01  0.56647266233E+00  0.85948304598E+01  0.13186261605E+02  0.51100000000E-03 0. -1.
<mgrwt>
<rscale>  0 0.20000640E+02</rscale>
<asrwt>0</asrwt>
<pdfrwt beam="1">  1        2 0.33523299E-02 0.20000640E+02</pdfrwt>
<pdfrwt beam="2">  1       -2 0.70608070E-03 0.20000640E+02</pdfrwt>
<totfact> 0.41998690E+06</totfact>
</mgrwt>
</event>
<event>
 5    1  0.4046313E-006  0.2000065E+02  0.7818608E-02  0.1745315E+00
          2   -1    0    0  501    0  0.00000000000E+00  0.00000000000E+00  0.44600477428E+01  0.44600485007E+01  0.26000000000E-02 0.  1.
         -2   -1    0    0    0  501 -0.00000000000E+00 -0.00000000000E+00 -0.22422743285E+02  0.22422743436E+02  0.26000000000E-02 0. -1.
       1023    2    1    2    0    0  0.00000000000E+00  0.00000000000E+00 -0.17962695542E+02  0.26882791937E+02  0.20000651768E+02 0.  0.
        -11    1    3    3    0    0  0.86894786058E+01 -0.49490844951E+01 -0.90858225661E+01  0.13511204526E+02  0.51100000000E-03 0. -1.
         11    1    3    3    0    0 -0.86894786058E+01  0.49490844951E+01 -0.88768729763E+01  0.13371587411E+02  0.51100000000E-03 0.  1.
<mgrwt>
<rscale>  0 0.20000652E+02</rscale>
<asrwt>0</asrwt>
<pdfrwt beam="1">  1        2 0.68616128E-03 0.20000652E+02</pdfrwt>
<pdfrwt beam="2">  1       -2 0.34496528E-02 0.20000652E+02</pdfrwt>
<totfact> 0.37067329E+06</totfact>
</mgrwt>
</event>
<event>
 5    1  0.4046313E-006  0.2000020E+02  0.7818608E-02  0.1745324E+00
          2   -1    0    0  501    0  0.00000000000E+00  0.00000000000E+00  0.17961381075E+01  0.17961399893E+01  0.26000000000E-02 0.  1.
         -2   -1    0    0    0  501 -0.00000000000E+00 -0.00000000000E+00 -0.55676075631E+02  0.55676075692E+02  0.26000000000E-02 0. -1.
       1023    2    1    2    0    0  0.00000000000E+00  0.00000000000E+00 -0.53879937524E+02  0.57472215681E+02  0.20000197693E+02 0.  0.
        -11    1    3    3    0    0  0.28341745452E+01  0.95900159639E+01 -0.26847963119E+02  0.28649852974E+02  0.51100000000E-03 0. -1.
         11    1    3    3    0    0 -0.28341745452E+01 -0.95900159639E+01 -0.27031974405E+02  0.28822362708E+02  0.51100000000E-03 0.  1.
<mgrwt>
<rscale>  0 0.20000198E+02</rscale>
<asrwt>0</asrwt>
<pdfrwt beam="1">  1        2 0.27632913E-03 0.20000198E+02</pdfrwt>
<pdfrwt beam="2">  1       -2 0.85655489E-02 0.20000198E+02</pdfrwt>
<totfact> 0.33356691E+06</totfact>
</mgrwt>
</event>
<event>
 5    1  0.4046313E-006  0.2000075E+02  0.7818608E-02  0.1745313E+00
          2   -1    0    0  501    0  0.00000000000E+00  0.00000000000E+00  0.43711655614E+01  0.43711663346E+01  0.26000000000E-02 0.  1.
         -2   -1    0    0    0  501 -0.00000000000E+00 -0.00000000000E+00 -0.22878904997E+02  0.22878905145E+02  0.26000000000E-02 0. -1.
       1023    2    1    2    0    0  0.00000000000E+00  0.00000000000E+00 -0.18507739436E+02  0.27250071480E+02  0.20000749401E+02 0.  0.
        -11    1    3    3    0    0  0.16780100885E+01 -0.98584015020E+01 -0.91710413202E+01  0.13568780240E+02  0.51100000000E-03 0.  1.
         11    1    3    3    0    0 -0.16780100885E+01  0.98584015020E+01 -0.93366981158E+01  0.13681291240E+02  0.51100000000E-03 0. -1.
<mgrwt>
<rscale>  0 0.20000749E+02</rscale>
<asrwt>0</asrwt>
<pdfrwt beam="1">  1        2 0.67248709E-03 0.20000749E+02</pdfrwt>
<pdfrwt beam="2">  1       -2 0.35198316E-02 0.20000749E+02</pdfrwt>
<totfact> 0.37001275E+06</totfact>
</mgrwt>
</event>
<event>
 5    1  0.4046313E-006  0.2000108E+02  0.7818608E-02  0.1745307E+00
          2   -1    0    0  501    0  0.00000000000E+00  0.00000000000E+00  0.35254317922E+02  0.35254318018E+02  0.26000000000E-02 0.  1.
         -2   -1    0    0    0  501 -0.00000000000E+00 -0.00000000000E+00 -0.28368386089E+01  0.28368398003E+01  0.26000000000E-02 0. -1.
       1023    2    1    2    0    0  0.00000000000E+00  0.00000000000E+00  0.32417479313E+02  0.38091157818E+02  0.20001083444E+02 0.  0.
        -11    1    3    3    0    0 -0.50497887634E+01  0.86319374146E+01  0.16187499812E+02  0.19027502740E+02  0.51100000000E-03 0.  1.
         11    1    3    3    0    0  0.50497887634E+01 -0.86319374146E+01  0.16229979501E+02  0.19063655078E+02  0.51100000000E-03 0. -1.
<mgrwt>
<rscale>  0 0.20001083E+02</rscale>
<asrwt>0</asrwt>
<pdfrwt beam="1">  1        2 0.54237413E-02 0.20001083E+02</pdfrwt>
<pdfrwt beam="2">  1       -2 0.43643681E-03 0.20001083E+02</pdfrwt>
<totfact> 0.44182368E+06</totfact>
</mgrwt>
</event>
<event>
 5    1  0.4046313E-006  0.2000434E+02  0.7818608E-02  0.1745242E+00
         -2   -1    0    0    0  501 -0.00000000000E+00  0.00000000000E+00  0.35778086832E+01  0.35778096280E+01  0.26000000000E-02 0. -1.
          2   -1    0    0  501    0  0.00000000000E+00 -0.00000000000E+00 -0.27962208079E+02  0.27962208200E+02  0.26000000000E-02 0.  1.
       1023    2    1    2    0    0  0.00000000000E+00  0.00000000000E+00 -0.24384399396E+02  0.31540017828E+02  0.20004344295E+02 0.  0.
        -11    1    3    3    0    0 -0.36695315349E+01 -0.93027287992E+01 -0.12496386975E+02  0.16005183925E+02  0.51100000000E-03 0.  1.
         11    1    3    3    0    0  0.36695315349E+01  0.93027287992E+01 -0.11888012421E+02  0.15534833903E+02  0.51100000000E-03 0. -1.
<mgrwt>
<rscale>  0 0.20004344E+02</rscale>
<asrwt>0</asrwt>
<pdfrwt beam="2">  1        2 0.43018781E-02 0.20004344E+02</pdfrwt>
<pdfrwt beam="1">  1       -2 0.55043221E-03 0.20004344E+02</pdfrwt>
<totfact> 0.43025431E+06</totfact>
</mgrwt>
</event>
<event>
 5    1  0.4046313E-006  0.2000112E+02  0.7818608E-02  0.1745306E+00
          2   -1    0    0  501    0  0.00000000000E+00  0.00000000000E+00  0.21151587994E+02  0.21151588154E+02  0.26000000000E-02 0.  1.
         -2   -1    0    0    0  501 -0.00000000000E+00 -0.00000000000E+00 -0.47283068930E+01  0.47283076078E+01  0.26000000000E-02 0. -1.
       1023    2    1    2    0    0  0.00000000000E+00  0.00000000000E+00  0.16423281101E+02  0.25879895762E+02  0.20001121031E+02 0.  0.
        -11    1    3    3    0    0  0.83227127762E+01  0.55442116377E+01  0.81167356994E+01  0.12879721632E+02  0.51100000000E-03 0.  1.
         11    1    3    3    0    0 -0.83227127762E+01 -0.55442116377E+01  0.83065454018E+01  0.13000174130E+02  0.51100000000E-03 0. -1.
<mgrwt>
<rscale>  0 0.20001121E+02</rscale>
<asrwt>0</asrwt>
<pdfrwt beam="1">  1        2 0.32540905E-02 0.20001121E+02</pdfrwt>
<pdfrwt beam="2">  1       -2 0.72743189E-03 0.20001121E+02</pdfrwt>
<totfact> 0.41882299E+06</totfact>
</mgrwt>
</event>
<event>
 5    1  0.4046313E-006  0.2000408E+02  0.7818608E-02  0.1745247E+00
         -2   -1    0    0    0  501 -0.00000000000E+00  0.00000000000E+00  0.27226338127E+02  0.27226338251E+02  0.26000000000E-02 0.  1.
          2   -1    0    0  501    0  0.00000000000E+00 -0.00000000000E+00 -0.36744116366E+01  0.36744125565E+01  0.26000000000E-02 0. -1.
       1023    2    1    2    0    0  0.00000000000E+00  0.00000000000E+00  0.23551926490E+02  0.30900750807E+02  0.20004078561E+02 0.  0.
        -11    1    3    3    0    0 -0.93836227020E+01 -0.34624273523E+01  0.11770765754E+02  0.15446413981E+02  0.51100000000E-03 0.  1.
         11    1    3    3    0    0  0.93836227020E+01  0.34624273523E+01  0.11781160736E+02  0.15454336826E+02  0.51100000000E-03 0. -1.
<mgrwt>
<rscale>  0 0.20004079E+02</rscale>
<asrwt>0</asrwt>
<pdfrwt beam="2">  1        2 0.56529418E-03 0.20004079E+02</pdfrwt>
<pdfrwt beam="1">  1       -2 0.41886675E-02 0.20004079E+02</pdfrwt>
<totfact> 0.36398018E+06</totfact>
</mgrwt>
</event>
<event>
 5    1  0.4046313E-006  0.2000008E+02  0.7818608E-02  0.1745327E+00
         -2   -1    0    0    0  501 -0.00000000000E+00  0.00000000000E+00  0.64957078602E+01  0.64957083805E+01  0.26000000000E-02 0.  1.
          2   -1    0    0  501    0  0.00000000000E+00 -0.00000000000E+00 -0.15394897428E+02  0.15394897648E+02  0.26000000000E-02 0. -1.
       1023    2    1    2    0    0  0.00000000000E+00  0.00000000000E+00 -0.88991895680E+01  0.21890606028E+02  0.20000076433E+02 0.  0.
        -11    1    3    3    0    0 -0.38391500395E+01 -0.92337140550E+01 -0.44335163334E+01  0.10938766640E+02  0.51100000000E-03 0.  1.
         11    1    3    3    0    0  0.38391500395E+01  0.92337140550E+01 -0.44656732346E+01  0.10951839388E+02  0.51100000000E-03 0. -1.
<mgrwt>
<rscale>  0 0.20000076E+02</rscale>
<asrwt>0</asrwt>
<pdfrwt beam="2">  1        2 0.23684458E-02 0.20000076E+02</pdfrwt>
<pdfrwt beam="1">  1       -2 0.99933974E-03 0.20000076E+02</pdfrwt>
<totfact> 0.40773287E+06</totfact>
</mgrwt>
</event>
<event>
 5    1  0.4046313E-006  0.2000282E+02  0.7818608E-02  0.1745272E+00
          2   -1    0    0  501    0  0.00000000000E+00  0.00000000000E+00  0.29150641530E+02  0.29150641646E+02  0.26000000000E-02 0.  1.
         -2   -1    0    0    0  501 -0.00000000000E+00 -0.00000000000E+00 -0.34314228368E+01  0.34314238218E+01  0.26000000000E-02 0. -1.
       1023    2    1    2    0    0  0.00000000000E+00  0.00000000000E+00  0.25719218693E+02  0.32582065468E+02  0.20002819300E+02 0.  0.
        -11    1    3    3    0    0 -0.39999464573E+01 -0.91658012713E+01  0.12649048695E+02  0.16124823031E+02  0.51100000000E-03 0.  1.
         11    1    3    3    0    0  0.39999464573E+01  0.91658012713E+01  0.13070169998E+02  0.16457242437E+02  0.51100000000E-03 0. -1.
<mgrwt>
<rscale>  0 0.20002819E+02</rscale>
<asrwt>0</asrwt>
<pdfrwt beam="1">  1        2 0.44847140E-02 0.20002819E+02</pdfrwt>
<pdfrwt beam="2">  1       -2 0.52791130E-03 0.20002819E+02</pdfrwt>
<totfact> 0.43224202E+06</totfact>
</mgrwt>
</event>
<event>
 5    1  0.4046313E-006  0.2000203E+02  0.7818608E-02  0.1745288E+00
         -2   -1    0    0    0  501 -0.00000000000E+00  0.00000000000E+00  0.71901909608E+02  0.71901909656E+02  0.26000000000E-02 0. -1.
          2   -1    0    0  501    0  0.00000000000E+00 -0.00000000000E+00 -0.13910644046E+01  0.13910668344E+01  0.26000000000E-02 0.  1.
       1023    2    1    2    0    0  0.00000000000E+00  0.00000000000E+00  0.70510845204E+02  0.73292976490E+02  0.20002027682E+02 0.  0.
        -11    1    3    3    0    0  0.39729088389E+00 -0.99930919876E+01  0.35341362514E+02  0.36729165960E+02  0.51100000000E-03 0.  1.
         11    1    3    3    0    0 -0.39729088389E+00  0.99930919876E+01  0.35169482690E+02  0.36563810530E+02  0.51100000000E-03 0. -1.
<mgrwt>
<rscale>  0 0.20002028E+02</rscale>
<asrwt>0</asrwt>
<pdfrwt beam="2">  1        2 0.21401001E-03 0.20002028E+02</pdfrwt>
<pdfrwt beam="1">  1       -2 0.11061837E-01 0.20002028E+02</pdfrwt>
<totfact> 0.31915527E+06</totfact>
</mgrwt>
</event>
<event>
 5    1  0.4046313E-006  0.2000050E+02  0.7818608E-02  0.1745318E+00
          2   -1    0    0  501    0  0.00000000000E+00  0.00000000000E+00  0.21856145178E+02  0.21856145333E+02  0.26000000000E-02 0. -1.
         -2   -1    0    0    0  501 -0.00000000000E+00 -0.00000000000E+00 -0.45756026463E+01  0.45756033850E+01  0.26000000000E-02 0.  1.
       1023    2    1    2    0    0  0.00000000000E+00  0.00000000000E+00  0.17280542532E+02  0.26431748718E+02  0.20000504746E+02 0.  0.
        -11    1    3    3    0    0 -0.78771889876E+01 -0.61605418209E+01  0.87084996434E+01  0.13260480692E+02  0.51100000000E-03 0.  1.
         11    1    3    3    0    0  0.78771889876E+01  0.61605418209E+01  0.85720428887E+01  0.13171268026E+02  0.51100000000E-03 0. -1.
<mgrwt>
<rscale>  0 0.20000505E+02</rscale>
<asrwt>0</asrwt>
<pdfrwt beam="1">  1        2 0.33624839E-02 0.20000505E+02</pdfrwt>
<pdfrwt beam="2">  1       -2 0.70393895E-03 0.20000505E+02</pdfrwt>
<totfact> 0.42011047E+06</totfact>
</mgrwt>
</event>
<event>
 5    1  0.4046313E-006  0.2000003E+02  0.7818608E-02  0.1745327E+00
         -2   -1    0    0    0  501 -0.00000000000E+00  0.00000000000E+00  0.59499915070E+02  0.59499915126E+02  0.26000000000E-02 0. -1.
          2   -1    0    0  501    0  0.00000000000E+00 -0.00000000000E+00 -0.16806787900E+01  0.16806808011E+01  0.26000000000E-02 0.  1.
       1023    2    1    2    0    0  0.00000000000E+00  0.00000000000E+00  0.57819236280E+02  0.61180595927E+02  0.20000030852E+02 0.  0.
        -11    1    3    3    0    0  0.70322128983E+01  0.71097316436E+01  0.28917091717E+02  0.30597360931E+02  0.51100000000E-03 0. -1.
         11    1    3    3    0    0 -0.70322128983E+01 -0.71097316436E+01  0.28902144562E+02  0.30583234996E+02  0.51100000000E-03 0.  1.
<mgrwt>
<rscale>  0 0.20000031E+02</rscale>
<asrwt>0</asrwt>
<pdfrwt beam="2">  1        2 0.25856614E-03 0.20000031E+02</pdfrwt>
<pdfrwt beam="1">  1       -2 0.91538328E-02 0.20000031E+02</pdfrwt>
<totfact> 0.33005257E+06</totfact>
</mgrwt>
</event>
<event>
 5    1  0.4046313E-006  0.2000015E+02  0.7818608E-02  0.1745325E+00
         -2   -1    0    0    0  501 -0.00000000000E+00  0.00000000000E+00  0.94050803181E+00  0.94051162560E+00  0.26000000000E-02 0. -1.
          2   -1    0    0  501    0  0.00000000000E+00 -0.00000000000E+00 -0.10632686765E+03  0.10632686768E+03  0.26000000000E-02 0.  1.
       1023    2    1    2    0    0  0.00000000000E+00  0.00000000000E+00 -0.10538635961E+03  0.10726737930E+03  0.20000146747E+02 0.  0.
        -11    1    3    3    0    0 -0.55240707874E+01 -0.83358314939E+01 -0.52718592337E+02  0.53658656552E+02  0.51100000000E-03 0.  1.
         11    1    3    3    0    0  0.55240707874E+01  0.83358314939E+01 -0.52667767277E+02  0.53608722750E+02  0.51100000000E-03 0. -1.
<mgrwt>
<rscale>  0 0.20000147E+02</rscale>
<asrwt>0</asrwt>
<pdfrwt beam="2">  1        2 0.16357970E-01 0.20000147E+02</pdfrwt>
<pdfrwt beam="1">  1       -2 0.14469391E-03 0.20000147E+02</pdfrwt>
<totfact> 0.53508285E+06</totfact>
</mgrwt>
</event>
<event>
 5    1  0.4046313E-006  0.2000143E+02  0.7818608E-02  0.1745300E+00
          2   -1    0    0  501    0  0.00000000000E+00  0.00000000000E+00  0.86185869222E+00  0.86186261397E+00  0.26000000000E-02 0. -1.
         -2   -1    0    0    0  501 -0.00000000000E+00 -0.00000000000E+00 -0.11604464005E+03  0.11604464008E+03  0.26000000000E-02 0.  1.
       1023    2    1    2    0    0  0.00000000000E+00  0.00000000000E+00 -0.11518278136E+03  0.11690650270E+03  0.20001431214E+02 0.  0.
        -11    1    3    3    0    0  0.79949258507E+01 -0.60078629896E+01 -0.57781267824E+02  0.58640328859E+02  0.51100000000E-03 0.  1.
         11    1    3    3    0    0 -0.79949258507E+01  0.60078629896E+01 -0.57401513536E+02  0.58266173837E+02  0.51100000000E-03 0. -1.
<mgrwt>
<rscale>  0 0.20001431E+02</rscale>
<asrwt>0</asrwt>
<pdfrwt beam="1">  1        2 0.13259404E-03 0.20001431E+02</pdfrwt>
<pdfrwt beam="2">  1       -2 0.17853009E-01 0.20001431E+02</pdfrwt>
<totfact> 0.28601760E+06</totfact>
</mgrwt>
</event>
<event>
 5    1  0.4326082E-006  0.2000139E+02  0.7818608E-02  0.1745301E+00
         -2   -1    0    0    0  501 -0.00000000000E+00  0.00000000000E+00  0.10146203446E+01  0.10146236759E+01  0.26000000000E-02 0. -1.
          2   -1    0    0  501    0  0.00000000000E+00 -0.00000000000E+00 -0.98572532599E+02  0.98572532633E+02  0.26000000000E-02 0.  1.
       1023    2    1    2    0    0  0.00000000000E+00  0.00000000000E+00 -0.97557912254E+02  0.99587156309E+02  0.20001386410E+02 0.  0.
        -11    1    3    3    0    0  0.98450151804E+01  0.17538237294E+01 -0.48197396782E+02  0.49223868990E+02  0.51100000000E-03 0. -1.
         11    1    3    3    0    0 -0.98450151804E+01 -0.17538237294E+01 -0.49360515473E+02  0.50363287319E+02  0.51100000000E-03 0.  1.
<mgrwt>
<rscale>  0 0.20001386E+02</rscale>
<asrwt>0</asrwt>
<pdfrwt beam="2">  1        2 0.15164998E-01 0.20001386E+02</pdfrwt>
<pdfrwt beam="1">  1       -2 0.15609577E-03 0.20001386E+02</pdfrwt>
<totfact> 0.52578652E+06</totfact>
</mgrwt>
</event>
<event>
 5    1  0.4343591E-006  0.2000092E+02  0.7818608E-02  0.1745310E+00
         -2   -1    0    0    0  501 -0.00000000000E+00  0.00000000000E+00  0.10148491577E+01  0.10148524882E+01  0.26000000000E-02 0.  1.
          2   -1    0    0  501    0  0.00000000000E+00 -0.00000000000E+00 -0.98545724827E+02  0.98545724862E+02  0.26000000000E-02 0. -1.
       1023    2    1    2    0    0  0.00000000000E+00  0.00000000000E+00 -0.97530875670E+02  0.99560577350E+02  0.20000921312E+02 0.  0.
        -11    1    3    3    0    0 -0.27584290314E+01 -0.96125024998E+01 -0.48809413051E+02  0.49823367386E+02  0.51100000000E-03 0. -1.
         11    1    3    3    0    0  0.27584290314E+01  0.96125024998E+01 -0.48721462618E+02  0.49737209964E+02  0.51100000000E-03 0.  1.
<mgrwt>
<rscale>  0 0.20000921E+02</rscale>
<asrwt>0</asrwt>
<pdfrwt beam="2">  1        2 0.15160873E-01 0.20000921E+02</pdfrwt>
<pdfrwt beam="1">  1       -2 0.15613098E-03 0.20000921E+02</pdfrwt>
<totfact> 0.52578129E+06</totfact>
</mgrwt>
</event>
<event>
 5    1  0.4362880E-006  0.2000271E+02  0.7818608E-02  0.1745274E+00
         -2   -1    0    0    0  501 -0.00000000000E+00  0.00000000000E+00  0.33994597096E+02  0.33994597195E+02  0.26000000000E-02 0. -1.
          2   -1    0    0  501    0  0.00000000000E+00 -0.00000000000E+00 -0.29424401284E+01  0.29424412771E+01  0.26000000000E-02 0.  1.
       1023    2    1    2    0    0  0.00000000000E+00  0.00000000000E+00  0.31052156968E+02  0.36937038473E+02  0.20002708786E+02 0.  0.
        -11    1    3    3    0    0 -0.99857673070E+01  0.54393813369E+00  0.15294906130E+02  0.18274177715E+02  0.51100000000E-03 0. -1.
         11    1    3    3    0    0  0.99857673070E+01 -0.54393813369E+00  0.15757250838E+02  0.18662860757E+02  0.51100000000E-03 0.  1.
<mgrwt>
<rscale>  0 0.20002709E+02</rscale>
<asrwt>0</asrwt>
<pdfrwt beam="2">  1        2 0.45268315E-03 0.20002709E+02</pdfrwt>
<pdfrwt beam="1">  1       -2 0.52299386E-02 0.20002709E+02</pdfrwt>
<totfact> 0.35577817E+06</totfact>
</mgrwt>
</event>
<event>
 5    1  0.4046313E-006  0.2000092E+02  0.7818608E-02  0.1745310E+00
          2   -1    0    0  501    0  0.00000000000E+00  0.00000000000E+00  0.14671384489E+02  0.14671384719E+02  0.26000000000E-02 0. -1.
         -2   -1    0    0    0  501 -0.00000000000E+00 -0.00000000000E+00 -0.68166160095E+01  0.68166165053E+01  0.26000000000E-02 0.  1.
       1023    2    1    2    0    0  0.00000000000E+00  0.00000000000E+00  0.78547684796E+01  0.21488001225E+02  0.20000920198E+02 0.  0.
        -11    1    3    3    0    0  0.34683788403E+01 -0.93797412481E+01  0.39251644087E+01  0.10743189171E+02  0.51100000000E-03 0. -1.
         11    1    3    3    0    0 -0.34683788403E+01  0.93797412481E+01  0.39296040709E+01  0.10744812054E+02  0.51100000000E-03 0.  1.
<mgrwt>
<rscale>  0 0.20000920E+02</rscale>
<asrwt>0</asrwt>
<pdfrwt beam="1">  1        2 0.22571361E-02 0.20000920E+02</pdfrwt>
<pdfrwt beam="2">  1       -2 0.10487102E-02 0.20000920E+02</pdfrwt>
<totfact> 0.40614377E+06</totfact>
</mgrwt>
</event>
<event>
 5    1  0.4046313E-006  0.2000446E+02  0.7818608E-02  0.1745239E+00
          2   -1    0    0  501    0  0.00000000000E+00  0.00000000000E+00  0.74067689745E+01  0.74067694308E+01  0.26000000000E-02 0. -1.
         -2   -1    0    0    0  501 -0.00000000000E+00 -0.00000000000E+00 -0.13507187073E+02  0.13507187323E+02  0.26000000000E-02 0.  1.
       1023    2    1    2    0    0  0.00000000000E+00  0.00000000000E+00 -0.61004180986E+01  0.20913956754E+02  0.20004461656E+02 0.  0.
        -11    1    3    3    0    0  0.57070780393E+01 -0.82141448433E+01 -0.30070271787E+01  0.10444382603E+02  0.51100000000E-03 0. -1.
         11    1    3    3    0    0 -0.57070780393E+01  0.82141448433E+01 -0.30933909199E+01  0.10469574151E+02  0.51100000000E-03 0.  1.
<mgrwt>
<rscale>  0 0.20004462E+02</rscale>
<asrwt>0</asrwt>
<pdfrwt beam="1">  1        2 0.11395030E-02 0.20004462E+02</pdfrwt>
<pdfrwt beam="2">  1       -2 0.20780288E-02 0.20004462E+02</pdfrwt>
<totfact> 0.38582269E+06</totfact>
</mgrwt>
</event>
<event>
 5    1  0.4068332E-006  0.2000126E+02  0.7818608E-02  0.1745303E+00
          2   -1    0    0  501    0  0.00000000000E+00  0.00000000000E+00  0.45370540853E+02  0.45370540928E+02  0.26000000000E-02 0. -1.
         -2   -1    0    0    0  501 -0.00000000000E+00 -0.00000000000E+00 -0.22043512930E+01  0.22043528264E+01  0.26000000000E-02 0.  1.
       1023    2    1    2    0    0  0.00000000000E+00  0.00000000000E+00  0.43166189560E+02  0.47574893754E+02  0.20001264824E+02 0.  0.
        -11    1    3    3    0    0 -0.69772901513E+01  0.71645006796E+01  0.21581351936E+02  0.23785865540E+02  0.51100000000E-03 0.  1.
         11    1    3    3    0    0  0.69772901513E+01 -0.71645006796E+01  0.21584837624E+02  0.23789028214E+02  0.51100000000E-03 0. -1.
<mgrwt>
<rscale>  0 0.20001265E+02</rscale>
<asrwt>0</asrwt>
<pdfrwt beam="1">  1        2 0.69800839E-02 0.20001265E+02</pdfrwt>
<pdfrwt beam="2">  1       -2 0.33913107E-03 0.20001265E+02</pdfrwt>
<totfact> 0.45667839E+06</totfact>
</mgrwt>
</event>
<event>
 5    1  0.4046313E-006  0.2000164E+02  0.7818608E-02  0.1745295E+00
          2   -1    0    0  501    0  0.00000000000E+00  0.00000000000E+00  0.17212769237E+01  0.17212788874E+01  0.26000000000E-02 0. -1.
         -2   -1    0    0    0  501 -0.00000000000E+00 -0.00000000000E+00 -0.58105910045E+02  0.58105910103E+02  0.26000000000E-02 0.  1.
       1023    2    1    2    0    0  0.00000000000E+00  0.00000000000E+00 -0.56384633121E+02  0.59827188991E+02  0.20001642190E+02 0.  0.
        -11    1    3    3    0    0  0.97734678330E+01 -0.21203172905E+01 -0.28186787440E+02  0.29908383529E+02  0.51100000000E-03 0. -1.
         11    1    3    3    0    0 -0.97734678330E+01  0.21203172905E+01 -0.28197845681E+02  0.29918805461E+02  0.51100000000E-03 0.  1.
<mgrwt>
<rscale>  0 0.20001642E+02</rscale>
<asrwt>0</asrwt>
<pdfrwt beam="1">  1        2 0.26481203E-03 0.20001642E+02</pdfrwt>
<pdfrwt beam="2">  1       -2 0.89393694E-02 0.20001642E+02</pdfrwt>
<totfact> 0.33126801E+06</totfact>
</mgrwt>
</event>
<event>
 5    1  0.4046313E-006  0.2000083E+02  0.7818608E-02  0.1745312E+00
          2   -1    0    0  501    0  0.00000000000E+00  0.00000000000E+00  0.16123584600E+02  0.16123584810E+02  0.26000000000E-02 0. -1.
         -2   -1    0    0    0  501 -0.00000000000E+00 -0.00000000000E+00 -0.62026103680E+01  0.62026109130E+01  0.26000000000E-02 0.  1.
       1023    2    1    2    0    0  0.00000000000E+00  0.00000000000E+00  0.99209742319E+01  0.22326195723E+02  0.20000832126E+02 0.  0.
        -11    1    3    3    0    0  0.59675434666E+01  0.80246144504E+01  0.50141266587E+01  0.11186933383E+02  0.51100000000E-03 0.  1.
         11    1    3    3    0    0 -0.59675434666E+01 -0.80246144504E+01  0.49068475733E+01  0.11139262340E+02  0.51100000000E-03 0. -1.
<mgrwt>
<rscale>  0 0.20000832E+02</rscale>
<asrwt>0</asrwt>
<pdfrwt beam="1">  1        2 0.24805515E-02 0.20000832E+02</pdfrwt>
<pdfrwt beam="2">  1       -2 0.95424782E-03 0.20000832E+02</pdfrwt>
<totfact> 0.40921677E+06</totfact>
</mgrwt>
</event>
<event>
 4    1  0.4046313E-006  0.2003689E+02  0.7818608E-02  0.1744595E+00
          2   -1    0    0  501    0  0.00000000000E+00  0.00000000000E+00  0.20536021291E+01  0.20536037750E+01  0.26000000000E-02 0. -1.
         -2   -1    0    0    0  501 -0.00000000000E+00 -0.00000000000E+00 -0.48874714536E+02  0.48874714605E+02  0.26000000000E-02 0.  1.
        -11    1    1    2    0    0 -0.10006987165E+02 -0.21289299460E-01 -0.24626915205E+02  0.26582422729E+02  0.51100000000E-03 0.  1.
         11    1    1    2    0    0  0.10006987165E+02  0.21289299460E-01 -0.22194197201E+02  0.24345895651E+02  0.51100000000E-03 0. -1.
<mgrwt>
<rscale>  0 0.20036892E+02</rscale>
<asrwt>0</asrwt>
<pdfrwt beam="1">  1        2 0.31593896E-03 0.20036892E+02</pdfrwt>
<pdfrwt beam="2">  1       -2 0.75191861E-02 0.20036892E+02</pdfrwt>
<totfact> 0.33872318E+06</totfact>
</mgrwt>
</event>
<event>
 5    1  0.4046313E-006  0.2000084E+02  0.7818608E-02  0.1745311E+00
          2   -1    0    0  501    0  0.00000000000E+00  0.00000000000E+00  0.25329676670E+02  0.25329676803E+02  0.26000000000E-02 0. -1.
         -2   -1    0    0    0  501 -0.00000000000E+00 -0.00000000000E+00 -0.39482712547E+01  0.39482721108E+01  0.26000000000E-02 0.  1.
       1023    2    1    2    0    0  0.00000000000E+00  0.00000000000E+00  0.21381405415E+02  0.29277948914E+02  0.20000844859E+02 0.  0.
        -11    1    3    3    0    0 -0.99610848353E+01 -0.88469005232E+00  0.10764780955E+02  0.14693073091E+02  0.51100000000E-03 0. -1.
         11    1    3    3    0    0  0.99610848353E+01  0.88469005232E+00  0.10616624460E+02  0.14584875823E+02  0.51100000000E-03 0.  1.
<mgrwt>
<rscale>  0 0.20000845E+02</rscale>
<asrwt>0</asrwt>
<pdfrwt beam="1">  1        2 0.38968735E-02 0.20000845E+02</pdfrwt>
<pdfrwt beam="2">  1       -2 0.60742642E-03 0.20000845E+02</pdfrwt>
<totfact> 0.42608070E+06</totfact>
</mgrwt>
</event>
<event>
 5    1  0.4046313E-006  0.2000029E+02  0.7818608E-02  0.1745322E+00
          2   -1    0    0  501    0  0.00000000000E+00  0.00000000000E+00  0.32543545500E+02  0.32543545603E+02  0.26000000000E-02 0.  1.
         -2   -1    0    0    0  501 -0.00000000000E+00 -0.00000000000E+00 -0.30728955215E+01  0.30728966215E+01  0.26000000000E-02 0. -1.
       1023    2    1    2    0    0  0.00000000000E+00  0.00000000000E+00  0.29470649978E+02  0.35616442225E+02  0.20000293664E+02 0.  0.
        -11    1    3    3    0    0 -0.27879392396E+01  0.96036086916E+01  0.14792512985E+02  0.17855541038E+02  0.51100000000E-03 0.  1.
         11    1    3    3    0    0  0.27879392396E+01 -0.96036086916E+01  0.14678136993E+02  0.17760901187E+02  0.51100000000E-03 0. -1.
<mgrwt>
<rscale>  0 0.20000294E+02</rscale>
<asrwt>0</asrwt>
<pdfrwt beam="1">  1        2 0.50066998E-02 0.20000294E+02</pdfrwt>
<pdfrwt beam="2">  1       -2 0.47275321E-03 0.20000294E+02</pdfrwt>
<totfact> 0.43770603E+06</totfact>
</mgrwt>
</event>
<event>
 5    1  0.4046313E-006  0.2000104E+02  0.7818608E-02  0.1745307E+00
         -2   -1    0    0    0  501 -0.00000000000E+00  0.00000000000E+00  0.33175529530E+02  0.33175529631E+02  0.26000000000E-02 0.  1.
          2   -1    0    0  501    0  0.00000000000E+00 -0.00000000000E+00 -0.30145815115E+01  0.30145826327E+01  0.26000000000E-02 0. -1.
       1023    2    1    2    0    0  0.00000000000E+00  0.00000000000E+00  0.30160948018E+02  0.36190112264E+02  0.20001035982E+02 0.  0.
        -11    1    3    3    0    0  0.23771908416E+01  0.97138630827E+01  0.15055695076E+02  0.18074405295E+02  0.51100000000E-03 0. -1.
         11    1    3    3    0    0 -0.23771908416E+01 -0.97138630827E+01  0.15105252942E+02  0.18115706969E+02  0.51100000000E-03 0.  1.
<mgrwt>
<rscale>  0 0.20001036E+02</rscale>
<asrwt>0</asrwt>
<pdfrwt beam="2">  1        2 0.46378182E-03 0.20001036E+02</pdfrwt>
<pdfrwt beam="1">  1       -2 0.51039282E-02 0.20001036E+02</pdfrwt>
<totfact> 0.35679554E+06</totfact>
</mgrwt>
</event>
<event>
 5    1  0.4046313E-006  0.2000044E+02  0.7818608E-02  0.1745319E+00
         -2   -1    0    0    0  501 -0.00000000000E+00  0.00000000000E+00  0.15456699508E+01  0.15456721375E+01  0.26000000000E-02 0.  1.
          2   -1    0    0  501    0  0.00000000000E+00 -0.00000000000E+00 -0.64699674085E+02  0.64699674137E+02  0.26000000000E-02 0. -1.
       1023    2    1    2    0    0  0.00000000000E+00  0.00000000000E+00 -0.63154004134E+02  0.66245346275E+02  0.20000441617E+02 0.  0.
        -11    1    3    3    0    0 -0.88756140665E+01 -0.46070420510E+01 -0.31760057153E+02  0.33297185950E+02  0.51100000000E-03 0.  1.
         11    1    3    3    0    0  0.88756140665E+01  0.46070420510E+01 -0.31393946981E+02  0.32948160325E+02  0.51100000000E-03 0. -1.
<mgrwt>
<rscale>  0 0.20000442E+02</rscale>
<asrwt>0</asrwt>
<pdfrwt beam="2">  1        2 0.99537941E-02 0.20000442E+02</pdfrwt>
<pdfrwt beam="1">  1       -2 0.23779560E-03 0.20000442E+02</pdfrwt>
<totfact> 0.48322266E+06</totfact>
</mgrwt>
</event>
<event>
 4    1  0.4046313E-006  0.2001834E+02  0.7818608E-02  0.1744964E+00
          2   -1    0    0  501    0  0.00000000000E+00  0.00000000000E+00  0.15048626553E+01  0.15048649014E+01  0.26000000000E-02 0.  1.
         -2   -1    0    0    0  501 -0.00000000000E+00 -0.00000000000E+00 -0.66573153597E+02  0.66573153648E+02  0.26000000000E-02 0. -1.
        -11    1    1    2    0    0  0.27365807048E+01  0.96276022904E+01 -0.32320929739E+02  0.33835219805E+02  0.51100000000E-03 0. -1.
         11    1    1    2    0    0 -0.27365807048E+01 -0.96276022904E+01 -0.32747361203E+02  0.34242798744E+02  0.51100000000E-03 0.  1.
<mgrwt>
<rscale>  0 0.20018345E+02</rscale>
<asrwt>0</asrwt>
<pdfrwt beam="1">  1        2 0.23151756E-03 0.20018345E+02</pdfrwt>
<pdfrwt beam="2">  1       -2 0.10242022E-01 0.20018345E+02</pdfrwt>
<totfact> 0.32312568E+06</totfact>
</mgrwt>
</event>
<event>
 5    1  0.4849765E-006  0.2000158E+02  0.7818608E-02  0.1745297E+00
         -2   -1    0    0    0  501 -0.00000000000E+00  0.00000000000E+00  0.28329073605E+01  0.28329085536E+01  0.26000000000E-02 0.  1.
          2   -1    0    0  501    0  0.00000000000E+00 -0.00000000000E+00 -0.35304997790E+02  0.35304997886E+02  0.26000000000E-02 0. -1.
       1023    2    1    2    0    0  0.00000000000E+00  0.00000000000E+00 -0.32472090430E+02  0.38137906439E+02  0.20001581205E+02 0.  0.
        -11    1    3    3    0    0 -0.99934934069E+01  0.37503267176E+00 -0.16097856368E+02  0.18951293884E+02  0.51100000000E-03 0. -1.
         11    1    3    3    0    0  0.99934934069E+01 -0.37503267176E+00 -0.16374234062E+02  0.19186612556E+02  0.51100000000E-03 0.  1.
<mgrwt>
<rscale>  0 0.20001581E+02</rscale>
<asrwt>0</asrwt>
<pdfrwt beam="2">  1        2 0.54315379E-02 0.20001581E+02</pdfrwt>
<pdfrwt beam="1">  1       -2 0.43583203E-03 0.20001581E+02</pdfrwt>
<totfact> 0.44187597E+06</totfact>
</mgrwt>
</event>
<event>
 5    1  0.4046313E-006  0.2000504E+02  0.7818608E-02  0.1745228E+00
         -2   -1    0    0    0  501 -0.00000000000E+00  0.00000000000E+00  0.12695566924E+02  0.12695567190E+02  0.26000000000E-02 0.  1.
          2   -1    0    0  501    0  0.00000000000E+00 -0.00000000000E+00 -0.78807374826E+01  0.78807379115E+01  0.26000000000E-02 0. -1.
       1023    2    1    2    0    0  0.00000000000E+00  0.00000000000E+00  0.48148294414E+01  0.20576305102E+02  0.20005043091E+02 0.  0.
        -11    1    3    3    0    0 -0.45618366655E+01 -0.89016415801E+01  0.23772440304E+01  0.10281092647E+02  0.51100000000E-03 0. -1.
         11    1    3    3    0    0  0.45618366655E+01  0.89016415801E+01  0.24375854110E+01  0.10295212454E+02  0.51100000000E-03 0.  1.
<mgrwt>
<rscale>  0 0.20005043E+02</rscale>
<asrwt>0</asrwt>
<pdfrwt beam="2">  1        2 0.12124212E-02 0.20005043E+02</pdfrwt>
<pdfrwt beam="1">  1       -2 0.19531642E-02 0.20005043E+02</pdfrwt>
<totfact> 0.38757598E+06</totfact>
</mgrwt>
</event>
<event>
 5    1  0.4046313E-006  0.2000327E+02  0.7818608E-02  0.1745263E+00
          2   -1    0    0  501    0  0.00000000000E+00  0.00000000000E+00  0.17573711961E+01  0.17573731194E+01  0.26000000000E-02 0.  1.
         -2   -1    0    0    0  501 -0.00000000000E+00 -0.00000000000E+00 -0.56921773675E+02  0.56921773734E+02  0.26000000000E-02 0. -1.
       1023    2    1    2    0    0  0.00000000000E+00  0.00000000000E+00 -0.55164402478E+02  0.58679146853E+02  0.20003274098E+02 0.  0.
        -11    1    3    3    0    0  0.79025187803E+01  0.61298247992E+01 -0.27847648613E+02  0.29589121120E+02  0.51100000000E-03 0. -1.
         11    1    3    3    0    0 -0.79025187803E+01 -0.61298247992E+01 -0.27316753866E+02  0.29090025733E+02  0.51100000000E-03 0.  1.
<mgrwt>
<rscale>  0 0.20003274E+02</rscale>
<asrwt>0</asrwt>
<pdfrwt beam="1">  1        2 0.27036500E-03 0.20003274E+02</pdfrwt>
<pdfrwt beam="2">  1       -2 0.87571947E-02 0.20003274E+02</pdfrwt>
<totfact> 0.33229872E+06</totfact>
</mgrwt>
</event>
<event>
 5    1  0.4046313E-006  0.2000032E+02  0.7818608E-02  0.1745322E+00
         -2   -1    0    0    0  501 -0.00000000000E+00  0.00000000000E+00  0.64599915430E+02  0.64599915482E+02  0.26000000000E-02 0. -1.
          2   -1    0    0  501    0  0.00000000000E+00 -0.00000000000E+00 -0.15480380956E+01  0.15480402790E+01  0.26000000000E-02 0.  1.
       1023    2    1    2    0    0  0.00000000000E+00  0.00000000000E+00  0.63051877334E+02  0.66147955761E+02  0.20000320397E+02 0.  0.
        -11    1    3    3    0    0 -0.31706740459E+01 -0.94841989116E+01  0.31528965314E+02  0.33076862864E+02  0.51100000000E-03 0. -1.
         11    1    3    3    0    0  0.31706740459E+01  0.94841989116E+01  0.31522912020E+02  0.33071092897E+02  0.51100000000E-03 0.  1.
<mgrwt>
<rscale>  0 0.20000320E+02</rscale>
<asrwt>0</asrwt>
<pdfrwt beam="2">  1        2 0.23815984E-03 0.20000320E+02</pdfrwt>
<pdfrwt beam="1">  1       -2 0.99384503E-02 0.20000320E+02</pdfrwt>
<totfact> 0.32548471E+06</totfact>
</mgrwt>
</event>
<event>
 5    1  0.4046313E-006  0.2000040E+02  0.7818608E-02  0.1745320E+00
          2   -1    0    0  501    0  0.00000000000E+00  0.00000000000E+00  0.13408074915E+01  0.13408100124E+01  0.26000000000E-02 0.  1.
         -2   -1    0    0    0  501 -0.00000000000E+00 -0.00000000000E+00 -0.74584841392E+02  0.74584841437E+02  0.26000000000E-02 0. -1.
       1023    2    1    2    0    0  0.00000000000E+00  0.00000000000E+00 -0.73244033900E+02  0.75925651449E+02  0.20000401147E+02 0.  0.
        -11    1    3    3    0    0  0.87700656942E+01  0.48049639719E+01 -0.36440742735E+02  0.37787953932E+02  0.51100000000E-03 0. -1.
         11    1    3    3    0    0 -0.87700656942E+01 -0.48049639719E+01 -0.36803291165E+02  0.38137697517E+02  0.51100000000E-03 0.  1.
<mgrwt>
<rscale>  0 0.20000401E+02</rscale>
<asrwt>0</asrwt>
<pdfrwt beam="1">  1        2 0.20627833E-03 0.20000401E+02</pdfrwt>
<pdfrwt beam="2">  1       -2 0.11474588E-01 0.20000401E+02</pdfrwt>
<totfact> 0.31697539E+06</totfact>
</mgrwt>
</event>
<event>
 5    1  0.4071317E-006  0.2000300E+02  0.7818608E-02  0.1745268E+00
          2   -1    0    0  501    0  0.00000000000E+00  0.00000000000E+00  0.33868330742E+02  0.33868330842E+02  0.26000000000E-02 0. -1.
         -2   -1    0    0    0  501 -0.00000000000E+00 -0.00000000000E+00 -0.29534966318E+01  0.29534977762E+01  0.26000000000E-02 0.  1.
       1023    2    1    2    0    0  0.00000000000E+00  0.00000000000E+00  0.30914834111E+02  0.36821828618E+02  0.20003002143E+02 0.  0.
        -11    1    3    3    0    0  0.89998950109E+01  0.43591586530E+01  0.15774385152E+02  0.18677034067E+02  0.51100000000E-03 0. -1.
         11    1    3    3    0    0 -0.89998950109E+01 -0.43591586530E+01  0.15140448959E+02  0.18144794551E+02  0.51100000000E-03 0.  1.
<mgrwt>
<rscale>  0 0.20003002E+02</rscale>
<asrwt>0</asrwt>
<pdfrwt beam="1">  1        2 0.52105127E-02 0.20003002E+02</pdfrwt>
<pdfrwt beam="2">  1       -2 0.45438417E-03 0.20003002E+02</pdfrwt>
<totfact> 0.43961501E+06</totfact>
</mgrwt>
</event>
<event>
 5    1  0.4046313E-006  0.2000025E+02  0.7818608E-02  0.1745323E+00
         -2   -1    0    0    0  501 -0.00000000000E+00  0.00000000000E+00  0.10574135108E+03  0.10574135111E+03  0.26000000000E-02 0. -1.
          2   -1    0    0  501    0  0.00000000000E+00 -0.00000000000E+00 -0.94572611970E+00  0.94572969367E+00  0.26000000000E-02 0.  1.
       1023    2    1    2    0    0  0.00000000000E+00  0.00000000000E+00  0.10479562496E+03  0.10668708080E+03  0.20000254998E+02 0.  0.
        -11    1    3    3    0    0  0.50901109132E+01 -0.86076966736E+01  0.52555927230E+02  0.53498851935E+02  0.51100000000E-03 0. -1.
         11    1    3    3    0    0 -0.50901109132E+01  0.86076966736E+01  0.52239697726E+02  0.53188228866E+02  0.51100000000E-03 0.  1.
<mgrwt>
<rscale>  0 0.20000255E+02</rscale>
<asrwt>0</asrwt>
<pdfrwt beam="2">  1        2 0.14549667E-03 0.20000255E+02</pdfrwt>
<pdfrwt beam="1">  1       -2 0.16267892E-01 0.20000255E+02</pdfrwt>
<totfact> 0.29318181E+06</totfact>
</mgrwt>
</event>
<event>
 5    1  0.4046313E-006  0.2000515E+02  0.7818608E-02  0.1745226E+00
          2   -1    0    0  501    0  0.00000000000E+00  0.00000000000E+00  0.96221268110E+02  0.96221268146E+02  0.26000000000E-02 0.  1.
         -2   -1    0    0    0  501 -0.00000000000E+00 -0.00000000000E+00 -0.10398047404E+01  0.10398079910E+01  0.26000000000E-02 0. -1.
       1023    2    1    2    0    0  0.00000000000E+00  0.00000000000E+00  0.95181463370E+02  0.97261076137E+02  0.20005148386E+02 0.  0.
        -11    1    3    3    0    0  0.99093020439E+01  0.13616318460E+01  0.47316483421E+02  0.48362153714E+02  0.51100000000E-03 0.  1.
         11    1    3    3    0    0 -0.99093020439E+01 -0.13616318460E+01  0.47864979950E+02  0.48898922423E+02  0.51100000000E-03 0. -1.
<mgrwt>
<rscale>  0 0.20005148E+02</rscale>
<asrwt>0</asrwt>
<pdfrwt beam="1">  1        2 0.14803274E-01 0.20005148E+02</pdfrwt>
<pdfrwt beam="2">  1       -2 0.15997020E-03 0.20005148E+02</pdfrwt>
<totfact> 0.52273524E+06</totfact>
</mgrwt>
</event>
<event>
 5    1  0.4046313E-006  0.2000473E+02  0.7818608E-02  0.1745234E+00
          2   -1    0    0  501    0  0.00000000000E+00  0.00000000000E+00  0.26613792103E+02  0.26613792230E+02  0.26000000000E-02 0.  1.
         -2   -1    0    0    0  501 -0.00000000000E+00 -0.00000000000E+00 -0.37592268759E+01  0.37592277750E+01  0.26000000000E-02 0. -1.
       1023    2    1    2    0    0  0.00000000000E+00  0.00000000000E+00  0.22854565227E+02  0.30373020005E+02  0.20004729253E+02 0.  0.
        -11    1    3    3    0    0 -0.86737225081E+01 -0.49807161548E+01  0.11306749909E+02  0.15095813636E+02  0.51100000000E-03 0. -1.
         11    1    3    3    0    0  0.86737225081E+01  0.49807161548E+01  0.11547815318E+02  0.15277206369E+02  0.51100000000E-03 0.  1.
<mgrwt>
<rscale>  0 0.20004729E+02</rscale>
<asrwt>0</asrwt>
<pdfrwt beam="1">  1        2 0.40944297E-02 0.20004729E+02</pdfrwt>
<pdfrwt beam="2">  1       -2 0.57834266E-03 0.20004729E+02</pdfrwt>
<totfact> 0.42803072E+06</totfact>
</mgrwt>
</event>
<event>
 5    1  0.4046313E-006  0.2000783E+02  0.7818608E-02  0.1745172E+00
         -2   -1    0    0    0  501 -0.00000000000E+00  0.00000000000E+00  0.44006895033E+01  0.44006902714E+01  0.26000000000E-02 0. -1.
          2   -1    0    0  501    0  0.00000000000E+00 -0.00000000000E+00 -0.22741496968E+02  0.22741497116E+02  0.26000000000E-02 0.  1.
       1023    2    1    2    0    0  0.00000000000E+00  0.00000000000E+00 -0.18340807464E+02  0.27142187388E+02  0.20007826412E+02 0.  0.
        -11    1    3    3    0    0  0.78181739576E+01  0.62372949430E+01 -0.94755191315E+01  0.13777269516E+02  0.51100000000E-03 0. -1.
         11    1    3    3    0    0 -0.78181739576E+01 -0.62372949430E+01 -0.88652883327E+01  0.13364917872E+02  0.51100000000E-03 0.  1.
<mgrwt>
<rscale>  0 0.20007826E+02</rscale>
<asrwt>0</asrwt>
<pdfrwt beam="2">  1        2 0.34986919E-02 0.20007826E+02</pdfrwt>
<pdfrwt beam="1">  1       -2 0.67702924E-03 0.20007826E+02</pdfrwt>
<totfact> 0.42132161E+06</totfact>
</mgrwt>
</event>
<event>
 5    1  0.4046313E-006  0.2000019E+02  0.7818608E-02  0.1745324E+00
          2   -1    0    0  501    0  0.00000000000E+00  0.00000000000E+00  0.15044720255E+02  0.15044720480E+02  0.26000000000E-02 0. -1.
         -2   -1    0    0    0  501 -0.00000000000E+00 -0.00000000000E+00 -0.66469726385E+01  0.66469731470E+01  0.26000000000E-02 0.  1.
       1023    2    1    2    0    0  0.00000000000E+00  0.00000000000E+00  0.83977476166E+01  0.21691693627E+02  0.20000185183E+02 0.  0.
        -11    1    3    3    0    0  0.90416894107E+01  0.42718725986E+01  0.41680314119E+01  0.10833906452E+02  0.51100000000E-03 0.  1.
         11    1    3    3    0    0 -0.90416894107E+01 -0.42718725986E+01  0.42297162047E+01  0.10857787175E+02  0.51100000000E-03 0. -1.
<mgrwt>
<rscale>  0 0.20000185E+02</rscale>
<asrwt>0</asrwt>
<pdfrwt beam="1">  1        2 0.23145724E-02 0.20000185E+02</pdfrwt>
<pdfrwt beam="2">  1       -2 0.10226112E-02 0.20000185E+02</pdfrwt>
<totfact> 0.40698311E+06</totfact>
</mgrwt>
</event>
<event>
 5    1  0.4046313E-006  0.2000013E+02  0.7818608E-02  0.1745326E+00
         -2   -1    0    0    0  501 -0.00000000000E+00  0.00000000000E+00  0.11942839872E+03  0.11942839875E+03  0.26000000000E-02 0.  1.
          2   -1    0    0  501    0  0.00000000000E+00 -0.00000000000E+00 -0.83733030205E+00  0.83733433868E+00  0.26000000000E-02 0. -1.
       1023    2    1    2    0    0  0.00000000000E+00  0.00000000000E+00  0.11859106842E+03  0.12026573308E+03  0.20000126160E+02 0.  0.
        -11    1    3    3    0    0 -0.93845867428E+01  0.34539447500E+01  0.59491189245E+02  0.60325797141E+02  0.51100000000E-03 0.  1.
         11    1    3    3    0    0  0.93845867428E+01 -0.34539447500E+01  0.59099879170E+02  0.59939935943E+02  0.51100000000E-03 0. -1.
<mgrwt>
<rscale>  0 0.20000126E+02</rscale>
<asrwt>0</asrwt>
<pdfrwt beam="2">  1        2 0.12882039E-03 0.20000126E+02</pdfrwt>
<pdfrwt beam="1">  1       -2 0.18373595E-01 0.20000126E+02</pdfrwt>
<totfact> 0.28378755E+06</totfact>
</mgrwt>
</event>
<event>
 5    1  0.4046313E-006  0.2000109E+02  0.7818608E-02  0.1745306E+00
          2   -1    0    0  501    0  0.00000000000E+00  0.00000000000E+00  0.16808791595E+01  0.16808811704E+01  0.26000000000E-02 0.  1.
         -2   -1    0    0    0  501 -0.00000000000E+00 -0.00000000000E+00 -0.59499117242E+02  0.59499117298E+02  0.26000000000E-02 0. -1.
       1023    2    1    2    0    0  0.00000000000E+00  0.00000000000E+00 -0.57818238082E+02  0.61179998469E+02  0.20001088913E+02 0.  0.
        -11    1    3    3    0    0  0.23123221341E+01  0.97294545191E+01 -0.28780419590E+02  0.30468371648E+02  0.51100000000E-03 0.  1.
         11    1    3    3    0    0 -0.23123221341E+01 -0.97294545191E+01 -0.29037818493E+02  0.30711626820E+02  0.51100000000E-03 0. -1.
<mgrwt>
<rscale>  0 0.20001089E+02</rscale>
<asrwt>0</asrwt>
<pdfrwt beam="1">  1        2 0.25859700E-03 0.20001089E+02</pdfrwt>
<pdfrwt beam="2">  1       -2 0.91537089E-02 0.20001089E+02</pdfrwt>
<totfact> 0.33001516E+06</totfact>
</mgrwt>
</event>
<event>
 4    1  0.4046313E-006  0.2002432E+02  0.7818608E-02  0.1744845E+00
         -2   -1    0    0    0  501 -0.00000000000E+00  0.00000000000E+00  0.13990074629E+02  0.13990074871E+02  0.26000000000E-02 0.  1.
          2   -1    0    0  501    0  0.00000000000E+00 -0.00000000000E+00 -0.71653213194E+01  0.71653217911E+01  0.26000000000E-02 0. -1.
        -11    1    1    2    0    0 -0.78370851467E+01 -0.62305523297E+01  0.33481014088E+01  0.10556963069E+02  0.51100000000E-03 0.  1.
         11    1    1    2    0    0  0.78370851467E+01  0.62305523297E+01  0.34766519011E+01  0.10598433593E+02  0.51100000000E-03 0. -1.
<mgrwt>
<rscale>  0 0.20024324E+02</rscale>
<asrwt>0</asrwt>
<pdfrwt beam="2">  1        2 0.11023572E-02 0.20024324E+02</pdfrwt>
<pdfrwt beam="1">  1       -2 0.21523192E-02 0.20024324E+02</pdfrwt>
<totfact> 0.38398856E+06</totfact>
</mgrwt>
</event>
<event>
 5    1  0.4046313E-006  0.2000106E+02  0.7818608E-02  0.1745307E+00
         -2   -1    0    0    0  501 -0.00000000000E+00  0.00000000000E+00  0.14988886438E+02  0.14988886664E+02  0.26000000000E-02 0.  1.
          2   -1    0    0  501    0  0.00000000000E+00 -0.00000000000E+00 -0.66723196980E+01  0.66723202045E+01  0.26000000000E-02 0. -1.
       1023    2    1    2    0    0  0.00000000000E+00  0.00000000000E+00  0.83165667404E+01  0.21661206868E+02  0.20001064988E+02 0.  0.
        -11    1    3    3    0    0 -0.48197142845E+01 -0.87623726970E+01  0.41119688866E+01  0.10812821531E+02  0.51100000000E-03 0.  1.
         11    1    3    3    0    0  0.48197142845E+01  0.87623726970E+01  0.42045978538E+01  0.10848385338E+02  0.51100000000E-03 0. -1.
<mgrwt>
<rscale>  0 0.20001065E+02</rscale>
<asrwt>0</asrwt>
<pdfrwt beam="2">  1        2 0.10265108E-02 0.20001065E+02</pdfrwt>
<pdfrwt beam="1">  1       -2 0.23059826E-02 0.20001065E+02</pdfrwt>
<totfact> 0.38295392E+06</totfact>
</mgrwt>
</event>
<event>
 5    1  0.4046313E-006  0.2000192E+02  0.7818608E-02  0.1745290E+00
         -2   -1    0    0    0  501 -0.00000000000E+00  0.00000000000E+00  0.82358882830E+01  0.82358886934E+01  0.26000000000E-02 0. -1.
          2   -1    0    0  501    0  0.00000000000E+00 -0.00000000000E+00 -0.12144311040E+02  0.12144311318E+02  0.26000000000E-02 0.  1.
       1023    2    1    2    0    0  0.00000000000E+00  0.00000000000E+00 -0.39084227570E+01  0.20380200012E+02  0.20001919510E+02 0.  0.
        -11    1    3    3    0    0 -0.66048942954E+01  0.75083592032E+01 -0.18133610742E+01  0.10163088370E+02  0.51100000000E-03 0. -1.
         11    1    3    3    0    0  0.66048942954E+01 -0.75083592032E+01 -0.20950616829E+01  0.10217111641E+02  0.51100000000E-03 0.  1.
<mgrwt>
<rscale>  0 0.20001920E+02</rscale>
<asrwt>0</asrwt>
<pdfrwt beam="2">  1        2 0.18683556E-02 0.20001920E+02</pdfrwt>
<pdfrwt beam="1">  1       -2 0.12670598E-02 0.20001920E+02</pdfrwt>
<totfact> 0.40025845E+06</totfact>
</mgrwt>
</event>
<event>
 5    1  0.4046313E-006  0.2000406E+02  0.7818608E-02  0.1745247E+00
         -2   -1    0    0    0  501 -0.00000000000E+00  0.00000000000E+00  0.10166948507E+01  0.10166981752E+01  0.26000000000E-02 0.  1.
          2   -1    0    0  501    0  0.00000000000E+00 -0.00000000000E+00 -0.98397710748E+02  0.98397710782E+02  0.26000000000E-02 0. -1.
       1023    2    1    2    0    0  0.00000000000E+00  0.00000000000E+00 -0.97381015897E+02  0.99414408958E+02  0.20004060867E+02 0.  0.
        -11    1    3    3    0    0  0.20242230953E+01 -0.97950268670E+01 -0.48570607907E+02  0.49589756837E+02  0.51100000000E-03 0.  1.
         11    1    3    3    0    0 -0.20242230953E+01  0.97950268670E+01 -0.48810407990E+02  0.49824652120E+02  0.51100000000E-03 0. -1.
<mgrwt>
<rscale>  0 0.20004061E+02</rscale>
<asrwt>0</asrwt>
<pdfrwt beam="2">  1        2 0.15138102E-01 0.20004061E+02</pdfrwt>
<pdfrwt beam="1">  1       -2 0.15641493E-03 0.20004061E+02</pdfrwt>
<totfact> 0.52542129E+06</totfact>
</mgrwt>
</event>
<event>
 5    1  0.4046313E-006  0.2000183E+02  0.7818608E-02  0.1745292E+00
          2   -1    0    0  501    0  0.00000000000E+00  0.00000000000E+00  0.82376006387E+00  0.82376416699E+00  0.26000000000E-02 0.  1.
         -2   -1    0    0    0  501 -0.00000000000E+00 -0.00000000000E+00 -0.12141648987E+03  0.12141648990E+03  0.26000000000E-02 0. -1.
       1023    2    1    2    0    0  0.00000000000E+00  0.00000000000E+00 -0.12059272981E+03  0.12224025407E+03  0.20001830710E+02 0.  0.
        -11    1    3    3    0    0 -0.10000001352E+02 -0.13252919445E+00 -0.60132760508E+02  0.60958727658E+02  0.51100000000E-03 0.  1.
         11    1    3    3    0    0  0.10000001352E+02  0.13252919445E+00 -0.60459969298E+02  0.61281526408E+02  0.51100000000E-03 0. -1.
<mgrwt>
<rscale>  0 0.20001831E+02</rscale>
<asrwt>0</asrwt>
<pdfrwt beam="1">  1        2 0.12673273E-03 0.20001831E+02</pdfrwt>
<pdfrwt beam="2">  1       -2 0.18679446E-01 0.20001831E+02</pdfrwt>
<totfact> 0.28241638E+06</totfact>
</mgrwt>
</event>
<event>
 5    1  0.4147743E-006  0.2000069E+02  0.7818608E-02  0.1745314E+00
          2   -1    0    0  501    0  0.00000000000E+00  0.00000000000E+00  0.85682195434E+02  0.85682195474E+02  0.26000000000E-02 0. -1.
         -2   -1    0    0    0  501 -0.00000000000E+00 -0.00000000000E+00 -0.11671825773E+01  0.11671854732E+01  0.26000000000E-02 0.  1.
       1023    2    1    2    0    0  0.00000000000E+00  0.00000000000E+00  0.84515012857E+02  0.86849380947E+02  0.20000689304E+02 0.  0.
        -11    1    3    3    0    0 -0.64443157096E+01  0.76470178395E+01  0.42134219966E+02  0.43304717748E+02  0.51100000000E-03 0. -1.
         11    1    3    3    0    0  0.64443157096E+01 -0.76470178395E+01  0.42380792891E+02  0.43544663199E+02  0.51100000000E-03 0.  1.
<mgrwt>
<rscale>  0 0.20000689E+02</rscale>
<asrwt>0</asrwt>
<pdfrwt beam="1">  1        2 0.13181885E-01 0.20000689E+02</pdfrwt>
<pdfrwt beam="2">  1       -2 0.17956666E-03 0.20000689E+02</pdfrwt>
<totfact> 0.51006943E+06</totfact>
</mgrwt>
</event>
<event>
 5    1  0.4046313E-006  0.2000143E+02  0.7818608E-02  0.1745300E+00
         -2   -1    0    0    0  501 -0.00000000000E+00  0.00000000000E+00  0.83596209454E+01  0.83596213498E+01  0.26000000000E-02 0. -1.
          2   -1    0    0  501    0  0.00000000000E+00 -0.00000000000E+00 -0.11963977327E+02  0.11963977609E+02  0.26000000000E-02 0.  1.
       1023    2    1    2    0    0  0.00000000000E+00  0.00000000000E+00 -0.36043563813E+01  0.20323598959E+02  0.20001432192E+02 0.  0.
        -11    1    3    3    0    0  0.26039708469E+01 -0.96557103684E+01 -0.17714372769E+01  0.10156347630E+02  0.51100000000E-03 0.  1.
         11    1    3    3    0    0 -0.26039708469E+01  0.96557103684E+01 -0.18329191044E+01  0.10167251329E+02  0.51100000000E-03 0. -1.
<mgrwt>
<rscale>  0 0.20001432E+02</rscale>
<asrwt>0</asrwt>
<pdfrwt beam="2">  1        2 0.18406119E-02 0.20001432E+02</pdfrwt>
<pdfrwt beam="1">  1       -2 0.12860956E-02 0.20001432E+02</pdfrwt>
<totfact> 0.39983216E+06</totfact>
</mgrwt>
</event>
<event>
 4    1  0.4046313E-006  0.2001537E+02  0.7818608E-02  0.1745023E+00
          2   -1    0    0  501    0  0.00000000000E+00  0.00000000000E+00  0.48513791561E+02  0.48513791631E+02  0.26000000000E-02 0.  1.
         -2   -1    0    0    0  501 -0.00000000000E+00 -0.00000000000E+00 -0.20644379222E+01  0.20644395595E+01  0.26000000000E-02 0. -1.
        -11    1    1    2    0    0 -0.95788904641E+01  0.28886845270E+01  0.23812506307E+02  0.25828958510E+02  0.51100000000E-03 0.  1.
         11    1    1    2    0    0  0.95788904641E+01 -0.28886845270E+01  0.22636847332E+02  0.24749272680E+02  0.51100000000E-03 0. -1.
<mgrwt>
<rscale>  0 0.20015370E+02</rscale>
<asrwt>0</asrwt>
<pdfrwt beam="1">  1        2 0.74636597E-02 0.20015370E+02</pdfrwt>
<pdfrwt beam="2">  1       -2 0.31760599E-03 0.20015370E+02</pdfrwt>
<totfact> 0.46040866E+06</totfact>
</mgrwt>
</event>
<event>
 5    1  0.4046313E-006  0.2000011E+02  0.7818608E-02  0.1745326E+00
         -2   -1    0    0    0  501 -0.00000000000E+00  0.00000000000E+00  0.11862707245E+02  0.11862707530E+02  0.26000000000E-02 0. -1.
          2   -1    0    0  501    0  0.00000000000E+00 -0.00000000000E+00 -0.84298713039E+01  0.84298717048E+01  0.26000000000E-02 0.  1.
       1023    2    1    2    0    0  0.00000000000E+00  0.00000000000E+00  0.34328359415E+01  0.20292579235E+02  0.20000110235E+02 0.  0.
        -11    1    3    3    0    0  0.99932171888E+01  0.36942364789E+00  0.17007494186E+01  0.10143639015E+02  0.51100000000E-03 0.  1.
         11    1    3    3    0    0 -0.99932171888E+01 -0.36942364789E+00  0.17320865230E+01  0.10148940220E+02  0.51100000000E-03 0. -1.
<mgrwt>
<rscale>  0 0.20000110E+02</rscale>
<asrwt>0</asrwt>
<pdfrwt beam="2">  1        2 0.12969033E-02 0.20000110E+02</pdfrwt>
<pdfrwt beam="1">  1       -2 0.18250320E-02 0.20000110E+02</pdfrwt>
<totfact> 0.38972299E+06</totfact>
</mgrwt>
</event>
<event>
 5    1  0.4046313E-006  0.2000024E+02  0.7818608E-02  0.1745323E+00
         -2   -1    0    0    0  501 -0.00000000000E+00  0.00000000000E+00  0.25557091322E+02  0.25557091454E+02  0.26000000000E-02 0. -1.
          2   -1    0    0  501    0  0.00000000000E+00 -0.00000000000E+00 -0.39129007719E+01  0.39129016357E+01  0.26000000000E-02 0.  1.
       1023    2    1    2    0    0  0.00000000000E+00  0.00000000000E+00  0.21644190550E+02  0.29469993090E+02  0.20000237702E+02 0.  0.
        -11    1    3    3    0    0 -0.97612461319E+01 -0.21724752587E+01  0.10780367391E+02  0.14704349565E+02  0.51100000000E-03 0. -1.
         11    1    3    3    0    0  0.97612461319E+01  0.21724752587E+01  0.10863823159E+02  0.14765643524E+02  0.51100000000E-03 0.  1.
<mgrwt>
<rscale>  0 0.20000238E+02</rscale>
<asrwt>0</asrwt>
<pdfrwt beam="2">  1        2 0.60198483E-03 0.20000238E+02</pdfrwt>
<pdfrwt beam="1">  1       -2 0.39318601E-02 0.20000238E+02</pdfrwt>
<totfact> 0.36632901E+06</totfact>
</mgrwt>
</event>
<event>
 5    1  0.4046313E-006  0.2000025E+02  0.7818608E-02  0.1745323E+00
          2   -1    0    0  501    0  0.00000000000E+00  0.00000000000E+00  0.52413053039E+02  0.52413053103E+02  0.26000000000E-02 0.  1.
         -2   -1    0    0    0  501 -0.00000000000E+00 -0.00000000000E+00 -0.19079687594E+01  0.19079705309E+01  0.26000000000E-02 0. -1.
       1023    2    1    2    0    0  0.00000000000E+00  0.00000000000E+00  0.50505084279E+02  0.54321023634E+02  0.20000251763E+02 0.  0.
        -11    1    3    3    0    0 -0.41406428493E+01 -0.91026075242E+01  0.25221521990E+02  0.27131670769E+02  0.51100000000E-03 0. -1.
         11    1    3    3    0    0  0.41406428493E+01  0.91026075242E+01  0.25283562289E+02  0.27189352865E+02  0.51100000000E-03 0.  1.
<mgrwt>
<rscale>  0 0.20000252E+02</rscale>
<asrwt>0</asrwt>
<pdfrwt beam="1">  1        2 0.80635464E-02 0.20000252E+02</pdfrwt>
<pdfrwt beam="2">  1       -2 0.29353381E-03 0.20000252E+02</pdfrwt>
<totfact> 0.46662254E+06</totfact>
</mgrwt>
</event>
<event>
 5    1  0.4046313E-006  0.2000028E+02  0.7818608E-02  0.1745322E+00
         -2   -1    0    0    0  501 -0.00000000000E+00  0.00000000000E+00  0.16014609157E+01  0.16014630263E+01  0.26000000000E-02 0.  1.
          2   -1    0    0  501    0  0.00000000000E+00 -0.00000000000E+00 -0.62444712647E+02  0.62444712701E+02  0.26000000000E-02 0. -1.
       1023    2    1    2    0    0  0.00000000000E+00  0.00000000000E+00 -0.60843251731E+02  0.64046175727E+02  0.20000283600E+02 0.  0.
        -11    1    3    3    0    0 -0.58689860404E+01 -0.80966395634E+01 -0.30269176762E+02  0.31878262680E+02  0.51100000000E-03 0. -1.
         11    1    3    3    0    0  0.58689860404E+01  0.80966395634E+01 -0.30574074969E+02  0.32167913048E+02  0.51100000000E-03 0.  1.
<mgrwt>
<rscale>  0 0.20000284E+02</rscale>
<asrwt>0</asrwt>
<pdfrwt beam="2">  1        2 0.96068772E-02 0.20000284E+02</pdfrwt>
<pdfrwt beam="1">  1       -2 0.24637882E-03 0.20000284E+02</pdfrwt>
<totfact> 0.48023606E+06</totfact>
</mgrwt>
</event>
<event>
 5    1  0.4046313E-006  0.2000050E+02  0.7818608E-02  0.1745318E+00
          2   -1    0    0  501    0  0.00000000000E+00  0.00000000000E+00  0.31970908714E+01  0.31970919287E+01  0.26000000000E-02 0.  1.
         -2   -1    0    0    0  501 -0.00000000000E+00 -0.00000000000E+00 -0.31279998145E+02  0.31279998253E+02  0.26000000000E-02 0. -1.
       1023    2    1    2    0    0  0.00000000000E+00  0.00000000000E+00 -0.28082907274E+02  0.34477090182E+02  0.20000501655E+02 0.  0.
        -11    1    3    3    0    0 -0.38987921971E+00 -0.99924396133E+01 -0.14152651140E+02  0.17329119706E+02  0.51100000000E-03 0.  1.
         11    1    3    3    0    0  0.38987921971E+00  0.99924396133E+01 -0.13930256134E+02  0.17147970476E+02  0.51100000000E-03 0. -1.
<mgrwt>
<rscale>  0 0.20000502E+02</rscale>
<asrwt>0</asrwt>
<pdfrwt beam="1">  1        2 0.49186024E-03 0.20000502E+02</pdfrwt>
<pdfrwt beam="2">  1       -2 0.48123073E-02 0.20000502E+02</pdfrwt>
<totfact> 0.35906585E+06</totfact>
</mgrwt>
</event>
<event>
 5    1  0.4046313E-006  0.2000231E+02  0.7818608E-02  0.1745282E+00
          2   -1    0    0  501    0  0.00000000000E+00  0.00000000000E+00  0.30507897881E+02  0.30507897991E+02  0.26000000000E-02 0. -1.
         -2   -1    0    0    0  501 -0.00000000000E+00 -0.00000000000E+00 -0.32785951645E+01  0.32785961954E+01  0.26000000000E-02 0.  1.
       1023    2    1    2    0    0  0.00000000000E+00  0.00000000000E+00  0.27229302716E+02  0.33786494187E+02  0.20002306443E+02 0.  0.
        -11    1    3    3    0    0 -0.58147334420E+01 -0.81366486236E+01  0.13474446754E+02  0.16780253020E+02  0.51100000000E-03 0.  1.
         11    1    3    3    0    0  0.58147334420E+01  0.81366486236E+01  0.13754855963E+02  0.17006241167E+02  0.51100000000E-03 0. -1.
<mgrwt>
<rscale>  0 0.20002306E+02</rscale>
<asrwt>0</asrwt>
<pdfrwt beam="1">  1        2 0.46935230E-02 0.20002306E+02</pdfrwt>
<pdfrwt beam="2">  1       -2 0.50439932E-03 0.20002306E+02</pdfrwt>
<totfact> 0.43442397E+06</totfact>
</mgrwt>
</event>
<event>
 5    1  0.4046313E-006  0.2000093E+02  0.7818608E-02  0.1745310E+00
          2   -1    0    0  501    0  0.00000000000E+00  0.00000000000E+00  0.40816942196E+01  0.40816950477E+01  0.26000000000E-02 0. -1.
         -2   -1    0    0    0  501 -0.00000000000E+00 -0.00000000000E+00 -0.24501900068E+02  0.24501900206E+02  0.26000000000E-02 0.  1.
       1023    2    1    2    0    0  0.00000000000E+00  0.00000000000E+00 -0.20420205848E+02  0.28583595254E+02  0.20000927747E+02 0.  0.
        -11    1    3    3    0    0 -0.81652186249E+00  0.99670575068E+01 -0.10183980039E+02  0.14273135359E+02  0.51100000000E-03 0. -1.
         11    1    3    3    0    0  0.81652186249E+00 -0.99670575068E+01 -0.10236225810E+02  0.14310459894E+02  0.51100000000E-03 0.  1.
<mgrwt>
<rscale>  0 0.20000928E+02</rscale>
<asrwt>0</asrwt>
<pdfrwt beam="1">  1        2 0.62795304E-03 0.20000928E+02</pdfrwt>
<pdfrwt beam="2">  1       -2 0.37695231E-02 0.20000928E+02</pdfrwt>
<totfact> 0.36773215E+06</totfact>
</mgrwt>
</event>
<event>
 5    1  0.4046313E-006  0.2000044E+02  0.7818608E-02  0.1745319E+00
          2   -1    0    0  501    0  0.00000000000E+00  0.00000000000E+00  0.20192703213E+02  0.20192703380E+02  0.26000000000E-02 0.  1.
         -2   -1    0    0    0  501 -0.00000000000E+00 -0.00000000000E+00 -0.49525007917E+01  0.49525014742E+01  0.26000000000E-02 0. -1.
       1023    2    1    2    0    0  0.00000000000E+00  0.00000000000E+00  0.15240202421E+02  0.25145204854E+02  0.20000438928E+02 0.  0.
        -11    1    3    3    0    0  0.40213409426E+01 -0.91559361797E+01  0.75633337415E+01  0.12538196356E+02  0.51100000000E-03 0.  1.
         11    1    3    3    0    0 -0.40213409426E+01  0.91559361797E+01  0.76768686793E+01  0.12607008499E+02  0.51100000000E-03 0. -1.
<mgrwt>
<rscale>  0 0.20000439E+02</rscale>
<asrwt>0</asrwt>
<pdfrwt beam="1">  1        2 0.31065698E-02 0.20000439E+02</pdfrwt>
<pdfrwt beam="2">  1       -2 0.76192327E-03 0.20000439E+02</pdfrwt>
<totfact> 0.41711358E+06</totfact>
</mgrwt>
</event>
<event>
 5    1  0.4046313E-006  0.2000122E+02  0.7818608E-02  0.1745304E+00
         -2   -1    0    0    0  501 -0.00000000000E+00  0.00000000000E+00  0.24890618935E+01  0.24890632514E+01  0.26000000000E-02 0.  1.
          2   -1    0    0  501    0  0.00000000000E+00 -0.00000000000E+00 -0.40180676532E+02  0.40180676616E+02  0.26000000000E-02 0. -1.
       1023    2    1    2    0    0  0.00000000000E+00  0.00000000000E+00 -0.37691614639E+02  0.42669739868E+02  0.20001222120E+02 0.  0.
        -11    1    3    3    0    0 -0.68856522052E+01  0.72524850006E+01 -0.18927777637E+02  0.21407277069E+02  0.51100000000E-03 0. -1.
         11    1    3    3    0    0  0.68856522052E+01 -0.72524850006E+01 -0.18763837002E+02  0.21262462799E+02  0.51100000000E-03 0.  1.
<mgrwt>
<rscale>  0 0.20001222E+02</rscale>
<asrwt>0</asrwt>
<pdfrwt beam="2">  1        2 0.61816422E-02 0.20001222E+02</pdfrwt>
<pdfrwt beam="1">  1       -2 0.38293274E-03 0.20001222E+02</pdfrwt>
<totfact> 0.44916740E+06</totfact>
</mgrwt>
</event>
<event>
 5    1  0.4046313E-006  0.2000219E+02  0.7818608E-02  0.1745284E+00
         -2   -1    0    0    0  501 -0.00000000000E+00  0.00000000000E+00  0.85828181871E+01  0.85828185809E+01  0.26000000000E-02 0. -1.
          2   -1    0    0  501    0  0.00000000000E+00 -0.00000000000E+00 -0.11653737636E+02  0.11653737926E+02  0.26000000000E-02 0.  1.
       1023    2    1    2    0    0  0.00000000000E+00  0.00000000000E+00 -0.30709194486E+01  0.20236556507E+02  0.20002191705E+02 0.  0.
        -11    1    3    3    0    0 -0.90031733489E+01  0.43532331296E+01 -0.14151166203E+01  0.10100016056E+02  0.51100000000E-03 0.  1.
         11    1    3    3    0    0  0.90031733489E+01 -0.43532331296E+01 -0.16558028283E+01  0.10136540450E+02  0.51100000000E-03 0. -1.
<mgrwt>
<rscale>  0 0.20002192E+02</rscale>
<asrwt>0</asrwt>
<pdfrwt beam="2">  1        2 0.17928828E-02 0.20002192E+02</pdfrwt>
<pdfrwt beam="1">  1       -2 0.13204336E-02 0.20002192E+02</pdfrwt>
<totfact> 0.39901419E+06</totfact>
</mgrwt>
</event>
<event>
 5    1  0.4046313E-006  0.2000228E+02  0.7818608E-02  0.1745283E+00
         -2   -1    0    0    0  501 -0.00000000000E+00  0.00000000000E+00  0.36483357844E+01  0.36483367109E+01  0.26000000000E-02 0. -1.
          2   -1    0    0  501    0  0.00000000000E+00 -0.00000000000E+00 -0.27415995690E+02  0.27415995813E+02  0.26000000000E-02 0.  1.
       1023    2    1    2    0    0  0.00000000000E+00  0.00000000000E+00 -0.23767659905E+02  0.31064332524E+02  0.20002277315E+02 0.  0.
        -11    1    3    3    0    0  0.40751641769E+01 -0.91330550466E+01 -0.11970531198E+02  0.15598502331E+02  0.51100000000E-03 0.  1.
         11    1    3    3    0    0 -0.40751641769E+01  0.91330550466E+01 -0.11797128708E+02  0.15465830193E+02  0.51100000000E-03 0. -1.
<mgrwt>
<rscale>  0 0.20002277E+02</rscale>
<asrwt>0</asrwt>
<pdfrwt beam="2">  1        2 0.42178454E-02 0.20002277E+02</pdfrwt>
<pdfrwt beam="1">  1       -2 0.56128253E-03 0.20002277E+02</pdfrwt>
<totfact> 0.42946548E+06</totfact>
</mgrwt>
</event>
<event>
 5    1  0.4046313E-006  0.2000015E+02  0.7818608E-02  0.1745325E+00
         -2   -1    0    0    0  501 -0.00000000000E+00  0.00000000000E+00  0.12487369722E+01  0.12487396790E+01  0.26000000000E-02 0. -1.
          2   -1    0    0  501    0  0.00000000000E+00 -0.00000000000E+00 -0.80082019965E+02  0.80082020007E+02  0.26000000000E-02 0.  1.
       1023    2    1    2    0    0  0.00000000000E+00  0.00000000000E+00 -0.78833282993E+02  0.81330759686E+02  0.20000149092E+02 0.  0.
        -11    1    3    3    0    0  0.28090202376E+01  0.95973807520E+01 -0.39556252023E+02  0.40800703258E+02  0.51100000000E-03 0.  1.
         11    1    3    3    0    0 -0.28090202376E+01 -0.95973807520E+01 -0.39277030970E+02  0.40530056428E+02  0.51100000000E-03 0. -1.
<mgrwt>
<rscale>  0 0.20000149E+02</rscale>
<asrwt>0</asrwt>
<pdfrwt beam="2">  1        2 0.12320307E-01 0.20000149E+02</pdfrwt>
<pdfrwt beam="1">  1       -2 0.19211365E-03 0.20000149E+02</pdfrwt>
<totfact> 0.50309099E+06</totfact>
</mgrwt>
</event>
<event>
 4    1  0.4046313E-006  0.2025763E+02  0.7818608E-02  0.1740253E+00
          2   -1    0    0  501    0  0.00000000000E+00  0.00000000000E+00  0.46315913210E+01  0.46315920508E+01  0.26000000000E-02 0.  1.
         -2   -1    0    0    0  501 -0.00000000000E+00 -0.00000000000E+00 -0.22150685715E+02  0.22150685867E+02  0.26000000000E-02 0. -1.
        -11    1    1    2    0    0  0.93787997909E+01 -0.36537725329E+01 -0.10255895445E+02  0.14369945403E+02  0.51100000000E-03 0.  1.
         11    1    1    2    0    0 -0.93787997909E+01  0.36537725329E+01 -0.72631989485E+01  0.12412332515E+02  0.51100000000E-03 0. -1.
<mgrwt>
<rscale>  0 0.20257634E+02</rscale>
<asrwt>0</asrwt>
<pdfrwt beam="1">  1        2 0.71255259E-03 0.20257634E+02</pdfrwt>
<pdfrwt beam="2">  1       -2 0.34077978E-02 0.20257634E+02</pdfrwt>
<totfact> 0.36090692E+06</totfact>
</mgrwt>
</event>
<event>
 5    1  0.4046313E-006  0.2001050E+02  0.7818608E-02  0.1745119E+00
          2   -1    0    0  501    0  0.00000000000E+00  0.00000000000E+00  0.27404398217E+01  0.27404410550E+01  0.26000000000E-02 0. -1.
         -2   -1    0    0    0  501 -0.00000000000E+00 -0.00000000000E+00 -0.36528817858E+02  0.36528817950E+02  0.26000000000E-02 0.  1.
       1023    2    1    2    0    0  0.00000000000E+00  0.00000000000E+00 -0.33788378036E+02  0.39269259005E+02  0.20010502555E+02 0.  0.
        -11    1    3    3    0    0  0.73595710728E+01 -0.67740607029E+01 -0.17349659755E+02  0.20026529372E+02  0.51100000000E-03 0.  1.
         11    1    3    3    0    0 -0.73595710728E+01  0.67740607029E+01 -0.16438718280E+02  0.19242729633E+02  0.51100000000E-03 0. -1.
<mgrwt>
<rscale>  0 0.20010503E+02</rscale>
<asrwt>0</asrwt>
<pdfrwt beam="1">  1        2 0.42160626E-03 0.20010503E+02</pdfrwt>
<pdfrwt beam="2">  1       -2 0.56198179E-02 0.20010503E+02</pdfrwt>
<totfact> 0.35259958E+06</totfact>
</mgrwt>
</event>
<event>
 5    1  0.4046313E-006  0.2000180E+02  0.7818608E-02  0.1745292E+00
          2   -1    0    0  501    0  0.00000000000E+00  0.00000000000E+00  0.18595549460E+01  0.18595567636E+01  0.26000000000E-02 0. -1.
         -2   -1    0    0    0  501 -0.00000000000E+00 -0.00000000000E+00 -0.53785958728E+02  0.53785958791E+02  0.26000000000E-02 0.  1.
       1023    2    1    2    0    0  0.00000000000E+00  0.00000000000E+00 -0.51926403782E+02  0.55645515554E+02  0.20001799709E+02 0.  0.
        -11    1    3    3    0    0  0.85312718688E+01  0.52172752078E+01 -0.26308860496E+02  0.28145314017E+02  0.51100000000E-03 0.  1.
         11    1    3    3    0    0 -0.85312718688E+01 -0.52172752078E+01 -0.25617543286E+02  0.27500201537E+02  0.51100000000E-03 0. -1.
<mgrwt>
<rscale>  0 0.20001800E+02</rscale>
<asrwt>0</asrwt>
<pdfrwt beam="1">  1        2 0.28608556E-03 0.20001800E+02</pdfrwt>
<pdfrwt beam="2">  1       -2 0.82747618E-02 0.20001800E+02</pdfrwt>
<totfact> 0.33528378E+06</totfact>
</mgrwt>
</event>
<event>
 5    1  0.4046313E-006  0.2000329E+02  0.7818608E-02  0.1745263E+00
         -2   -1    0    0    0  501 -0.00000000000E+00  0.00000000000E+00  0.10601314637E+03  0.10601314640E+03  0.26000000000E-02 0.  1.
          2   -1    0    0  501    0  0.00000000000E+00 -0.00000000000E+00 -0.94358739210E+00  0.94359097416E+00  0.26000000000E-02 0. -1.
       1023    2    1    2    0    0  0.00000000000E+00  0.00000000000E+00  0.10506955898E+03  0.10695673737E+03  0.20003285888E+02 0.  0.
        -11    1    3    3    0    0 -0.20410474456E+01  0.97896857240E+01  0.53445962492E+02  0.54373474491E+02  0.51100000000E-03 0. -1.
         11    1    3    3    0    0  0.20410474456E+01 -0.97896857240E+01  0.51623596483E+02  0.52583262882E+02  0.51100000000E-03 0.  1.
<mgrwt>
<rscale>  0 0.20003286E+02</rscale>
<asrwt>0</asrwt>
<pdfrwt beam="2">  1        2 0.14516753E-03 0.20003286E+02</pdfrwt>
<pdfrwt beam="1">  1       -2 0.16309719E-01 0.20003286E+02</pdfrwt>
<totfact> 0.29289264E+06</totfact>
</mgrwt>
</event>
<event>
 5    1  0.4046313E-006  0.2000286E+02  0.7818608E-02  0.1745271E+00
         -2   -1    0    0    0  501 -0.00000000000E+00  0.00000000000E+00  0.16624764110E+02  0.16624764314E+02  0.26000000000E-02 0. -1.
          2   -1    0    0  501    0  0.00000000000E+00 -0.00000000000E+00 -0.60168416632E+01  0.60168422250E+01  0.26000000000E-02 0.  1.
       1023    2    1    2    0    0  0.00000000000E+00  0.00000000000E+00  0.10607922447E+02  0.22641606539E+02  0.20002857996E+02 0.  0.
        -11    1    3    3    0    0  0.70106427204E+00 -0.99768024480E+01  0.53293611376E+01  0.11332703499E+02  0.51100000000E-03 0.  1.
         11    1    3    3    0    0 -0.70106427204E+00  0.99768024480E+01  0.52785613095E+01  0.11308903040E+02  0.51100000000E-03 0. -1.
<mgrwt>
<rscale>  0 0.20002858E+02</rscale>
<asrwt>0</asrwt>
<pdfrwt beam="2">  1        2 0.92566801E-03 0.20002858E+02</pdfrwt>
<pdfrwt beam="1">  1       -2 0.25576561E-02 0.20002858E+02</pdfrwt>
<totfact> 0.37983797E+06</totfact>
</mgrwt>
</event>
<event>
 5    1  0.4046313E-006  0.2000027E+02  0.7818608E-02  0.1745323E+00
          2   -1    0    0  501    0  0.00000000000E+00  0.00000000000E+00  0.33381979261E+01  0.33381989386E+01  0.26000000000E-02 0. -1.
         -2   -1    0    0    0  501 -0.00000000000E+00 -0.00000000000E+00 -0.29957087292E+02  0.29957087405E+02  0.26000000000E-02 0.  1.
       1023    2    1    2    0    0  0.00000000000E+00  0.00000000000E+00 -0.26618889366E+02  0.33295286344E+02  0.20000270539E+02 0.  0.
        -11    1    3    3    0    0 -0.96392559346E+01 -0.26621239958E+01 -0.13348344153E+02  0.16678742489E+02  0.51100000000E-03 0. -1.
         11    1    3    3    0    0  0.96392559346E+01  0.26621239958E+01 -0.13270545213E+02  0.16616543854E+02  0.51100000000E-03 0.  1.
<mgrwt>
<rscale>  0 0.20000271E+02</rscale>
<asrwt>0</asrwt>
<pdfrwt beam="1">  1        2 0.51356902E-03 0.20000271E+02</pdfrwt>
<pdfrwt beam="2">  1       -2 0.46087826E-02 0.20000271E+02</pdfrwt>
<totfact> 0.36068558E+06</totfact>
</mgrwt>
</event>
<event>
 5    1  0.4394542E-006  0.2000207E+02  0.7818608E-02  0.1745287E+00
          2   -1    0    0  501    0  0.00000000000E+00  0.00000000000E+00  0.10789102408E+03  0.10789102411E+03  0.26000000000E-02 0. -1.
         -2   -1    0    0    0  501 -0.00000000000E+00 -0.00000000000E+00 -0.92705138405E+00  0.92705503001E+00  0.26000000000E-02 0.  1.
       1023    2    1    2    0    0  0.00000000000E+00  0.00000000000E+00  0.10696397270E+03  0.10881807914E+03  0.20002072221E+02 0.  0.
        -11    1    3    3    0    0  0.28819505178E+01  0.95757946145E+01  0.52727331876E+02  0.53667243346E+02  0.51100000000E-03 0. -1.
         11    1    3    3    0    0 -0.28819505178E+01 -0.95757946145E+01  0.54236640822E+02  0.55150835798E+02  0.51100000000E-03 0.  1.
<mgrwt>
<rscale>  0 0.20002072E+02</rscale>
<asrwt>0</asrwt>
<pdfrwt beam="1">  1        2 0.16598627E-01 0.20002072E+02</pdfrwt>
<pdfrwt beam="2">  1       -2 0.14262351E-03 0.20002072E+02</pdfrwt>
<totfact> 0.53680667E+06</totfact>
</mgrwt>
</event>
<event>
 5    1  0.4046313E-006  0.2000060E+02  0.7818608E-02  0.1745316E+00
          2   -1    0    0  501    0  0.00000000000E+00  0.00000000000E+00  0.21399344905E+02  0.21399345063E+02  0.26000000000E-02 0.  1.
         -2   -1    0    0    0  501 -0.00000000000E+00 -0.00000000000E+00 -0.46733222367E+01  0.46733229599E+01  0.26000000000E-02 0. -1.
       1023    2    1    2    0    0  0.00000000000E+00  0.00000000000E+00  0.16726022669E+02  0.26072668023E+02  0.20000604579E+02 0.  0.
        -11    1    3    3    0    0 -0.24576811701E+01  0.96933173773E+01  0.82668001600E+01  0.12974613045E+02  0.51100000000E-03 0. -1.
         11    1    3    3    0    0  0.24576811701E+01 -0.96933173773E+01  0.84592225087E+01  0.13098054979E+02  0.51100000000E-03 0.  1.
<mgrwt>
<rscale>  0 0.20000605E+02</rscale>
<asrwt>0</asrwt>
<pdfrwt beam="1">  1        2 0.32922069E-02 0.20000605E+02</pdfrwt>
<pdfrwt beam="2">  1       -2 0.71897274E-03 0.20000605E+02</pdfrwt>
<totfact> 0.41929182E+06</totfact>
</mgrwt>
</event>
<event>
 5    1  0.4046313E-006  0.2000062E+02  0.7818608E-02  0.1745316E+00
          2   -1    0    0  501    0  0.00000000000E+00  0.00000000000E+00  0.91225822521E+01  0.91225826226E+01  0.26000000000E-02 0. -1.
         -2   -1    0    0    0  501 -0.00000000000E+00 -0.00000000000E+00 -0.10962484594E+02  0.10962484902E+02  0.26000000000E-02 0.  1.
       1023    2    1    2    0    0  0.00000000000E+00  0.00000000000E+00 -0.18399023417E+01  0.20085067525E+02  0.20000617412E+02 0.  0.
        -11    1    3    3    0    0 -0.85115607713E+01 -0.52497002585E+01 -0.93242875570E+00  0.10043676778E+02  0.51100000000E-03 0.  1.
         11    1    3    3    0    0  0.85115607713E+01  0.52497002585E+01 -0.90747358603E+00  0.10041390747E+02  0.51100000000E-03 0. -1.
<mgrwt>
<rscale>  0 0.20000617E+02</rscale>
<asrwt>0</asrwt>
<pdfrwt beam="1">  1        2 0.14034742E-02 0.20000617E+02</pdfrwt>
<pdfrwt beam="2">  1       -2 0.16865361E-02 0.20000617E+02</pdfrwt>
<totfact> 0.39196143E+06</totfact>
</mgrwt>
</event>
<event>
 5    1  0.4050415E-006  0.2000093E+02  0.7818608E-02  0.1745309E+00
         -2   -1    0    0    0  501 -0.00000000000E+00  0.00000000000E+00  0.17419693629E+01  0.17419713032E+01  0.26000000000E-02 0. -1.
          2   -1    0    0  501    0  0.00000000000E+00 -0.00000000000E+00 -0.57411622146E+02  0.57411622205E+02  0.26000000000E-02 0.  1.
       1023    2    1    2    0    0  0.00000000000E+00  0.00000000000E+00 -0.55669652783E+02  0.59153593508E+02  0.20000934577E+02 0.  0.
        -11    1    3    3    0    0 -0.77761857294E+01  0.62881027603E+01 -0.27815008690E+02  0.29558146246E+02  0.51100000000E-03 0.  1.
         11    1    3    3    0    0  0.77761857294E+01 -0.62881027603E+01 -0.27854644093E+02  0.29595447262E+02  0.51100000000E-03 0. -1.
<mgrwt>
<rscale>  0 0.20000935E+02</rscale>
<asrwt>0</asrwt>
<pdfrwt beam="2">  1        2 0.88325559E-02 0.20000935E+02</pdfrwt>
<pdfrwt beam="1">  1       -2 0.26799548E-03 0.20000935E+02</pdfrwt>
<totfact> 0.47343105E+06</totfact>
</mgrwt>
</event>
<event>
 4    1  0.4046313E-006  0.2002378E+02  0.7818608E-02  0.1744856E+00
         -2   -1    0    0    0  501 -0.00000000000E+00  0.00000000000E+00  0.26071139183E+02  0.26071139312E+02  0.26000000000E-02 0.  1.
          2   -1    0    0  501    0  0.00000000000E+00 -0.00000000000E+00 -0.38447841934E+01  0.38447850725E+01  0.26000000000E-02 0. -1.
        -11    1    1    2    0    0  0.55571086877E+00 -0.99854101854E+01  0.10411325890E+02  0.14436514060E+02  0.51100000000E-03 0.  1.
         11    1    1    2    0    0 -0.55571086877E+00  0.99854101854E+01  0.11815029099E+02  0.15479410325E+02  0.51100000000E-03 0. -1.
<mgrwt>
<rscale>  0 0.20023778E+02</rscale>
<asrwt>0</asrwt>
<pdfrwt beam="2">  1        2 0.59150537E-03 0.20023778E+02</pdfrwt>
<pdfrwt beam="1">  1       -2 0.40109444E-02 0.20023778E+02</pdfrwt>
<totfact> 0.36470906E+06</totfact>
</mgrwt>
</event>
<event>
 5    1  0.4046313E-006  0.2000022E+02  0.7818608E-02  0.1745324E+00
          2   -1    0    0  501    0  0.00000000000E+00  0.00000000000E+00  0.92054234234E+00  0.92054601408E+00  0.26000000000E-02 0. -1.
         -2   -1    0    0    0  501 -0.00000000000E+00 -0.00000000000E+00 -0.10863376458E+03  0.10863376461E+03  0.26000000000E-02 0.  1.
       1023    2    1    2    0    0  0.00000000000E+00  0.00000000000E+00 -0.10771322224E+03  0.10955431063E+03  0.20000218292E+02 0.  0.
        -11    1    3    3    0    0  0.98884586191E+01  0.14901018676E+01 -0.53786198593E+02  0.54707926088E+02  0.51100000000E-03 0. -1.
         11    1    3    3    0    0 -0.98884586191E+01 -0.14901018676E+01 -0.53927023646E+02  0.54846384539E+02  0.51100000000E-03 0.  1.
<mgrwt>
<rscale>  0 0.20000218E+02</rscale>
<asrwt>0</asrwt>
<pdfrwt beam="1">  1        2 0.14162227E-03 0.20000218E+02</pdfrwt>
<pdfrwt beam="2">  1       -2 0.16712877E-01 0.20000218E+02</pdfrwt>
<totfact> 0.29114848E+06</totfact>
</mgrwt>
</event>
<event>
 5    1  0.4063225E-006  0.2000064E+02  0.7818608E-02  0.1745315E+00
          2   -1    0    0  501    0  0.00000000000E+00  0.00000000000E+00  0.81120916840E+02  0.81120916882E+02  0.26000000000E-02 0.  1.
         -2   -1    0    0    0  501 -0.00000000000E+00 -0.00000000000E+00 -0.12328047498E+01  0.12328074915E+01  0.26000000000E-02 0. -1.
       1023    2    1    2    0    0  0.00000000000E+00  0.00000000000E+00  0.79888112090E+02  0.82353724373E+02  0.20000636610E+02 0.  0.
        -11    1    3    3    0    0 -0.89109474646E+01 -0.45383434552E+01  0.39658192546E+02  0.40899557238E+02  0.51100000000E-03 0.  1.
         11    1    3    3    0    0  0.89109474646E+01  0.45383434552E+01  0.40229919544E+02  0.41454167135E+02  0.51100000000E-03 0. -1.
<mgrwt>
<rscale>  0 0.20000637E+02</rscale>
<asrwt>0</asrwt>
<pdfrwt beam="1">  1        2 0.12480146E-01 0.20000637E+02</pdfrwt>
<pdfrwt beam="2">  1       -2 0.18966241E-03 0.20000637E+02</pdfrwt>
<totfact> 0.50437149E+06</totfact>
</mgrwt>
</event>
<event>
 5    1  0.4046313E-006  0.2000017E+02  0.7818608E-02  0.1745325E+00
         -2   -1    0    0    0  501 -0.00000000000E+00  0.00000000000E+00  0.19438098096E+01  0.19438115484E+01  0.26000000000E-02 0.  1.
          2   -1    0    0  501    0  0.00000000000E+00 -0.00000000000E+00 -0.51446204946E+02  0.51446205012E+02  0.26000000000E-02 0. -1.
       1023    2    1    2    0    0  0.00000000000E+00  0.00000000000E+00 -0.49502395137E+02  0.53390016560E+02  0.20000168601E+02 0.  0.
        -11    1    3    3    0    0  0.49807139826E+01  0.86714022629E+01 -0.24833769110E+02  0.26771567333E+02  0.51100000000E-03 0.  1.
         11    1    3    3    0    0 -0.49807139826E+01 -0.86714022629E+01 -0.24668626026E+02  0.26618449227E+02  0.51100000000E-03 0. -1.
<mgrwt>
<rscale>  0 0.20000169E+02</rscale>
<asrwt>0</asrwt>
<pdfrwt beam="2">  1        2 0.79147999E-02 0.20000169E+02</pdfrwt>
<pdfrwt beam="1">  1       -2 0.29904784E-03 0.20000169E+02</pdfrwt>
<totfact> 0.46528695E+06</totfact>
</mgrwt>
</event>
<event>
 5    1  0.4046313E-006  0.2000198E+02  0.7818608E-02  0.1745289E+00
          2   -1    0    0  501    0  0.00000000000E+00  0.00000000000E+00  0.35352195913E+01  0.35352205474E+01  0.26000000000E-02 0. -1.
         -2   -1    0    0    0  501 -0.00000000000E+00 -0.00000000000E+00 -0.28292388320E+02  0.28292388439E+02  0.26000000000E-02 0.  1.
       1023    2    1    2    0    0  0.00000000000E+00  0.00000000000E+00 -0.24757168729E+02  0.31827608987E+02  0.20001982161E+02 0.  0.
        -11    1    3    3    0    0  0.10000135944E+02  0.72468190106E-02 -0.12170803830E+02  0.15752181993E+02  0.51100000000E-03 0.  1.
         11    1    3    3    0    0 -0.10000135944E+02 -0.72468190106E-02 -0.12586364898E+02  0.16075426994E+02  0.51100000000E-03 0. -1.
<mgrwt>
<rscale>  0 0.20001982E+02</rscale>
<asrwt>0</asrwt>
<pdfrwt beam="1">  1        2 0.54388004E-03 0.20001982E+02</pdfrwt>
<pdfrwt beam="2">  1       -2 0.43526751E-02 0.20001982E+02</pdfrwt>
<totfact> 0.36269781E+06</totfact>
</mgrwt>
</event>
<event>
 5    1  0.4046313E-006  0.2000169E+02  0.7818608E-02  0.1745294E+00
          2   -1    0    0  501    0  0.00000000000E+00  0.00000000000E+00  0.14409867052E+02  0.14409867287E+02  0.26000000000E-02 0.  1.
         -2   -1    0    0    0  501 -0.00000000000E+00 -0.00000000000E+00 -0.69408613722E+01  0.69408618591E+01  0.26000000000E-02 0. -1.
       1023    2    1    2    0    0  0.00000000000E+00  0.00000000000E+00  0.74690056803E+01  0.21350729146E+02  0.20001689659E+02 0.  0.
        -11    1    3    3    0    0  0.99609806761E+01  0.88834243097E+00  0.38212799800E+01  0.10705721333E+02  0.51100000000E-03 0.  1.
         11    1    3    3    0    0 -0.99609806761E+01 -0.88834243097E+00  0.36477257003E+01  0.10645007814E+02  0.51100000000E-03 0. -1.
<mgrwt>
<rscale>  0 0.20001690E+02</rscale>
<asrwt>0</asrwt>
<pdfrwt beam="1">  1        2 0.22169027E-02 0.20001690E+02</pdfrwt>
<pdfrwt beam="2">  1       -2 0.10678249E-02 0.20001690E+02</pdfrwt>
<totfact> 0.40553669E+06</totfact>
</mgrwt>
</event>
<event>
 5    1  0.4046313E-006  0.2000436E+02  0.7818608E-02  0.1745241E+00
          2   -1    0    0  501    0  0.00000000000E+00  0.00000000000E+00  0.12530733458E+02  0.12530733728E+02  0.26000000000E-02 0. -1.
         -2   -1    0    0    0  501 -0.00000000000E+00 -0.00000000000E+00 -0.79838551662E+01  0.79838555896E+01  0.26000000000E-02 0.  1.
       1023    2    1    2    0    0  0.00000000000E+00  0.00000000000E+00  0.45468782918E+01  0.20514589317E+02  0.20004356342E+02 0.  0.
        -11    1    3    3    0    0 -0.34187115811E+01 -0.93997809888E+01  0.22633707693E+01  0.10255063092E+02  0.51100000000E-03 0.  1.
         11    1    3    3    0    0  0.34187115811E+01  0.93997809888E+01  0.22835075225E+01  0.10259526226E+02  0.51100000000E-03 0. -1.
<mgrwt>
<rscale>  0 0.20004356E+02</rscale>
<asrwt>0</asrwt>
<pdfrwt beam="1">  1        2 0.19278052E-02 0.20004356E+02</pdfrwt>
<pdfrwt beam="2">  1       -2 0.12282855E-02 0.20004356E+02</pdfrwt>
<totfact> 0.40109218E+06</totfact>
</mgrwt>
</event>
<event>
 5    1  0.4046313E-006  0.2000061E+02  0.7818608E-02  0.1745316E+00
         -2   -1    0    0    0  501 -0.00000000000E+00  0.00000000000E+00  0.13276815921E+02  0.13276816175E+02  0.26000000000E-02 0. -1.
          2   -1    0    0  501    0  0.00000000000E+00 -0.00000000000E+00 -0.75323844369E+01  0.75323848856E+01  0.26000000000E-02 0.  1.
       1023    2    1    2    0    0  0.00000000000E+00  0.00000000000E+00  0.57444314837E+01  0.20809201061E+02  0.20000608884E+02 0.  0.
        -11    1    3    3    0    0  0.15303807121E+01  0.98822034045E+01  0.29533385808E+01  0.10426994691E+02  0.51100000000E-03 0.  1.
         11    1    3    3    0    0 -0.15303807121E+01 -0.98822034045E+01  0.27910929029E+01  0.10382206370E+02  0.51100000000E-03 0. -1.
<mgrwt>
<rscale>  0 0.20000609E+02</rscale>
<asrwt>0</asrwt>
<pdfrwt beam="2">  1        2 0.11588285E-02 0.20000609E+02</pdfrwt>
<pdfrwt beam="1">  1       -2 0.20425871E-02 0.20000609E+02</pdfrwt>
<totfact> 0.38647731E+06</totfact>
</mgrwt>
</event>
<event>
 5    1  0.4046313E-006  0.2000066E+02  0.7818608E-02  0.1745315E+00
          2   -1    0    0  501    0  0.00000000000E+00  0.00000000000E+00  0.20068599683E+01  0.20068616526E+01  0.26000000000E-02 0. -1.
         -2   -1    0    0    0  501 -0.00000000000E+00 -0.00000000000E+00 -0.49832345842E+02  0.49832345910E+02  0.26000000000E-02 0.  1.
       1023    2    1    2    0    0  0.00000000000E+00  0.00000000000E+00 -0.47825485874E+02  0.51839207562E+02  0.20000658530E+02 0.  0.
        -11    1    3    3    0    0  0.62904769114E+01 -0.77740840772E+01 -0.23886548561E+02  0.25895437541E+02  0.51100000000E-03 0.  1.
         11    1    3    3    0    0 -0.62904769114E+01  0.77740840772E+01 -0.23938937312E+02  0.25943770021E+02  0.51100000000E-03 0. -1.
<mgrwt>
<rscale>  0 0.20000659E+02</rscale>
<asrwt>0</asrwt>
<pdfrwt beam="1">  1        2 0.30874786E-03 0.20000659E+02</pdfrwt>
<pdfrwt beam="2">  1       -2 0.76665140E-02 0.20000659E+02</pdfrwt>
<totfact> 0.33912604E+06</totfact>
</mgrwt>
</event>
<event>
 4    1  0.4046313E-006  0.2008698E+02  0.7818608E-02  0.1743604E+00
         -2   -1    0    0    0  501 -0.00000000000E+00  0.00000000000E+00  0.34446176772E+01  0.34446186584E+01  0.26000000000E-02 0.  1.
          2   -1    0    0  501    0  0.00000000000E+00 -0.00000000000E+00 -0.29283851957E+02  0.29283852072E+02  0.26000000000E-02 0. -1.
        -11    1    1    2    0    0 -0.93197359471E+01  0.36594901569E+01 -0.14204983195E+02  0.17379036054E+02  0.51100000000E-03 0.  1.
         11    1    1    2    0    0  0.93197359471E+01 -0.36594901569E+01 -0.11634251085E+02  0.15349434677E+02  0.51100000000E-03 0. -1.
<mgrwt>
<rscale>  0 0.20086980E+02</rscale>
<asrwt>0</asrwt>
<pdfrwt beam="2">  1        2 0.45052079E-02 0.20086980E+02</pdfrwt>
<pdfrwt beam="1">  1       -2 0.52994129E-03 0.20086980E+02</pdfrwt>
<totfact> 0.42840151E+06</totfact>
</mgrwt>
</event>
<event>
 5    1  0.4046313E-006  0.2000012E+02  0.7818608E-02  0.1745326E+00
         -2   -1    0    0    0  501 -0.00000000000E+00  0.00000000000E+00  0.35651753691E+01  0.35651763172E+01  0.26000000000E-02 0. -1.
          2   -1    0    0  501    0  0.00000000000E+00 -0.00000000000E+00 -0.28049445297E+02  0.28049445417E+02  0.26000000000E-02 0.  1.
       1023    2    1    2    0    0  0.00000000000E+00  0.00000000000E+00 -0.24484269927E+02  0.31614621734E+02  0.20000120838E+02 0.  0.
        -11    1    3    3    0    0 -0.99016566029E+01  0.13990470744E+01 -0.12293888133E+02  0.15847391643E+02  0.51100000000E-03 0.  1.
         11    1    3    3    0    0  0.99016566029E+01 -0.13990470744E+01 -0.12190381794E+02  0.15767230091E+02  0.51100000000E-03 0. -1.
<mgrwt>
<rscale>  0 0.20000121E+02</rscale>
<asrwt>0</asrwt>
<pdfrwt beam="2">  1        2 0.43152992E-02 0.20000121E+02</pdfrwt>
<pdfrwt beam="1">  1       -2 0.54848862E-03 0.20000121E+02</pdfrwt>
<totfact> 0.43059958E+06</totfact>
</mgrwt>
</event>
<event>
 5    1  0.4046313E-006  0.2000072E+02  0.7818608E-02  0.1745314E+00
         -2   -1    0    0    0  501 -0.00000000000E+00  0.00000000000E+00  0.37081535335E+01  0.37081544450E+01  0.26000000000E-02 0. -1.
          2   -1    0    0  501    0  0.00000000000E+00 -0.00000000000E+00 -0.26969548703E+02  0.26969548828E+02  0.26000000000E-02 0.  1.
       1023    2    1    2    0    0  0.00000000000E+00  0.00000000000E+00 -0.23261395169E+02  0.30677703273E+02  0.20000724309E+02 0.  0.
        -11    1    3    3    0    0 -0.64941065729E+01 -0.76047801267E+01 -0.11578863989E+02  0.15299548768E+02  0.51100000000E-03 0.  1.
         11    1    3    3    0    0  0.64941065729E+01  0.76047801267E+01 -0.11682531180E+02  0.15378154505E+02  0.51100000000E-03 0. -1.
<mgrwt>
<rscale>  0 0.20000724E+02</rscale>
<asrwt>0</asrwt>
<pdfrwt beam="2">  1        2 0.41491613E-02 0.20000724E+02</pdfrwt>
<pdfrwt beam="1">  1       -2 0.57048526E-03 0.20000724E+02</pdfrwt>
<totfact> 0.42880888E+06</totfact>
</mgrwt>
</event>
<event>
 5    1  0.4046313E-006  0.2000018E+02  0.7818608E-02  0.1745325E+00
          2   -1    0    0  501    0  0.00000000000E+00  0.00000000000E+00  0.63435538305E+01  0.63435543633E+01  0.26000000000E-02 0. -1.
         -2   -1    0    0    0  501 -0.00000000000E+00 -0.00000000000E+00 -0.15764315614E+02  0.15764315828E+02  0.26000000000E-02 0.  1.
       1023    2    1    2    0    0  0.00000000000E+00  0.00000000000E+00 -0.94207617834E+01  0.22107870192E+02  0.20000179295E+02 0.  0.
        -11    1    3    3    0    0 -0.85451283704E+01 -0.51943620110E+01 -0.47483058368E+01  0.11070095941E+02  0.51100000000E-03 0. -1.
         11    1    3    3    0    0  0.85451283704E+01  0.51943620110E+01 -0.46724559466E+01  0.11037774250E+02  0.51100000000E-03 0.  1.
<mgrwt>
<rscale>  0 0.20000179E+02</rscale>
<asrwt>0</asrwt>
<pdfrwt beam="1">  1        2 0.97593142E-03 0.20000179E+02</pdfrwt>
<pdfrwt beam="2">  1       -2 0.24252794E-02 0.20000179E+02</pdfrwt>
<totfact> 0.38151639E+06</totfact>
</mgrwt>
</event>
<event>
 4    1  0.4046313E-006  0.2033569E+02  0.7818608E-02  0.1738734E+00
          2   -1    0    0  501    0  0.00000000000E+00  0.00000000000E+00  0.28534287681E+02  0.28534287800E+02  0.26000000000E-02 0. -1.
         -2   -1    0    0    0  501 -0.00000000000E+00 -0.00000000000E+00 -0.36231861287E+01  0.36231870616E+01  0.26000000000E-02 0.  1.
        -11    1    1    2    0    0  0.85718133856E+01 -0.54674545350E+01  0.12255475382E+02  0.15923747075E+02  0.51100000000E-03 0. -1.
         11    1    1    2    0    0 -0.85718133856E+01  0.54674545350E+01  0.12655626170E+02  0.16233727786E+02  0.51100000000E-03 0.  1.
<mgrwt>
<rscale>  0 0.20335688E+02</rscale>
<asrwt>0</asrwt>
<pdfrwt beam="1">  1        2 0.43898906E-02 0.20335688E+02</pdfrwt>
<pdfrwt beam="2">  1       -2 0.55741332E-03 0.20335688E+02</pdfrwt>
<totfact> 0.41554972E+06</totfact>
</mgrwt>
</event>
<event>
 5    1  0.4046313E-006  0.2000082E+02  0.7818608E-02  0.1745312E+00
         -2   -1    0    0    0  501 -0.00000000000E+00  0.00000000000E+00  0.79292022257E+02  0.79292022299E+02  0.26000000000E-02 0.  1.
          2   -1    0    0  501    0  0.00000000000E+00 -0.00000000000E+00 -0.12612634336E+01  0.12612661134E+01  0.26000000000E-02 0. -1.
       1023    2    1    2    0    0  0.00000000000E+00  0.00000000000E+00  0.78030758823E+02  0.80553288413E+02  0.20000823773E+02 0.  0.
        -11    1    3    3    0    0 -0.98324853843E+01  0.18239669829E+01  0.38773285108E+02  0.40042131096E+02  0.51100000000E-03 0.  1.
         11    1    3    3    0    0  0.98324853843E+01 -0.18239669829E+01  0.39257473715E+02  0.40511157316E+02  0.51100000000E-03 0. -1.
<mgrwt>
<rscale>  0 0.20000824E+02</rscale>
<asrwt>0</asrwt>
<pdfrwt beam="2">  1        2 0.19404077E-03 0.20000824E+02</pdfrwt>
<pdfrwt beam="1">  1       -2 0.12198771E-01 0.20000824E+02</pdfrwt>
<totfact> 0.31311928E+06</totfact>
</mgrwt>
</event>
<event>
 5    1  0.4046313E-006  0.2000116E+02  0.7818608E-02  0.1745305E+00
         -2   -1    0    0    0  501 -0.00000000000E+00  0.00000000000E+00  0.20143118927E+01  0.20143135707E+01  0.26000000000E-02 0.  1.
          2   -1    0    0  501    0  0.00000000000E+00 -0.00000000000E+00 -0.49650466309E+02  0.49650466377E+02  0.26000000000E-02 0. -1.
       1023    2    1    2    0    0  0.00000000000E+00  0.00000000000E+00 -0.47636154416E+02  0.51664779948E+02  0.20001156953E+02 0.  0.
        -11    1    3    3    0    0 -0.99915918358E+01 -0.42368897861E+00 -0.23786457496E+02  0.25803235848E+02  0.51100000000E-03 0. -1.
         11    1    3    3    0    0  0.99915918358E+01  0.42368897861E+00 -0.23849696920E+02  0.25861544099E+02  0.51100000000E-03 0.  1.
<mgrwt>
<rscale>  0 0.20001157E+02</rscale>
<asrwt>0</asrwt>
<pdfrwt beam="2">  1        2 0.76385325E-02 0.20001157E+02</pdfrwt>
<pdfrwt beam="1">  1       -2 0.30989431E-03 0.20001157E+02</pdfrwt>
<totfact> 0.46273267E+06</totfact>
</mgrwt>
</event>
<event>
 5    1  0.4046313E-006  0.2000129E+02  0.7818608E-02  0.1745303E+00
          2   -1    0    0  501    0  0.00000000000E+00  0.00000000000E+00  0.42895521777E+01  0.42895529656E+01  0.26000000000E-02 0.  1.
         -2   -1    0    0    0  501 -0.00000000000E+00 -0.00000000000E+00 -0.23315451202E+02  0.23315451347E+02  0.26000000000E-02 0. -1.
       1023    2    1    2    0    0  0.00000000000E+00  0.00000000000E+00 -0.19025899024E+02  0.27605004312E+02  0.20001285694E+02 0.  0.
        -11    1    3    3    0    0 -0.35720485021E+01 -0.93408668588E+01 -0.95669862561E+01  0.13839745318E+02  0.51100000000E-03 0.  1.
         11    1    3    3    0    0  0.35720485021E+01  0.93408668588E+01 -0.94589127681E+01  0.13765258995E+02  0.51100000000E-03 0. -1.
<mgrwt>
<rscale>  0 0.20001286E+02</rscale>
<asrwt>0</asrwt>
<pdfrwt beam="1">  1        2 0.65993119E-03 0.20001286E+02</pdfrwt>
<pdfrwt beam="2">  1       -2 0.35869925E-02 0.20001286E+02</pdfrwt>
<totfact> 0.36937038E+06</totfact>
</mgrwt>
</event>
<event>
 5    1  0.4046313E-006  0.2000079E+02  0.7818608E-02  0.1745312E+00
          2   -1    0    0  501    0  0.00000000000E+00  0.00000000000E+00  0.27406327744E+01  0.27406340077E+01  0.26000000000E-02 0.  1.
         -2   -1    0    0    0  501 -0.00000000000E+00 -0.00000000000E+00 -0.36490778784E+02  0.36490778876E+02  0.26000000000E-02 0. -1.
       1023    2    1    2    0    0  0.00000000000E+00  0.00000000000E+00 -0.33750146009E+02  0.39231412884E+02  0.20000785015E+02 0.  0.
        -11    1    3    3    0    0  0.30102111796E+01  0.95363745095E+01 -0.16750399830E+02  0.19508452139E+02  0.51100000000E-03 0.  1.
         11    1    3    3    0    0 -0.30102111796E+01 -0.95363745095E+01 -0.16999746179E+02  0.19722960745E+02  0.51100000000E-03 0. -1.
<mgrwt>
<rscale>  0 0.20000785E+02</rscale>
<asrwt>0</asrwt>
<pdfrwt beam="1">  1        2 0.42163594E-03 0.20000785E+02</pdfrwt>
<pdfrwt beam="2">  1       -2 0.56139657E-02 0.20000785E+02</pdfrwt>
<totfact> 0.35301613E+06</totfact>
</mgrwt>
</event>
<event>
 5    1  0.4383077E-006  0.2000079E+02  0.7818608E-02  0.1745312E+00
         -2   -1    0    0    0  501 -0.00000000000E+00  0.00000000000E+00  0.95776787557E+00  0.95777140460E+00  0.26000000000E-02 0. -1.
          2   -1    0    0  501    0  0.00000000000E+00 -0.00000000000E+00 -0.10441746030E+03  0.10441746034E+03  0.26000000000E-02 0.  1.
       1023    2    1    2    0    0  0.00000000000E+00  0.00000000000E+00 -0.10345969243E+03  0.10537523174E+03  0.20000787661E+02 0.  0.
        -11    1    3    3    0    0 -0.18895109206E+01  0.98202258961E+01 -0.51581919000E+02  0.52542377717E+02  0.51100000000E-03 0. -1.
         11    1    3    3    0    0  0.18895109206E+01 -0.98202258961E+01 -0.51877773428E+02  0.52832854024E+02  0.51100000000E-03 0.  1.
<mgrwt>
<rscale>  0 0.20000788E+02</rscale>
<asrwt>0</asrwt>
<pdfrwt beam="2">  1        2 0.16064216E-01 0.20000788E+02</pdfrwt>
<pdfrwt beam="1">  1       -2 0.14734926E-03 0.20000788E+02</pdfrwt>
<totfact> 0.53279230E+06</totfact>
</mgrwt>
</event>
<event>
 5    1  0.4046313E-006  0.2000274E+02  0.7818608E-02  0.1745274E+00
         -2   -1    0    0    0  501 -0.00000000000E+00  0.00000000000E+00  0.27798817772E+01  0.27798829931E+01  0.26000000000E-02 0. -1.
          2   -1    0    0  501    0  0.00000000000E+00 -0.00000000000E+00 -0.35982589597E+02  0.35982589691E+02  0.26000000000E-02 0.  1.
       1023    2    1    2    0    0  0.00000000000E+00  0.00000000000E+00 -0.33202707820E+02  0.38762472684E+02  0.20002736863E+02 0.  0.
        -11    1    3    3    0    0 -0.50239906546E+00  0.99873769708E+01 -0.16921345129E+02  0.19655330697E+02  0.51100000000E-03 0.  1.
         11    1    3    3    0    0  0.50239906546E+00 -0.99873769708E+01 -0.16281362691E+02  0.19107141987E+02  0.51100000000E-03 0. -1.
<mgrwt>
<rscale>  0 0.20002737E+02</rscale>
<asrwt>0</asrwt>
<pdfrwt beam="2">  1        2 0.55357828E-02 0.20002737E+02</pdfrwt>
<pdfrwt beam="1">  1       -2 0.42767425E-03 0.20002737E+02</pdfrwt>
<totfact> 0.44284401E+06</totfact>
</mgrwt>
</event>
<event>
 5    1  0.4046313E-006  0.2000208E+02  0.7818608E-02  0.1745287E+00
         -2   -1    0    0    0  501 -0.00000000000E+00  0.00000000000E+00  0.13393832386E+02  0.13393832638E+02  0.26000000000E-02 0.  1.
          2   -1    0    0  501    0  0.00000000000E+00 -0.00000000000E+00 -0.74676747972E+01  0.74676752499E+01  0.26000000000E-02 0. -1.
       1023    2    1    2    0    0  0.00000000000E+00  0.00000000000E+00  0.59261575884E+01  0.20861507888E+02  0.20002079082E+02 0.  0.
        -11    1    3    3    0    0  0.24996912456E+01 -0.96829001933E+01  0.28406504658E+01  0.10395975558E+02  0.51100000000E-03 0. -1.
         11    1    3    3    0    0 -0.24996912456E+01  0.96829001933E+01  0.30855071226E+01  0.10465532330E+02  0.51100000000E-03 0.  1.
<mgrwt>
<rscale>  0 0.20002079E+02</rscale>
<asrwt>0</asrwt>
<pdfrwt beam="2">  1        2 0.11488731E-02 0.20002079E+02</pdfrwt>
<pdfrwt beam="1">  1       -2 0.20605897E-02 0.20002079E+02</pdfrwt>
<totfact> 0.38616401E+06</totfact>
</mgrwt>
</event>
<event>
 5    1  0.4046313E-006  0.2000209E+02  0.7818608E-02  0.1745286E+00
         -2   -1    0    0    0  501 -0.00000000000E+00  0.00000000000E+00  0.18503979789E+01  0.18503998055E+01  0.26000000000E-02 0. -1.
          2   -1    0    0  501    0  0.00000000000E+00 -0.00000000000E+00 -0.54053714650E+02  0.54053714712E+02  0.26000000000E-02 0.  1.
       1023    2    1    2    0    0  0.00000000000E+00  0.00000000000E+00 -0.52203316671E+02  0.55904114518E+02  0.20002093605E+02 0.  0.
        -11    1    3    3    0    0  0.85373899705E+01  0.52088469213E+01 -0.26220995843E+02  0.28063494740E+02  0.51100000000E-03 0. -1.
         11    1    3    3    0    0 -0.85373899705E+01 -0.52088469213E+01 -0.25982320828E+02  0.27840619778E+02  0.51100000000E-03 0.  1.
<mgrwt>
<rscale>  0 0.20002094E+02</rscale>
<asrwt>0</asrwt>
<pdfrwt beam="2">  1        2 0.83159550E-02 0.20002094E+02</pdfrwt>
<pdfrwt beam="1">  1       -2 0.28467680E-03 0.20002094E+02</pdfrwt>
<totfact> 0.46878793E+06</totfact>
</mgrwt>
</event>
<event>
 5    1  0.4046313E-006  0.2000003E+02  0.7818608E-02  0.1745328E+00
          2   -1    0    0  501    0  0.00000000000E+00  0.00000000000E+00  0.12524528737E+02  0.12524529007E+02  0.26000000000E-02 0.  1.
         -2   -1    0    0    0  501 -0.00000000000E+00 -0.00000000000E+00 -0.79843533418E+01  0.79843537651E+01  0.26000000000E-02 0. -1.
       1023    2    1    2    0    0  0.00000000000E+00  0.00000000000E+00  0.45401753952E+01  0.20508882772E+02  0.20000026998E+02 0.  0.
        -11    1    3    3    0    0  0.79792180778E+01 -0.60276318250E+01  0.22719142160E+01  0.10254845733E+02  0.51100000000E-03 0.  1.
         11    1    3    3    0    0 -0.79792180778E+01  0.60276318250E+01  0.22682611792E+01  0.10254037039E+02  0.51100000000E-03 0. -1.
<mgrwt>
<rscale>  0 0.20000027E+02</rscale>
<asrwt>0</asrwt>
<pdfrwt beam="1">  1        2 0.19268506E-02 0.20000027E+02</pdfrwt>
<pdfrwt beam="2">  1       -2 0.12283621E-02 0.20000027E+02</pdfrwt>
<totfact> 0.40127451E+06</totfact>
</mgrwt>
</event>
<event>
 5    1  0.4046313E-006  0.2000493E+02  0.7818608E-02  0.1745230E+00
         -2   -1    0    0    0  501 -0.00000000000E+00  0.00000000000E+00  0.29734308087E+01  0.29734319454E+01  0.26000000000E-02 0.  1.
          2   -1    0    0  501    0  0.00000000000E+00 -0.00000000000E+00 -0.33647751352E+02  0.33647751452E+02  0.26000000000E-02 0. -1.
       1023    2    1    2    0    0  0.00000000000E+00  0.00000000000E+00 -0.30674320543E+02  0.36621183397E+02  0.20004927709E+02 0.  0.
        -11    1    3    3    0    0 -0.99620386271E+01 -0.88946895984E+00 -0.15568094701E+02  0.18504025009E+02  0.51100000000E-03 0.  1.
         11    1    3    3    0    0  0.99620386271E+01  0.88946895984E+00 -0.15106225842E+02  0.18117158389E+02  0.51100000000E-03 0. -1.
<mgrwt>
<rscale>  0 0.20004928E+02</rscale>
<asrwt>0</asrwt>
<pdfrwt beam="2">  1        2 0.51765770E-02 0.20004928E+02</pdfrwt>
<pdfrwt beam="1">  1       -2 0.45745101E-03 0.20004928E+02</pdfrwt>
<totfact> 0.43918195E+06</totfact>
</mgrwt>
</event>
<event>
 5    1  0.4046313E-006  0.2000030E+02  0.7818608E-02  0.1745322E+00
          2   -1    0    0  501    0  0.00000000000E+00  0.00000000000E+00  0.56820009607E+01  0.56820015555E+01  0.26000000000E-02 0.  1.
         -2   -1    0    0    0  501 -0.00000000000E+00 -0.00000000000E+00 -0.17599956390E+02  0.17599956582E+02  0.26000000000E-02 0. -1.
       1023    2    1    2    0    0  0.00000000000E+00  0.00000000000E+00 -0.11917955430E+02  0.23281958138E+02  0.20000297826E+02 0.  0.
        -11    1    3    3    0    0  0.51703606935E+01 -0.85597049867E+01 -0.59096056443E+01  0.11615705673E+02  0.51100000000E-03 0.  1.
         11    1    3    3    0    0 -0.51703606935E+01  0.85597049867E+01 -0.60083497854E+01  0.11666252464E+02  0.51100000000E-03 0. -1.
<mgrwt>
<rscale>  0 0.20000298E+02</rscale>
<asrwt>0</asrwt>
<pdfrwt beam="1">  1        2 0.87415406E-03 0.20000298E+02</pdfrwt>
<pdfrwt beam="2">  1       -2 0.27076856E-02 0.20000298E+02</pdfrwt>
<totfact> 0.37824059E+06</totfact>
</mgrwt>
</event>
<event>
 5    1  0.4046313E-006  0.2000901E+02  0.7818608E-02  0.1745149E+00
          2   -1    0    0  501    0  0.00000000000E+00  0.00000000000E+00  0.33973975983E+01  0.33973985932E+01  0.26000000000E-02 0.  1.
         -2   -1    0    0    0  501 -0.00000000000E+00 -0.00000000000E+00 -0.29460824723E+02  0.29460824838E+02  0.26000000000E-02 0. -1.
       1023    2    1    2    0    0  0.00000000000E+00  0.00000000000E+00 -0.26063427125E+02  0.32858223431E+02  0.20009013308E+02 0.  0.
        -11    1    3    3    0    0  0.97350138015E+01 -0.23063611796E+01 -0.13000663019E+02  0.16404482156E+02  0.51100000000E-03 0.  1.
         11    1    3    3    0    0 -0.97350138015E+01  0.23063611796E+01 -0.13062764105E+02  0.16453741275E+02  0.51100000000E-03 0. -1.
<mgrwt>
<rscale>  0 0.20009013E+02</rscale>
<asrwt>0</asrwt>
<pdfrwt beam="1">  1        2 0.52267666E-03 0.20009013E+02</pdfrwt>
<pdfrwt beam="2">  1       -2 0.45324345E-02 0.20009013E+02</pdfrwt>
<totfact> 0.36095518E+06</totfact>
</mgrwt>
</event>
<event>
 5    1  0.4046313E-006  0.2000830E+02  0.7818608E-02  0.1745163E+00
          2   -1    0    0  501    0  0.00000000000E+00  0.00000000000E+00  0.87879996823E+01  0.87880000669E+01  0.26000000000E-02 0. -1.
         -2   -1    0    0    0  501 -0.00000000000E+00 -0.00000000000E+00 -0.11388595654E+02  0.11388595951E+02  0.26000000000E-02 0.  1.
       1023    2    1    2    0    0  0.00000000000E+00  0.00000000000E+00 -0.26005959721E+01  0.20176596018E+02  0.20008296466E+02 0.  0.
        -11    1    3    3    0    0  0.73657006436E+01 -0.67696585138E+01 -0.13346320113E+01  0.10092723380E+02  0.51100000000E-03 0.  1.
         11    1    3    3    0    0 -0.73657006436E+01  0.67696585138E+01 -0.12659639608E+01  0.10083872638E+02  0.51100000000E-03 0. -1.
<mgrwt>
<rscale>  0 0.20008296E+02</rscale>
<asrwt>0</asrwt>
<pdfrwt beam="1">  1        2 0.13520000E-02 0.20008296E+02</pdfrwt>
<pdfrwt beam="2">  1       -2 0.17520917E-02 0.20008296E+02</pdfrwt>
<totfact> 0.39054721E+06</totfact>
</mgrwt>
</event>
<event>
 5    1  0.4046313E-006  0.2000074E+02  0.7818608E-02  0.1745313E+00
         -2   -1    0    0    0  501 -0.00000000000E+00  0.00000000000E+00  0.50256837448E+01  0.50256844174E+01  0.26000000000E-02 0.  1.
          2   -1    0    0  501    0  0.00000000000E+00 -0.00000000000E+00 -0.19899269568E+02  0.19899269738E+02  0.26000000000E-02 0. -1.
       1023    2    1    2    0    0  0.00000000000E+00  0.00000000000E+00 -0.14873585823E+02  0.24924954155E+02  0.20000744596E+02 0.  0.
        -11    1    3    3    0    0  0.68954678363E+01  0.72428587450E+01 -0.74755326884E+01  0.12485594448E+02  0.51100000000E-03 0.  1.
         11    1    3    3    0    0 -0.68954678363E+01 -0.72428587450E+01 -0.73980531349E+01  0.12439359707E+02  0.51100000000E-03 0. -1.
<mgrwt>
<rscale>  0 0.20000745E+02</rscale>
<asrwt>0</asrwt>
<pdfrwt beam="2">  1        2 0.30614261E-02 0.20000745E+02</pdfrwt>
<pdfrwt beam="1">  1       -2 0.77318219E-03 0.20000745E+02</pdfrwt>
<totfact> 0.41655907E+06</totfact>
</mgrwt>
</event>
<event>
 5    1  0.4202005E-006  0.2000076E+02  0.7818608E-02  0.1745313E+00
          2   -1    0    0  501    0  0.00000000000E+00  0.00000000000E+00  0.75260130052E+02  0.75260130097E+02  0.26000000000E-02 0. -1.
         -2   -1    0    0    0  501 -0.00000000000E+00 -0.00000000000E+00 -0.13288245079E+01  0.13288270515E+01  0.26000000000E-02 0.  1.
       1023    2    1    2    0    0  0.00000000000E+00  0.00000000000E+00  0.73931305544E+02  0.76588957148E+02  0.20000760427E+02 0.  0.
        -11    1    3    3    0    0 -0.91031764931E+01  0.41399136513E+01  0.37080330274E+02  0.38405176745E+02  0.51100000000E-03 0. -1.
         11    1    3    3    0    0  0.91031764931E+01 -0.41399136513E+01  0.36850975269E+02  0.38183780403E+02  0.51100000000E-03 0.  1.
<mgrwt>
<rscale>  0 0.20000760E+02</rscale>
<asrwt>0</asrwt>
<pdfrwt beam="1">  1        2 0.11578485E-01 0.20000760E+02</pdfrwt>
<pdfrwt beam="2">  1       -2 0.20443468E-03 0.20000760E+02</pdfrwt>
<totfact> 0.49693668E+06</totfact>
</mgrwt>
</event>
<event>
 4    1  0.4046313E-006  0.2002369E+02  0.7818608E-02  0.1744857E+00
          2   -1    0    0  501    0  0.00000000000E+00  0.00000000000E+00  0.50781024746E+02  0.50781024812E+02  0.26000000000E-02 0.  1.
         -2   -1    0    0    0  501 -0.00000000000E+00 -0.00000000000E+00 -0.19739068761E+01  0.19739085884E+01  0.26000000000E-02 0. -1.
        -11    1    1    2    0    0 -0.56759491309E+00 -0.99847711021E+01  0.23169938861E+02  0.25236162248E+02  0.51100000000E-03 0.  1.
         11    1    1    2    0    0  0.56759491309E+00  0.99847711021E+01  0.25637179009E+02  0.27518771153E+02  0.51100000000E-03 0. -1.
<mgrwt>
<rscale>  0 0.20023692E+02</rscale>
<asrwt>0</asrwt>
<pdfrwt beam="1">  1        2 0.78124657E-02 0.20023692E+02</pdfrwt>
<pdfrwt beam="2">  1       -2 0.30367811E-03 0.20023692E+02</pdfrwt>
<totfact> 0.46314794E+06</totfact>
</mgrwt>
</event>
<event>
 5    1  0.4046313E-006  0.2000547E+02  0.7818608E-02  0.1745219E+00
         -2   -1    0    0    0  501 -0.00000000000E+00  0.00000000000E+00  0.26053146636E+01  0.26053159609E+01  0.26000000000E-02 0.  1.
          2   -1    0    0  501    0  0.00000000000E+00 -0.00000000000E+00 -0.38404074968E+02  0.38404075056E+02  0.26000000000E-02 0. -1.
       1023    2    1    2    0    0  0.00000000000E+00  0.00000000000E+00 -0.35798760304E+02  0.41009391017E+02  0.20005472058E+02 0.  0.
        -11    1    3    3    0    0  0.99901154233E+01 -0.46978699734E+00 -0.18263905603E+02  0.20822904556E+02  0.51100000000E-03 0. -1.
         11    1    3    3    0    0 -0.99901154233E+01  0.46978699734E+00 -0.17534854701E+02  0.20186486461E+02  0.51100000000E-03 0.  1.
<mgrwt>
<rscale>  0 0.20005472E+02</rscale>
<asrwt>0</asrwt>
<pdfrwt beam="2">  1        2 0.59083189E-02 0.20005472E+02</pdfrwt>
<pdfrwt beam="1">  1       -2 0.40081778E-03 0.20005472E+02</pdfrwt>
<totfact> 0.44633188E+06</totfact>
</mgrwt>
</event>
<event>
 5    1  0.4046313E-006  0.2000103E+02  0.7818608E-02  0.1745308E+00
          2   -1    0    0  501    0  0.00000000000E+00  0.00000000000E+00  0.19365708103E+02  0.19365708277E+02  0.26000000000E-02 0. -1.
         -2   -1    0    0    0  501 -0.00000000000E+00 -0.00000000000E+00 -0.51642957234E+01  0.51642963779E+01  0.26000000000E-02 0.  1.
       1023    2    1    2    0    0  0.00000000000E+00  0.00000000000E+00  0.14201412379E+02  0.24530004655E+02  0.20001025344E+02 0.  0.
        -11    1    3    3    0    0  0.99351376100E+01 -0.11395857295E+01  0.71842343769E+01  0.12313360175E+02  0.51100000000E-03 0.  1.
         11    1    3    3    0    0 -0.99351376100E+01  0.11395857295E+01  0.70171780024E+01  0.12216644480E+02  0.51100000000E-03 0. -1.
<mgrwt>
<rscale>  0 0.20001025E+02</rscale>
<asrwt>0</asrwt>
<pdfrwt beam="1">  1        2 0.29793397E-02 0.20001025E+02</pdfrwt>
<pdfrwt beam="2">  1       -2 0.79450712E-03 0.20001025E+02</pdfrwt>
<totfact> 0.41555443E+06</totfact>
</mgrwt>
</event>
<event>
 5    1  0.4046313E-006  0.2000099E+02  0.7818608E-02  0.1745308E+00
          2   -1    0    0  501    0  0.00000000000E+00  0.00000000000E+00  0.33951724509E+02  0.33951724609E+02  0.26000000000E-02 0.  1.
         -2   -1    0    0    0  501 -0.00000000000E+00 -0.00000000000E+00 -0.29456508371E+01  0.29456519846E+01  0.26000000000E-02 0. -1.
       1023    2    1    2    0    0  0.00000000000E+00  0.00000000000E+00  0.31006073672E+02  0.36897376594E+02  0.20000994848E+02 0.  0.
        -11    1    3    3    0    0 -0.75368141957E+01 -0.65729410173E+01  0.15601116357E+02  0.18531107730E+02  0.51100000000E-03 0.  1.
         11    1    3    3    0    0  0.75368141957E+01  0.65729410173E+01  0.15404957315E+02  0.18366268864E+02  0.51100000000E-03 0. -1.
<mgrwt>
<rscale>  0 0.20000995E+02</rscale>
<asrwt>0</asrwt>
<pdfrwt beam="1">  1        2 0.52233424E-02 0.20000995E+02</pdfrwt>
<pdfrwt beam="2">  1       -2 0.45317714E-03 0.20000995E+02</pdfrwt>
<totfact> 0.43984159E+06</totfact>
</mgrwt>
</event>
<event>
 5    1  0.4308565E-006  0.2000185E+02  0.7818608E-02  0.1745291E+00
          2   -1    0    0  501    0  0.00000000000E+00  0.00000000000E+00  0.94543922571E+02  0.94543922607E+02  0.26000000000E-02 0.  1.
         -2   -1    0    0    0  501 -0.00000000000E+00 -0.00000000000E+00 -0.10579030409E+01  0.10579062358E+01  0.26000000000E-02 0. -1.
       1023    2    1    2    0    0  0.00000000000E+00  0.00000000000E+00  0.93486019530E+02  0.95601828843E+02  0.20001845676E+02 0.  0.
        -11    1    3    3    0    0 -0.88482978899E+01  0.46611242072E+01  0.46751191647E+02  0.47808915227E+02  0.51100000000E-03 0.  1.
         11    1    3    3    0    0  0.88482978899E+01 -0.46611242072E+01  0.46734827883E+02  0.47792913616E+02  0.51100000000E-03 0. -1.
<mgrwt>
<rscale>  0 0.20001846E+02</rscale>
<asrwt>0</asrwt>
<pdfrwt beam="1">  1        2 0.14545227E-01 0.20001846E+02</pdfrwt>
<pdfrwt beam="2">  1       -2 0.16275448E-03 0.20001846E+02</pdfrwt>
<totfact> 0.52089344E+06</totfact>
</mgrwt>
</event>
<event>
 5    1  0.4046313E-006  0.2000015E+02  0.7818608E-02  0.1745325E+00
          2   -1    0    0  501    0  0.00000000000E+00  0.00000000000E+00  0.74570420919E+01  0.74570425451E+01  0.26000000000E-02 0. -1.
         -2   -1    0    0    0  501 -0.00000000000E+00 -0.00000000000E+00 -0.13410342872E+02  0.13410343124E+02  0.26000000000E-02 0.  1.
       1023    2    1    2    0    0  0.00000000000E+00  0.00000000000E+00 -0.59533007798E+01  0.20867385669E+02  0.20000149861E+02 0.  0.
        -11    1    3    3    0    0 -0.35067882796E+01 -0.93650377551E+01 -0.29781857401E+01  0.10434130858E+02  0.51100000000E-03 0. -1.
         11    1    3    3    0    0  0.35067882796E+01  0.93650377551E+01 -0.29751150397E+01  0.10433254811E+02  0.51100000000E-03 0.  1.
<mgrwt>
<rscale>  0 0.20000150E+02</rscale>
<asrwt>0</asrwt>
<pdfrwt beam="1">  1        2 0.11472373E-02 0.20000150E+02</pdfrwt>
<pdfrwt beam="2">  1       -2 0.20631297E-02 0.20000150E+02</pdfrwt>
<totfact> 0.38620883E+06</totfact>
</mgrwt>
</event>
<event>
 5    1  0.4046313E-006  0.2000101E+02  0.7818608E-02  0.1745308E+00
         -2   -1    0    0    0  501 -0.00000000000E+00  0.00000000000E+00  0.69543794561E+01  0.69543799422E+01  0.26000000000E-02 0.  1.
          2   -1    0    0  501    0  0.00000000000E+00 -0.00000000000E+00 -0.14380882857E+02  0.14380883092E+02  0.26000000000E-02 0. -1.
       1023    2    1    2    0    0  0.00000000000E+00  0.00000000000E+00 -0.74265034004E+01  0.21335263034E+02  0.20001012373E+02 0.  0.
        -11    1    3    3    0    0  0.15152081047E+01  0.98849199909E+01 -0.36586001368E+01  0.10648608080E+02  0.51100000000E-03 0. -1.
         11    1    3    3    0    0 -0.15152081047E+01 -0.98849199909E+01 -0.37679032635E+01  0.10686654953E+02  0.51100000000E-03 0.  1.
<mgrwt>
<rscale>  0 0.20001012E+02</rscale>
<asrwt>0</asrwt>
<pdfrwt beam="2">  1        2 0.22124436E-02 0.20001012E+02</pdfrwt>
<pdfrwt beam="1">  1       -2 0.10699046E-02 0.20001012E+02</pdfrwt>
<totfact> 0.40550405E+06</totfact>
</mgrwt>
</event>
<event>
 5    1  0.4046313E-006  0.2000032E+02  0.7818608E-02  0.1745322E+00
          2   -1    0    0  501    0  0.00000000000E+00  0.00000000000E+00  0.95704065253E+00  0.95704418424E+00  0.26000000000E-02 0. -1.
         -2   -1    0    0    0  501 -0.00000000000E+00 -0.00000000000E+00 -0.10449187786E+03  0.10449187789E+03  0.26000000000E-02 0.  1.
       1023    2    1    2    0    0  0.00000000000E+00  0.00000000000E+00 -0.10353483721E+03  0.10544892208E+03  0.20000316286E+02 0.  0.
        -11    1    3    3    0    0 -0.70029935344E+01 -0.71386550436E+01 -0.51613853394E+02  0.52573683310E+02  0.51100000000E-03 0. -1.
         11    1    3    3    0    0  0.70029935344E+01  0.71386550436E+01 -0.51920983814E+02  0.52875238768E+02  0.51100000000E-03 0.  1.
<mgrwt>
<rscale>  0 0.20000316E+02</rscale>
<asrwt>0</asrwt>
<pdfrwt beam="1">  1        2 0.14723738E-03 0.20000316E+02</pdfrwt>
<pdfrwt beam="2">  1       -2 0.16075665E-01 0.20000316E+02</pdfrwt>
<totfact> 0.29406715E+06</totfact>
</mgrwt>
</event>
<event>
 5    1  0.4046313E-006  0.2000402E+02  0.7818608E-02  0.1745248E+00
          2   -1    0    0  501    0  0.00000000000E+00  0.00000000000E+00  0.91665400251E+01  0.91665403939E+01  0.26000000000E-02 0.  1.
         -2   -1    0    0    0  501 -0.00000000000E+00 -0.00000000000E+00 -0.10913625367E+02  0.10913625677E+02  0.26000000000E-02 0. -1.
       1023    2    1    2    0    0  0.00000000000E+00  0.00000000000E+00 -0.17470853418E+01  0.20080166071E+02  0.20004018652E+02 0.  0.
        -11    1    3    3    0    0 -0.21218835700E+01 -0.97742970708E+01 -0.84314235027E+00  0.10037438040E+02  0.51100000000E-03 0.  1.
         11    1    3    3    0    0  0.21218835700E+01  0.97742970708E+01 -0.90394299157E+00  0.10042728031E+02  0.51100000000E-03 0. -1.
<mgrwt>
<rscale>  0 0.20004019E+02</rscale>
<asrwt>0</asrwt>
<pdfrwt beam="1">  1        2 0.14102370E-02 0.20004019E+02</pdfrwt>
<pdfrwt beam="2">  1       -2 0.16790193E-02 0.20004019E+02</pdfrwt>
<totfact> 0.39194662E+06</totfact>
</mgrwt>
</event>
<event>
 5    1  0.4046313E-006  0.2000868E+02  0.7818608E-02  0.1745156E+00
          2   -1    0    0  501    0  0.00000000000E+00  0.00000000000E+00  0.16389589317E+01  0.16389609940E+01  0.26000000000E-02 0. -1.
         -2   -1    0    0    0  501 -0.00000000000E+00 -0.00000000000E+00 -0.61067268904E+02  0.61067268960E+02  0.26000000000E-02 0.  1.
       1023    2    1    2    0    0  0.00000000000E+00  0.00000000000E+00 -0.59428309973E+02  0.62706229954E+02  0.20008679337E+02 0.  0.
        -11    1    3    3    0    0  0.89813793410E+01 -0.44059547673E+01 -0.29413562483E+02  0.31068235716E+02  0.51100000000E-03 0.  1.
         11    1    3    3    0    0 -0.89813793410E+01  0.44059547673E+01 -0.30014747489E+02  0.31637994238E+02  0.51100000000E-03 0. -1.
<mgrwt>
<rscale>  0 0.20008679E+02</rscale>
<asrwt>0</asrwt>
<pdfrwt beam="1">  1        2 0.25214774E-03 0.20008679E+02</pdfrwt>
<pdfrwt beam="2">  1       -2 0.93949628E-02 0.20008679E+02</pdfrwt>
<totfact> 0.32832489E+06</totfact>
</mgrwt>
</event>
<event>
 5    1  0.4046313E-006  0.2000038E+02  0.7818608E-02  0.1745321E+00
          2   -1    0    0  501    0  0.00000000000E+00  0.00000000000E+00  0.62959695439E+02  0.62959695492E+02  0.26000000000E-02 0. -1.
         -2   -1    0    0    0  501 -0.00000000000E+00 -0.00000000000E+00 -0.15883770875E+01  0.15883792154E+01  0.26000000000E-02 0.  1.
       1023    2    1    2    0    0  0.00000000000E+00  0.00000000000E+00  0.61371318351E+02  0.64548074708E+02  0.20000380804E+02 0.  0.
        -11    1    3    3    0    0  0.99971018627E+01  0.24679138445E+00  0.30780092872E+02  0.32363823462E+02  0.51100000000E-03 0. -1.
         11    1    3    3    0    0 -0.99971018627E+01 -0.24679138445E+00  0.30591225480E+02  0.32184251246E+02  0.51100000000E-03 0.  1.
<mgrwt>
<rscale>  0 0.20000381E+02</rscale>
<asrwt>0</asrwt>
<pdfrwt beam="1">  1        2 0.96861061E-02 0.20000381E+02</pdfrwt>
<pdfrwt beam="2">  1       -2 0.24436590E-03 0.20000381E+02</pdfrwt>
<totfact> 0.48091694E+06</totfact>
</mgrwt>
</event>
<event>
 5    1  0.4046313E-006  0.2000037E+02  0.7818608E-02  0.1745321E+00
          2   -1    0    0  501    0  0.00000000000E+00  0.00000000000E+00  0.19893494254E+02  0.19893494424E+02  0.26000000000E-02 0.  1.
         -2   -1    0    0    0  501 -0.00000000000E+00 -0.00000000000E+00 -0.50269534904E+01  0.50269541628E+01  0.26000000000E-02 0. -1.
       1023    2    1    2    0    0  0.00000000000E+00  0.00000000000E+00  0.14866540764E+02  0.24920448587E+02  0.20000368084E+02 0.  0.
        -11    1    3    3    0    0 -0.85112897234E+01  0.52498884742E+01  0.74548108053E+01  0.12473074447E+02  0.51100000000E-03 0.  1.
         11    1    3    3    0    0  0.85112897234E+01 -0.52498884742E+01  0.74117299583E+01  0.12447374140E+02  0.51100000000E-03 0. -1.
<mgrwt>
<rscale>  0 0.20000368E+02</rscale>
<asrwt>0</asrwt>
<pdfrwt beam="1">  1        2 0.30605376E-02 0.20000368E+02</pdfrwt>
<pdfrwt beam="2">  1       -2 0.77337752E-03 0.20000368E+02</pdfrwt>
<totfact> 0.41656608E+06</totfact>
</mgrwt>
</event>
<event>
 5    1  0.4115289E-006  0.2000135E+02  0.7818608E-02  0.1745301E+00
         -2   -1    0    0    0  501 -0.00000000000E+00  0.00000000000E+00  0.11099368224E+01  0.11099398676E+01  0.26000000000E-02 0.  1.
          2   -1    0    0  501    0  0.00000000000E+00 -0.00000000000E+00 -0.90107223648E+02  0.90107223685E+02  0.26000000000E-02 0. -1.
       1023    2    1    2    0    0  0.00000000000E+00  0.00000000000E+00 -0.88997286825E+02  0.91217163553E+02  0.20001346563E+02 0.  0.
        -11    1    3    3    0    0  0.95305154641E+01  0.30300346600E+01 -0.44314475404E+02  0.45428895712E+02  0.51100000000E-03 0. -1.
         11    1    3    3    0    0 -0.95305154641E+01 -0.30300346600E+01 -0.44682811422E+02  0.45788267841E+02  0.51100000000E-03 0.  1.
<mgrwt>
<rscale>  0 0.20001347E+02</rscale>
<asrwt>0</asrwt>
<pdfrwt beam="2">  1        2 0.13862644E-01 0.20001347E+02</pdfrwt>
<pdfrwt beam="1">  1       -2 0.17075982E-03 0.20001347E+02</pdfrwt>
<totfact> 0.51550226E+06</totfact>
</mgrwt>
</event>
<event>
 5    1  0.4046313E-006  0.2000031E+02  0.7818608E-02  0.1745322E+00
          2   -1    0    0  501    0  0.00000000000E+00  0.00000000000E+00  0.23198485512E+02  0.23198485657E+02  0.26000000000E-02 0.  1.
         -2   -1    0    0    0  501 -0.00000000000E+00 -0.00000000000E+00 -0.43107584304E+01  0.43107592145E+01  0.26000000000E-02 0. -1.
       1023    2    1    2    0    0  0.00000000000E+00  0.00000000000E+00  0.18887727081E+02  0.27509244872E+02  0.20000307976E+02 0.  0.
        -11    1    3    3    0    0 -0.10602529368E+01  0.99437392105E+01  0.94005045385E+01  0.13724852335E+02  0.51100000000E-03 0.  1.
         11    1    3    3    0    0  0.10602529368E+01 -0.99437392105E+01  0.94872225428E+01  0.13784392537E+02  0.51100000000E-03 0. -1.
<mgrwt>
<rscale>  0 0.20000308E+02</rscale>
<asrwt>0</asrwt>
<pdfrwt beam="1">  1        2 0.35689978E-02 0.20000308E+02</pdfrwt>
<pdfrwt beam="2">  1       -2 0.66319368E-03 0.20000308E+02</pdfrwt>
<totfact> 0.42247300E+06</totfact>
</mgrwt>
</event>
<event>
 5    1  0.4046313E-006  0.2000125E+02  0.7818608E-02  0.1745303E+00
         -2   -1    0    0    0  501 -0.00000000000E+00  0.00000000000E+00  0.10216026303E+02  0.10216026634E+02  0.26000000000E-02 0. -1.
          2   -1    0    0  501    0  0.00000000000E+00 -0.00000000000E+00 -0.97897654385E+01  0.97897657837E+01  0.26000000000E-02 0.  1.
       1023    2    1    2    0    0  0.00000000000E+00  0.00000000000E+00  0.42626086450E+00  0.20005792418E+02  0.20001250759E+02 0.  0.
        -11    1    3    3    0    0 -0.94881347805E+01 -0.31599724370E+01  0.16433098692E+00  0.10001856445E+02  0.51100000000E-03 0.  1.
         11    1    3    3    0    0  0.94881347805E+01  0.31599724370E+01  0.26192987757E+00  0.10003935972E+02  0.51100000000E-03 0. -1.
<mgrwt>
<rscale>  0 0.20001251E+02</rscale>
<asrwt>0</asrwt>
<pdfrwt beam="2">  1        2 0.15061178E-02 0.20001251E+02</pdfrwt>
<pdfrwt beam="1">  1       -2 0.15716964E-02 0.20001251E+02</pdfrwt>
<totfact> 0.39396167E+06</totfact>
</mgrwt>
</event>
<event>
 5    1  0.4046313E-006  0.2000017E+02  0.7818608E-02  0.1745325E+00
          2   -1    0    0  501    0  0.00000000000E+00  0.00000000000E+00  0.28692580464E+02  0.28692580581E+02  0.26000000000E-02 0. -1.
         -2   -1    0    0    0  501 -0.00000000000E+00 -0.00000000000E+00 -0.34852804021E+01  0.34852813719E+01  0.26000000000E-02 0.  1.
       1023    2    1    2    0    0  0.00000000000E+00  0.00000000000E+00  0.25207300062E+02  0.32177861953E+02  0.20000170587E+02 0.  0.
        -11    1    3    3    0    0 -0.64523093771E+01  0.76399600404E+01  0.12570681919E+02  0.16063104616E+02  0.51100000000E-03 0. -1.
         11    1    3    3    0    0  0.64523093771E+01 -0.76399600404E+01  0.12636618142E+02  0.16114757338E+02  0.51100000000E-03 0.  1.
<mgrwt>
<rscale>  0 0.20000171E+02</rscale>
<asrwt>0</asrwt>
<pdfrwt beam="1">  1        2 0.44142433E-02 0.20000171E+02</pdfrwt>
<pdfrwt beam="2">  1       -2 0.53619706E-03 0.20000171E+02</pdfrwt>
<totfact> 0.43163539E+06</totfact>
</mgrwt>
</event>
<event>
 4    1  0.4046313E-006  0.2004374E+02  0.7818608E-02  0.1744460E+00
          2   -1    0    0  501    0  0.00000000000E+00  0.00000000000E+00  0.25418633025E+02  0.25418633157E+02  0.26000000000E-02 0.  1.
         -2   -1    0    0    0  501 -0.00000000000E+00 -0.00000000000E+00 -0.39513462767E+01  0.39513471321E+01  0.26000000000E-02 0. -1.
        -11    1    1    2    0    0  0.98386446886E+01 -0.18696378299E+01  0.10178839579E+02  0.14279469540E+02  0.51100000000E-03 0.  1.
         11    1    1    2    0    0 -0.98386446886E+01  0.18696378299E+01  0.11288447169E+02  0.15090510749E+02  0.51100000000E-03 0. -1.
<mgrwt>
<rscale>  0 0.20043736E+02</rscale>
<asrwt>0</asrwt>
<pdfrwt beam="1">  1        2 0.39105590E-02 0.20043736E+02</pdfrwt>
<pdfrwt beam="2">  1       -2 0.60789950E-03 0.20043736E+02</pdfrwt>
<totfact> 0.42418344E+06</totfact>
</mgrwt>
</event>
<event>
 5    1  0.4046313E-006  0.2000137E+02  0.7818608E-02  0.1745301E+00
         -2   -1    0    0    0  501 -0.00000000000E+00  0.00000000000E+00  0.29946628525E+02  0.29946628638E+02  0.26000000000E-02 0. -1.
          2   -1    0    0  501    0  0.00000000000E+00 -0.00000000000E+00 -0.33397318591E+01  0.33397328712E+01  0.26000000000E-02 0.  1.
       1023    2    1    2    0    0  0.00000000000E+00  0.00000000000E+00  0.26606896666E+02  0.33286361509E+02  0.20001372761E+02 0.  0.
        -11    1    3    3    0    0 -0.31764759069E+01  0.94827635557E+01  0.13354035229E+02  0.16683616544E+02  0.51100000000E-03 0.  1.
         11    1    3    3    0    0  0.31764759069E+01 -0.94827635557E+01  0.13252861438E+02  0.16602744965E+02  0.51100000000E-03 0. -1.
<mgrwt>
<rscale>  0 0.20001373E+02</rscale>
<asrwt>0</asrwt>
<pdfrwt beam="2">  1        2 0.51380500E-03 0.20001373E+02</pdfrwt>
<pdfrwt beam="1">  1       -2 0.46071736E-02 0.20001373E+02</pdfrwt>
<totfact> 0.36065513E+06</totfact>
</mgrwt>
</event>
<event>
 5    1  0.4046313E-006  0.2000119E+02  0.7818608E-02  0.1745304E+00
          2   -1    0    0  501    0  0.00000000000E+00  0.00000000000E+00  0.40618664655E+01  0.40618672976E+01  0.26000000000E-02 0. -1.
         -2   -1    0    0    0  501 -0.00000000000E+00 -0.00000000000E+00 -0.24622145912E+02  0.24622146050E+02  0.26000000000E-02 0.  1.
       1023    2    1    2    0    0  0.00000000000E+00  0.00000000000E+00 -0.20560279447E+02  0.28684013347E+02  0.20001188234E+02 0.  0.
        -11    1    3    3    0    0  0.98689041327E+01  0.16167625359E+01 -0.10354555729E+02  0.14395346974E+02  0.51100000000E-03 0.  1.
         11    1    3    3    0    0 -0.98689041327E+01 -0.16167625359E+01 -0.10205723717E+02  0.14288666374E+02  0.51100000000E-03 0. -1.
<mgrwt>
<rscale>  0 0.20001188E+02</rscale>
<asrwt>0</asrwt>
<pdfrwt beam="1">  1        2 0.62490262E-03 0.20001188E+02</pdfrwt>
<pdfrwt beam="2">  1       -2 0.37880224E-02 0.20001188E+02</pdfrwt>
<totfact> 0.36755692E+06</totfact>
</mgrwt>
</event>
<event>
 5    1  0.4046313E-006  0.2000204E+02  0.7818608E-02  0.1745288E+00
         -2   -1    0    0    0  501 -0.00000000000E+00  0.00000000000E+00  0.62930402055E+01  0.62930407426E+01  0.26000000000E-02 0.  1.
          2   -1    0    0  501    0  0.00000000000E+00 -0.00000000000E+00 -0.15893805784E+02  0.15893805997E+02  0.26000000000E-02 0. -1.
       1023    2    1    2    0    0  0.00000000000E+00  0.00000000000E+00 -0.96007655787E+01  0.22186846739E+02  0.20002036610E+02 0.  0.
        -11    1    3    3    0    0  0.91096175544E+01  0.41252272219E+01 -0.46526625281E+01  0.11029501371E+02  0.51100000000E-03 0.  1.
         11    1    3    3    0    0 -0.91096175544E+01 -0.41252272219E+01 -0.49481030506E+01  0.11157345369E+02  0.51100000000E-03 0. -1.
<mgrwt>
<rscale>  0 0.20002037E+02</rscale>
<asrwt>0</asrwt>
<pdfrwt beam="2">  1        2 0.24452009E-02 0.20002037E+02</pdfrwt>
<pdfrwt beam="1">  1       -2 0.96816010E-03 0.20002037E+02</pdfrwt>
<totfact> 0.40868647E+06</totfact>
</mgrwt>
</event>
<event>
 5    1  0.4271903E-006  0.2000331E+02  0.7818608E-02  0.1745262E+00
          2   -1    0    0  501    0  0.00000000000E+00  0.00000000000E+00  0.65369559298E+02  0.65369559349E+02  0.26000000000E-02 0.  1.
         -2   -1    0    0    0  501 -0.00000000000E+00 -0.00000000000E+00 -0.15302691028E+01  0.15302713116E+01  0.26000000000E-02 0. -1.
       1023    2    1    2    0    0  0.00000000000E+00  0.00000000000E+00  0.63839290195E+02  0.66899830661E+02  0.20003308973E+02 0.  0.
        -11    1    3    3    0    0  0.94595598820E+01  0.32430386557E+01  0.32522751497E+02  0.34025430755E+02  0.51100000000E-03 0.  1.
         11    1    3    3    0    0 -0.94595598820E+01 -0.32430386557E+01  0.31316538698E+02  0.32874399906E+02  0.51100000000E-03 0. -1.
<mgrwt>
<rscale>  0 0.20003309E+02</rscale>
<asrwt>0</asrwt>
<pdfrwt beam="1">  1        2 0.10056855E-01 0.20003309E+02</pdfrwt>
<pdfrwt beam="2">  1       -2 0.23542621E-03 0.20003309E+02</pdfrwt>
<totfact> 0.48395398E+06</totfact>
</mgrwt>
</event>
<event>
 5    1  0.4046313E-006  0.2000142E+02  0.7818608E-02  0.1745300E+00
          2   -1    0    0  501    0  0.00000000000E+00  0.00000000000E+00  0.15840225717E+02  0.15840225930E+02  0.26000000000E-02 0. -1.
         -2   -1    0    0    0  501 -0.00000000000E+00 -0.00000000000E+00 -0.63139389282E+01  0.63139394636E+01  0.26000000000E-02 0.  1.
       1023    2    1    2    0    0  0.00000000000E+00  0.00000000000E+00  0.95262867883E+01  0.22154165393E+02  0.20001422557E+02 0.  0.
        -11    1    3    3    0    0 -0.92529183582E+01 -0.37940922973E+01  0.47067596004E+01  0.11052837676E+02  0.51100000000E-03 0.  1.
         11    1    3    3    0    0  0.92529183582E+01  0.37940922973E+01  0.48195271879E+01  0.11101327717E+02  0.51100000000E-03 0. -1.
<mgrwt>
<rscale>  0 0.20001423E+02</rscale>
<asrwt>0</asrwt>
<pdfrwt beam="1">  1        2 0.24369578E-02 0.20001423E+02</pdfrwt>
<pdfrwt beam="2">  1       -2 0.97137529E-03 0.20001423E+02</pdfrwt>
<totfact> 0.40860364E+06</totfact>
</mgrwt>
</event>
<event>
 5    1  0.4208293E-006  0.2000088E+02  0.7818608E-02  0.1745311E+00
         -2   -1    0    0    0  501 -0.00000000000E+00  0.00000000000E+00  0.11402204059E+01  0.11402233702E+01  0.26000000000E-02 0. -1.
          2   -1    0    0  501    0  0.00000000000E+00 -0.00000000000E+00 -0.87709937617E+02  0.87709937655E+02  0.26000000000E-02 0.  1.
       1023    2    1    2    0    0  0.00000000000E+00  0.00000000000E+00 -0.86569717211E+02  0.88850161026E+02  0.20000879388E+02 0.  0.
        -11    1    3    3    0    0 -0.37678183053E+01 -0.92634743582E+01 -0.43371665127E+02  0.44509659043E+02  0.51100000000E-03 0. -1.
         11    1    3    3    0    0  0.37678183053E+01  0.92634743582E+01 -0.43198052084E+02  0.44340501982E+02  0.51100000000E-03 0.  1.
<mgrwt>
<rscale>  0 0.20000879E+02</rscale>
<asrwt>0</asrwt>
<pdfrwt beam="2">  1        2 0.13493832E-01 0.20000879E+02</pdfrwt>
<pdfrwt beam="1">  1       -2 0.17541882E-03 0.20000879E+02</pdfrwt>
<totfact> 0.51257344E+06</totfact>
</mgrwt>
</event>
<event>
 5    1  0.4046313E-006  0.2000064E+02  0.7818608E-02  0.1745315E+00
          2   -1    0    0  501    0  0.00000000000E+00  0.00000000000E+00  0.13093926823E+02  0.13093927081E+02  0.26000000000E-02 0.  1.
         -2   -1    0    0    0  501 -0.00000000000E+00 -0.00000000000E+00 -0.76376165379E+01  0.76376169804E+01  0.26000000000E-02 0. -1.
       1023    2    1    2    0    0  0.00000000000E+00  0.00000000000E+00  0.54563102847E+01  0.20731544061E+02  0.20000639921E+02 0.  0.
        -11    1    3    3    0    0  0.88224767364E+01  0.47080339201E+01  0.27993672256E+01  0.10384514254E+02  0.51100000000E-03 0. -1.
         11    1    3    3    0    0 -0.88224767364E+01 -0.47080339201E+01  0.26569430590E+01  0.10347029808E+02  0.51100000000E-03 0.  1.
<mgrwt>
<rscale>  0 0.20000640E+02</rscale>
<asrwt>0</asrwt>
<pdfrwt beam="1">  1        2 0.20144503E-02 0.20000640E+02</pdfrwt>
<pdfrwt beam="2">  1       -2 0.11750180E-02 0.20000640E+02</pdfrwt>
<totfact> 0.40260212E+06</totfact>
</mgrwt>
</event>
<event>
 5    1  0.4046313E-006  0.2000397E+02  0.7818608E-02  0.1745249E+00
         -2   -1    0    0    0  501 -0.00000000000E+00  0.00000000000E+00  0.11954263374E+02  0.11954263656E+02  0.26000000000E-02 0. -1.
          2   -1    0    0  501    0  0.00000000000E+00 -0.00000000000E+00 -0.83685344535E+01  0.83685348574E+01  0.26000000000E-02 0.  1.
       1023    2    1    2    0    0  0.00000000000E+00  0.00000000000E+00  0.35857289202E+01  0.20322798514E+02  0.20003966795E+02 0.  0.
        -11    1    3    3    0    0  0.92321308146E+01 -0.38477615273E+01  0.17456099417E+01  0.10153061729E+02  0.51100000000E-03 0. -1.
         11    1    3    3    0    0 -0.92321308146E+01  0.38477615273E+01  0.18401189785E+01  0.10169736784E+02  0.51100000000E-03 0.  1.
<mgrwt>
<rscale>  0 0.20003967E+02</rscale>
<asrwt>0</asrwt>
<pdfrwt beam="2">  1        2 0.12874669E-02 0.20003967E+02</pdfrwt>
<pdfrwt beam="1">  1       -2 0.18391175E-02 0.20003967E+02</pdfrwt>
<totfact> 0.38934179E+06</totfact>
</mgrwt>
</event>
<event>
 5    1  0.4046313E-006  0.2000195E+02  0.7818608E-02  0.1745289E+00
         -2   -1    0    0    0  501 -0.00000000000E+00  0.00000000000E+00  0.86848306050E+02  0.86848306089E+02  0.26000000000E-02 0.  1.
          2   -1    0    0  501    0  0.00000000000E+00 -0.00000000000E+00 -0.11516556496E+01  0.11516585845E+01  0.26000000000E-02 0. -1.
       1023    2    1    2    0    0  0.00000000000E+00  0.00000000000E+00  0.85696650401E+02  0.87999964674E+02  0.20001947222E+02 0.  0.
        -11    1    3    3    0    0 -0.33434107998E+00 -0.99950206039E+01  0.43222988806E+02  0.44364839484E+02  0.51100000000E-03 0.  1.
         11    1    3    3    0    0  0.33434107998E+00  0.99950206039E+01  0.42473661595E+02  0.43635125190E+02  0.51100000000E-03 0. -1.
<mgrwt>
<rscale>  0 0.20001947E+02</rscale>
<asrwt>0</asrwt>
<pdfrwt beam="2">  1        2 0.17717801E-03 0.20001947E+02</pdfrwt>
<pdfrwt beam="1">  1       -2 0.13361279E-01 0.20001947E+02</pdfrwt>
<totfact> 0.30711254E+06</totfact>
</mgrwt>
</event>
<event>
 5    1  0.4046313E-006  0.2000428E+02  0.7818608E-02  0.1745243E+00
          2   -1    0    0  501    0  0.00000000000E+00  0.00000000000E+00  0.41876210885E+02  0.41876210965E+02  0.26000000000E-02 0. -1.
         -2   -1    0    0    0  501 -0.00000000000E+00 -0.00000000000E+00 -0.23890131738E+01  0.23890145886E+01  0.26000000000E-02 0.  1.
       1023    2    1    2    0    0  0.00000000000E+00  0.00000000000E+00  0.39487197711E+02  0.44265225554E+02  0.20004284798E+02 0.  0.
        -11    1    3    3    0    0  0.99820912866E+01  0.61784850133E+00  0.20048362287E+02  0.22404479773E+02  0.51100000000E-03 0.  1.
         11    1    3    3    0    0 -0.99820912866E+01 -0.61784850133E+00  0.19438835423E+02  0.21860745781E+02  0.51100000000E-03 0. -1.
<mgrwt>
<rscale>  0 0.20004285E+02</rscale>
<asrwt>0</asrwt>
<pdfrwt beam="1">  1        2 0.64424939E-02 0.20004285E+02</pdfrwt>
<pdfrwt beam="2">  1       -2 0.36754062E-03 0.20004285E+02</pdfrwt>
<totfact> 0.45149127E+06</totfact>
</mgrwt>
</event>
<event>
 4    1  0.4046313E-006  0.2001733E+02  0.7818608E-02  0.1744984E+00
         -2   -1    0    0    0  501 -0.00000000000E+00  0.00000000000E+00  0.10575157908E+01  0.10575189870E+01  0.26000000000E-02 0. -1.
          2   -1    0    0  501    0  0.00000000000E+00 -0.00000000000E+00 -0.94725047106E+02  0.94725047142E+02  0.26000000000E-02 0.  1.
        -11    1    1    2    0    0 -0.35345194524E+01 -0.93592858896E+01 -0.48223285953E+02  0.49250120492E+02  0.51100000000E-03 0.  1.
         11    1    1    2    0    0  0.35345194524E+01  0.93592858896E+01 -0.45444245362E+02  0.46532445637E+02  0.51100000000E-03 0. -1.
<mgrwt>
<rscale>  0 0.20017331E+02</rscale>
<asrwt>0</asrwt>
<pdfrwt beam="2">  1        2 0.14573078E-01 0.20017331E+02</pdfrwt>
<pdfrwt beam="1">  1       -2 0.16269506E-03 0.20017331E+02</pdfrwt>
<totfact> 0.52022333E+06</totfact>
</mgrwt>
</event>
<event>
 5    1  0.4096884E-006  0.2000080E+02  0.7818608E-02  0.1745312E+00
         -2   -1    0    0    0  501 -0.00000000000E+00  0.00000000000E+00  0.19092269782E+01  0.19092287486E+01  0.26000000000E-02 0.  1.
          2   -1    0    0  501    0  0.00000000000E+00 -0.00000000000E+00 -0.52381383142E+02  0.52381383207E+02  0.26000000000E-02 0. -1.
       1023    2    1    2    0    0  0.00000000000E+00  0.00000000000E+00 -0.50472156164E+02  0.54290611955E+02  0.20000799950E+02 0.  0.
        -11    1    3    3    0    0 -0.51414565401E+00 -0.99870191557E+01 -0.25387260179E+02  0.27285854889E+02  0.51100000000E-03 0.  1.
         11    1    3    3    0    0  0.51414565401E+00  0.99870191557E+01 -0.25084895985E+02  0.27004757066E+02  0.51100000000E-03 0. -1.
<mgrwt>
<rscale>  0 0.20000800E+02</rscale>
<asrwt>0</asrwt>
<pdfrwt beam="2">  1        2 0.80586734E-02 0.20000800E+02</pdfrwt>
<pdfrwt beam="1">  1       -2 0.29372741E-03 0.20000800E+02</pdfrwt>
<totfact> 0.46655026E+06</totfact>
</mgrwt>
</event>
<event>
 4    1  0.4046313E-006  0.2003327E+02  0.7818608E-02  0.1744667E+00
          2   -1    0    0  501    0  0.00000000000E+00  0.00000000000E+00  0.13094727353E+02  0.13094727611E+02  0.26000000000E-02 0.  1.
         -2   -1    0    0    0  501 -0.00000000000E+00 -0.00000000000E+00 -0.76620855940E+01  0.76620860351E+01  0.26000000000E-02 0. -1.
        -11    1    1    2    0    0 -0.61374464080E+01  0.79104039223E+01  0.30274843251E+01  0.10459847046E+02  0.51100000000E-03 0.  1.
         11    1    1    2    0    0  0.61374464080E+01 -0.79104039223E+01  0.24051574339E+01  0.10296966600E+02  0.51100000000E-03 0. -1.
<mgrwt>
<rscale>  0 0.20033265E+02</rscale>
<asrwt>0</asrwt>
<pdfrwt beam="1">  1        2 0.20145735E-02 0.20033265E+02</pdfrwt>
<pdfrwt beam="2">  1       -2 0.11787825E-02 0.20033265E+02</pdfrwt>
<totfact> 0.40111667E+06</totfact>
</mgrwt>
</event>
<event>
 5    1  0.4046313E-006  0.2000034E+02  0.7818608E-02  0.1745321E+00
         -2   -1    0    0    0  501 -0.00000000000E+00  0.00000000000E+00  0.21311529773E+01  0.21311545633E+01  0.26000000000E-02 0. -1.
          2   -1    0    0  501    0  0.00000000000E+00 -0.00000000000E+00 -0.46924525319E+02  0.46924525391E+02  0.26000000000E-02 0.  1.
       1023    2    1    2    0    0  0.00000000000E+00  0.00000000000E+00 -0.44793372342E+02  0.49055679954E+02  0.20000338248E+02 0.  0.
        -11    1    3    3    0    0 -0.44568964797E+01  0.89519315409E+01 -0.22516286047E+02  0.24637048162E+02  0.51100000000E-03 0. -1.
         11    1    3    3    0    0  0.44568964797E+01 -0.89519315409E+01 -0.22277086295E+02  0.24418631792E+02  0.51100000000E-03 0.  1.
<mgrwt>
<rscale>  0 0.20000338E+02</rscale>
<asrwt>0</asrwt>
<pdfrwt beam="2">  1        2 0.72191571E-02 0.20000338E+02</pdfrwt>
<pdfrwt beam="1">  1       -2 0.32786985E-03 0.20000338E+02</pdfrwt>
<totfact> 0.45893616E+06</totfact>
</mgrwt>
</event>
<event>
 5    1  0.4046313E-006  0.2000079E+02  0.7818608E-02  0.1745312E+00
         -2   -1    0    0    0  501 -0.00000000000E+00  0.00000000000E+00  0.35318634019E+01  0.35318643589E+01  0.26000000000E-02 0. -1.
          2   -1    0    0  501    0  0.00000000000E+00 -0.00000000000E+00 -0.28315888588E+02  0.28315888707E+02  0.26000000000E-02 0.  1.
       1023    2    1    2    0    0  0.00000000000E+00  0.00000000000E+00 -0.24784025186E+02  0.31847753066E+02  0.20000786758E+02 0.  0.
        -11    1    3    3    0    0 -0.33595042617E+01 -0.94192122527E+01 -0.12382052033E+02  0.15916125193E+02  0.51100000000E-03 0.  1.
         11    1    3    3    0    0  0.33595042617E+01  0.94192122527E+01 -0.12401973153E+02  0.15931627873E+02  0.51100000000E-03 0. -1.
<mgrwt>
<rscale>  0 0.20000787E+02</rscale>
<asrwt>0</asrwt>
<pdfrwt beam="2">  1        2 0.43562905E-02 0.20000787E+02</pdfrwt>
<pdfrwt beam="1">  1       -2 0.54336370E-03 0.20000787E+02</pdfrwt>
<totfact> 0.43099841E+06</totfact>
</mgrwt>
</event>
<event>
 5    1  0.4046313E-006  0.2000310E+02  0.7818608E-02  0.1745266E+00
         -2   -1    0    0    0  501 -0.00000000000E+00  0.00000000000E+00  0.12177942378E+02  0.12177942655E+02  0.26000000000E-02 0.  1.
          2   -1    0    0  501    0  0.00000000000E+00 -0.00000000000E+00 -0.82141157258E+01  0.82141161373E+01  0.26000000000E-02 0. -1.
       1023    2    1    2    0    0  0.00000000000E+00  0.00000000000E+00  0.39638266520E+01  0.20392058793E+02  0.20003103261E+02 0.  0.
        -11    1    3    3    0    0  0.95270744267E+01  0.30438906625E+01  0.20072411368E+01  0.10200952639E+02  0.51100000000E-03 0. -1.
         11    1    3    3    0    0 -0.95270744267E+01 -0.30438906625E+01  0.19565855152E+01  0.10191106154E+02  0.51100000000E-03 0.  1.
<mgrwt>
<rscale>  0 0.20003103E+02</rscale>
<asrwt>0</asrwt>
<pdfrwt beam="2">  1        2 0.12637102E-02 0.20003103E+02</pdfrwt>
<pdfrwt beam="1">  1       -2 0.18735297E-02 0.20003103E+02</pdfrwt>
<totfact> 0.38884773E+06</totfact>
</mgrwt>
</event>
<event>
 5    1  0.4046313E-006  0.2000204E+02  0.7818608E-02  0.1745288E+00
          2   -1    0    0  501    0  0.00000000000E+00  0.00000000000E+00  0.40546216908E+01  0.40546225244E+01  0.26000000000E-02 0.  1.
         -2   -1    0    0    0  501 -0.00000000000E+00 -0.00000000000E+00 -0.24668230676E+02  0.24668230813E+02  0.26000000000E-02 0. -1.
       1023    2    1    2    0    0  0.00000000000E+00  0.00000000000E+00 -0.20613608985E+02  0.28722853337E+02  0.20002035608E+02 0.  0.
        -11    1    3    3    0    0 -0.85504238403E+01  0.51860713470E+01 -0.10129338417E+02  0.14234064103E+02  0.51100000000E-03 0.  1.
         11    1    3    3    0    0  0.85504238403E+01 -0.51860713470E+01 -0.10484270568E+02  0.14488789234E+02  0.51100000000E-03 0. -1.
<mgrwt>
<rscale>  0 0.20002036E+02</rscale>
<asrwt>0</asrwt>
<pdfrwt beam="1">  1        2 0.62378804E-03 0.20002036E+02</pdfrwt>
<pdfrwt beam="2">  1       -2 0.37951124E-02 0.20002036E+02</pdfrwt>
<totfact> 0.36746001E+06</totfact>
</mgrwt>
</event>
<event>
 5    1  0.4046313E-006  0.2000048E+02  0.7818608E-02  0.1745319E+00
         -2   -1    0    0    0  501 -0.00000000000E+00  0.00000000000E+00  0.60389719287E+01  0.60389724884E+01  0.26000000000E-02 0. -1.
          2   -1    0    0  501    0  0.00000000000E+00 -0.00000000000E+00 -0.16559897271E+02  0.16559897475E+02  0.26000000000E-02 0.  1.
       1023    2    1    2    0    0  0.00000000000E+00  0.00000000000E+00 -0.10520925342E+02  0.22598869964E+02  0.20000476334E+02 0.  0.
        -11    1    3    3    0    0  0.91172518648E+01 -0.41084751964E+01 -0.52946064704E+01  0.11315330660E+02  0.51100000000E-03 0.  1.
         11    1    3    3    0    0 -0.91172518648E+01  0.41084751964E+01 -0.52263188719E+01  0.11283539304E+02  0.51100000000E-03 0. -1.
<mgrwt>
<rscale>  0 0.20000476E+02</rscale>
<asrwt>0</asrwt>
<pdfrwt beam="2">  1        2 0.25476765E-02 0.20000476E+02</pdfrwt>
<pdfrwt beam="1">  1       -2 0.92907267E-03 0.20000476E+02</pdfrwt>
<totfact> 0.41012402E+06</totfact>
</mgrwt>
</event>
<event>
 5    1  0.4046313E-006  0.2000009E+02  0.7818608E-02  0.1745326E+00
          2   -1    0    0  501    0  0.00000000000E+00  0.00000000000E+00  0.46332558925E+02  0.46332558998E+02  0.26000000000E-02 0.  1.
         -2   -1    0    0    0  501 -0.00000000000E+00 -0.00000000000E+00 -0.21583289181E+01  0.21583304841E+01  0.26000000000E-02 0. -1.
       1023    2    1    2    0    0  0.00000000000E+00  0.00000000000E+00  0.44174230007E+02  0.48490889482E+02  0.20000094151E+02 0.  0.
        -11    1    3    3    0    0 -0.96536191947E-01 -0.99995357691E+01  0.22160109932E+02  0.24311941660E+02  0.51100000000E-03 0.  1.
         11    1    3    3    0    0  0.96536191947E-01  0.99995357691E+01  0.22014120075E+02  0.24178947822E+02  0.51100000000E-03 0. -1.
<mgrwt>
<rscale>  0 0.20000094E+02</rscale>
<asrwt>0</asrwt>
<pdfrwt beam="1">  1        2 0.71280864E-02 0.20000094E+02</pdfrwt>
<pdfrwt beam="2">  1       -2 0.33205072E-03 0.20000094E+02</pdfrwt>
<totfact> 0.45810851E+06</totfact>
</mgrwt>
</event>
<event>
 5    1  0.4338372E-006  0.2000099E+02  0.7818608E-02  0.1745308E+00
          2   -1    0    0  501    0  0.00000000000E+00  0.00000000000E+00  0.10340281149E+03  0.10340281152E+03  0.26000000000E-02 0.  1.
         -2   -1    0    0    0  501 -0.00000000000E+00 -0.00000000000E+00 -0.96718556529E+00  0.96718905996E+00  0.26000000000E-02 0. -1.
       1023    2    1    2    0    0  0.00000000000E+00  0.00000000000E+00  0.10243562593E+03  0.10437000058E+03  0.20000989052E+02 0.  0.
        -11    1    3    3    0    0 -0.99655444362E+01 -0.83207623334E+00  0.50832095880E+02  0.51806432019E+02  0.51100000000E-03 0.  1.
         11    1    3    3    0    0  0.99655444362E+01  0.83207623334E+00  0.51603530047E+02  0.52563568565E+02  0.51100000000E-03 0. -1.
<mgrwt>
<rscale>  0 0.20000989E+02</rscale>
<asrwt>0</asrwt>
<pdfrwt beam="1">  1        2 0.15908116E-01 0.20000989E+02</pdfrwt>
<pdfrwt beam="2">  1       -2 0.14879814E-03 0.20000989E+02</pdfrwt>
<totfact> 0.53157871E+06</totfact>
</mgrwt>
</event>
<event>
 5    1  0.4046313E-006  0.2000039E+02  0.7818608E-02  0.1745320E+00
         -2   -1    0    0    0  501 -0.00000000000E+00  0.00000000000E+00  0.71371097401E+01  0.71371102137E+01  0.26000000000E-02 0.  1.
          2   -1    0    0  501    0  0.00000000000E+00 -0.00000000000E+00 -0.14011823993E+02  0.14011824234E+02  0.26000000000E-02 0. -1.
       1023    2    1    2    0    0  0.00000000000E+00  0.00000000000E+00 -0.68747142524E+01  0.21148934447E+02  0.20000393301E+02 0.  0.
        -11    1    3    3    0    0  0.99364850740E+01 -0.11255462363E+01 -0.33762196535E+01  0.10554593757E+02  0.51100000000E-03 0. -1.
         11    1    3    3    0    0 -0.99364850740E+01  0.11255462363E+01 -0.34984945989E+01  0.10594340691E+02  0.51100000000E-03 0.  1.
<mgrwt>
<rscale>  0 0.20000393E+02</rscale>
<asrwt>0</asrwt>
<pdfrwt beam="2">  1        2 0.21556653E-02 0.20000393E+02</pdfrwt>
<pdfrwt beam="1">  1       -2 0.10980169E-02 0.20000393E+02</pdfrwt>
<totfact> 0.40471342E+06</totfact>
</mgrwt>
</event>
<event>
 4    1  0.4046313E-006  0.2001450E+02  0.7818608E-02  0.1745040E+00
          2   -1    0    0  501    0  0.00000000000E+00  0.00000000000E+00  0.13349994075E+02  0.13349994328E+02  0.26000000000E-02 0.  1.
         -2   -1    0    0    0  501 -0.00000000000E+00 -0.00000000000E+00 -0.75015083032E+01  0.75015087538E+01  0.26000000000E-02 0. -1.
        -11    1    1    2    0    0  0.12941522032E+01 -0.99232184014E+01  0.29265982832E+01  0.10426412189E+02  0.51100000000E-03 0. -1.
         11    1    1    2    0    0 -0.12941522032E+01  0.99232184014E+01  0.29218874887E+01  0.10425090893E+02  0.51100000000E-03 0.  1.
<mgrwt>
<rscale>  0 0.20014505E+02</rscale>
<asrwt>0</asrwt>
<pdfrwt beam="1">  1        2 0.20538453E-02 0.20014505E+02</pdfrwt>
<pdfrwt beam="2">  1       -2 0.11540783E-02 0.20014505E+02</pdfrwt>
<totfact> 0.40256392E+06</totfact>
</mgrwt>
</event>
<event>
 4    1  0.4046313E-006  0.2319111E+02  0.7818608E-02  0.1688431E+00
         -2   -1    0    0    0  501 -0.00000000000E+00  0.00000000000E+00  0.23198143344E+02  0.23198143489E+02  0.26000000000E-02 0. -1.
          2   -1    0    0  501    0  0.00000000000E+00 -0.00000000000E+00 -0.57960205842E+01  0.57960211673E+01  0.26000000000E-02 0.  1.
        -11    1    1    2    0    0  0.11721378019E+01 -0.11426924259E+02  0.10681171209E+02  0.15685532306E+02  0.51100000000E-03 0.  1.
         11    1    1    2    0    0 -0.11721378019E+01  0.11426924259E+02  0.67209515503E+01  0.13308632351E+02  0.51100000000E-03 0. -1.
<mgrwt>
<rscale>  0 0.23191113E+02</rscale>
<asrwt>0</asrwt>
<pdfrwt beam="2">  1        2 0.89169554E-03 0.23191113E+02</pdfrwt>
<pdfrwt beam="1">  1       -2 0.35689452E-02 0.23191113E+02</pdfrwt>
<totfact> 0.26693826E+06</totfact>
</mgrwt>
</event>
<event>
 5    1  0.4046313E-006  0.2000251E+02  0.7818608E-02  0.1745278E+00
          2   -1    0    0  501    0  0.00000000000E+00  0.00000000000E+00  0.27285011369E+01  0.27285023757E+01  0.26000000000E-02 0. -1.
         -2   -1    0    0    0  501 -0.00000000000E+00 -0.00000000000E+00 -0.36659362418E+02  0.36659362510E+02  0.26000000000E-02 0.  1.
       1023    2    1    2    0    0  0.00000000000E+00  0.00000000000E+00 -0.33930861281E+02  0.39387864886E+02  0.20002513667E+02 0.  0.
        -11    1    3    3    0    0  0.97173844188E+01 -0.23655106958E+01 -0.17052099696E+02  0.19768593908E+02  0.51100000000E-03 0. -1.
         11    1    3    3    0    0 -0.97173844188E+01  0.23655106958E+01 -0.16878761585E+02  0.19619270978E+02  0.51100000000E-03 0.  1.
<mgrwt>
<rscale>  0 0.20002514E+02</rscale>
<asrwt>0</asrwt>
<pdfrwt beam="1">  1        2 0.41976953E-03 0.20002514E+02</pdfrwt>
<pdfrwt beam="2">  1       -2 0.56399017E-02 0.20002514E+02</pdfrwt>
<totfact> 0.35276133E+06</totfact>
</mgrwt>
</event>
<event>
 5    1  0.4046313E-006  0.2000028E+02  0.7818608E-02  0.1745323E+00
          2   -1    0    0  501    0  0.00000000000E+00  0.00000000000E+00  0.41802267416E+01  0.41802275501E+01  0.26000000000E-02 0.  1.
         -2   -1    0    0    0  501 -0.00000000000E+00 -0.00000000000E+00 -0.23922807497E+02  0.23922807638E+02  0.26000000000E-02 0. -1.
       1023    2    1    2    0    0  0.00000000000E+00  0.00000000000E+00 -0.19742580756E+02  0.28103035189E+02  0.20000277296E+02 0.  0.
        -11    1    3    3    0    0 -0.86174246741E+01 -0.50736890666E+01 -0.99008970143E+01  0.14072316466E+02  0.51100000000E-03 0.  1.
         11    1    3    3    0    0  0.86174246741E+01  0.50736890666E+01 -0.98416837412E+01  0.14030718723E+02  0.51100000000E-03 0. -1.
<mgrwt>
<rscale>  0 0.20000277E+02</rscale>
<asrwt>0</asrwt>
<pdfrwt beam="1">  1        2 0.64311189E-03 0.20000277E+02</pdfrwt>
<pdfrwt beam="2">  1       -2 0.36804319E-02 0.20000277E+02</pdfrwt>
<totfact> 0.36855871E+06</totfact>
</mgrwt>
</event>
<event>
 5    1  0.4046313E-006  0.2000455E+02  0.7818608E-02  0.1745238E+00
         -2   -1    0    0    0  501 -0.00000000000E+00  0.00000000000E+00  0.96677400401E+00  0.96677750016E+00  0.26000000000E-02 0. -1.
          2   -1    0    0  501    0  0.00000000000E+00 -0.00000000000E+00 -0.10348367454E+03  0.10348367457E+03  0.26000000000E-02 0.  1.
       1023    2    1    2    0    0  0.00000000000E+00  0.00000000000E+00 -0.10251690053E+03  0.10445045207E+03  0.20004550550E+02 0.  0.
        -11    1    3    3    0    0  0.43316380162E+01 -0.90152491898E+01 -0.50800144446E+02  0.51775404217E+02  0.51100000000E-03 0.  1.
         11    1    3    3    0    0 -0.43316380162E+01  0.90152491898E+01 -0.51716756088E+02  0.52675047854E+02  0.51100000000E-03 0. -1.
<mgrwt>
<rscale>  0 0.20004551E+02</rscale>
<asrwt>0</asrwt>
<pdfrwt beam="2">  1        2 0.15920557E-01 0.20004551E+02</pdfrwt>
<pdfrwt beam="1">  1       -2 0.14873482E-03 0.20004551E+02</pdfrwt>
<totfact> 0.53146592E+06</totfact>
</mgrwt>
</event>
<event>
 4    1  0.4046313E-006  0.2001359E+02  0.7818608E-02  0.1745058E+00
         -2   -1    0    0    0  501 -0.00000000000E+00  0.00000000000E+00  0.11823714694E+02  0.11823714980E+02  0.26000000000E-02 0.  1.
          2   -1    0    0  501    0  0.00000000000E+00 -0.00000000000E+00 -0.84690739209E+01  0.84690743200E+01  0.26000000000E-02 0. -1.
        -11    1    1    2    0    0 -0.98951095671E+01  0.14771830795E+01  0.18817697972E+01  0.10180192583E+02  0.51100000000E-03 0.  1.
         11    1    1    2    0    0  0.98951095671E+01 -0.14771830795E+01  0.14728709763E+01  0.10112596717E+02  0.51100000000E-03 0. -1.
<mgrwt>
<rscale>  0 0.20013587E+02</rscale>
<asrwt>0</asrwt>
<pdfrwt beam="2">  1        2 0.13029345E-02 0.20013587E+02</pdfrwt>
<pdfrwt beam="1">  1       -2 0.18190331E-02 0.20013587E+02</pdfrwt>
<totfact> 0.38925369E+06</totfact>
</mgrwt>
</event>
<event>
 5    1  0.4046313E-006  0.2000066E+02  0.7818608E-02  0.1745315E+00
          2   -1    0    0  501    0  0.00000000000E+00  0.00000000000E+00  0.19781255978E+02  0.19781256149E+02  0.26000000000E-02 0. -1.
         -2   -1    0    0    0  501 -0.00000000000E+00 -0.00000000000E+00 -0.50556217839E+01  0.50556224525E+01  0.26000000000E-02 0.  1.
       1023    2    1    2    0    0  0.00000000000E+00  0.00000000000E+00  0.14725634194E+02  0.24836878601E+02  0.20000655895E+02 0.  0.
        -11    1    3    3    0    0  0.74980723476E+01  0.66170295582E+01  0.73873311210E+01  0.12432973516E+02  0.51100000000E-03 0. -1.
         11    1    3    3    0    0 -0.74980723476E+01 -0.66170295582E+01  0.73383030728E+01  0.12403905085E+02  0.51100000000E-03 0.  1.
<mgrwt>
<rscale>  0 0.20000656E+02</rscale>
<asrwt>0</asrwt>
<pdfrwt beam="1">  1        2 0.30432702E-02 0.20000656E+02</pdfrwt>
<pdfrwt beam="2">  1       -2 0.77778803E-03 0.20000656E+02</pdfrwt>
<totfact> 0.41634499E+06</totfact>
</mgrwt>
</event>
<event>
 4    1  0.4046313E-006  0.2006302E+02  0.7818608E-02  0.1744078E+00
         -2   -1    0    0    0  501 -0.00000000000E+00  0.00000000000E+00  0.65908750595E+01  0.65908755724E+01  0.26000000000E-02 0. -1.
          2   -1    0    0  501    0  0.00000000000E+00 -0.00000000000E+00 -0.15268260715E+02  0.15268260936E+02  0.26000000000E-02 0.  1.
        -11    1    1    2    0    0 -0.86026583453E+00  0.99854010045E+01 -0.48046677009E+01  0.11114545537E+02  0.51100000000E-03 0.  1.
         11    1    1    2    0    0  0.86026583453E+00 -0.99854010045E+01 -0.38727179547E+01  0.10744590971E+02  0.51100000000E-03 0. -1.
<mgrwt>
<rscale>  0 0.20063021E+02</rscale>
<asrwt>0</asrwt>
<pdfrwt beam="2">  1        2 0.23489632E-02 0.20063021E+02</pdfrwt>
<pdfrwt beam="1">  1       -2 0.10139808E-02 0.20063021E+02</pdfrwt>
<totfact> 0.40457557E+06</totfact>
</mgrwt>
</event>
<event>
 5    1  0.4046313E-006  0.2000517E+02  0.7818608E-02  0.1745225E+00
          2   -1    0    0  501    0  0.00000000000E+00  0.00000000000E+00  0.38651157684E+02  0.38651157772E+02  0.26000000000E-02 0.  1.
         -2   -1    0    0    0  501 -0.00000000000E+00 -0.00000000000E+00 -0.25885803686E+01  0.25885816743E+01  0.26000000000E-02 0. -1.
       1023    2    1    2    0    0  0.00000000000E+00  0.00000000000E+00  0.36062577316E+02  0.41239739446E+02  0.20005165006E+02 0.  0.
        -11    1    3    3    0    0 -0.37596444127E+01  0.92677740155E+01  0.18357852982E+02  0.20905437754E+02  0.51100000000E-03 0.  1.
         11    1    3    3    0    0  0.37596444127E+01 -0.92677740155E+01  0.17704724334E+02  0.20334301692E+02  0.51100000000E-03 0. -1.
<mgrwt>
<rscale>  0 0.20005165E+02</rscale>
<asrwt>0</asrwt>
<pdfrwt beam="1">  1        2 0.59463318E-02 0.20005165E+02</pdfrwt>
<pdfrwt beam="2">  1       -2 0.39824326E-03 0.20005165E+02</pdfrwt>
<totfact> 0.44671366E+06</totfact>
</mgrwt>
</event>
<event>
 5    1  0.4046313E-006  0.2000017E+02  0.7818608E-02  0.1745325E+00
         -2   -1    0    0    0  501 -0.00000000000E+00  0.00000000000E+00  0.21624771873E+01  0.21624787503E+01  0.26000000000E-02 0. -1.
          2   -1    0    0  501    0  0.00000000000E+00 -0.00000000000E+00 -0.46244047813E+02  0.46244047886E+02  0.26000000000E-02 0.  1.
       1023    2    1    2    0    0  0.00000000000E+00  0.00000000000E+00 -0.44081570625E+02  0.48406526636E+02  0.20000173804E+02 0.  0.
        -11    1    3    3    0    0  0.10560619026E+01  0.99440951667E+01 -0.22132704491E+02  0.24286969835E+02  0.51100000000E-03 0. -1.
         11    1    3    3    0    0 -0.10560619026E+01 -0.99440951667E+01 -0.21948866134E+02  0.24119556801E+02  0.51100000000E-03 0.  1.
<mgrwt>
<rscale>  0 0.20000174E+02</rscale>
<asrwt>0</asrwt>
<pdfrwt beam="2">  1        2 0.71144683E-02 0.20000174E+02</pdfrwt>
<pdfrwt beam="1">  1       -2 0.33268896E-03 0.20000174E+02</pdfrwt>
<totfact> 0.45797861E+06</totfact>
</mgrwt>
</event>
<event>
 5    1  0.4046313E-006  0.2000016E+02  0.7818608E-02  0.1745325E+00
          2   -1    0    0  501    0  0.00000000000E+00  0.00000000000E+00  0.11003995826E+02  0.11003996134E+02  0.26000000000E-02 0.  1.
         -2   -1    0    0    0  501 -0.00000000000E+00 -0.00000000000E+00 -0.90877521785E+01  0.90877525504E+01  0.26000000000E-02 0. -1.
       1023    2    1    2    0    0  0.00000000000E+00  0.00000000000E+00  0.19162436480E+01  0.20091748684E+02  0.20000159386E+02 0.  0.
        -11    1    3    3    0    0 -0.19619885487E+00  0.99981218380E+01  0.98391675243E+00  0.10048334524E+02  0.51100000000E-03 0.  1.
         11    1    3    3    0    0  0.19619885487E+00 -0.99981218380E+01  0.93232689556E+00  0.10043414160E+02  0.51100000000E-03 0. -1.
<mgrwt>
<rscale>  0 0.20000159E+02</rscale>
<asrwt>0</asrwt>
<pdfrwt beam="1">  1        2 0.16929225E-02 0.20000159E+02</pdfrwt>
<pdfrwt beam="2">  1       -2 0.13981158E-02 0.20000159E+02</pdfrwt>
<totfact> 0.39741174E+06</totfact>
</mgrwt>
</event>
<event>
 5    1  0.4046313E-006  0.2000302E+02  0.7818608E-02  0.1745268E+00
          2   -1    0    0  501    0  0.00000000000E+00  0.00000000000E+00  0.20304295427E+02  0.20304295593E+02  0.26000000000E-02 0. -1.
         -2   -1    0    0    0  501 -0.00000000000E+00 -0.00000000000E+00 -0.49265510713E+01  0.49265517574E+01  0.26000000000E-02 0.  1.
       1023    2    1    2    0    0  0.00000000000E+00  0.00000000000E+00  0.15377744356E+02  0.25230847351E+02  0.20003015687E+02 0.  0.
        -11    1    3    3    0    0 -0.42493903424E+01  0.90536876418E+01  0.77643500156E+01  0.12661426050E+02  0.51100000000E-03 0. -1.
         11    1    3    3    0    0  0.42493903424E+01 -0.90536876418E+01  0.76133943400E+01  0.12569421301E+02  0.51100000000E-03 0.  1.
<mgrwt>
<rscale>  0 0.20003016E+02</rscale>
<asrwt>0</asrwt>
<pdfrwt beam="1">  1        2 0.31237378E-02 0.20003016E+02</pdfrwt>
<pdfrwt beam="2">  1       -2 0.75793101E-03 0.20003016E+02</pdfrwt>
<totfact> 0.41719695E+06</totfact>
</mgrwt>
</event>
<event>
 5    1  0.4046313E-006  0.2000092E+02  0.7818608E-02  0.1745310E+00
          2   -1    0    0  501    0  0.00000000000E+00  0.00000000000E+00  0.13468231895E+01  0.13468256991E+01  0.26000000000E-02 0.  1.
         -2   -1    0    0    0  501 -0.00000000000E+00 -0.00000000000E+00 -0.74255570246E+02  0.74255570291E+02  0.26000000000E-02 0. -1.
       1023    2    1    2    0    0  0.00000000000E+00  0.00000000000E+00 -0.72908747056E+02  0.75602395990E+02  0.20000922033E+02 0.  0.
        -11    1    3    3    0    0  0.99761324341E+01 -0.69133860283E+00 -0.36793577528E+02  0.38128316445E+02  0.51100000000E-03 0. -1.
         11    1    3    3    0    0 -0.99761324341E+01  0.69133860283E+00 -0.36115169529E+02  0.37474079545E+02  0.51100000000E-03 0.  1.
<mgrwt>
<rscale>  0 0.20000922E+02</rscale>
<asrwt>0</asrwt>
<pdfrwt beam="1">  1        2 0.20720382E-03 0.20000922E+02</pdfrwt>
<pdfrwt beam="2">  1       -2 0.11423931E-01 0.20000922E+02</pdfrwt>
<totfact> 0.31722996E+06</totfact>
</mgrwt>
</event>
<event>
 5    1  0.4443698E-006  0.2000132E+02  0.7818608E-02  0.1745302E+00
         -2   -1    0    0    0  501 -0.00000000000E+00  0.00000000000E+00  0.10249421226E+01  0.10249454203E+01  0.26000000000E-02 0.  1.
          2   -1    0    0  501    0  0.00000000000E+00 -0.00000000000E+00 -0.97579213867E+02  0.97579213901E+02  0.26000000000E-02 0. -1.
       1023    2    1    2    0    0  0.00000000000E+00  0.00000000000E+00 -0.96554271744E+02  0.98604159322E+02  0.20001321044E+02 0.  0.
        -11    1    3    3    0    0 -0.88960862967E+01 -0.45686715177E+01 -0.48326380196E+02  0.49350300242E+02  0.51100000000E-03 0.  1.
         11    1    3    3    0    0  0.88960862967E+01  0.45686715177E+01 -0.48227891548E+02  0.49253859080E+02  0.51100000000E-03 0. -1.
<mgrwt>
<rscale>  0 0.20001321E+02</rscale>
<asrwt>0</asrwt>
<pdfrwt beam="2">  1        2 0.15012180E-01 0.20001321E+02</pdfrwt>
<pdfrwt beam="1">  1       -2 0.15768374E-03 0.20001321E+02</pdfrwt>
<totfact> 0.52459506E+06</totfact>
</mgrwt>
</event>
<event>
 5    1  0.4046313E-006  0.2000134E+02  0.7818608E-02  0.1745301E+00
          2   -1    0    0  501    0  0.00000000000E+00  0.00000000000E+00  0.50858365688E+01  0.50858372334E+01  0.26000000000E-02 0. -1.
         -2   -1    0    0    0  501 -0.00000000000E+00 -0.00000000000E+00 -0.19665085071E+02  0.19665085243E+02  0.26000000000E-02 0.  1.
       1023    2    1    2    0    0  0.00000000000E+00  0.00000000000E+00 -0.14579248502E+02  0.24750922476E+02  0.20001341868E+02 0.  0.
        -11    1    3    3    0    0  0.69956055083E+01  0.71465780082E+01 -0.72442375410E+01  0.12348726714E+02  0.51100000000E-03 0. -1.
         11    1    3    3    0    0 -0.69956055083E+01 -0.71465780082E+01 -0.73350109615E+01  0.12402195762E+02  0.51100000000E-03 0.  1.
<mgrwt>
<rscale>  0 0.20001342E+02</rscale>
<asrwt>0</asrwt>
<pdfrwt beam="1">  1        2 0.78243647E-03 0.20001342E+02</pdfrwt>
<pdfrwt beam="2">  1       -2 0.30253977E-02 0.20001342E+02</pdfrwt>
<totfact> 0.37481032E+06</totfact>
</mgrwt>
</event>
<event>
 4    1  0.4046313E-006  0.2001518E+02  0.7818608E-02  0.1745026E+00
         -2   -1    0    0    0  501 -0.00000000000E+00  0.00000000000E+00  0.97121795115E+00  0.97122143131E+00  0.26000000000E-02 0.  1.
          2   -1    0    0  501    0  0.00000000000E+00 -0.00000000000E+00 -0.10311969213E+03  0.10311969216E+03  0.26000000000E-02 0. -1.
        -11    1    1    2    0    0 -0.55905247535E+01 -0.82956709855E+01 -0.52542930150E+02  0.53486742592E+02  0.51100000000E-03 0. -1.
         11    1    1    2    0    0  0.55905247535E+01  0.82956709855E+01 -0.49605544026E+02  0.50604170999E+02  0.51100000000E-03 0.  1.
<mgrwt>
<rscale>  0 0.20015182E+02</rscale>
<asrwt>0</asrwt>
<pdfrwt beam="2">  1        2 0.15864560E-01 0.20015182E+02</pdfrwt>
<pdfrwt beam="1">  1       -2 0.14941850E-03 0.20015182E+02</pdfrwt>
<totfact> 0.53041184E+06</totfact>
</mgrwt>
</event>
<event>
 5    1  0.4046313E-006  0.2000463E+02  0.7818608E-02  0.1745236E+00
          2   -1    0    0  501    0  0.00000000000E+00  0.00000000000E+00  0.58598967694E+02  0.58598967752E+02  0.26000000000E-02 0. -1.
         -2   -1    0    0    0  501 -0.00000000000E+00 -0.00000000000E+00 -0.17073033265E+01  0.17073053062E+01  0.26000000000E-02 0.  1.
       1023    2    1    2    0    0  0.00000000000E+00  0.00000000000E+00  0.56891664368E+02  0.60306273058E+02  0.20004626856E+02 0.  0.
        -11    1    3    3    0    0 -0.22251957567E+01  0.97500977758E+01  0.27920467899E+02  0.29657518958E+02  0.51100000000E-03 0.  1.
         11    1    3    3    0    0  0.22251957567E+01 -0.97500977758E+01  0.28971196469E+02  0.30648754100E+02  0.51100000000E-03 0. -1.
<mgrwt>
<rscale>  0 0.20004627E+02</rscale>
<asrwt>0</asrwt>
<pdfrwt beam="1">  1        2 0.90152263E-02 0.20004627E+02</pdfrwt>
<pdfrwt beam="2">  1       -2 0.26266220E-03 0.20004627E+02</pdfrwt>
<totfact> 0.47484394E+06</totfact>
</mgrwt>
</event>
<event>
 5    1  0.4046313E-006  0.2000012E+02  0.7818608E-02  0.1745326E+00
         -2   -1    0    0    0  501 -0.00000000000E+00  0.00000000000E+00  0.10036227102E+02  0.10036227439E+02  0.26000000000E-02 0. -1.
          2   -1    0    0  501    0  0.00000000000E+00 -0.00000000000E+00 -0.99640267037E+01  0.99640270429E+01  0.26000000000E-02 0.  1.
       1023    2    1    2    0    0  0.00000000000E+00  0.00000000000E+00  0.72200398206E-01  0.20000254482E+02  0.20000124160E+02 0.  0.
        -11    1    3    3    0    0  0.71434390469E+00  0.99744796444E+01  0.94550153031E-02  0.10000031052E+02  0.51100000000E-03 0.  1.
         11    1    3    3    0    0 -0.71434390469E+00 -0.99744796444E+01  0.62745382902E-01  0.10000223429E+02  0.51100000000E-03 0. -1.
<mgrwt>
<rscale>  0 0.20000124E+02</rscale>
<asrwt>0</asrwt>
<pdfrwt beam="2">  1        2 0.15329272E-02 0.20000124E+02</pdfrwt>
<pdfrwt beam="1">  1       -2 0.15440350E-02 0.20000124E+02</pdfrwt>
<totfact> 0.39452184E+06</totfact>
</mgrwt>
</event>
<event>
 5    1  0.4046313E-006  0.2000163E+02  0.7818608E-02  0.1745296E+00
          2   -1    0    0  501    0  0.00000000000E+00  0.00000000000E+00  0.19506800049E+01  0.19506817376E+01  0.26000000000E-02 0. -1.
         -2   -1    0    0    0  501 -0.00000000000E+00 -0.00000000000E+00 -0.51272497733E+02  0.51272497799E+02  0.26000000000E-02 0.  1.
       1023    2    1    2    0    0  0.00000000000E+00  0.00000000000E+00 -0.49321817728E+02  0.53223179536E+02  0.20001628333E+02 0.  0.
        -11    1    3    3    0    0  0.48550318402E+01  0.87429638870E+01 -0.24858823495E+02  0.26794996875E+02  0.51100000000E-03 0. -1.
         11    1    3    3    0    0 -0.48550318402E+01 -0.87429638870E+01 -0.24462994232E+02  0.26428182661E+02  0.51100000000E-03 0.  1.
<mgrwt>
<rscale>  0 0.20001628E+02</rscale>
<asrwt>0</asrwt>
<pdfrwt beam="1">  1        2 0.30010479E-03 0.20001628E+02</pdfrwt>
<pdfrwt beam="2">  1       -2 0.78880757E-02 0.20001628E+02</pdfrwt>
<totfact> 0.33769173E+06</totfact>
</mgrwt>
</event>
<event>
 5    1  0.4046313E-006  0.2001012E+02  0.7818608E-02  0.1745127E+00
         -2   -1    0    0    0  501 -0.00000000000E+00  0.00000000000E+00  0.24469637724E+01  0.24469651537E+01  0.26000000000E-02 0. -1.
          2   -1    0    0  501    0  0.00000000000E+00 -0.00000000000E+00 -0.40908315436E+02  0.40908315519E+02  0.26000000000E-02 0.  1.
       1023    2    1    2    0    0  0.00000000000E+00  0.00000000000E+00 -0.38461351664E+02  0.43355280673E+02  0.20010117201E+02 0.  0.
        -11    1    3    3    0    0 -0.97247102052E+01 -0.23509347325E+01 -0.19372995466E+02  0.21803894980E+02  0.51100000000E-03 0. -1.
         11    1    3    3    0    0  0.97247102052E+01  0.23509347325E+01 -0.19088356198E+02  0.21551385693E+02  0.51100000000E-03 0.  1.
<mgrwt>
<rscale>  0 0.20010117E+02</rscale>
<asrwt>0</asrwt>
<pdfrwt beam="2">  1        2 0.62935866E-02 0.20010117E+02</pdfrwt>
<pdfrwt beam="1">  1       -2 0.37645611E-03 0.20010117E+02</pdfrwt>
<totfact> 0.44978712E+06</totfact>
</mgrwt>
</event>
<event>
 5    1  0.4046313E-006  0.2000126E+02  0.7818608E-02  0.1745303E+00
         -2   -1    0    0    0  501 -0.00000000000E+00  0.00000000000E+00  0.44176913618E+02  0.44176913694E+02  0.26000000000E-02 0. -1.
          2   -1    0    0  501    0  0.00000000000E+00 -0.00000000000E+00 -0.22639093466E+01  0.22639108396E+01  0.26000000000E-02 0.  1.
       1023    2    1    2    0    0  0.00000000000E+00  0.00000000000E+00  0.41913004271E+02  0.46440824534E+02  0.20001256369E+02 0.  0.
        -11    1    3    3    0    0 -0.89495889873E+01 -0.44626265316E+01  0.20843103691E+02  0.23118069779E+02  0.51100000000E-03 0.  1.
         11    1    3    3    0    0  0.89495889873E+01  0.44626265316E+01  0.21069900581E+02  0.23322754755E+02  0.51100000000E-03 0. -1.
<mgrwt>
<rscale>  0 0.20001256E+02</rscale>
<asrwt>0</asrwt>
<pdfrwt beam="2">  1        2 0.34829389E-03 0.20001256E+02</pdfrwt>
<pdfrwt beam="1">  1       -2 0.67964480E-02 0.20001256E+02</pdfrwt>
<totfact> 0.34476923E+06</totfact>
</mgrwt>
</event>
<event>
 5    1  0.4046313E-006  0.2000060E+02  0.7818608E-02  0.1745316E+00
          2   -1    0    0  501    0  0.00000000000E+00  0.00000000000E+00  0.58985021008E+01  0.58985026738E+01  0.26000000000E-02 0. -1.
         -2   -1    0    0    0  501 -0.00000000000E+00 -0.00000000000E+00 -0.16954472907E+02  0.16954473106E+02  0.26000000000E-02 0.  1.
       1023    2    1    2    0    0  0.00000000000E+00  0.00000000000E+00 -0.11055970806E+02  0.22852975780E+02  0.20000600279E+02 0.  0.
        -11    1    3    3    0    0 -0.25265837251E+01 -0.96758656216E+01 -0.55295074911E+01  0.11427224256E+02  0.51100000000E-03 0.  1.
         11    1    3    3    0    0  0.25265837251E+01  0.96758656216E+01 -0.55264633146E+01  0.11425751523E+02  0.51100000000E-03 0. -1.
<mgrwt>
<rscale>  0 0.20000600E+02</rscale>
<asrwt>0</asrwt>
<pdfrwt beam="1">  1        2 0.90746193E-03 0.20000600E+02</pdfrwt>
<pdfrwt beam="2">  1       -2 0.26083805E-02 0.20000600E+02</pdfrwt>
<totfact> 0.37934669E+06</totfact>
</mgrwt>
</event>
<event>
 5    1  0.4222035E-006  0.2000097E+02  0.7818608E-02  0.1745309E+00
          2   -1    0    0  501    0  0.00000000000E+00  0.00000000000E+00  0.85810838911E+02  0.85810838951E+02  0.26000000000E-02 0.  1.
         -2   -1    0    0    0  501 -0.00000000000E+00 -0.00000000000E+00 -0.11654658959E+01  0.11654687960E+01  0.26000000000E-02 0. -1.
       1023    2    1    2    0    0  0.00000000000E+00  0.00000000000E+00  0.84645373015E+02  0.86976307747E+02  0.20000973384E+02 0.  0.
        -11    1    3    3    0    0  0.99946216191E+01 -0.33905739984E+00  0.42531808323E+02  0.43691671297E+02  0.51100000000E-03 0. -1.
         11    1    3    3    0    0 -0.99946216191E+01  0.33905739984E+00  0.42113564692E+02  0.43284636449E+02  0.51100000000E-03 0.  1.
<mgrwt>
<rscale>  0 0.20000973E+02</rscale>
<asrwt>0</asrwt>
<pdfrwt beam="1">  1        2 0.13201672E-01 0.20000973E+02</pdfrwt>
<pdfrwt beam="2">  1       -2 0.17930262E-03 0.20000973E+02</pdfrwt>
<totfact> 0.51021333E+06</totfact>
</mgrwt>
</event>
<event>
 5    1  0.4046313E-006  0.2000560E+02  0.7818608E-02  0.1745217E+00
          2   -1    0    0  501    0  0.00000000000E+00  0.00000000000E+00  0.74763136302E+02  0.74763136348E+02  0.26000000000E-02 0.  1.
         -2   -1    0    0    0  501 -0.00000000000E+00 -0.00000000000E+00 -0.13383059417E+01  0.13383084672E+01  0.26000000000E-02 0. -1.
       1023    2    1    2    0    0  0.00000000000E+00  0.00000000000E+00  0.73424830361E+02  0.76101444815E+02  0.20005603950E+02 0.  0.
        -11    1    3    3    0    0  0.21679558152E+01 -0.97637553777E+01  0.36109800080E+02  0.37469302283E+02  0.51100000000E-03 0. -1.
         11    1    3    3    0    0 -0.21679558152E+01  0.97637553777E+01  0.37315030280E+02  0.38632142532E+02  0.51100000000E-03 0.  1.
<mgrwt>
<rscale>  0 0.20005604E+02</rscale>
<asrwt>0</asrwt>
<pdfrwt beam="1">  1        2 0.11502018E-01 0.20005604E+02</pdfrwt>
<pdfrwt beam="2">  1       -2 0.20589347E-03 0.20005604E+02</pdfrwt>
<totfact> 0.49603470E+06</totfact>
</mgrwt>
</event>
<event>
 5    1  0.4046313E-006  0.2000434E+02  0.7818608E-02  0.1745242E+00
         -2   -1    0    0    0  501 -0.00000000000E+00  0.00000000000E+00  0.25949763313E+01  0.25949776338E+01  0.26000000000E-02 0.  1.
          2   -1    0    0  501    0  0.00000000000E+00 -0.00000000000E+00 -0.38552723474E+02  0.38552723562E+02  0.26000000000E-02 0. -1.
       1023    2    1    2    0    0  0.00000000000E+00  0.00000000000E+00 -0.35957747143E+02  0.41147701195E+02  0.20004342881E+02 0.  0.
        -11    1    3    3    0    0 -0.72754933583E+01 -0.68620652277E+01 -0.18288717514E+02  0.20844613965E+02  0.51100000000E-03 0. -1.
         11    1    3    3    0    0  0.72754933583E+01  0.68620652277E+01 -0.17669029629E+02  0.20303087230E+02  0.51100000000E-03 0.  1.
<mgrwt>
<rscale>  0 0.20004343E+02</rscale>
<asrwt>0</asrwt>
<pdfrwt beam="2">  1        2 0.59311879E-02 0.20004343E+02</pdfrwt>
<pdfrwt beam="1">  1       -2 0.39922726E-03 0.20004343E+02</pdfrwt>
<totfact> 0.44660874E+06</totfact>
</mgrwt>
</event>
<event>
 5    1  0.4046313E-006  0.2001033E+02  0.7818608E-02  0.1745123E+00
         -2   -1    0    0    0  501 -0.00000000000E+00  0.00000000000E+00  0.12262740527E+01  0.12262768090E+01  0.26000000000E-02 0. -1.
          2   -1    0    0  501    0  0.00000000000E+00 -0.00000000000E+00 -0.81632041632E+02  0.81632041673E+02  0.26000000000E-02 0.  1.
       1023    2    1    2    0    0  0.00000000000E+00  0.00000000000E+00 -0.80405767579E+02  0.82858318482E+02  0.20010334373E+02 0.  0.
        -11    1    3    3    0    0 -0.72069403953E+01  0.69363708439E+01 -0.41130083213E+02  0.42328914181E+02  0.51100000000E-03 0.  1.
         11    1    3    3    0    0  0.72069403953E+01 -0.69363708439E+01 -0.39275684366E+02  0.40529404302E+02  0.51100000000E-03 0. -1.
<mgrwt>
<rscale>  0 0.20010334E+02</rscale>
<asrwt>0</asrwt>
<pdfrwt beam="2">  1        2 0.12558772E-01 0.20010334E+02</pdfrwt>
<pdfrwt beam="1">  1       -2 0.18865783E-03 0.20010334E+02</pdfrwt>
<totfact> 0.50447193E+06</totfact>
</mgrwt>
</event>
<event>
 5    1  0.4678334E-006  0.2000029E+02  0.7818608E-02  0.1745322E+00
         -2   -1    0    0    0  501 -0.00000000000E+00  0.00000000000E+00  0.13009555106E+01  0.13009581087E+01  0.26000000000E-02 0.  1.
          2   -1    0    0  501    0  0.00000000000E+00 -0.00000000000E+00 -0.76868718043E+02  0.76868718087E+02  0.26000000000E-02 0. -1.
       1023    2    1    2    0    0  0.00000000000E+00  0.00000000000E+00 -0.75567762533E+02  0.78169676196E+02  0.20000288558E+02 0.  0.
        -11    1    3    3    0    0 -0.99972224248E+01  0.23739495729E+00 -0.37961822507E+02  0.39256856482E+02  0.51100000000E-03 0. -1.
         11    1    3    3    0    0  0.99972224248E+01 -0.23739495729E+00 -0.37605940026E+02  0.38912819714E+02  0.51100000000E-03 0.  1.
<mgrwt>
<rscale>  0 0.20000289E+02</rscale>
<asrwt>0</asrwt>
<pdfrwt beam="2">  1        2 0.11825953E-01 0.20000289E+02</pdfrwt>
<pdfrwt beam="1">  1       -2 0.20014726E-03 0.20000289E+02</pdfrwt>
<totfact> 0.49901404E+06</totfact>
</mgrwt>
</event>
<event>
 5    1  0.4046313E-006  0.2000290E+02  0.7818608E-02  0.1745270E+00
          2   -1    0    0  501    0  0.00000000000E+00  0.00000000000E+00  0.47389249808E+02  0.47389249880E+02  0.26000000000E-02 0.  1.
         -2   -1    0    0    0  501 -0.00000000000E+00 -0.00000000000E+00 -0.21107940088E+01  0.21107956101E+01  0.26000000000E-02 0. -1.
       1023    2    1    2    0    0  0.00000000000E+00  0.00000000000E+00  0.45278455800E+02  0.49500045490E+02  0.20002898388E+02 0.  0.
        -11    1    3    3    0    0 -0.95192116014E+01  0.30670165217E+01  0.22432097742E+02  0.24560557592E+02  0.51100000000E-03 0.  1.
         11    1    3    3    0    0  0.95192116014E+01 -0.30670165217E+01  0.22846358058E+02  0.24939487898E+02  0.51100000000E-03 0. -1.
<mgrwt>
<rscale>  0 0.20002898E+02</rscale>
<asrwt>0</asrwt>
<pdfrwt beam="1">  1        2 0.72906537E-02 0.20002898E+02</pdfrwt>
<pdfrwt beam="2">  1       -2 0.32473768E-03 0.20002898E+02</pdfrwt>
<totfact> 0.45946294E+06</totfact>
</mgrwt>
</event>
<event>
 5    1  0.4046313E-006  0.2000032E+02  0.7818608E-02  0.1745322E+00
          2   -1    0    0  501    0  0.00000000000E+00  0.00000000000E+00  0.59342070679E+01  0.59342076375E+01  0.26000000000E-02 0.  1.
         -2   -1    0    0    0  501 -0.00000000000E+00 -0.00000000000E+00 -0.16851985145E+02  0.16851985346E+02  0.26000000000E-02 0. -1.
       1023    2    1    2    0    0  0.00000000000E+00  0.00000000000E+00 -0.10917778077E+02  0.22786192983E+02  0.20000317811E+02 0.  0.
        -11    1    3    3    0    0  0.59054722860E+01  0.80701670994E+01 -0.54232611348E+01  0.11376025735E+02  0.51100000000E-03 0.  1.
         11    1    3    3    0    0 -0.59054722860E+01 -0.80701670994E+01 -0.54945169424E+01  0.11410167248E+02  0.51100000000E-03 0. -1.
<mgrwt>
<rscale>  0 0.20000318E+02</rscale>
<asrwt>0</asrwt>
<pdfrwt beam="1">  1        2 0.91295500E-03 0.20000318E+02</pdfrwt>
<pdfrwt beam="2">  1       -2 0.25926131E-02 0.20000318E+02</pdfrwt>
<totfact> 0.37953888E+06</totfact>
</mgrwt>
</event>
<event>
 5    1  0.4046313E-006  0.2000331E+02  0.7818608E-02  0.1745262E+00
         -2   -1    0    0    0  501 -0.00000000000E+00  0.00000000000E+00  0.41310051200E+01  0.41310059382E+01  0.26000000000E-02 0. -1.
          2   -1    0    0  501    0  0.00000000000E+00 -0.00000000000E+00 -0.24215205338E+02  0.24215205477E+02  0.26000000000E-02 0.  1.
       1023    2    1    2    0    0  0.00000000000E+00  0.00000000000E+00 -0.20084200218E+02  0.28346211415E+02  0.20003314806E+02 0.  0.
        -11    1    3    3    0    0 -0.31254572793E+01 -0.95006198078E+01 -0.10118288298E+02  0.14227087484E+02  0.51100000000E-03 0. -1.
         11    1    3    3    0    0  0.31254572793E+01  0.95006198078E+01 -0.99659119198E+01  0.14119123931E+02  0.51100000000E-03 0.  1.
<mgrwt>
<rscale>  0 0.20003315E+02</rscale>
<asrwt>0</asrwt>
<pdfrwt beam="2">  1        2 0.37254162E-02 0.20003315E+02</pdfrwt>
<pdfrwt beam="1">  1       -2 0.63553934E-03 0.20003315E+02</pdfrwt>
<totfact> 0.42407761E+06</totfact>
</mgrwt>
</event>
<event>
 5    1  0.4046313E-006  0.2001042E+02  0.7818608E-02  0.1745121E+00
         -2   -1    0    0    0  501 -0.00000000000E+00  0.00000000000E+00  0.36163274630E+01  0.36163283976E+01  0.26000000000E-02 0. -1.
          2   -1    0    0  501    0  0.00000000000E+00 -0.00000000000E+00 -0.27681187822E+02  0.27681187944E+02  0.26000000000E-02 0.  1.
       1023    2    1    2    0    0  0.00000000000E+00  0.00000000000E+00 -0.24064860359E+02  0.31297516342E+02  0.20010422911E+02 0.  0.
        -11    1    3    3    0    0 -0.74860821387E+01  0.66353568786E+01 -0.12324492338E+02  0.15873326632E+02  0.51100000000E-03 0.  1.
         11    1    3    3    0    0  0.74860821387E+01 -0.66353568786E+01 -0.11740368021E+02  0.15424189710E+02  0.51100000000E-03 0. -1.
<mgrwt>
<rscale>  0 0.20010423E+02</rscale>
<asrwt>0</asrwt>
<pdfrwt beam="2">  1        2 0.42586442E-02 0.20010423E+02</pdfrwt>
<pdfrwt beam="1">  1       -2 0.55635817E-03 0.20010423E+02</pdfrwt>
<totfact> 0.42950510E+06</totfact>
</mgrwt>
</event>
<event>
 5    1  0.4046313E-006  0.2000101E+02  0.7818608E-02  0.1745308E+00
          2   -1    0    0  501    0  0.00000000000E+00  0.00000000000E+00  0.55781306872E+01  0.55781312932E+01  0.26000000000E-02 0.  1.
         -2   -1    0    0    0  501 -0.00000000000E+00 -0.00000000000E+00 -0.17928956587E+02  0.17928956776E+02  0.26000000000E-02 0. -1.
       1023    2    1    2    0    0  0.00000000000E+00  0.00000000000E+00 -0.12350825900E+02  0.23507088069E+02  0.20001007201E+02 0.  0.
        -11    1    3    3    0    0 -0.32785554101E+01  0.94476755339E+01 -0.62350345417E+01  0.11784869731E+02  0.51100000000E-03 0. -1.
         11    1    3    3    0    0  0.32785554101E+01 -0.94476755339E+01 -0.61157913582E+01  0.11722218338E+02  0.51100000000E-03 0.  1.
<mgrwt>
<rscale>  0 0.20001007E+02</rscale>
<asrwt>0</asrwt>
<pdfrwt beam="1">  1        2 0.85817402E-03 0.20001007E+02</pdfrwt>
<pdfrwt beam="2">  1       -2 0.27583011E-02 0.20001007E+02</pdfrwt>
<totfact> 0.37765337E+06</totfact>
</mgrwt>
</event>
<event>
 4    1  0.4046313E-006  0.2003541E+02  0.7818608E-02  0.1744625E+00
         -2   -1    0    0    0  501 -0.00000000000E+00  0.00000000000E+00  0.45856104209E+02  0.45856104283E+02  0.26000000000E-02 0.  1.
          2   -1    0    0  501    0  0.00000000000E+00 -0.00000000000E+00 -0.21884633369E+01  0.21884648814E+01  0.26000000000E-02 0. -1.
        -11    1    1    2    0    0 -0.77710685274E+01  0.63130017351E+01  0.21035092523E+02  0.23296321913E+02  0.51100000000E-03 0. -1.
         11    1    1    2    0    0  0.77710685274E+01 -0.63130017351E+01  0.22632548349E+02  0.24748247251E+02  0.51100000000E-03 0.  1.
<mgrwt>
<rscale>  0 0.20035413E+02</rscale>
<asrwt>0</asrwt>
<pdfrwt beam="2">  1        2 0.33668683E-03 0.20035413E+02</pdfrwt>
<pdfrwt beam="1">  1       -2 0.70547845E-02 0.20035413E+02</pdfrwt>
<totfact> 0.34177988E+06</totfact>
</mgrwt>
</event>
<event>
 5    1  0.4046313E-006  0.2000678E+02  0.7818608E-02  0.1745193E+00
         -2   -1    0    0    0  501 -0.00000000000E+00  0.00000000000E+00  0.29783631605E+02  0.29783631718E+02  0.26000000000E-02 0. -1.
          2   -1    0    0  501    0  0.00000000000E+00 -0.00000000000E+00 -0.33598236861E+01  0.33598246922E+01  0.26000000000E-02 0.  1.
       1023    2    1    2    0    0  0.00000000000E+00  0.00000000000E+00  0.26423807919E+02  0.33143456410E+02  0.20006775800E+02 0.  0.
        -11    1    3    3    0    0 -0.86950317462E+01  0.49460842473E+01  0.13246762475E+02  0.16599519353E+02  0.51100000000E-03 0. -1.
         11    1    3    3    0    0  0.86950317462E+01 -0.49460842473E+01  0.13177045444E+02  0.16543937057E+02  0.51100000000E-03 0.  1.
<mgrwt>
<rscale>  0 0.20006776E+02</rscale>
<asrwt>0</asrwt>
<pdfrwt beam="2">  1        2 0.51689601E-03 0.20006776E+02</pdfrwt>
<pdfrwt beam="1">  1       -2 0.45820975E-02 0.20006776E+02</pdfrwt>
<totfact> 0.36064371E+06</totfact>
</mgrwt>
</event>
<event>
 4    1  0.4046313E-006  0.2002271E+02  0.7818608E-02  0.1744877E+00
         -2   -1    0    0    0  501 -0.00000000000E+00  0.00000000000E+00  0.67049788986E+02  0.67049789036E+02  0.26000000000E-02 0. -1.
          2   -1    0    0  501    0  0.00000000000E+00 -0.00000000000E+00 -0.14948162862E+01  0.14948185474E+01  0.26000000000E-02 0.  1.
        -11    1    1    2    0    0  0.94008546783E+01 -0.34408504415E+01  0.32407589648E+02  0.33918540468E+02  0.51100000000E-03 0.  1.
         11    1    1    2    0    0 -0.94008546783E+01  0.34408504415E+01  0.33147383052E+02  0.34626067116E+02  0.51100000000E-03 0. -1.
<mgrwt>
<rscale>  0 0.20022707E+02</rscale>
<asrwt>0</asrwt>
<pdfrwt beam="2">  1        2 0.22997186E-03 0.20022707E+02</pdfrwt>
<pdfrwt beam="1">  1       -2 0.10315355E-01 0.20022707E+02</pdfrwt>
<totfact> 0.32256006E+06</totfact>
</mgrwt>
</event>
<event>
 5    1  0.4046313E-006  0.2000063E+02  0.7818608E-02  0.1745316E+00
          2   -1    0    0  501    0  0.00000000000E+00  0.00000000000E+00  0.95819660163E+01  0.95819663690E+01  0.26000000000E-02 0. -1.
         -2   -1    0    0    0  501 -0.00000000000E+00 -0.00000000000E+00 -0.10436927744E+02  0.10436928068E+02  0.26000000000E-02 0.  1.
       1023    2    1    2    0    0  0.00000000000E+00  0.00000000000E+00 -0.85496172811E+00  0.20018894437E+02  0.20000629363E+02 0.  0.
        -11    1    3    3    0    0 -0.99006998658E+01  0.14074945813E+01 -0.46485990376E+00  0.10011043593E+02  0.51100000000E-03 0.  1.
         11    1    3    3    0    0  0.99006998658E+01 -0.14074945813E+01 -0.39010182434E+00  0.10007850844E+02  0.51100000000E-03 0. -1.
<mgrwt>
<rscale>  0 0.20000629E+02</rscale>
<asrwt>0</asrwt>
<pdfrwt beam="1">  1        2 0.14741487E-02 0.20000629E+02</pdfrwt>
<pdfrwt beam="2">  1       -2 0.16056812E-02 0.20000629E+02</pdfrwt>
<totfact> 0.39337156E+06</totfact>
</mgrwt>
</event>
<event>
 5    1  0.4046313E-006  0.2000046E+02  0.7818608E-02  0.1745319E+00
         -2   -1    0    0    0  501 -0.00000000000E+00  0.00000000000E+00  0.10692136201E+03  0.10692136204E+03  0.26000000000E-02 0. -1.
          2   -1    0    0  501    0  0.00000000000E+00 -0.00000000000E+00 -0.93530789542E+00  0.93531150920E+00  0.26000000000E-02 0.  1.
       1023    2    1    2    0    0  0.00000000000E+00  0.00000000000E+00  0.10598605411E+03  0.10785667355E+03  0.20000459061E+02 0.  0.
        -11    1    3    3    0    0  0.36740245311E+01  0.93006860818E+01  0.53306201860E+02  0.54236080010E+02  0.51100000000E-03 0.  1.
         11    1    3    3    0    0 -0.36740245311E+01 -0.93006860818E+01  0.52679852255E+02  0.53620593541E+02  0.51100000000E-03 0. -1.
<mgrwt>
<rscale>  0 0.20000459E+02</rscale>
<asrwt>0</asrwt>
<pdfrwt beam="2">  1        2 0.14389382E-03 0.20000459E+02</pdfrwt>
<pdfrwt beam="1">  1       -2 0.16449439E-01 0.20000459E+02</pdfrwt>
<totfact> 0.29234200E+06</totfact>
</mgrwt>
</event>
<event>
 5    1  0.4046313E-006  0.2000077E+02  0.7818608E-02  0.1745313E+00
          2   -1    0    0  501    0  0.00000000000E+00  0.00000000000E+00  0.72205271849E+01  0.72205276530E+01  0.26000000000E-02 0.  1.
         -2   -1    0    0    0  501 -0.00000000000E+00 -0.00000000000E+00 -0.13850467645E+02  0.13850467889E+02  0.26000000000E-02 0. -1.
       1023    2    1    2    0    0  0.00000000000E+00  0.00000000000E+00 -0.66299404604E+01  0.21070995542E+02  0.20000768551E+02 0.  0.
        -11    1    3    3    0    0 -0.57034744271E+00  0.99837534931E+01 -0.34034611326E+01  0.10563341231E+02  0.51100000000E-03 0. -1.
         11    1    3    3    0    0  0.57034744271E+00 -0.99837534931E+01 -0.32264793278E+01  0.10507654312E+02  0.51100000000E-03 0.  1.
<mgrwt>
<rscale>  0 0.20000769E+02</rscale>
<asrwt>0</asrwt>
<pdfrwt beam="1">  1        2 0.11108504E-02 0.20000769E+02</pdfrwt>
<pdfrwt beam="2">  1       -2 0.21308412E-02 0.20000769E+02</pdfrwt>
<totfact> 0.38525352E+06</totfact>
</mgrwt>
</event>
<event>
 5    1  0.4046313E-006  0.2000071E+02  0.7818608E-02  0.1745314E+00
          2   -1    0    0  501    0  0.00000000000E+00  0.00000000000E+00  0.69866178806E+02  0.69866178855E+02  0.26000000000E-02 0.  1.
         -2   -1    0    0    0  501 -0.00000000000E+00 -0.00000000000E+00 -0.14314079757E+01  0.14314103370E+01  0.26000000000E-02 0. -1.
       1023    2    1    2    0    0  0.00000000000E+00  0.00000000000E+00  0.68434770831E+02  0.71297589192E+02  0.20000709135E+02 0.  0.
        -11    1    3    3    0    0 -0.16961136398E+01 -0.98554128622E+01  0.34097710966E+02  0.35533925445E+02  0.51100000000E-03 0. -1.
         11    1    3    3    0    0  0.16961136398E+01  0.98554128622E+01  0.34337059864E+02  0.35763663746E+02  0.51100000000E-03 0.  1.
<mgrwt>
<rscale>  0 0.20000709E+02</rscale>
<asrwt>0</asrwt>
<pdfrwt beam="1">  1        2 0.10748644E-01 0.20000709E+02</pdfrwt>
<pdfrwt beam="2">  1       -2 0.22021678E-03 0.20000709E+02</pdfrwt>
<totfact> 0.48998565E+06</totfact>
</mgrwt>
</event>
<event>
 4    1  0.4046313E-006  0.2001384E+02  0.7818608E-02  0.1745053E+00
          2   -1    0    0  501    0  0.00000000000E+00  0.00000000000E+00  0.60027632113E+01  0.60027637743E+01  0.26000000000E-02 0. -1.
         -2   -1    0    0    0  501 -0.00000000000E+00 -0.00000000000E+00 -0.16682060491E+02  0.16682060694E+02  0.26000000000E-02 0.  1.
        -11    1    1    2    0    0  0.60512017437E+01  0.79672185643E+01 -0.55796987129E+01  0.11455420210E+02  0.51100000000E-03 0.  1.
         11    1    1    2    0    0 -0.60512017437E+01 -0.79672185643E+01 -0.50995985671E+01  0.11229404258E+02  0.51100000000E-03 0. -1.
<mgrwt>
<rscale>  0 0.20013842E+02</rscale>
<asrwt>0</asrwt>
<pdfrwt beam="1">  1        2 0.92350210E-03 0.20013842E+02</pdfrwt>
<pdfrwt beam="2">  1       -2 0.25664709E-02 0.20013842E+02</pdfrwt>
<totfact> 0.37928511E+06</totfact>
</mgrwt>
</event>
<event>
 5    1  0.4046313E-006  0.2000208E+02  0.7818608E-02  0.1745287E+00
         -2   -1    0    0    0  501 -0.00000000000E+00  0.00000000000E+00  0.19806911457E+01  0.19806928521E+01  0.26000000000E-02 0. -1.
          2   -1    0    0  501    0  0.00000000000E+00 -0.00000000000E+00 -0.50497890974E+02  0.50497891041E+02  0.26000000000E-02 0.  1.
       1023    2    1    2    0    0  0.00000000000E+00  0.00000000000E+00 -0.48517199828E+02  0.52478583893E+02  0.20002077098E+02 0.  0.
        -11    1    3    3    0    0 -0.60926857225E+01  0.79301823559E+01 -0.23969279610E+02  0.25971811196E+02  0.51100000000E-03 0. -1.
         11    1    3    3    0    0  0.60926857225E+01 -0.79301823559E+01 -0.24547920218E+02  0.26506772697E+02  0.51100000000E-03 0.  1.
<mgrwt>
<rscale>  0 0.20002077E+02</rscale>
<asrwt>0</asrwt>
<pdfrwt beam="2">  1        2 0.77689055E-02 0.20002077E+02</pdfrwt>
<pdfrwt beam="1">  1       -2 0.30472189E-03 0.20002077E+02</pdfrwt>
<totfact> 0.46386881E+06</totfact>
</mgrwt>
</event>
<event>
 5    1  0.4046313E-006  0.2000017E+02  0.7818608E-02  0.1745325E+00
          2   -1    0    0  501    0  0.00000000000E+00  0.00000000000E+00  0.35744315770E+02  0.35744315864E+02  0.26000000000E-02 0.  1.
         -2   -1    0    0    0  501 -0.00000000000E+00 -0.00000000000E+00 -0.27976933924E+01  0.27976946005E+01  0.26000000000E-02 0. -1.
       1023    2    1    2    0    0  0.00000000000E+00  0.00000000000E+00  0.32946622377E+02  0.38542010465E+02  0.20000166114E+02 0.  0.
        -11    1    3    3    0    0 -0.92753103109E+01  0.37375934087E+01  0.16523379593E+02  0.19313804889E+02  0.51100000000E-03 0. -1.
         11    1    3    3    0    0  0.92753103109E+01 -0.37375934087E+01  0.16423242784E+02  0.19228205575E+02  0.51100000000E-03 0.  1.
<mgrwt>
<rscale>  0 0.20000166E+02</rscale>
<asrwt>0</asrwt>
<pdfrwt beam="1">  1        2 0.54991256E-02 0.20000166E+02</pdfrwt>
<pdfrwt beam="2">  1       -2 0.43041447E-03 0.20000166E+02</pdfrwt>
<totfact> 0.44261132E+06</totfact>
</mgrwt>
</event>
<event>
 5    1  0.4046313E-006  0.2000075E+02  0.7818608E-02  0.1745313E+00
         -2   -1    0    0    0  501 -0.00000000000E+00  0.00000000000E+00  0.39993530591E+01  0.39993539043E+01  0.26000000000E-02 0. -1.
          2   -1    0    0  501    0  0.00000000000E+00 -0.00000000000E+00 -0.25005909759E+02  0.25005909894E+02  0.26000000000E-02 0.  1.
       1023    2    1    2    0    0  0.00000000000E+00  0.00000000000E+00 -0.21006556700E+02  0.29005263798E+02  0.20000747577E+02 0.  0.
        -11    1    3    3    0    0 -0.93095617223E+01  0.36522727907E+01 -0.10472870705E+02  0.14480609693E+02  0.51100000000E-03 0.  1.
         11    1    3    3    0    0  0.93095617223E+01 -0.36522727907E+01 -0.10533685994E+02  0.14524654106E+02  0.51100000000E-03 0. -1.
<mgrwt>
<rscale>  0 0.20000748E+02</rscale>
<asrwt>0</asrwt>
<pdfrwt beam="2">  1        2 0.38470630E-02 0.20000748E+02</pdfrwt>
<pdfrwt beam="1">  1       -2 0.61528518E-03 0.20000748E+02</pdfrwt>
<totfact> 0.42554074E+06</totfact>
</mgrwt>
</event>
<event>
 5    1  0.4046313E-006  0.2001052E+02  0.7818608E-02  0.1745119E+00
          2   -1    0    0  501    0  0.00000000000E+00  0.00000000000E+00  0.21568151131E+02  0.21568151288E+02  0.26000000000E-02 0.  1.
         -2   -1    0    0    0  501 -0.00000000000E+00 -0.00000000000E+00 -0.46413433422E+01  0.46413440704E+01  0.26000000000E-02 0. -1.
       1023    2    1    2    0    0  0.00000000000E+00  0.00000000000E+00  0.16926807789E+02  0.26209495358E+02  0.20010517860E+02 0.  0.
        -11    1    3    3    0    0 -0.91045840841E+01  0.41447512402E+01  0.87005865803E+01  0.13257926734E+02  0.51100000000E-03 0.  1.
         11    1    3    3    0    0  0.91045840841E+01 -0.41447512402E+01  0.82262212089E+01  0.12951568624E+02  0.51100000000E-03 0. -1.
<mgrwt>
<rscale>  0 0.20010518E+02</rscale>
<asrwt>0</asrwt>
<pdfrwt beam="1">  1        2 0.33181772E-02 0.20010518E+02</pdfrwt>
<pdfrwt beam="2">  1       -2 0.71405289E-03 0.20010518E+02</pdfrwt>
<totfact> 0.41912555E+06</totfact>
</mgrwt>
</event>
<event>
 4    1  0.4046313E-006  0.2017247E+02  0.7818608E-02  0.1741920E+00
         -2   -1    0    0    0  501 -0.00000000000E+00  0.00000000000E+00  0.11917630242E+02  0.11917630526E+02  0.26000000000E-02 0. -1.
          2   -1    0    0  501    0  0.00000000000E+00 -0.00000000000E+00 -0.85362692093E+01  0.85362696052E+01  0.26000000000E-02 0.  1.
        -11    1    1    2    0    0 -0.71503695582E+01 -0.71084355899E+01  0.14139898993E+01  0.10181208624E+02  0.51100000000E-03 0. -1.
         11    1    1    2    0    0  0.71503695582E+01  0.71084355899E+01  0.19673711336E+01  0.10272691507E+02  0.51100000000E-03 0.  1.
<mgrwt>
<rscale>  0 0.20172467E+02</rscale>
<asrwt>0</asrwt>
<pdfrwt beam="2">  1        2 0.13132722E-02 0.20172467E+02</pdfrwt>
<pdfrwt beam="1">  1       -2 0.18334816E-02 0.20172467E+02</pdfrwt>
<totfact> 0.38247362E+06</totfact>
</mgrwt>
</event>
<event>
 5    1  0.4046313E-006  0.2000091E+02  0.7818608E-02  0.1745310E+00
          2   -1    0    0  501    0  0.00000000000E+00  0.00000000000E+00  0.18091628906E+02  0.18091629093E+02  0.26000000000E-02 0.  1.
         -2   -1    0    0    0  501 -0.00000000000E+00 -0.00000000000E+00 -0.55279214350E+01  0.55279220465E+01  0.26000000000E-02 0. -1.
       1023    2    1    2    0    0  0.00000000000E+00  0.00000000000E+00  0.12563707471E+02  0.23619551139E+02  0.20000911244E+02 0.  0.
        -11    1    3    3    0    0 -0.85493538045E+01 -0.51881260917E+01  0.63193761238E+01  0.11829734472E+02  0.51100000000E-03 0.  1.
         11    1    3    3    0    0  0.85493538045E+01  0.51881260917E+01  0.62443313473E+01  0.11789816668E+02  0.51100000000E-03 0. -1.
<mgrwt>
<rscale>  0 0.20000911E+02</rscale>
<asrwt>0</asrwt>
<pdfrwt beam="1">  1        2 0.27833275E-02 0.20000911E+02</pdfrwt>
<pdfrwt beam="2">  1       -2 0.85044953E-03 0.20000911E+02</pdfrwt>
<totfact> 0.41313588E+06</totfact>
</mgrwt>
</event>
<event>
 5    1  0.4046313E-006  0.2000163E+02  0.7818608E-02  0.1745296E+00
         -2   -1    0    0    0  501 -0.00000000000E+00  0.00000000000E+00  0.17406034539E+02  0.17406034734E+02  0.26000000000E-02 0. -1.
          2   -1    0    0  501    0  0.00000000000E+00 -0.00000000000E+00 -0.57460686614E+01  0.57460692496E+01  0.26000000000E-02 0.  1.
       1023    2    1    2    0    0  0.00000000000E+00  0.00000000000E+00  0.11659965878E+02  0.23152103983E+02  0.20001627798E+02 0.  0.
        -11    1    3    3    0    0 -0.99476127317E+01  0.10226787847E+01  0.59736608996E+01  0.11648411727E+02  0.51100000000E-03 0. -1.
         11    1    3    3    0    0  0.99476127317E+01 -0.10226787847E+01  0.56863049784E+01  0.11503692256E+02  0.51100000000E-03 0.  1.
<mgrwt>
<rscale>  0 0.20001628E+02</rscale>
<asrwt>0</asrwt>
<pdfrwt beam="2">  1        2 0.88401063E-03 0.20001628E+02</pdfrwt>
<pdfrwt beam="1">  1       -2 0.26778515E-02 0.20001628E+02</pdfrwt>
<totfact> 0.37851879E+06</totfact>
</mgrwt>
</event>
<event>
 4    1  0.4046313E-006  0.2025709E+02  0.7818608E-02  0.1740263E+00
          2   -1    0    0  501    0  0.00000000000E+00  0.00000000000E+00  0.18333789567E+02  0.18333789751E+02  0.26000000000E-02 0. -1.
         -2   -1    0    0    0  501 -0.00000000000E+00 -0.00000000000E+00 -0.55955356443E+01  0.55955362483E+01  0.26000000000E-02 0.  1.
        -11    1    1    2    0    0  0.80217444316E+01  0.61710272715E+01  0.59004380699E+01  0.11715166708E+02  0.51100000000E-03 0.  1.
         11    1    1    2    0    0 -0.80217444316E+01 -0.61710272715E+01  0.68378158528E+01  0.12214159292E+02  0.51100000000E-03 0. -1.
<mgrwt>
<rscale>  0 0.20257086E+02</rscale>
<asrwt>0</asrwt>
<pdfrwt beam="1">  1        2 0.28205831E-02 0.20257086E+02</pdfrwt>
<pdfrwt beam="2">  1       -2 0.86085169E-03 0.20257086E+02</pdfrwt>
<totfact> 0.40187703E+06</totfact>
</mgrwt>
</event>
<event>
 5    1  0.4046313E-006  0.2000060E+02  0.7818608E-02  0.1745316E+00
         -2   -1    0    0    0  501 -0.00000000000E+00  0.00000000000E+00  0.58265434016E+01  0.58265439817E+01  0.26000000000E-02 0. -1.
          2   -1    0    0  501    0  0.00000000000E+00 -0.00000000000E+00 -0.17163863599E+02  0.17163863796E+02  0.26000000000E-02 0.  1.
       1023    2    1    2    0    0  0.00000000000E+00  0.00000000000E+00 -0.11337320197E+02  0.22990407777E+02  0.20000600504E+02 0.  0.
        -11    1    3    3    0    0 -0.88115489629E+01 -0.47289054150E+01 -0.56595133689E+01  0.11490693338E+02  0.51100000000E-03 0. -1.
         11    1    3    3    0    0  0.88115489629E+01  0.47289054150E+01 -0.56778068282E+01  0.11499714439E+02  0.51100000000E-03 0.  1.
<mgrwt>
<rscale>  0 0.20000601E+02</rscale>
<asrwt>0</asrwt>
<pdfrwt beam="2">  1        2 0.26405944E-02 0.20000601E+02</pdfrwt>
<pdfrwt beam="1">  1       -2 0.89639136E-03 0.20000601E+02</pdfrwt>
<totfact> 0.41133060E+06</totfact>
</mgrwt>
</event>
<event>
 5    1  0.4046313E-006  0.2000042E+02  0.7818608E-02  0.1745320E+00
          2   -1    0    0  501    0  0.00000000000E+00  0.00000000000E+00  0.31733017471E+01  0.31733028122E+01  0.26000000000E-02 0.  1.
         -2   -1    0    0    0  501 -0.00000000000E+00 -0.00000000000E+00 -0.31514240656E+02  0.31514240763E+02  0.26000000000E-02 0. -1.
       1023    2    1    2    0    0  0.00000000000E+00  0.00000000000E+00 -0.28340938909E+02  0.34687543576E+02  0.20000421522E+02 0.  0.
        -11    1    3    3    0    0 -0.33735256827E+01 -0.94138960317E+01 -0.14090973500E+02  0.17278820807E+02  0.51100000000E-03 0. -1.
         11    1    3    3    0    0  0.33735256827E+01  0.94138960317E+01 -0.14249965409E+02  0.17408722769E+02  0.51100000000E-03 0.  1.
<mgrwt>
<rscale>  0 0.20000422E+02</rscale>
<asrwt>0</asrwt>
<pdfrwt beam="1">  1        2 0.48820038E-03 0.20000422E+02</pdfrwt>
<pdfrwt beam="2">  1       -2 0.48483446E-02 0.20000422E+02</pdfrwt>
<totfact> 0.35878741E+06</totfact>
</mgrwt>
</event>
<event>
 5    1  0.4046313E-006  0.2000188E+02  0.7818608E-02  0.1745291E+00
         -2   -1    0    0    0  501 -0.00000000000E+00  0.00000000000E+00  0.20116987431E+02  0.20116987599E+02  0.26000000000E-02 0.  1.
          2   -1    0    0  501    0  0.00000000000E+00 -0.00000000000E+00 -0.49718597541E+01  0.49718604339E+01  0.26000000000E-02 0. -1.
       1023    2    1    2    0    0  0.00000000000E+00  0.00000000000E+00  0.15145127677E+02  0.25088848033E+02  0.20001884993E+02 0.  0.
        -11    1    3    3    0    0  0.70260646115E+01 -0.71162223006E+01  0.77136226220E+01  0.12629575526E+02  0.51100000000E-03 0.  1.
         11    1    3    3    0    0 -0.70260646115E+01  0.71162223006E+01  0.74315050550E+01  0.12459272507E+02  0.51100000000E-03 0. -1.
<mgrwt>
<rscale>  0 0.20001885E+02</rscale>
<asrwt>0</asrwt>
<pdfrwt beam="2">  1        2 0.76490156E-03 0.20001885E+02</pdfrwt>
<pdfrwt beam="1">  1       -2 0.30949212E-02 0.20001885E+02</pdfrwt>
<totfact> 0.37408029E+06</totfact>
</mgrwt>
</event>
<event>
 5    1  0.4046313E-006  0.2000125E+02  0.7818608E-02  0.1745303E+00
         -2   -1    0    0    0  501 -0.00000000000E+00  0.00000000000E+00  0.55791211125E+02  0.55791211186E+02  0.26000000000E-02 0. -1.
          2   -1    0    0  501    0  0.00000000000E+00 -0.00000000000E+00 -0.17926199540E+01  0.17926218395E+01  0.26000000000E-02 0.  1.
       1023    2    1    2    0    0  0.00000000000E+00  0.00000000000E+00  0.53998591171E+02  0.57583833025E+02  0.20001249396E+02 0.  0.
        -11    1    3    3    0    0  0.71097415834E+01 -0.70323129630E+01  0.26702281182E+02  0.28513394599E+02  0.51100000000E-03 0. -1.
         11    1    3    3    0    0 -0.71097415834E+01  0.70323129630E+01  0.27296309989E+02  0.29070438426E+02  0.51100000000E-03 0.  1.
<mgrwt>
<rscale>  0 0.20001249E+02</rscale>
<asrwt>0</asrwt>
<pdfrwt beam="2">  1        2 0.27578780E-03 0.20001249E+02</pdfrwt>
<pdfrwt beam="1">  1       -2 0.85832645E-02 0.20001249E+02</pdfrwt>
<totfact> 0.33342125E+06</totfact>
</mgrwt>
</event>
<event>
 5    1  0.4046313E-006  0.2000041E+02  0.7818608E-02  0.1745320E+00
         -2   -1    0    0    0  501 -0.00000000000E+00  0.00000000000E+00  0.26956264904E+02  0.26956265029E+02  0.26000000000E-02 0. -1.
          2   -1    0    0  501    0  0.00000000000E+00 -0.00000000000E+00 -0.37098647432E+01  0.37098656543E+01  0.26000000000E-02 0.  1.
       1023    2    1    2    0    0  0.00000000000E+00  0.00000000000E+00  0.23246400161E+02  0.30666130684E+02  0.20000411263E+02 0.  0.
        -11    1    3    3    0    0  0.98905338240E+01 -0.14759157872E+01  0.11537478182E+02  0.15268084025E+02  0.51100000000E-03 0.  1.
         11    1    3    3    0    0 -0.98905338240E+01  0.14759157872E+01  0.11708921979E+02  0.15398046659E+02  0.51100000000E-03 0. -1.
<mgrwt>
<rscale>  0 0.20000411E+02</rscale>
<asrwt>0</asrwt>
<pdfrwt beam="2">  1        2 0.57074851E-03 0.20000411E+02</pdfrwt>
<pdfrwt beam="1">  1       -2 0.41471177E-02 0.20000411E+02</pdfrwt>
<totfact> 0.36447577E+06</totfact>
</mgrwt>
</event>
<event>
 5    1  0.4229807E-006  0.2000246E+02  0.7818608E-02  0.1745279E+00
          2   -1    0    0  501    0  0.00000000000E+00  0.00000000000E+00  0.86500212441E+02  0.86500212480E+02  0.26000000000E-02 0.  1.
         -2   -1    0    0    0  501 -0.00000000000E+00 -0.00000000000E+00 -0.11563489485E+01  0.11563518715E+01  0.26000000000E-02 0. -1.
       1023    2    1    2    0    0  0.00000000000E+00  0.00000000000E+00  0.85343863493E+02  0.87656564352E+02  0.20002455801E+02 0.  0.
        -11    1    3    3    0    0 -0.80128000519E+01  0.59849027920E+01  0.42773119826E+02  0.43926800544E+02  0.51100000000E-03 0. -1.
         11    1    3    3    0    0  0.80128000519E+01 -0.59849027920E+01  0.42570743666E+02  0.43729763808E+02  0.51100000000E-03 0.  1.
<mgrwt>
<rscale>  0 0.20002456E+02</rscale>
<asrwt>0</asrwt>
<pdfrwt beam="1">  1        2 0.13307727E-01 0.20002456E+02</pdfrwt>
<pdfrwt beam="2">  1       -2 0.17790005E-03 0.20002456E+02</pdfrwt>
<totfact> 0.51098579E+06</totfact>
</mgrwt>
</event>
<event>
 5    1  0.4046313E-006  0.2000057E+02  0.7818608E-02  0.1745317E+00
          2   -1    0    0  501    0  0.00000000000E+00  0.00000000000E+00  0.26163366590E+01  0.26163379509E+01  0.26000000000E-02 0.  1.
         -2   -1    0    0    0  501 -0.00000000000E+00 -0.00000000000E+00 -0.38223562571E+02  0.38223562660E+02  0.26000000000E-02 0. -1.
       1023    2    1    2    0    0  0.00000000000E+00  0.00000000000E+00 -0.35607225912E+02  0.40839900611E+02  0.20000573610E+02 0.  0.
        -11    1    3    3    0    0  0.80417583008E+01  0.59443397573E+01 -0.17750201661E+02  0.20373382414E+02  0.51100000000E-03 0. -1.
         11    1    3    3    0    0 -0.80417583008E+01 -0.59443397573E+01 -0.17857024251E+02  0.20466518197E+02  0.51100000000E-03 0.  1.
<mgrwt>
<rscale>  0 0.20000574E+02</rscale>
<asrwt>0</asrwt>
<pdfrwt beam="1">  1        2 0.40251347E-03 0.20000574E+02</pdfrwt>
<pdfrwt beam="2">  1       -2 0.58805478E-02 0.20000574E+02</pdfrwt>
<totfact> 0.35110784E+06</totfact>
</mgrwt>
</event>
<event>
 5    1  0.4046313E-006  0.2000048E+02  0.7818608E-02  0.1745319E+00
          2   -1    0    0  501    0  0.00000000000E+00  0.00000000000E+00  0.21331651532E+02  0.21331651690E+02  0.26000000000E-02 0.  1.
         -2   -1    0    0    0  501 -0.00000000000E+00 -0.00000000000E+00 -0.46880928502E+01  0.46880935711E+01  0.26000000000E-02 0. -1.
       1023    2    1    2    0    0  0.00000000000E+00  0.00000000000E+00  0.16643558682E+02  0.26019745261E+02  0.20000477441E+02 0.  0.
        -11    1    3    3    0    0  0.84440312666E+01  0.53570968704E+01  0.82333210303E+01  0.12953290175E+02  0.51100000000E-03 0. -1.
         11    1    3    3    0    0 -0.84440312666E+01 -0.53570968704E+01  0.84102376514E+01  0.13066455086E+02  0.51100000000E-03 0.  1.
<mgrwt>
<rscale>  0 0.20000477E+02</rscale>
<asrwt>0</asrwt>
<pdfrwt beam="1">  1        2 0.32817927E-02 0.20000477E+02</pdfrwt>
<pdfrwt beam="2">  1       -2 0.72124511E-03 0.20000477E+02</pdfrwt>
<totfact> 0.41917659E+06</totfact>
</mgrwt>
</event>
<event>
 5    1  0.4046313E-006  0.2000055E+02  0.7818608E-02  0.1745317E+00
         -2   -1    0    0    0  501 -0.00000000000E+00  0.00000000000E+00  0.16325029399E+02  0.16325029606E+02  0.26000000000E-02 0.  1.
          2   -1    0    0  501    0  0.00000000000E+00 -0.00000000000E+00 -0.61258991278E+01  0.61258996795E+01  0.26000000000E-02 0. -1.
       1023    2    1    2    0    0  0.00000000000E+00  0.00000000000E+00  0.10199130271E+02  0.22450929286E+02  0.20000549180E+02 0.  0.
        -11    1    3    3    0    0  0.73761045874E+01  0.67526698047E+01  0.50941539218E+01  0.11223006407E+02  0.51100000000E-03 0.  1.
         11    1    3    3    0    0 -0.73761045874E+01 -0.67526698047E+01  0.51049763496E+01  0.11227922879E+02  0.51100000000E-03 0. -1.
<mgrwt>
<rscale>  0 0.20000549E+02</rscale>
<asrwt>0</asrwt>
<pdfrwt beam="2">  1        2 0.94244607E-03 0.20000549E+02</pdfrwt>
<pdfrwt beam="1">  1       -2 0.25115431E-02 0.20000549E+02</pdfrwt>
<totfact> 0.38047173E+06</totfact>
</mgrwt>
</event>
<event>
 5    1  0.4046313E-006  0.2000049E+02  0.7818608E-02  0.1745318E+00
          2   -1    0    0  501    0  0.00000000000E+00  0.00000000000E+00  0.60240147586E+02  0.60240147643E+02  0.26000000000E-02 0. -1.
         -2   -1    0    0    0  501 -0.00000000000E+00 -0.00000000000E+00 -0.16601028101E+01  0.16601048461E+01  0.26000000000E-02 0.  1.
       1023    2    1    2    0    0  0.00000000000E+00  0.00000000000E+00  0.58580044776E+02  0.61900252489E+02  0.20000490298E+02 0.  0.
        -11    1    3    3    0    0 -0.82125612419E+01 -0.57058221237E+01  0.29439560050E+02  0.31091643000E+02  0.51100000000E-03 0.  1.
         11    1    3    3    0    0  0.82125612419E+01  0.57058221237E+01  0.29140484727E+02  0.30808609489E+02  0.51100000000E-03 0. -1.
<mgrwt>
<rscale>  0 0.20000490E+02</rscale>
<asrwt>0</asrwt>
<pdfrwt beam="1">  1        2 0.92677133E-02 0.20000490E+02</pdfrwt>
<pdfrwt beam="2">  1       -2 0.25540065E-03 0.20000490E+02</pdfrwt>
<totfact> 0.47727416E+06</totfact>
</mgrwt>
</event>
<event>
 5    1  0.4046313E-006  0.2000083E+02  0.7818608E-02  0.1745312E+00
         -2   -1    0    0    0  501 -0.00000000000E+00  0.00000000000E+00  0.50234389831E+01  0.50234396560E+01  0.26000000000E-02 0.  1.
          2   -1    0    0  501    0  0.00000000000E+00 -0.00000000000E+00 -0.19908328422E+02  0.19908328592E+02  0.26000000000E-02 0. -1.
       1023    2    1    2    0    0  0.00000000000E+00  0.00000000000E+00 -0.14884889439E+02  0.24931768248E+02  0.20000828342E+02 0.  0.
        -11    1    3    3    0    0 -0.24704970033E+01  0.96904516642E+01 -0.74531986683E+01  0.12472304500E+02  0.51100000000E-03 0. -1.
         11    1    3    3    0    0  0.24704970033E+01 -0.96904516642E+01 -0.74316907704E+01  0.12459463747E+02  0.51100000000E-03 0.  1.
<mgrwt>
<rscale>  0 0.20000828E+02</rscale>
<asrwt>0</asrwt>
<pdfrwt beam="2">  1        2 0.30628198E-02 0.20000828E+02</pdfrwt>
<pdfrwt beam="1">  1       -2 0.77283684E-03 0.20000828E+02</pdfrwt>
<totfact> 0.41657187E+06</totfact>
</mgrwt>
</event>
<event>
 5    1  0.4420848E-006  0.2000192E+02  0.7818608E-02  0.1745290E+00
         -2   -1    0    0    0  501 -0.00000000000E+00  0.00000000000E+00  0.89449066356E+00  0.89449444224E+00  0.26000000000E-02 0. -1.
          2   -1    0    0  501    0  0.00000000000E+00 -0.00000000000E+00 -0.11181666969E+03  0.11181666972E+03  0.26000000000E-02 0.  1.
       1023    2    1    2    0    0  0.00000000000E+00  0.00000000000E+00 -0.11092217903E+03  0.11271116417E+03  0.20001918081E+02 0.  0.
        -11    1    3    3    0    0  0.65332646021E+01 -0.75708612340E+01 -0.56210679872E+02  0.57093274719E+02  0.51100000000E-03 0. -1.
         11    1    3    3    0    0 -0.65332646021E+01  0.75708612340E+01 -0.54711499158E+02  0.55617889447E+02  0.51100000000E-03 0.  1.
<mgrwt>
<rscale>  0 0.20001918E+02</rscale>
<asrwt>0</asrwt>
<pdfrwt beam="2">  1        2 0.17202554E-01 0.20001918E+02</pdfrwt>
<pdfrwt beam="1">  1       -2 0.13761433E-03 0.20001918E+02</pdfrwt>
<totfact> 0.54139583E+06</totfact>
</mgrwt>
</event>
<event>
 4    1  0.4046313E-006  0.2002338E+02  0.7818608E-02  0.1744864E+00
         -2   -1    0    0    0  501 -0.00000000000E+00  0.00000000000E+00  0.14725212509E+02  0.14725212739E+02  0.26000000000E-02 0. -1.
          2   -1    0    0  501    0  0.00000000000E+00 -0.00000000000E+00 -0.68069589105E+01  0.68069594071E+01  0.26000000000E-02 0.  1.
        -11    1    1    2    0    0 -0.35887948635E+01 -0.93431952540E+01  0.42207223559E+01  0.10862285376E+02  0.51100000000E-03 0.  1.
         11    1    1    2    0    0  0.35887948635E+01  0.93431952540E+01  0.36975312428E+01  0.10669886770E+02  0.51100000000E-03 0. -1.
<mgrwt>
<rscale>  0 0.20023379E+02</rscale>
<asrwt>0</asrwt>
<pdfrwt beam="2">  1        2 0.10472245E-02 0.20023379E+02</pdfrwt>
<pdfrwt beam="1">  1       -2 0.22654174E-02 0.20023379E+02</pdfrwt>
<totfact> 0.38254809E+06</totfact>
</mgrwt>
</event>
<event>
 5    1  0.4046313E-006  0.2000047E+02  0.7818608E-02  0.1745319E+00
          2   -1    0    0  501    0  0.00000000000E+00  0.00000000000E+00  0.21566376084E+02  0.21566376241E+02  0.26000000000E-02 0.  1.
         -2   -1    0    0    0  501 -0.00000000000E+00 -0.00000000000E+00 -0.46370639715E+01  0.46370647004E+01  0.26000000000E-02 0. -1.
       1023    2    1    2    0    0  0.00000000000E+00  0.00000000000E+00  0.16929312112E+02  0.26203440941E+02  0.20000467708E+02 0.  0.
        -11    1    3    3    0    0  0.78598224756E+01  0.61825225015E+01  0.85503982509E+01  0.13157116110E+02  0.51100000000E-03 0. -1.
         11    1    3    3    0    0 -0.78598224756E+01 -0.61825225015E+01  0.83789138615E+01  0.13046324831E+02  0.51100000000E-03 0.  1.
<mgrwt>
<rscale>  0 0.20000468E+02</rscale>
<asrwt>0</asrwt>
<pdfrwt beam="1">  1        2 0.33179040E-02 0.20000468E+02</pdfrwt>
<pdfrwt beam="2">  1       -2 0.71339454E-03 0.20000468E+02</pdfrwt>
<totfact> 0.41959672E+06</totfact>
</mgrwt>
</event>
<event>
 5    1  0.4046313E-006  0.2000087E+02  0.7818608E-02  0.1745311E+00
          2   -1    0    0  501    0  0.00000000000E+00  0.00000000000E+00  0.65528629166E+01  0.65528634324E+01  0.26000000000E-02 0.  1.
         -2   -1    0    0    0  501 -0.00000000000E+00 -0.00000000000E+00 -0.15261829027E+02  0.15261829249E+02  0.26000000000E-02 0. -1.
       1023    2    1    2    0    0  0.00000000000E+00  0.00000000000E+00 -0.87089661108E+01  0.21814692681E+02  0.20000868133E+02 0.  0.
        -11    1    3    3    0    0  0.30278509503E+01  0.95308395035E+01 -0.44225810490E+01  0.10934532748E+02  0.51100000000E-03 0. -1.
         11    1    3    3    0    0 -0.30278509503E+01 -0.95308395035E+01 -0.42863850618E+01  0.10880159933E+02  0.51100000000E-03 0.  1.
<mgrwt>
<rscale>  0 0.20000868E+02</rscale>
<asrwt>0</asrwt>
<pdfrwt beam="1">  1        2 0.10081328E-02 0.20000868E+02</pdfrwt>
<pdfrwt beam="2">  1       -2 0.23479737E-02 0.20000868E+02</pdfrwt>
<totfact> 0.38243608E+06</totfact>
</mgrwt>
</event>
<event>
 5    1  0.4046313E-006  0.2000154E+02  0.7818608E-02  0.1745297E+00
          2   -1    0    0  501    0  0.00000000000E+00  0.00000000000E+00  0.25840740961E+01  0.25840754041E+01  0.26000000000E-02 0. -1.
         -2   -1    0    0    0  501 -0.00000000000E+00 -0.00000000000E+00 -0.38704543275E+02  0.38704543363E+02  0.26000000000E-02 0.  1.
       1023    2    1    2    0    0  0.00000000000E+00  0.00000000000E+00 -0.36120469179E+02  0.41288618767E+02  0.20001543589E+02 0.  0.
        -11    1    3    3    0    0 -0.90024690670E+00  0.99600042703E+01 -0.17941531507E+02  0.20540464518E+02  0.51100000000E-03 0. -1.
         11    1    3    3    0    0  0.90024690670E+00 -0.99600042703E+01 -0.18178937672E+02  0.20748154248E+02  0.51100000000E-03 0.  1.
<mgrwt>
<rscale>  0 0.20001544E+02</rscale>
<asrwt>0</asrwt>
<pdfrwt beam="1">  1        2 0.39755000E-03 0.20001544E+02</pdfrwt>
<pdfrwt beam="2">  1       -2 0.59545448E-02 0.20001544E+02</pdfrwt>
<totfact> 0.35054581E+06</totfact>
</mgrwt>
</event>
<event>
 5    1  0.4046313E-006  0.2000156E+02  0.7818608E-02  0.1745297E+00
         -2   -1    0    0    0  501 -0.00000000000E+00  0.00000000000E+00  0.65005902863E+02  0.65005902915E+02  0.26000000000E-02 0.  1.
          2   -1    0    0  501    0  0.00000000000E+00 -0.00000000000E+00 -0.15385611110E+01  0.15385633079E+01  0.26000000000E-02 0. -1.
       1023    2    1    2    0    0  0.00000000000E+00  0.00000000000E+00  0.63467341752E+02  0.66544466223E+02  0.20001562834E+02 0.  0.
        -11    1    3    3    0    0  0.86718628221E+01 -0.49800249951E+01  0.32124145509E+02  0.33644651562E+02  0.51100000000E-03 0. -1.
         11    1    3    3    0    0 -0.86718628221E+01  0.49800249951E+01  0.31343196243E+02  0.32899814661E+02  0.51100000000E-03 0.  1.
<mgrwt>
<rscale>  0 0.20001563E+02</rscale>
<asrwt>0</asrwt>
<pdfrwt beam="2">  1        2 0.23670193E-03 0.20001563E+02</pdfrwt>
<pdfrwt beam="1">  1       -2 0.10000906E-01 0.20001563E+02</pdfrwt>
<totfact> 0.32508442E+06</totfact>
</mgrwt>
</event>
<event>
 5    1  0.4046313E-006  0.2000045E+02  0.7818608E-02  0.1745319E+00
         -2   -1    0    0    0  501 -0.00000000000E+00  0.00000000000E+00  0.65522569338E+01  0.65522574497E+01  0.26000000000E-02 0. -1.
          2   -1    0    0  501    0  0.00000000000E+00 -0.00000000000E+00 -0.15262605067E+02  0.15262605288E+02  0.26000000000E-02 0.  1.
       1023    2    1    2    0    0  0.00000000000E+00  0.00000000000E+00 -0.87103481330E+01  0.21814862738E+02  0.20000451787E+02 0.  0.
        -11    1    3    3    0    0  0.57970143858E+01  0.81484636004E+01 -0.43999177614E+01  0.10925296857E+02  0.51100000000E-03 0.  1.
         11    1    3    3    0    0 -0.57970143858E+01 -0.81484636004E+01 -0.43104303716E+01  0.10889565881E+02  0.51100000000E-03 0. -1.
<mgrwt>
<rscale>  0 0.20000452E+02</rscale>
<asrwt>0</asrwt>
<pdfrwt beam="2">  1        2 0.23480931E-02 0.20000452E+02</pdfrwt>
<pdfrwt beam="1">  1       -2 0.10080396E-02 0.20000452E+02</pdfrwt>
<totfact> 0.40743539E+06</totfact>
</mgrwt>
</event>
<event>
 5    1  0.4046313E-006  0.2000223E+02  0.7818608E-02  0.1745284E+00
         -2   -1    0    0    0  501 -0.00000000000E+00  0.00000000000E+00  0.23931046920E+01  0.23931061044E+01  0.26000000000E-02 0.  1.
          2   -1    0    0  501    0  0.00000000000E+00 -0.00000000000E+00 -0.41796010891E+02  0.41796010972E+02  0.26000000000E-02 0. -1.
       1023    2    1    2    0    0  0.00000000000E+00  0.00000000000E+00 -0.39402906199E+02  0.44189117076E+02  0.20002226152E+02 0.  0.
        -11    1    3    3    0    0 -0.95454201178E+01 -0.29833204183E+01 -0.19886507338E+02  0.22259569185E+02  0.51100000000E-03 0.  1.
         11    1    3    3    0    0  0.95454201178E+01  0.29833204183E+01 -0.19516398861E+02  0.21929547891E+02  0.51100000000E-03 0. -1.
<mgrwt>
<rscale>  0 0.20002226E+02</rscale>
<asrwt>0</asrwt>
<pdfrwt beam="2">  1        2 0.64301551E-02 0.20002226E+02</pdfrwt>
<pdfrwt beam="1">  1       -2 0.36817010E-03 0.20002226E+02</pdfrwt>
<totfact> 0.45147833E+06</totfact>
</mgrwt>
</event>
<event>
 5    1  0.4046313E-006  0.2000040E+02  0.7818608E-02  0.1745320E+00
         -2   -1    0    0    0  501 -0.00000000000E+00  0.00000000000E+00  0.46506847022E+01  0.46506854290E+01  0.26000000000E-02 0. -1.
          2   -1    0    0  501    0  0.00000000000E+00 -0.00000000000E+00 -0.21503072129E+02  0.21503072286E+02  0.26000000000E-02 0.  1.
       1023    2    1    2    0    0  0.00000000000E+00  0.00000000000E+00 -0.16852387427E+02  0.26153757715E+02  0.20000402012E+02 0.  0.
        -11    1    3    3    0    0  0.55718933059E+01 -0.83040948373E+01 -0.84337984215E+01  0.13081779013E+02  0.51100000000E-03 0. -1.
         11    1    3    3    0    0 -0.55718933059E+01  0.83040948373E+01 -0.84185890054E+01  0.13071978702E+02  0.51100000000E-03 0.  1.
<mgrwt>
<rscale>  0 0.20000402E+02</rscale>
<asrwt>0</asrwt>
<pdfrwt beam="2">  1        2 0.33081650E-02 0.20000402E+02</pdfrwt>
<pdfrwt beam="1">  1       -2 0.71549003E-03 0.20000402E+02</pdfrwt>
<totfact> 0.41948683E+06</totfact>
</mgrwt>
</event>
<event>
 5    1  0.4046313E-006  0.2000065E+02  0.7818608E-02  0.1745315E+00
         -2   -1    0    0    0  501 -0.00000000000E+00  0.00000000000E+00  0.20388861897E+02  0.20388862062E+02  0.26000000000E-02 0. -1.
          2   -1    0    0  501    0  0.00000000000E+00 -0.00000000000E+00 -0.49049568742E+01  0.49049575633E+01  0.26000000000E-02 0.  1.
       1023    2    1    2    0    0  0.00000000000E+00  0.00000000000E+00  0.15483905022E+02  0.25293819626E+02  0.20000649902E+02 0.  0.
        -11    1    3    3    0    0 -0.54100982843E+01  0.84102606553E+01  0.78300354560E+01  0.12700830809E+02  0.51100000000E-03 0. -1.
         11    1    3    3    0    0  0.54100982843E+01 -0.84102606553E+01  0.76538695663E+01  0.12592988817E+02  0.51100000000E-03 0.  1.
<mgrwt>
<rscale>  0 0.20000650E+02</rscale>
<asrwt>0</asrwt>
<pdfrwt beam="2">  1        2 0.75460882E-03 0.20000650E+02</pdfrwt>
<pdfrwt beam="1">  1       -2 0.31367481E-02 0.20000650E+02</pdfrwt>
<totfact> 0.37370965E+06</totfact>
</mgrwt>
</event>
<event>
 5    1  0.4046313E-006  0.2000021E+02  0.7818608E-02  0.1745324E+00
          2   -1    0    0  501    0  0.00000000000E+00  0.00000000000E+00  0.10423663778E+02  0.10423664102E+02  0.26000000000E-02 0.  1.
         -2   -1    0    0    0  501 -0.00000000000E+00 -0.00000000000E+00 -0.95937577358E+01  0.95937580881E+01  0.26000000000E-02 0. -1.
       1023    2    1    2    0    0  0.00000000000E+00  0.00000000000E+00  0.82990604209E+00  0.20017422190E+02  0.20000211177E+02 0.  0.
        -11    1    3    3    0    0  0.93737270201E+01  0.34835323182E+01  0.43383338904E+00  0.10009493860E+02  0.51100000000E-03 0. -1.
         11    1    3    3    0    0 -0.93737270201E+01 -0.34835323182E+01  0.39607265305E+00  0.10007928330E+02  0.51100000000E-03 0.  1.
<mgrwt>
<rscale>  0 0.20000211E+02</rscale>
<asrwt>0</asrwt>
<pdfrwt beam="1">  1        2 0.16036406E-02 0.20000211E+02</pdfrwt>
<pdfrwt beam="2">  1       -2 0.14759628E-02 0.20000211E+02</pdfrwt>
<totfact> 0.39582561E+06</totfact>
</mgrwt>
</event>
<event>
 5    1  0.4046313E-006  0.2000099E+02  0.7818608E-02  0.1745308E+00
          2   -1    0    0  501    0  0.00000000000E+00  0.00000000000E+00  0.16526828914E+02  0.16526829118E+02  0.26000000000E-02 0. -1.
         -2   -1    0    0    0  501 -0.00000000000E+00 -0.00000000000E+00 -0.60513682877E+01  0.60513688463E+01  0.26000000000E-02 0.  1.
       1023    2    1    2    0    0  0.00000000000E+00  0.00000000000E+00  0.10475460626E+02  0.22578197965E+02  0.20000993675E+02 0.  0.
        -11    1    3    3    0    0 -0.43553250516E+00  0.99909454598E+01  0.51977077817E+01  0.11270529987E+02  0.51100000000E-03 0. -1.
         11    1    3    3    0    0  0.43553250516E+00 -0.99909454598E+01  0.52777528445E+01  0.11307667978E+02  0.51100000000E-03 0.  1.
<mgrwt>
<rscale>  0 0.20000994E+02</rscale>
<asrwt>0</asrwt>
<pdfrwt beam="1">  1        2 0.25425891E-02 0.20000994E+02</pdfrwt>
<pdfrwt beam="2">  1       -2 0.93097979E-03 0.20000994E+02</pdfrwt>
<totfact> 0.41003298E+06</totfact>
</mgrwt>
</event>
<event>
 5    1  0.4046313E-006  0.2000101E+02  0.7818608E-02  0.1745308E+00
          2   -1    0    0  501    0  0.00000000000E+00  0.00000000000E+00  0.53172882776E+02  0.53172882840E+02  0.26000000000E-02 0. -1.
         -2   -1    0    0    0  501 -0.00000000000E+00 -0.00000000000E+00 -0.18808461305E+01  0.18808479275E+01  0.26000000000E-02 0.  1.
       1023    2    1    2    0    0  0.00000000000E+00  0.00000000000E+00  0.51292036646E+02  0.55053730767E+02  0.20001006178E+02 0.  0.
        -11    1    3    3    0    0 -0.98596386035E+01  0.16698681773E+01  0.25909007695E+02  0.27771885300E+02  0.51100000000E-03 0.  1.
         11    1    3    3    0    0  0.98596386035E+01 -0.16698681773E+01  0.25383028951E+02  0.27281845467E+02  0.51100000000E-03 0. -1.
<mgrwt>
<rscale>  0 0.20001006E+02</rscale>
<asrwt>0</asrwt>
<pdfrwt beam="1">  1        2 0.81804427E-02 0.20001006E+02</pdfrwt>
<pdfrwt beam="2">  1       -2 0.28936112E-03 0.20001006E+02</pdfrwt>
<totfact> 0.46763249E+06</totfact>
</mgrwt>
</event>
<event>
 5    1  0.4046313E-006  0.2000199E+02  0.7818608E-02  0.1745288E+00
          2   -1    0    0  501    0  0.00000000000E+00  0.00000000000E+00  0.20073470746E+01  0.20073487584E+01  0.26000000000E-02 0. -1.
         -2   -1    0    0    0  501 -0.00000000000E+00 -0.00000000000E+00 -0.49826892037E+02  0.49826892105E+02  0.26000000000E-02 0.  1.
       1023    2    1    2    0    0  0.00000000000E+00  0.00000000000E+00 -0.47819544962E+02  0.51834240863E+02  0.20001991037E+02 0.  0.
        -11    1    3    3    0    0 -0.67407891772E+01 -0.73877090065E+01 -0.23758044987E+02  0.25777144624E+02  0.51100000000E-03 0.  1.
         11    1    3    3    0    0  0.67407891772E+01  0.73877090065E+01 -0.24061499975E+02  0.26057096239E+02  0.51100000000E-03 0. -1.
<mgrwt>
<rscale>  0 0.20001991E+02</rscale>
<asrwt>0</asrwt>
<pdfrwt beam="1">  1        2 0.30882280E-03 0.20001991E+02</pdfrwt>
<pdfrwt beam="2">  1       -2 0.76656749E-02 0.20001991E+02</pdfrwt>
<totfact> 0.33908201E+06</totfact>
</mgrwt>
</event>
<event>
 5    1  0.4046313E-006  0.2000041E+02  0.7818608E-02  0.1745320E+00
          2   -1    0    0  501    0  0.00000000000E+00  0.00000000000E+00  0.15298405826E+02  0.15298406047E+02  0.26000000000E-02 0.  1.
         -2   -1    0    0    0  501 -0.00000000000E+00 -0.00000000000E+00 -0.65368966970E+01  0.65368972140E+01  0.26000000000E-02 0. -1.
       1023    2    1    2    0    0  0.00000000000E+00  0.00000000000E+00  0.87615091295E+01  0.21835303261E+02  0.20000410653E+02 0.  0.
        -11    1    3    3    0    0 -0.75295108917E+01 -0.65807917679E+01  0.43138836392E+01  0.10890819385E+02  0.51100000000E-03 0.  1.
         11    1    3    3    0    0  0.75295108917E+01  0.65807917679E+01  0.44476254903E+01  0.10944483877E+02  0.51100000000E-03 0. -1.
<mgrwt>
<rscale>  0 0.20000411E+02</rscale>
<asrwt>0</asrwt>
<pdfrwt beam="1">  1        2 0.23536009E-02 0.20000411E+02</pdfrwt>
<pdfrwt beam="2">  1       -2 0.10056765E-02 0.20000411E+02</pdfrwt>
<totfact> 0.40751325E+06</totfact>
</mgrwt>
</event>
<event>
 5    1  0.4046313E-006  0.2000091E+02  0.7818608E-02  0.1745310E+00
          2   -1    0    0  501    0  0.00000000000E+00  0.00000000000E+00  0.11530464789E+03  0.11530464792E+03  0.26000000000E-02 0. -1.
         -2   -1    0    0    0  501 -0.00000000000E+00 -0.00000000000E+00 -0.86734503081E+00  0.86734892775E+00  0.26000000000E-02 0.  1.
       1023    2    1    2    0    0  0.00000000000E+00  0.00000000000E+00  0.11443730286E+03  0.11617199685E+03  0.20000914123E+02 0.  0.
        -11    1    3    3    0    0 -0.99338742758E+01  0.11519390532E+01  0.57114835447E+02  0.57983732633E+02  0.51100000000E-03 0. -1.
         11    1    3    3    0    0  0.99338742758E+01 -0.11519390532E+01  0.57322467414E+02  0.58188264216E+02  0.51100000000E-03 0.  1.
<mgrwt>
<rscale>  0 0.20000914E+02</rscale>
<asrwt>0</asrwt>
<pdfrwt beam="1">  1        2 0.17739187E-01 0.20000914E+02</pdfrwt>
<pdfrwt beam="2">  1       -2 0.13343792E-03 0.20000914E+02</pdfrwt>
<totfact> 0.54548961E+06</totfact>
</mgrwt>
</event>
<event>
 5    1  0.4046313E-006  0.2000022E+02  0.7818608E-02  0.1745324E+00
          2   -1    0    0  501    0  0.00000000000E+00  0.00000000000E+00  0.12762768427E+01  0.12762794910E+01  0.26000000000E-02 0.  1.
         -2   -1    0    0    0  501 -0.00000000000E+00 -0.00000000000E+00 -0.78354579985E+02  0.78354580028E+02  0.26000000000E-02 0. -1.
       1023    2    1    2    0    0  0.00000000000E+00  0.00000000000E+00 -0.77078303142E+02  0.79630859519E+02  0.20000224311E+02 0.  0.
        -11    1    3    3    0    0  0.75065510151E+01  0.66070617900E+01 -0.38436153186E+02  0.39715732974E+02  0.51100000000E-03 0.  1.
         11    1    3    3    0    0 -0.75065510151E+01 -0.66070617900E+01 -0.38642149956E+02  0.39915126546E+02  0.51100000000E-03 0. -1.
<mgrwt>
<rscale>  0 0.20000224E+02</rscale>
<asrwt>0</asrwt>
<pdfrwt beam="1">  1        2 0.19635055E-03 0.20000224E+02</pdfrwt>
<pdfrwt beam="2">  1       -2 0.12054547E-01 0.20000224E+02</pdfrwt>
<totfact> 0.31389677E+06</totfact>
</mgrwt>
</event>
<event>
 5    1  0.4046313E-006  0.2000227E+02  0.7818608E-02  0.1745283E+00
          2   -1    0    0  501    0  0.00000000000E+00  0.00000000000E+00  0.14390259729E+02  0.14390259963E+02  0.26000000000E-02 0.  1.
         -2   -1    0    0    0  501 -0.00000000000E+00 -0.00000000000E+00 -0.69507234515E+01  0.69507239378E+01  0.26000000000E-02 0. -1.
       1023    2    1    2    0    0  0.00000000000E+00  0.00000000000E+00  0.74395362771E+01  0.21340983901E+02  0.20002272217E+02 0.  0.
        -11    1    3    3    0    0  0.32903742295E+01 -0.94437824256E+01  0.38323486600E+01  0.10709737886E+02  0.51100000000E-03 0.  1.
         11    1    3    3    0    0 -0.32903742295E+01  0.94437824256E+01  0.36071876171E+01  0.10631246015E+02  0.51100000000E-03 0. -1.
<mgrwt>
<rscale>  0 0.20002272E+02</rscale>
<asrwt>0</asrwt>
<pdfrwt beam="1">  1        2 0.22138861E-02 0.20002272E+02</pdfrwt>
<pdfrwt beam="2">  1       -2 0.10693421E-02 0.20002272E+02</pdfrwt>
<totfact> 0.40546680E+06</totfact>
</mgrwt>
</event>
<event>
 5    1  0.4046313E-006  0.2000067E+02  0.7818608E-02  0.1745315E+00
          2   -1    0    0  501    0  0.00000000000E+00  0.00000000000E+00  0.47383558718E+02  0.47383558789E+02  0.26000000000E-02 0. -1.
         -2   -1    0    0    0  501 -0.00000000000E+00 -0.00000000000E+00 -0.21105769454E+01  0.21105785469E+01  0.26000000000E-02 0.  1.
       1023    2    1    2    0    0  0.00000000000E+00  0.00000000000E+00  0.45272981773E+02  0.49494137336E+02  0.20000668791E+02 0.  0.
        -11    1    3    3    0    0  0.87958760571E+01 -0.47573744819E+01  0.22434840374E+02  0.24562616115E+02  0.51100000000E-03 0.  1.
         11    1    3    3    0    0 -0.87958760571E+01  0.47573744819E+01  0.22838141399E+02  0.24931521221E+02  0.51100000000E-03 0. -1.
<mgrwt>
<rscale>  0 0.20000669E+02</rscale>
<asrwt>0</asrwt>
<pdfrwt beam="1">  1        2 0.72897785E-02 0.20000669E+02</pdfrwt>
<pdfrwt beam="2">  1       -2 0.32470427E-03 0.20000669E+02</pdfrwt>
<totfact> 0.45956906E+06</totfact>
</mgrwt>
</event>
<event>
 5    1  0.4428881E-006  0.2000133E+02  0.7818608E-02  0.1745302E+00
         -2   -1    0    0    0  501 -0.00000000000E+00  0.00000000000E+00  0.10646584793E+01  0.10646616541E+01  0.26000000000E-02 0.  1.
          2   -1    0    0  501    0  0.00000000000E+00 -0.00000000000E+00 -0.93939211699E+02  0.93939211735E+02  0.26000000000E-02 0. -1.
       1023    2    1    2    0    0  0.00000000000E+00  0.00000000000E+00 -0.92874553219E+02  0.95003873389E+02  0.20001333035E+02 0.  0.
        -11    1    3    3    0    0  0.99634801604E+01 -0.85924846289E+00 -0.46740886436E+02  0.47798741718E+02  0.51100000000E-03 0.  1.
         11    1    3    3    0    0 -0.99634801604E+01  0.85924846289E+00 -0.46133666784E+02  0.47205131670E+02  0.51100000000E-03 0. -1.
<mgrwt>
<rscale>  0 0.20001333E+02</rscale>
<asrwt>0</asrwt>
<pdfrwt beam="2">  1        2 0.14452180E-01 0.20001333E+02</pdfrwt>
<pdfrwt beam="1">  1       -2 0.16379393E-03 0.20001333E+02</pdfrwt>
<totfact> 0.52018785E+06</totfact>
</mgrwt>
</event>
<event>
 5    1  0.4046313E-006  0.2000491E+02  0.7818608E-02  0.1745231E+00
         -2   -1    0    0    0  501 -0.00000000000E+00  0.00000000000E+00  0.12755007658E+02  0.12755007923E+02  0.26000000000E-02 0.  1.
          2   -1    0    0  501    0  0.00000000000E+00 -0.00000000000E+00 -0.78439040224E+01  0.78439044533E+01  0.26000000000E-02 0. -1.
       1023    2    1    2    0    0  0.00000000000E+00  0.00000000000E+00  0.49111036356E+01  0.20598912376E+02  0.20004905703E+02 0.  0.
        -11    1    3    3    0    0 -0.13870809895E-01 -0.10001975577E+02  0.25551446840E+01  0.10323200689E+02  0.51100000000E-03 0. -1.
         11    1    3    3    0    0  0.13870809895E-01  0.10001975577E+02  0.23559589516E+01  0.10275711688E+02  0.51100000000E-03 0.  1.
<mgrwt>
<rscale>  0 0.20004906E+02</rscale>
<asrwt>0</asrwt>
<pdfrwt beam="2">  1        2 0.12067545E-02 0.20004906E+02</pdfrwt>
<pdfrwt beam="1">  1       -2 0.19623089E-02 0.20004906E+02</pdfrwt>
<totfact> 0.38744800E+06</totfact>
</mgrwt>
</event>
<event>
 5    1  0.4046313E-006  0.2000321E+02  0.7818608E-02  0.1745264E+00
          2   -1    0    0  501    0  0.00000000000E+00  0.00000000000E+00  0.28615405445E+01  0.28615417257E+01  0.26000000000E-02 0. -1.
         -2   -1    0    0    0  501 -0.00000000000E+00 -0.00000000000E+00 -0.34957436612E+02  0.34957436708E+02  0.26000000000E-02 0.  1.
       1023    2    1    2    0    0  0.00000000000E+00  0.00000000000E+00 -0.32095896067E+02  0.37818978434E+02  0.20003214378E+02 0.  0.
        -11    1    3    3    0    0  0.83955922758E+01  0.54331191609E+01 -0.16360863322E+02  0.19175051562E+02  0.51100000000E-03 0. -1.
         11    1    3    3    0    0 -0.83955922758E+01 -0.54331191609E+01 -0.15735032745E+02  0.18643926872E+02  0.51100000000E-03 0.  1.
<mgrwt>
<rscale>  0 0.20003214E+02</rscale>
<asrwt>0</asrwt>
<pdfrwt beam="1">  1        2 0.44023713E-03 0.20003214E+02</pdfrwt>
<pdfrwt beam="2">  1       -2 0.53780670E-02 0.20003214E+02</pdfrwt>
<totfact> 0.35465337E+06</totfact>
</mgrwt>
</event>
<event>
 5    1  0.4046313E-006  0.2000079E+02  0.7818608E-02  0.1745312E+00
          2   -1    0    0  501    0  0.00000000000E+00  0.00000000000E+00  0.19416434691E+01  0.19416452098E+01  0.26000000000E-02 0. -1.
         -2   -1    0    0    0  501 -0.00000000000E+00 -0.00000000000E+00 -0.51506825967E+02  0.51506826033E+02  0.26000000000E-02 0.  1.
       1023    2    1    2    0    0  0.00000000000E+00  0.00000000000E+00 -0.49565182498E+02  0.53448471242E+02  0.20000794037E+02 0.  0.
        -11    1    3    3    0    0 -0.96047775653E+01  0.27839399994E+01 -0.24987268165E+02  0.26914041774E+02  0.51100000000E-03 0. -1.
         11    1    3    3    0    0  0.96047775653E+01 -0.27839399994E+01 -0.24577914333E+02  0.26534429468E+02  0.51100000000E-03 0.  1.
<mgrwt>
<rscale>  0 0.20000794E+02</rscale>
<asrwt>0</asrwt>
<pdfrwt beam="1">  1        2 0.29871456E-03 0.20000794E+02</pdfrwt>
<pdfrwt beam="2">  1       -2 0.79241262E-02 0.20000794E+02</pdfrwt>
<totfact> 0.33749652E+06</totfact>
</mgrwt>
</event>
<event>
 5    1  0.4046313E-006  0.2000729E+02  0.7818608E-02  0.1745183E+00
         -2   -1    0    0    0  501 -0.00000000000E+00  0.00000000000E+00  0.17263527229E+02  0.17263527425E+02  0.26000000000E-02 0.  1.
          2   -1    0    0  501    0  0.00000000000E+00 -0.00000000000E+00 -0.57967846421E+01  0.57967852252E+01  0.26000000000E-02 0. -1.
       1023    2    1    2    0    0  0.00000000000E+00  0.00000000000E+00  0.11466742587E+02  0.23060312650E+02  0.20007294519E+02 0.  0.
        -11    1    3    3    0    0  0.76296237835E+01 -0.64646495668E+01  0.60385482454E+01  0.11681905593E+02  0.51100000000E-03 0.  1.
         11    1    3    3    0    0 -0.76296237835E+01  0.64646495668E+01  0.54281943419E+01  0.11378407058E+02  0.51100000000E-03 0. -1.
<mgrwt>
<rscale>  0 0.20007295E+02</rscale>
<asrwt>0</asrwt>
<pdfrwt beam="2">  1        2 0.89181310E-03 0.20007295E+02</pdfrwt>
<pdfrwt beam="1">  1       -2 0.26559273E-02 0.20007295E+02</pdfrwt>
<totfact> 0.37853286E+06</totfact>
</mgrwt>
</event>
<event>
 5    1  0.4046313E-006  0.2000091E+02  0.7818608E-02  0.1745310E+00
         -2   -1    0    0    0  501 -0.00000000000E+00  0.00000000000E+00  0.19341324461E+01  0.19341341936E+01  0.26000000000E-02 0.  1.
          2   -1    0    0  501    0  0.00000000000E+00 -0.00000000000E+00 -0.51707442076E+02  0.51707442141E+02  0.26000000000E-02 0. -1.
       1023    2    1    2    0    0  0.00000000000E+00  0.00000000000E+00 -0.49773309630E+02  0.53641576335E+02  0.20000908984E+02 0.  0.
        -11    1    3    3    0    0  0.92862128629E+01  0.37111799633E+01 -0.25020315608E+02  0.26944810251E+02  0.51100000000E-03 0. -1.
         11    1    3    3    0    0 -0.92862128629E+01 -0.37111799633E+01 -0.24752994022E+02  0.26696766084E+02  0.51100000000E-03 0.  1.
<mgrwt>
<rscale>  0 0.20000909E+02</rscale>
<asrwt>0</asrwt>
<pdfrwt beam="2">  1        2 0.79549902E-02 0.20000909E+02</pdfrwt>
<pdfrwt beam="1">  1       -2 0.29755902E-03 0.20000909E+02</pdfrwt>
<totfact> 0.46561115E+06</totfact>
</mgrwt>
</event>
<event>
 5    1  0.4046313E-006  0.2000011E+02  0.7818608E-02  0.1745326E+00
          2   -1    0    0  501    0  0.00000000000E+00  0.00000000000E+00  0.74254664724E+02  0.74254664770E+02  0.26000000000E-02 0. -1.
         -2   -1    0    0    0  501 -0.00000000000E+00 -0.00000000000E+00 -0.13467305299E+01  0.13467330397E+01  0.26000000000E-02 0.  1.
       1023    2    1    2    0    0  0.00000000000E+00  0.00000000000E+00  0.72907934194E+02  0.75601397810E+02  0.20000112056E+02 0.  0.
        -11    1    3    3    0    0  0.85976863107E+01  0.51068931648E+01  0.36365106738E+02  0.37715004389E+02  0.51100000000E-03 0. -1.
         11    1    3    3    0    0 -0.85976863107E+01 -0.51068931648E+01  0.36542827456E+02  0.37886393421E+02  0.51100000000E-03 0.  1.
<mgrwt>
<rscale>  0 0.20000112E+02</rscale>
<asrwt>0</asrwt>
<pdfrwt beam="1">  1        2 0.11423797E-01 0.20000112E+02</pdfrwt>
<pdfrwt beam="2">  1       -2 0.20718946E-03 0.20000112E+02</pdfrwt>
<totfact> 0.49568503E+06</totfact>
</mgrwt>
</event>
<event>
 5    1  0.4046313E-006  0.2000254E+02  0.7818608E-02  0.1745278E+00
         -2   -1    0    0    0  501 -0.00000000000E+00  0.00000000000E+00  0.18006302633E+02  0.18006302821E+02  0.26000000000E-02 0. -1.
          2   -1    0    0  501    0  0.00000000000E+00 -0.00000000000E+00 -0.55550218505E+01  0.55550224590E+01  0.26000000000E-02 0.  1.
       1023    2    1    2    0    0  0.00000000000E+00  0.00000000000E+00  0.12451280782E+02  0.23561325280E+02  0.20002541234E+02 0.  0.
        -11    1    3    3    0    0 -0.94112110603E+01  0.33809263056E+01  0.60437013261E+01  0.11684514636E+02  0.51100000000E-03 0. -1.
         11    1    3    3    0    0  0.94112110603E+01 -0.33809263056E+01  0.64075794563E+01  0.11876810643E+02  0.51100000000E-03 0.  1.
<mgrwt>
<rscale>  0 0.20002541E+02</rscale>
<asrwt>0</asrwt>
<pdfrwt beam="2">  1        2 0.85461882E-03 0.20002541E+02</pdfrwt>
<pdfrwt beam="1">  1       -2 0.27702004E-02 0.20002541E+02</pdfrwt>
<totfact> 0.37746054E+06</totfact>
</mgrwt>
</event>
<event>
 5    1  0.4046313E-006  0.2000109E+02  0.7818608E-02  0.1745306E+00
          2   -1    0    0  501    0  0.00000000000E+00  0.00000000000E+00  0.16865681901E+02  0.16865682101E+02  0.26000000000E-02 0.  1.
         -2   -1    0    0    0  501 -0.00000000000E+00 -0.00000000000E+00 -0.59298466863E+01  0.59298472563E+01  0.26000000000E-02 0. -1.
       1023    2    1    2    0    0  0.00000000000E+00  0.00000000000E+00  0.10935835214E+02  0.22795529357E+02  0.20001091641E+02 0.  0.
        -11    1    3    3    0    0 -0.58519607771E+01 -0.81095587759E+01  0.54941055933E+01  0.11410327997E+02  0.51100000000E-03 0. -1.
         11    1    3    3    0    0  0.58519607771E+01  0.81095587759E+01  0.54417296212E+01  0.11385201360E+02  0.51100000000E-03 0.  1.
<mgrwt>
<rscale>  0 0.20001092E+02</rscale>
<asrwt>0</asrwt>
<pdfrwt beam="1">  1        2 0.25947204E-02 0.20001092E+02</pdfrwt>
<pdfrwt beam="2">  1       -2 0.91228416E-03 0.20001092E+02</pdfrwt>
<totfact> 0.41071216E+06</totfact>
</mgrwt>
</event>
<event>
 5    1  0.4051295E-006  0.2000127E+02  0.7818608E-02  0.1745303E+00
         -2   -1    0    0    0  501 -0.00000000000E+00  0.00000000000E+00  0.43552653466E+01  0.43552661226E+01  0.26000000000E-02 0.  1.
          2   -1    0    0  501    0  0.00000000000E+00 -0.00000000000E+00 -0.22963637832E+02  0.22963637979E+02  0.26000000000E-02 0. -1.
       1023    2    1    2    0    0  0.00000000000E+00  0.00000000000E+00 -0.18608372485E+02  0.27318904102E+02  0.20001274828E+02 0.  0.
        -11    1    3    3    0    0 -0.82387637272E+01 -0.56688142502E+01 -0.93152550781E+01  0.13666991629E+02  0.51100000000E-03 0. -1.
         11    1    3    3    0    0  0.82387637272E+01  0.56688142502E+01 -0.92931174071E+01  0.13651912473E+02  0.51100000000E-03 0.  1.
<mgrwt>
<rscale>  0 0.20001275E+02</rscale>
<asrwt>0</asrwt>
<pdfrwt beam="2">  1        2 0.35328674E-02 0.20001275E+02</pdfrwt>
<pdfrwt beam="1">  1       -2 0.67004091E-03 0.20001275E+02</pdfrwt>
<totfact> 0.42201933E+06</totfact>
</mgrwt>
</event>
<event>
 5    1  0.4046313E-006  0.2000634E+02  0.7818608E-02  0.1745202E+00
          2   -1    0    0  501    0  0.00000000000E+00  0.00000000000E+00  0.23061289279E+02  0.23061289426E+02  0.26000000000E-02 0.  1.
         -2   -1    0    0    0  501 -0.00000000000E+00 -0.00000000000E+00 -0.43390181187E+01  0.43390188977E+01  0.26000000000E-02 0. -1.
       1023    2    1    2    0    0  0.00000000000E+00  0.00000000000E+00  0.18722271161E+02  0.27400308324E+02  0.20006335467E+02 0.  0.
        -11    1    3    3    0    0  0.95921969726E+01 -0.28296687893E+01  0.90670859903E+01  0.13499233935E+02  0.51100000000E-03 0. -1.
         11    1    3    3    0    0 -0.95921969726E+01  0.28296687893E+01  0.96551851704E+01  0.13901074388E+02  0.51100000000E-03 0.  1.
<mgrwt>
<rscale>  0 0.20006335E+02</rscale>
<asrwt>0</asrwt>
<pdfrwt beam="1">  1        2 0.35478907E-02 0.20006335E+02</pdfrwt>
<pdfrwt beam="2">  1       -2 0.66754132E-03 0.20006335E+02</pdfrwt>
<totfact> 0.42194889E+06</totfact>
</mgrwt>
</event>
<event>
 5    1  0.4046313E-006  0.2000089E+02  0.7818608E-02  0.1745310E+00
         -2   -1    0    0    0  501 -0.00000000000E+00  0.00000000000E+00  0.62039848127E+02  0.62039848182E+02  0.26000000000E-02 0.  1.
          2   -1    0    0  501    0  0.00000000000E+00 -0.00000000000E+00 -0.16120088959E+01  0.16120109926E+01  0.26000000000E-02 0. -1.
       1023    2    1    2    0    0  0.00000000000E+00  0.00000000000E+00  0.60427839232E+02  0.63651859175E+02  0.20000885535E+02 0.  0.
        -11    1    3    3    0    0  0.99925579500E+01  0.39702943980E+00  0.30223209943E+02  0.31834749351E+02  0.51100000000E-03 0.  1.
         11    1    3    3    0    0 -0.99925579500E+01 -0.39702943980E+00  0.30204629289E+02  0.31817109823E+02  0.51100000000E-03 0. -1.
<mgrwt>
<rscale>  0 0.20000886E+02</rscale>
<asrwt>0</asrwt>
<pdfrwt beam="2">  1        2 0.24800151E-03 0.20000886E+02</pdfrwt>
<pdfrwt beam="1">  1       -2 0.95445933E-02 0.20000886E+02</pdfrwt>
<totfact> 0.32773262E+06</totfact>
</mgrwt>
</event>
<event>
 5    1  0.4046313E-006  0.2000064E+02  0.7818608E-02  0.1745315E+00
         -2   -1    0    0    0  501 -0.00000000000E+00  0.00000000000E+00  0.19821768479E+02  0.19821768650E+02  0.26000000000E-02 0.  1.
          2   -1    0    0  501    0  0.00000000000E+00 -0.00000000000E+00 -0.50452820633E+01  0.50452827332E+01  0.26000000000E-02 0. -1.
       1023    2    1    2    0    0  0.00000000000E+00  0.00000000000E+00  0.14776486416E+02  0.24867051383E+02  0.20000642332E+02 0.  0.
        -11    1    3    3    0    0 -0.40690925032E+01  0.91348872301E+01  0.74533796364E+01  0.12472231026E+02  0.51100000000E-03 0. -1.
         11    1    3    3    0    0  0.40690925032E+01 -0.91348872301E+01  0.73231067795E+01  0.12394820357E+02  0.51100000000E-03 0.  1.
<mgrwt>
<rscale>  0 0.20000642E+02</rscale>
<asrwt>0</asrwt>
<pdfrwt beam="2">  1        2 0.77619730E-03 0.20000642E+02</pdfrwt>
<pdfrwt beam="1">  1       -2 0.30495029E-02 0.20000642E+02</pdfrwt>
<totfact> 0.37459202E+06</totfact>
</mgrwt>
</event>
<event>
 5    1  0.4046313E-006  0.2000016E+02  0.7818608E-02  0.1745325E+00
          2   -1    0    0  501    0  0.00000000000E+00  0.00000000000E+00  0.11781540155E+02  0.11781540442E+02  0.26000000000E-02 0.  1.
         -2   -1    0    0    0  501 -0.00000000000E+00 -0.00000000000E+00 -0.84879904547E+01  0.84879908529E+01  0.26000000000E-02 0. -1.
       1023    2    1    2    0    0  0.00000000000E+00  0.00000000000E+00  0.32935497007E+01  0.20269531295E+02  0.20000160732E+02 0.  0.
        -11    1    3    3    0    0 -0.44455562354E+01 -0.89575563345E+01  0.16177298971E+01  0.10130046200E+02  0.51100000000E-03 0. -1.
         11    1    3    3    0    0  0.44455562354E+01  0.89575563345E+01  0.16758198037E+01  0.10139485096E+02  0.51100000000E-03 0.  1.
<mgrwt>
<rscale>  0 0.20000161E+02</rscale>
<asrwt>0</asrwt>
<pdfrwt beam="1">  1        2 0.18125447E-02 0.20000161E+02</pdfrwt>
<pdfrwt beam="2">  1       -2 0.13058448E-02 0.20000161E+02</pdfrwt>
<totfact> 0.39943108E+06</totfact>
</mgrwt>
</event>
<event>
 5    1  0.4046313E-006  0.2000072E+02  0.7818608E-02  0.1745314E+00
          2   -1    0    0  501    0  0.00000000000E+00  0.00000000000E+00  0.28477915737E+02  0.28477915855E+02  0.26000000000E-02 0.  1.
         -2   -1    0    0    0  501 -0.00000000000E+00 -0.00000000000E+00 -0.35117455970E+01  0.35117465594E+01  0.26000000000E-02 0. -1.
       1023    2    1    2    0    0  0.00000000000E+00  0.00000000000E+00  0.24966170140E+02  0.31989662415E+02  0.20000721236E+02 0.  0.
        -11    1    3    3    0    0  0.44039118818E+01  0.89784416910E+01  0.12452857631E+02  0.15971240355E+02  0.51100000000E-03 0.  1.
         11    1    3    3    0    0 -0.44039118818E+01 -0.89784416910E+01  0.12513312509E+02  0.16018422059E+02  0.51100000000E-03 0. -1.
<mgrwt>
<rscale>  0 0.20000721E+02</rscale>
<asrwt>0</asrwt>
<pdfrwt beam="1">  1        2 0.43812177E-02 0.20000721E+02</pdfrwt>
<pdfrwt beam="2">  1       -2 0.54026866E-03 0.20000721E+02</pdfrwt>
<totfact> 0.43126304E+06</totfact>
</mgrwt>
</event>
<event>
 5    1  0.4046313E-006  0.2000314E+02  0.7818608E-02  0.1745266E+00
         -2   -1    0    0    0  501 -0.00000000000E+00  0.00000000000E+00  0.11782309804E+02  0.11782310091E+02  0.26000000000E-02 0. -1.
          2   -1    0    0  501    0  0.00000000000E+00 -0.00000000000E+00 -0.84899674523E+01  0.84899678504E+01  0.26000000000E-02 0.  1.
       1023    2    1    2    0    0  0.00000000000E+00  0.00000000000E+00  0.32923423515E+01  0.20272277941E+02  0.20003143122E+02 0.  0.
        -11    1    3    3    0    0 -0.30362333822E+01 -0.95289951530E+01  0.15400162075E+01  0.10118898752E+02  0.51100000000E-03 0. -1.
         11    1    3    3    0    0  0.30362333822E+01  0.95289951530E+01  0.17523261441E+01  0.10153379189E+02  0.51100000000E-03 0.  1.
<mgrwt>
<rscale>  0 0.20003143E+02</rscale>
<asrwt>0</asrwt>
<pdfrwt beam="2">  1        2 0.13061489E-02 0.20003143E+02</pdfrwt>
<pdfrwt beam="1">  1       -2 0.18126631E-02 0.20003143E+02</pdfrwt>
<totfact> 0.38979060E+06</totfact>
</mgrwt>
</event>
<event>
 5    1  0.4209063E-006  0.2000364E+02  0.7818608E-02  0.1745256E+00
         -2   -1    0    0    0  501 -0.00000000000E+00  0.00000000000E+00  0.12531362212E+01  0.12531389185E+01  0.26000000000E-02 0. -1.
          2   -1    0    0  501    0  0.00000000000E+00 -0.00000000000E+00 -0.79828751467E+02  0.79828751510E+02  0.26000000000E-02 0.  1.
       1023    2    1    2    0    0  0.00000000000E+00  0.00000000000E+00 -0.78575615246E+02  0.81081890428E+02  0.20003640771E+02 0.  0.
        -11    1    3    3    0    0 -0.72947768979E+01 -0.68411880020E+01 -0.39872215279E+02  0.41107288585E+02  0.51100000000E-03 0. -1.
         11    1    3    3    0    0  0.72947768979E+01  0.68411880020E+01 -0.38703399967E+02  0.39974601843E+02  0.51100000000E-03 0.  1.
<mgrwt>
<rscale>  0 0.20003641E+02</rscale>
<asrwt>0</asrwt>
<pdfrwt beam="2">  1        2 0.12281343E-01 0.20003641E+02</pdfrwt>
<pdfrwt beam="1">  1       -2 0.19279046E-03 0.20003641E+02</pdfrwt>
<totfact> 0.50257741E+06</totfact>
</mgrwt>
</event>
<event>
 5    1  0.4046313E-006  0.2000520E+02  0.7818608E-02  0.1745225E+00
         -2   -1    0    0    0  501 -0.00000000000E+00  0.00000000000E+00  0.20157075914E+02  0.20157076081E+02  0.26000000000E-02 0.  1.
          2   -1    0    0  501    0  0.00000000000E+00 -0.00000000000E+00 -0.49636143270E+01  0.49636150080E+01  0.26000000000E-02 0. -1.
       1023    2    1    2    0    0  0.00000000000E+00  0.00000000000E+00  0.15193461587E+02  0.25120691089E+02  0.20005195471E+02 0.  0.
        -11    1    3    3    0    0  0.50863044669E+01 -0.86116896101E+01  0.74179515962E+01  0.12452216558E+02  0.51100000000E-03 0. -1.
         11    1    3    3    0    0 -0.50863044669E+01  0.86116896101E+01  0.77755099904E+01  0.12668474531E+02  0.51100000000E-03 0.  1.
<mgrwt>
<rscale>  0 0.20005195E+02</rscale>
<asrwt>0</asrwt>
<pdfrwt beam="2">  1        2 0.76363305E-03 0.20005195E+02</pdfrwt>
<pdfrwt beam="1">  1       -2 0.31010886E-02 0.20005195E+02</pdfrwt>
<totfact> 0.37388371E+06</totfact>
</mgrwt>
</event>
<event>
 5    1  0.4046313E-006  0.2000048E+02  0.7818608E-02  0.1745319E+00
         -2   -1    0    0    0  501 -0.00000000000E+00  0.00000000000E+00  0.39505828727E+01  0.39505837282E+01  0.26000000000E-02 0. -1.
          2   -1    0    0  501    0  0.00000000000E+00 -0.00000000000E+00 -0.25313936116E+02  0.25313936249E+02  0.26000000000E-02 0.  1.
       1023    2    1    2    0    0  0.00000000000E+00  0.00000000000E+00 -0.21363353243E+02  0.29264519978E+02  0.20000481687E+02 0.  0.
        -11    1    3    3    0    0  0.77293091172E+01 -0.63451777539E+01 -0.10628586524E+02  0.14593503758E+02  0.51100000000E-03 0. -1.
         11    1    3    3    0    0 -0.77293091172E+01  0.63451777539E+01 -0.10734766719E+02  0.14671016220E+02  0.51100000000E-03 0.  1.
<mgrwt>
<rscale>  0 0.20000482E+02</rscale>
<asrwt>0</asrwt>
<pdfrwt beam="2">  1        2 0.38944517E-02 0.20000482E+02</pdfrwt>
<pdfrwt beam="1">  1       -2 0.60778207E-03 0.20000482E+02</pdfrwt>
<totfact> 0.42607166E+06</totfact>
</mgrwt>
</event>
<event>
 5    1  0.4062995E-006  0.2000071E+02  0.7818608E-02  0.1745314E+00
          2   -1    0    0  501    0  0.00000000000E+00  0.00000000000E+00  0.54742146163E+02  0.54742146224E+02  0.26000000000E-02 0.  1.
         -2   -1    0    0    0  501 -0.00000000000E+00 -0.00000000000E+00 -0.18268745626E+01  0.18268764128E+01  0.26000000000E-02 0. -1.
       1023    2    1    2    0    0  0.00000000000E+00  0.00000000000E+00  0.52915271600E+02  0.56569022637E+02  0.20000708828E+02 0.  0.
        -11    1    3    3    0    0  0.89048934714E+01 -0.45507331254E+01  0.26537052975E+02  0.28358798998E+02  0.51100000000E-03 0.  1.
         11    1    3    3    0    0 -0.89048934714E+01  0.45507331254E+01  0.26378218625E+02  0.28210223640E+02  0.51100000000E-03 0. -1.
<mgrwt>
<rscale>  0 0.20000709E+02</rscale>
<asrwt>0</asrwt>
<pdfrwt beam="1">  1        2 0.84218681E-02 0.20000709E+02</pdfrwt>
<pdfrwt beam="2">  1       -2 0.28105779E-03 0.20000709E+02</pdfrwt>
<totfact> 0.46980459E+06</totfact>
</mgrwt>
</event>
<event>
 5    1  0.4046313E-006  0.2000004E+02  0.7818608E-02  0.1745327E+00
          2   -1    0    0  501    0  0.00000000000E+00  0.00000000000E+00  0.54947633002E+02  0.54947633063E+02  0.26000000000E-02 0. -1.
         -2   -1    0    0    0  501 -0.00000000000E+00 -0.00000000000E+00 -0.18199210444E+01  0.18199229016E+01  0.26000000000E-02 0.  1.
       1023    2    1    2    0    0  0.00000000000E+00  0.00000000000E+00  0.53127711958E+02  0.56767555965E+02  0.20000040810E+02 0.  0.
        -11    1    3    3    0    0 -0.52108162957E+01  0.85350788695E+01  0.26606907843E+02  0.28424069430E+02  0.51100000000E-03 0. -1.
         11    1    3    3    0    0  0.52108162957E+01 -0.85350788695E+01  0.26520804115E+02  0.28343486535E+02  0.51100000000E-03 0.  1.
<mgrwt>
<rscale>  0 0.20000041E+02</rscale>
<asrwt>0</asrwt>
<pdfrwt beam="1">  1        2 0.84534822E-02 0.20000041E+02</pdfrwt>
<pdfrwt beam="2">  1       -2 0.27998800E-03 0.20000041E+02</pdfrwt>
<totfact> 0.47012093E+06</totfact>
</mgrwt>
</event>
<event>
 4    1  0.4778973E-006  0.2030589E+02  0.7818608E-02  0.1739313E+00
         -2   -1    0    0    0  501 -0.00000000000E+00  0.00000000000E+00  0.97284922336E+00  0.97285269769E+00  0.26000000000E-02 0.  1.
          2   -1    0    0  501    0  0.00000000000E+00 -0.00000000000E+00 -0.10595893109E+03  0.10595893112E+03  0.26000000000E-02 0. -1.
        -11    1    1    2    0    0 -0.65134239420E+01  0.77345056530E+01 -0.57305016261E+02  0.58190309830E+02  0.51100000000E-03 0. -1.
         11    1    1    2    0    0  0.65134239420E+01 -0.77345056530E+01 -0.47681065601E+02  0.48741473985E+02  0.51100000000E-03 0.  1.
<mgrwt>
<rscale>  0 0.20305886E+02</rscale>
<asrwt>0</asrwt>
<pdfrwt beam="2">  1        2 0.16301365E-01 0.20305886E+02</pdfrwt>
<pdfrwt beam="1">  1       -2 0.14966946E-03 0.20305886E+02</pdfrwt>
<totfact> 0.51703995E+06</totfact>
</mgrwt>
</event>
<event>
 5    1  0.4046313E-006  0.2000531E+02  0.7818608E-02  0.1745222E+00
          2   -1    0    0  501    0  0.00000000000E+00  0.00000000000E+00  0.46318059262E+02  0.46318059334E+02  0.26000000000E-02 0.  1.
         -2   -1    0    0    0  501 -0.00000000000E+00 -0.00000000000E+00 -0.21601314362E+01  0.21601330009E+01  0.26000000000E-02 0. -1.
       1023    2    1    2    0    0  0.00000000000E+00  0.00000000000E+00  0.44157927825E+02  0.48478192335E+02  0.20005312851E+02 0.  0.
        -11    1    3    3    0    0 -0.95980844589E+01  0.28088111165E+01  0.21591350410E+02  0.23794937654E+02  0.51100000000E-03 0.  1.
         11    1    3    3    0    0  0.95980844589E+01 -0.28088111165E+01  0.22566577415E+02  0.24683254681E+02  0.51100000000E-03 0. -1.
<mgrwt>
<rscale>  0 0.20005313E+02</rscale>
<asrwt>0</asrwt>
<pdfrwt beam="1">  1        2 0.71258547E-02 0.20005313E+02</pdfrwt>
<pdfrwt beam="2">  1       -2 0.33232807E-03 0.20005313E+02</pdfrwt>
<totfact> 0.45782153E+06</totfact>
</mgrwt>
</event>
<event>
 5    1  0.4046313E-006  0.2000273E+02  0.7818608E-02  0.1745274E+00
          2   -1    0    0  501    0  0.00000000000E+00  0.00000000000E+00  0.10278557459E+02  0.10278557788E+02  0.26000000000E-02 0.  1.
         -2   -1    0    0    0  501 -0.00000000000E+00 -0.00000000000E+00 -0.97316506642E+01  0.97316510115E+01  0.26000000000E-02 0. -1.
       1023    2    1    2    0    0  0.00000000000E+00  0.00000000000E+00  0.54690679446E+00  0.20010208799E+02  0.20002733542E+02 0.  0.
        -11    1    3    3    0    0  0.26554943853E+01 -0.96421973234E+01  0.33444643153E+00  0.10006771424E+02  0.51100000000E-03 0.  1.
         11    1    3    3    0    0 -0.26554943853E+01  0.96421973234E+01  0.21246036294E+00  0.10003437375E+02  0.51100000000E-03 0. -1.
<mgrwt>
<rscale>  0 0.20002734E+02</rscale>
<asrwt>0</asrwt>
<pdfrwt beam="1">  1        2 0.15813166E-02 0.20002734E+02</pdfrwt>
<pdfrwt beam="2">  1       -2 0.14971771E-02 0.20002734E+02</pdfrwt>
<totfact> 0.39530438E+06</totfact>
</mgrwt>
</event>
<event>
 5    1  0.4046313E-006  0.2000049E+02  0.7818608E-02  0.1745318E+00
         -2   -1    0    0    0  501 -0.00000000000E+00  0.00000000000E+00  0.90832445503E+02  0.90832445541E+02  0.26000000000E-02 0.  1.
          2   -1    0    0  501    0  0.00000000000E+00 -0.00000000000E+00 -0.11009810652E+01  0.11009841352E+01  0.26000000000E-02 0. -1.
       1023    2    1    2    0    0  0.00000000000E+00  0.00000000000E+00  0.89731464438E+02  0.91933429676E+02  0.20000494537E+02 0.  0.
        -11    1    3    3    0    0 -0.27498174645E+01  0.96146363252E+01  0.45082181611E+02  0.46177979891E+02  0.51100000000E-03 0.  1.
         11    1    3    3    0    0  0.27498174645E+01 -0.96146363252E+01  0.44649282827E+02  0.45755449785E+02  0.51100000000E-03 0. -1.
<mgrwt>
<rscale>  0 0.20000495E+02</rscale>
<asrwt>0</asrwt>
<pdfrwt beam="2">  1        2 0.16938193E-03 0.20000495E+02</pdfrwt>
<pdfrwt beam="1">  1       -2 0.13974223E-01 0.20000495E+02</pdfrwt>
<totfact> 0.30410261E+06</totfact>
</mgrwt>
</event>
<event>
 5    1  0.4046313E-006  0.2000365E+02  0.7818608E-02  0.1745256E+00
         -2   -1    0    0    0  501 -0.00000000000E+00  0.00000000000E+00  0.57788001650E+01  0.57788007499E+01  0.26000000000E-02 0. -1.
          2   -1    0    0  501    0  0.00000000000E+00 -0.00000000000E+00 -0.17310944915E+02  0.17310945110E+02  0.26000000000E-02 0.  1.
       1023    2    1    2    0    0  0.00000000000E+00  0.00000000000E+00 -0.11532144750E+02  0.23089745860E+02  0.20003649701E+02 0.  0.
        -11    1    3    3    0    0 -0.99595477260E+01 -0.91855268432E+00 -0.57510164121E+01  0.11537353248E+02  0.51100000000E-03 0.  1.
         11    1    3    3    0    0  0.99595477260E+01  0.91855268432E+00 -0.57811283377E+01  0.11552392612E+02  0.51100000000E-03 0. -1.
<mgrwt>
<rscale>  0 0.20003650E+02</rscale>
<asrwt>0</asrwt>
<pdfrwt beam="2">  1        2 0.26632223E-02 0.20003650E+02</pdfrwt>
<pdfrwt beam="1">  1       -2 0.88904624E-03 0.20003650E+02</pdfrwt>
<totfact> 0.41148067E+06</totfact>
</mgrwt>
</event>
<event>
 5    1  0.4046313E-006  0.2000840E+02  0.7818608E-02  0.1745161E+00
         -2   -1    0    0    0  501 -0.00000000000E+00  0.00000000000E+00  0.20945062244E+02  0.20945062405E+02  0.26000000000E-02 0.  1.
          2   -1    0    0  501    0  0.00000000000E+00 -0.00000000000E+00 -0.47784041398E+01  0.47784048472E+01  0.26000000000E-02 0. -1.
       1023    2    1    2    0    0  0.00000000000E+00  0.00000000000E+00  0.16166658104E+02  0.25723467252E+02  0.20008396568E+02 0.  0.
        -11    1    3    3    0    0  0.99961064118E+01 -0.38891136191E+00  0.79510423980E+01  0.12778594247E+02  0.51100000000E-03 0. -1.
         11    1    3    3    0    0 -0.99961064118E+01  0.38891136191E+00  0.82156157057E+01  0.12944873006E+02  0.51100000000E-03 0.  1.
<mgrwt>
<rscale>  0 0.20008397E+02</rscale>
<asrwt>0</asrwt>
<pdfrwt beam="2">  1        2 0.73513917E-03 0.20008397E+02</pdfrwt>
<pdfrwt beam="1">  1       -2 0.32223173E-02 0.20008397E+02</pdfrwt>
<totfact> 0.37254702E+06</totfact>
</mgrwt>
</event>
<event>
 5    1  0.4046313E-006  0.2000007E+02  0.7818608E-02  0.1745327E+00
         -2   -1    0    0    0  501 -0.00000000000E+00  0.00000000000E+00  0.65165849818E+02  0.65165849870E+02  0.26000000000E-02 0.  1.
          2   -1    0    0  501    0  0.00000000000E+00 -0.00000000000E+00 -0.15345557395E+01  0.15345579421E+01  0.26000000000E-02 0. -1.
       1023    2    1    2    0    0  0.00000000000E+00  0.00000000000E+00  0.63631294079E+02  0.66700407812E+02  0.20000070404E+02 0.  0.
        -11    1    3    3    0    0  0.95547157795E+01 -0.29509286905E+01  0.31853674610E+02  0.33386481699E+02  0.51100000000E-03 0.  1.
         11    1    3    3    0    0 -0.95547157795E+01  0.29509286905E+01  0.31777619468E+02  0.33313926114E+02  0.51100000000E-03 0. -1.
<mgrwt>
<rscale>  0 0.20000070E+02</rscale>
<asrwt>0</asrwt>
<pdfrwt beam="2">  1        2 0.23608572E-03 0.20000070E+02</pdfrwt>
<pdfrwt beam="1">  1       -2 0.10025513E-01 0.20000070E+02</pdfrwt>
<totfact> 0.32499733E+06</totfact>
</mgrwt>
</event>
<event>
 5    1  0.4046313E-006  0.2000451E+02  0.7818608E-02  0.1745238E+00
          2   -1    0    0  501    0  0.00000000000E+00  0.00000000000E+00  0.63431302243E+02  0.63431302296E+02  0.26000000000E-02 0.  1.
         -2   -1    0    0    0  501 -0.00000000000E+00 -0.00000000000E+00 -0.15772191139E+01  0.15772212570E+01  0.26000000000E-02 0. -1.
       1023    2    1    2    0    0  0.00000000000E+00  0.00000000000E+00  0.61854083129E+02  0.65008523553E+02  0.20004512862E+02 0.  0.
        -11    1    3    3    0    0  0.54686899789E+01  0.83735831051E+01  0.31405412969E+02  0.32959420931E+02  0.51100000000E-03 0.  1.
         11    1    3    3    0    0 -0.54686899789E+01 -0.83735831051E+01  0.30448670161E+02  0.32049102623E+02  0.51100000000E-03 0. -1.
<mgrwt>
<rscale>  0 0.20004513E+02</rscale>
<asrwt>0</asrwt>
<pdfrwt beam="1">  1        2 0.97586619E-02 0.20004513E+02</pdfrwt>
<pdfrwt beam="2">  1       -2 0.24264927E-03 0.20004513E+02</pdfrwt>
<totfact> 0.48132331E+06</totfact>
</mgrwt>
</event>
<event>
 5    1  0.4046313E-006  0.2000007E+02  0.7818608E-02  0.1745327E+00
         -2   -1    0    0    0  501 -0.00000000000E+00  0.00000000000E+00  0.40470564609E+02  0.40470564693E+02  0.26000000000E-02 0. -1.
          2   -1    0    0  501    0  0.00000000000E+00 -0.00000000000E+00 -0.24709472770E+01  0.24709486449E+01  0.26000000000E-02 0.  1.
       1023    2    1    2    0    0  0.00000000000E+00  0.00000000000E+00  0.37999617332E+02  0.42941513337E+02  0.20000066258E+02 0.  0.
        -11    1    3    3    0    0 -0.83685727565E+01 -0.54742377772E+01  0.18958336468E+02  0.21434057272E+02  0.51100000000E-03 0.  1.
         11    1    3    3    0    0  0.83685727565E+01  0.54742377772E+01  0.19041280864E+02  0.21507456066E+02  0.51100000000E-03 0. -1.
<mgrwt>
<rscale>  0 0.20000066E+02</rscale>
<asrwt>0</asrwt>
<pdfrwt beam="2">  1        2 0.38014585E-03 0.20000066E+02</pdfrwt>
<pdfrwt beam="1">  1       -2 0.62262407E-02 0.20000066E+02</pdfrwt>
<totfact> 0.34869850E+06</totfact>
</mgrwt>
</event>
<event>
 5    1  0.4046313E-006  0.2000047E+02  0.7818608E-02  0.1745319E+00
          2   -1    0    0  501    0  0.00000000000E+00  0.00000000000E+00  0.33634999514E+02  0.33634999615E+02  0.26000000000E-02 0.  1.
         -2   -1    0    0    0  501 -0.00000000000E+00 -0.00000000000E+00 -0.29732318920E+01  0.29732330288E+01  0.26000000000E-02 0. -1.
       1023    2    1    2    0    0  0.00000000000E+00  0.00000000000E+00  0.30661767622E+02  0.36608232643E+02  0.20000467584E+02 0.  0.
        -11    1    3    3    0    0  0.99990100506E+01  0.14710512219E+00  0.15428319305E+02  0.18385724863E+02  0.51100000000E-03 0.  1.
         11    1    3    3    0    0 -0.99990100506E+01 -0.14710512219E+00  0.15233448317E+02  0.18222507780E+02  0.51100000000E-03 0. -1.
<mgrwt>
<rscale>  0 0.20000468E+02</rscale>
<asrwt>0</asrwt>
<pdfrwt beam="1">  1        2 0.51746155E-02 0.20000468E+02</pdfrwt>
<pdfrwt beam="2">  1       -2 0.45742038E-03 0.20000468E+02</pdfrwt>
<totfact> 0.43938161E+06</totfact>
</mgrwt>
</event>
<event>
 5    1  0.4212903E-006  0.2000074E+02  0.7818608E-02  0.1745313E+00
         -2   -1    0    0    0  501 -0.00000000000E+00  0.00000000000E+00  0.10250359681E+01  0.10250392655E+01  0.26000000000E-02 0. -1.
          2   -1    0    0  501    0  0.00000000000E+00 -0.00000000000E+00 -0.97564600299E+02  0.97564600334E+02  0.26000000000E-02 0.  1.
       1023    2    1    2    0    0  0.00000000000E+00  0.00000000000E+00 -0.96539564331E+02  0.98589639599E+02  0.20000738864E+02 0.  0.
        -11    1    3    3    0    0 -0.92972059200E+01 -0.36836398138E+01 -0.48209750464E+02  0.49236036399E+02  0.51100000000E-03 0.  1.
         11    1    3    3    0    0  0.92972059200E+01  0.36836398138E+01 -0.48329813867E+02  0.49353603200E+02  0.51100000000E-03 0. -1.
<mgrwt>
<rscale>  0 0.20000739E+02</rscale>
<asrwt>0</asrwt>
<pdfrwt beam="2">  1        2 0.15009931E-01 0.20000739E+02</pdfrwt>
<pdfrwt beam="1">  1       -2 0.15769817E-03 0.20000739E+02</pdfrwt>
<totfact> 0.52461116E+06</totfact>
</mgrwt>
</event>
<event>
 5    1  0.4046313E-006  0.2000004E+02  0.7818608E-02  0.1745327E+00
         -2   -1    0    0    0  501 -0.00000000000E+00  0.00000000000E+00  0.40834104231E+02  0.40834104314E+02  0.26000000000E-02 0. -1.
          2   -1    0    0  501    0  0.00000000000E+00 -0.00000000000E+00 -0.24489426418E+01  0.24489440220E+01  0.26000000000E-02 0.  1.
       1023    2    1    2    0    0  0.00000000000E+00  0.00000000000E+00  0.38385161589E+02  0.43283048336E+02  0.20000041075E+02 0.  0.
        -11    1    3    3    0    0 -0.67339278675E+01  0.73928766998E+01  0.19192025536E+02  0.21641031742E+02  0.51100000000E-03 0.  1.
         11    1    3    3    0    0  0.67339278675E+01 -0.73928766998E+01  0.19193136054E+02  0.21642016594E+02  0.51100000000E-03 0. -1.
<mgrwt>
<rscale>  0 0.20000041E+02</rscale>
<asrwt>0</asrwt>
<pdfrwt beam="2">  1        2 0.37676057E-03 0.20000041E+02</pdfrwt>
<pdfrwt beam="1">  1       -2 0.62821692E-02 0.20000041E+02</pdfrwt>
<totfact> 0.34831174E+06</totfact>
</mgrwt>
</event>
<event>
 5    1  0.4046313E-006  0.2001186E+02  0.7818608E-02  0.1745092E+00
          2   -1    0    0  501    0  0.00000000000E+00  0.00000000000E+00  0.94939797152E+02  0.94939797187E+02  0.26000000000E-02 0. -1.
         -2   -1    0    0    0  501 -0.00000000000E+00 -0.00000000000E+00 -0.10545469978E+01  0.10545502029E+01  0.26000000000E-02 0.  1.
       1023    2    1    2    0    0  0.00000000000E+00  0.00000000000E+00  0.93885250154E+02  0.95994347390E+02  0.20011859844E+02 0.  0.
        -11    1    3    3    0    0  0.78787926855E+01 -0.61654066093E+01  0.46097769226E+02  0.47170880220E+02  0.51100000000E-03 0. -1.
         11    1    3    3    0    0 -0.78787926855E+01  0.61654066093E+01  0.47787480927E+02  0.48823467170E+02  0.51100000000E-03 0.  1.
<mgrwt>
<rscale>  0 0.20011860E+02</rscale>
<asrwt>0</asrwt>
<pdfrwt beam="1">  1        2 0.14606125E-01 0.20011860E+02</pdfrwt>
<pdfrwt beam="2">  1       -2 0.16223823E-03 0.20011860E+02</pdfrwt>
<totfact> 0.52079790E+06</totfact>
</mgrwt>
</event>
<event>
 5    1  0.4046313E-006  0.2000112E+02  0.7818608E-02  0.1745306E+00
          2   -1    0    0  501    0  0.00000000000E+00  0.00000000000E+00  0.67766278944E+01  0.67766283932E+01  0.26000000000E-02 0.  1.
         -2   -1    0    0    0  501 -0.00000000000E+00 -0.00000000000E+00 -0.14758246549E+02  0.14758246778E+02  0.26000000000E-02 0. -1.
       1023    2    1    2    0    0  0.00000000000E+00  0.00000000000E+00 -0.79816186548E+01  0.21534875171E+02  0.20001115276E+02 0.  0.
        -11    1    3    3    0    0  0.50764940695E+01  0.86162697482E+01 -0.40080497869E+01  0.10773827536E+02  0.51100000000E-03 0.  1.
         11    1    3    3    0    0 -0.50764940695E+01 -0.86162697482E+01 -0.39735688679E+01  0.10761047636E+02  0.51100000000E-03 0. -1.
<mgrwt>
<rscale>  0 0.20001115E+02</rscale>
<asrwt>0</asrwt>
<pdfrwt beam="1">  1        2 0.10425582E-02 0.20001115E+02</pdfrwt>
<pdfrwt beam="2">  1       -2 0.22704995E-02 0.20001115E+02</pdfrwt>
<totfact> 0.38340270E+06</totfact>
</mgrwt>
</event>
<event>
 5    1  0.4046313E-006  0.2000066E+02  0.7818608E-02  0.1745315E+00
         -2   -1    0    0    0  501 -0.00000000000E+00  0.00000000000E+00  0.12102475047E+02  0.12102475326E+02  0.26000000000E-02 0.  1.
          2   -1    0    0  501    0  0.00000000000E+00 -0.00000000000E+00 -0.82633134936E+01  0.82633139026E+01  0.26000000000E-02 0. -1.
       1023    2    1    2    0    0  0.00000000000E+00  0.00000000000E+00  0.38391615535E+01  0.20365789229E+02  0.20000655226E+02 0.  0.
        -11    1    3    3    0    0  0.98855517478E+01  0.15091415426E+01  0.19909354361E+01  0.10196345705E+02  0.51100000000E-03 0.  1.
         11    1    3    3    0    0 -0.98855517478E+01 -0.15091415426E+01  0.18482261173E+01  0.10169443524E+02  0.51100000000E-03 0. -1.
<mgrwt>
<rscale>  0 0.20000655E+02</rscale>
<asrwt>0</asrwt>
<pdfrwt beam="2">  1        2 0.12712791E-02 0.20000655E+02</pdfrwt>
<pdfrwt beam="1">  1       -2 0.18619193E-02 0.20000655E+02</pdfrwt>
<totfact> 0.38912783E+06</totfact>
</mgrwt>
</event>
<event>
 5    1  0.4046313E-006  0.2000103E+02  0.7818608E-02  0.1745308E+00
         -2   -1    0    0    0  501 -0.00000000000E+00  0.00000000000E+00  0.56483111382E+01  0.56483117367E+01  0.26000000000E-02 0.  1.
          2   -1    0    0  501    0  0.00000000000E+00 -0.00000000000E+00 -0.17706235599E+02  0.17706235790E+02  0.26000000000E-02 0. -1.
       1023    2    1    2    0    0  0.00000000000E+00  0.00000000000E+00 -0.12057924461E+02  0.23354547527E+02  0.20001033670E+02 0.  0.
        -11    1    3    3    0    0  0.78085641925E+01 -0.62478129556E+01 -0.59838106249E+01  0.11653962044E+02  0.51100000000E-03 0. -1.
         11    1    3    3    0    0 -0.78085641925E+01  0.62478129556E+01 -0.60741138362E+01  0.11700585482E+02  0.51100000000E-03 0.  1.
<mgrwt>
<rscale>  0 0.20001034E+02</rscale>
<asrwt>0</asrwt>
<pdfrwt beam="2">  1        2 0.27240363E-02 0.20001034E+02</pdfrwt>
<pdfrwt beam="1">  1       -2 0.86897101E-03 0.20001034E+02</pdfrwt>
<totfact> 0.41238018E+06</totfact>
</mgrwt>
</event>
<event>
 5    1  0.4046313E-006  0.2000158E+02  0.7818608E-02  0.1745297E+00
         -2   -1    0    0    0  501 -0.00000000000E+00  0.00000000000E+00  0.20747388578E+02  0.20747388741E+02  0.26000000000E-02 0.  1.
          2   -1    0    0  501    0  0.00000000000E+00 -0.00000000000E+00 -0.48206448364E+01  0.48206455376E+01  0.26000000000E-02 0. -1.
       1023    2    1    2    0    0  0.00000000000E+00  0.00000000000E+00  0.15926743741E+02  0.25568034278E+02  0.20001580204E+02 0.  0.
        -11    1    3    3    0    0 -0.93473269679E+01 -0.35551434433E+01  0.78801736954E+01  0.12732191645E+02  0.51100000000E-03 0.  1.
         11    1    3    3    0    0  0.93473269679E+01  0.35551434433E+01  0.80465700461E+01  0.12835842634E+02  0.51100000000E-03 0. -1.
<mgrwt>
<rscale>  0 0.20001580E+02</rscale>
<asrwt>0</asrwt>
<pdfrwt beam="2">  1        2 0.74163772E-03 0.20001580E+02</pdfrwt>
<pdfrwt beam="1">  1       -2 0.31919061E-02 0.20001580E+02</pdfrwt>
<totfact> 0.37312281E+06</totfact>
</mgrwt>
</event>
<event>
 5    1  0.4046313E-006  0.2000121E+02  0.7818608E-02  0.1745304E+00
         -2   -1    0    0    0  501 -0.00000000000E+00  0.00000000000E+00  0.17978027433E+02  0.17978027621E+02  0.26000000000E-02 0.  1.
          2   -1    0    0  501    0  0.00000000000E+00 -0.00000000000E+00 -0.55630193785E+01  0.55630199861E+01  0.26000000000E-02 0. -1.
       1023    2    1    2    0    0  0.00000000000E+00  0.00000000000E+00  0.12415008054E+02  0.23541047607E+02  0.20001212399E+02 0.  0.
        -11    1    3    3    0    0 -0.98640516584E+01  0.16451148250E+01  0.63002258753E+01  0.11819423177E+02  0.51100000000E-03 0. -1.
         11    1    3    3    0    0  0.98640516584E+01 -0.16451148250E+01  0.61147821790E+01  0.11721624429E+02  0.51100000000E-03 0.  1.
<mgrwt>
<rscale>  0 0.20001212E+02</rscale>
<asrwt>0</asrwt>
<pdfrwt beam="2">  1        2 0.85584919E-03 0.20001212E+02</pdfrwt>
<pdfrwt beam="1">  1       -2 0.27658504E-02 0.20001212E+02</pdfrwt>
<totfact> 0.37756238E+06</totfact>
</mgrwt>
</event>
<event>
 5    1  0.4046313E-006  0.2000156E+02  0.7818608E-02  0.1745297E+00
         -2   -1    0    0    0  501 -0.00000000000E+00  0.00000000000E+00  0.21670163819E+02  0.21670163975E+02  0.26000000000E-02 0. -1.
          2   -1    0    0  501    0  0.00000000000E+00 -0.00000000000E+00 -0.46153586742E+01  0.46153594065E+01  0.26000000000E-02 0.  1.
       1023    2    1    2    0    0  0.00000000000E+00  0.00000000000E+00  0.17054805145E+02  0.26285523382E+02  0.20001558962E+02 0.  0.
        -11    1    3    3    0    0  0.47123697121E+01  0.88208498717E+01  0.85826792285E+01  0.13178626778E+02  0.51100000000E-03 0.  1.
         11    1    3    3    0    0 -0.47123697121E+01 -0.88208498717E+01  0.84721259164E+01  0.13106896603E+02  0.51100000000E-03 0. -1.
<mgrwt>
<rscale>  0 0.20001559E+02</rscale>
<asrwt>0</asrwt>
<pdfrwt beam="2">  1        2 0.71005525E-03 0.20001559E+02</pdfrwt>
<pdfrwt beam="1">  1       -2 0.33338714E-02 0.20001559E+02</pdfrwt>
<totfact> 0.37173854E+06</totfact>
</mgrwt>
</event>
<event>
 5    1  0.4046313E-006  0.2000077E+02  0.7818608E-02  0.1745313E+00
         -2   -1    0    0    0  501 -0.00000000000E+00  0.00000000000E+00  0.34476954561E+01  0.34476964364E+01  0.26000000000E-02 0. -1.
          2   -1    0    0  501    0  0.00000000000E+00 -0.00000000000E+00 -0.29007121286E+02  0.29007121402E+02  0.26000000000E-02 0.  1.
       1023    2    1    2    0    0  0.00000000000E+00  0.00000000000E+00 -0.25559425830E+02  0.32454817839E+02  0.20000773790E+02 0.  0.
        -11    1    3    3    0    0  0.88111709455E+01 -0.47297710502E+01 -0.12806384720E+02  0.16248413998E+02  0.51100000000E-03 0.  1.
         11    1    3    3    0    0 -0.88111709455E+01  0.47297710502E+01 -0.12753041110E+02  0.16206403840E+02  0.51100000000E-03 0. -1.
<mgrwt>
<rscale>  0 0.20000774E+02</rscale>
<asrwt>0</asrwt>
<pdfrwt beam="2">  1        2 0.44626340E-02 0.20000774E+02</pdfrwt>
<pdfrwt beam="1">  1       -2 0.53041479E-03 0.20000774E+02</pdfrwt>
<totfact> 0.43211126E+06</totfact>
</mgrwt>
</event>
<event>
 4    1  0.4046313E-006  0.2012535E+02  0.7818608E-02  0.1742847E+00
          2   -1    0    0  501    0  0.00000000000E+00  0.00000000000E+00  0.87691709200E+00  0.87692094640E+00  0.26000000000E-02 0. -1.
         -2   -1    0    0    0  501 -0.00000000000E+00 -0.00000000000E+00 -0.11546956214E+03  0.11546956217E+03  0.26000000000E-02 0.  1.
        -11    1    1    2    0    0 -0.82960058412E+01  0.56764576985E+01 -0.59955456845E+02  0.60792291375E+02  0.51100000000E-03 0. -1.
         11    1    1    2    0    0  0.82960058412E+01 -0.56764576985E+01 -0.54637188203E+02  0.55554191740E+02  0.51100000000E-03 0.  1.
<mgrwt>
<rscale>  0 0.20125353E+02</rscale>
<asrwt>0</asrwt>
<pdfrwt beam="1">  1        2 0.13491071E-03 0.20125353E+02</pdfrwt>
<pdfrwt beam="2">  1       -2 0.17764536E-01 0.20125353E+02</pdfrwt>
<totfact> 0.28257479E+06</totfact>
</mgrwt>
</event>
<event>
 5    1  0.4046313E-006  0.2000057E+02  0.7818608E-02  0.1745317E+00
          2   -1    0    0  501    0  0.00000000000E+00  0.00000000000E+00  0.21957251238E+02  0.21957251392E+02  0.26000000000E-02 0.  1.
         -2   -1    0    0    0  501 -0.00000000000E+00 -0.00000000000E+00 -0.45545635949E+01  0.45545643370E+01  0.26000000000E-02 0. -1.
       1023    2    1    2    0    0  0.00000000000E+00  0.00000000000E+00  0.17402687643E+02  0.26511815729E+02  0.20000570893E+02 0.  0.
        -11    1    3    3    0    0  0.42851742800E+01 -0.90356317729E+01  0.87260932204E+01  0.13272153680E+02  0.51100000000E-03 0.  1.
         11    1    3    3    0    0 -0.42851742800E+01  0.90356317729E+01  0.86765944230E+01  0.13239662050E+02  0.51100000000E-03 0. -1.
<mgrwt>
<rscale>  0 0.20000571E+02</rscale>
<asrwt>0</asrwt>
<pdfrwt beam="1">  1        2 0.33780387E-02 0.20000571E+02</pdfrwt>
<pdfrwt beam="2">  1       -2 0.70070216E-03 0.20000571E+02</pdfrwt>
<totfact> 0.42028655E+06</totfact>
</mgrwt>
</event>
<event>
 5    1  0.4046313E-006  0.2000547E+02  0.7818608E-02  0.1745219E+00
         -2   -1    0    0    0  501 -0.00000000000E+00  0.00000000000E+00  0.22210117000E+02  0.22210117152E+02  0.26000000000E-02 0.  1.
          2   -1    0    0  501    0  0.00000000000E+00 -0.00000000000E+00 -0.45049162726E+01  0.45049170228E+01  0.26000000000E-02 0. -1.
       1023    2    1    2    0    0  0.00000000000E+00  0.00000000000E+00  0.17705200728E+02  0.26715034175E+02  0.20005472206E+02 0.  0.
        -11    1    3    3    0    0  0.73172250896E+01  0.68173800812E+01  0.91069383518E+01  0.13526077798E+02  0.51100000000E-03 0.  1.
         11    1    3    3    0    0 -0.73172250896E+01 -0.68173800812E+01  0.85982623757E+01  0.13188956377E+02  0.51100000000E-03 0. -1.
<mgrwt>
<rscale>  0 0.20005472E+02</rscale>
<asrwt>0</asrwt>
<pdfrwt beam="2">  1        2 0.69306412E-03 0.20005472E+02</pdfrwt>
<pdfrwt beam="1">  1       -2 0.34169411E-02 0.20005472E+02</pdfrwt>
<totfact> 0.37078798E+06</totfact>
</mgrwt>
</event>
<event>
 5    1  0.4046313E-006  0.2000166E+02  0.7818608E-02  0.1745295E+00
         -2   -1    0    0    0  501 -0.00000000000E+00  0.00000000000E+00  0.43733856282E+01  0.43733864010E+01  0.26000000000E-02 0. -1.
          2   -1    0    0  501    0  0.00000000000E+00 -0.00000000000E+00 -0.22869383939E+02  0.22869384087E+02  0.26000000000E-02 0.  1.
       1023    2    1    2    0    0  0.00000000000E+00  0.00000000000E+00 -0.18495998311E+02  0.27242770488E+02  0.20001664689E+02 0.  0.
        -11    1    3    3    0    0  0.97723680784E+01 -0.21243027490E+01 -0.93424347024E+01  0.13685500592E+02  0.51100000000E-03 0. -1.
         11    1    3    3    0    0 -0.97723680784E+01  0.21243027490E+01 -0.91535636084E+01  0.13557269896E+02  0.51100000000E-03 0.  1.
<mgrwt>
<rscale>  0 0.20001665E+02</rscale>
<asrwt>0</asrwt>
<pdfrwt beam="2">  1        2 0.35183668E-02 0.20001665E+02</pdfrwt>
<pdfrwt beam="1">  1       -2 0.67282864E-03 0.20001665E+02</pdfrwt>
<totfact> 0.42183674E+06</totfact>
</mgrwt>
</event>
<event>
 5    1  0.4137141E-006  0.2000132E+02  0.7818608E-02  0.1745302E+00
         -2   -1    0    0    0  501 -0.00000000000E+00  0.00000000000E+00  0.13930108951E+01  0.13930133215E+01  0.26000000000E-02 0. -1.
          2   -1    0    0  501    0  0.00000000000E+00 -0.00000000000E+00 -0.71796376003E+02  0.71796376050E+02  0.26000000000E-02 0.  1.
       1023    2    1    2    0    0  0.00000000000E+00  0.00000000000E+00 -0.70403365108E+02  0.73189389372E+02  0.20001322408E+02 0.  0.
        -11    1    3    3    0    0  0.95294478259E+00  0.99551400347E+01 -0.35137527340E+02  0.36532981601E+02  0.51100000000E-03 0. -1.
         11    1    3    3    0    0 -0.95294478259E+00 -0.99551400347E+01 -0.35265837769E+02  0.36656407771E+02  0.51100000000E-03 0.  1.
<mgrwt>
<rscale>  0 0.20001322E+02</rscale>
<asrwt>0</asrwt>
<pdfrwt beam="2">  1        2 0.11045594E-01 0.20001322E+02</pdfrwt>
<pdfrwt beam="1">  1       -2 0.21430961E-03 0.20001322E+02</pdfrwt>
<totfact> 0.49245488E+06</totfact>
</mgrwt>
</event>
<event>
 5    1  0.4046313E-006  0.2000227E+02  0.7818608E-02  0.1745283E+00
          2   -1    0    0  501    0  0.00000000000E+00  0.00000000000E+00  0.89910448000E+00  0.89910823929E+00  0.26000000000E-02 0. -1.
         -2   -1    0    0    0  501 -0.00000000000E+00 -0.00000000000E+00 -0.11124680392E+03  0.11124680395E+03  0.26000000000E-02 0.  1.
       1023    2    1    2    0    0  0.00000000000E+00  0.00000000000E+00 -0.11034769944E+03  0.11214591219E+03  0.20002271100E+02 0.  0.
        -11    1    3    3    0    0  0.17819073660E+01  0.98403247291E+01 -0.54475209871E+02  0.55385518643E+02  0.51100000000E-03 0.  1.
         11    1    3    3    0    0 -0.17819073660E+01 -0.98403247291E+01 -0.55872489565E+02  0.56760393542E+02  0.51100000000E-03 0. -1.
<mgrwt>
<rscale>  0 0.20002271E+02</rscale>
<asrwt>0</asrwt>
<pdfrwt beam="1">  1        2 0.13832415E-03 0.20002271E+02</pdfrwt>
<pdfrwt beam="2">  1       -2 0.17114882E-01 0.20002271E+02</pdfrwt>
<totfact> 0.28926865E+06</totfact>
</mgrwt>
</event>
<event>
 4    1  0.4046313E-006  0.2003773E+02  0.7818608E-02  0.1744579E+00
         -2   -1    0    0    0  501 -0.00000000000E+00  0.00000000000E+00  0.56713931701E+01  0.56713937661E+01  0.26000000000E-02 0. -1.
          2   -1    0    0  501    0  0.00000000000E+00 -0.00000000000E+00 -0.17698945148E+02  0.17698945339E+02  0.26000000000E-02 0.  1.
        -11    1    1    2    0    0 -0.80249266409E+01  0.59968664656E+01 -0.58670305428E+01  0.11609646965E+02  0.51100000000E-03 0.  1.
         11    1    1    2    0    0  0.80249266409E+01 -0.59968664656E+01 -0.61605214346E+01  0.11760692140E+02  0.51100000000E-03 0. -1.
<mgrwt>
<rscale>  0 0.20037733E+02</rscale>
<asrwt>0</asrwt>
<pdfrwt beam="2">  1        2 0.27229147E-02 0.20037733E+02</pdfrwt>
<pdfrwt beam="1">  1       -2 0.87252210E-03 0.20037733E+02</pdfrwt>
<totfact> 0.41066210E+06</totfact>
</mgrwt>
</event>
<event>
 5    1  0.4046313E-006  0.2000023E+02  0.7818608E-02  0.1745324E+00
         -2   -1    0    0    0  501 -0.00000000000E+00  0.00000000000E+00  0.19530220308E+01  0.19530237614E+01  0.26000000000E-02 0. -1.
          2   -1    0    0  501    0  0.00000000000E+00 -0.00000000000E+00 -0.51203828459E+02  0.51203828525E+02  0.26000000000E-02 0.  1.
       1023    2    1    2    0    0  0.00000000000E+00  0.00000000000E+00 -0.49250806428E+02  0.53156852286E+02  0.20000225278E+02 0.  0.
        -11    1    3    3    0    0 -0.41215058826E+00  0.99916095024E+01 -0.24595810053E+02  0.26551007532E+02  0.51100000000E-03 0.  1.
         11    1    3    3    0    0  0.41215058826E+00 -0.99916095024E+01 -0.24654996375E+02  0.26605844754E+02  0.51100000000E-03 0. -1.
<mgrwt>
<rscale>  0 0.20000225E+02</rscale>
<asrwt>0</asrwt>
<pdfrwt beam="2">  1        2 0.78775112E-02 0.20000225E+02</pdfrwt>
<pdfrwt beam="1">  1       -2 0.30046510E-03 0.20000225E+02</pdfrwt>
<totfact> 0.46494727E+06</totfact>
</mgrwt>
</event>
<event>
 5    1  0.4046313E-006  0.2000050E+02  0.7818608E-02  0.1745318E+00
         -2   -1    0    0    0  501 -0.00000000000E+00  0.00000000000E+00  0.11562625687E+01  0.11562654919E+01  0.26000000000E-02 0. -1.
          2   -1    0    0  501    0  0.00000000000E+00 -0.00000000000E+00 -0.86489796540E+02  0.86489796579E+02  0.26000000000E-02 0.  1.
       1023    2    1    2    0    0  0.00000000000E+00  0.00000000000E+00 -0.85333533971E+02  0.87646062071E+02  0.20000504406E+02 0.  0.
        -11    1    3    3    0    0 -0.99411182807E+01 -0.10857672242E+01 -0.42588286621E+02  0.43746621364E+02  0.51100000000E-03 0.  1.
         11    1    3    3    0    0  0.99411182807E+01  0.10857672242E+01 -0.42745247350E+02  0.43899440707E+02  0.51100000000E-03 0. -1.
<mgrwt>
<rscale>  0 0.20000504E+02</rscale>
<asrwt>0</asrwt>
<pdfrwt beam="2">  1        2 0.13306118E-01 0.20000504E+02</pdfrwt>
<pdfrwt beam="1">  1       -2 0.17788684E-03 0.20000504E+02</pdfrwt>
<totfact> 0.51108304E+06</totfact>
</mgrwt>
</event>
<event>
 5    1  0.4046313E-006  0.2000066E+02  0.7818608E-02  0.1745315E+00
         -2   -1    0    0    0  501 -0.00000000000E+00  0.00000000000E+00  0.72845445703E+01  0.72845450343E+01  0.26000000000E-02 0.  1.
          2   -1    0    0  501    0  0.00000000000E+00 -0.00000000000E+00 -0.13728605531E+02  0.13728605777E+02  0.26000000000E-02 0. -1.
       1023    2    1    2    0    0  0.00000000000E+00  0.00000000000E+00 -0.64440609604E+01  0.21013150811E+02  0.20000664623E+02 0.  0.
        -11    1    3    3    0    0 -0.60889622095E+01  0.79329177413E+01 -0.32232730761E+01  0.10506956470E+02  0.51100000000E-03 0. -1.
         11    1    3    3    0    0  0.60889622095E+01 -0.79329177413E+01 -0.32207878843E+01  0.10506194341E+02  0.51100000000E-03 0.  1.
<mgrwt>
<rscale>  0 0.20000665E+02</rscale>
<asrwt>0</asrwt>
<pdfrwt beam="2">  1        2 0.21120932E-02 0.20000665E+02</pdfrwt>
<pdfrwt beam="1">  1       -2 0.11206992E-02 0.20000665E+02</pdfrwt>
<totfact> 0.40406299E+06</totfact>
</mgrwt>
</event>
<event>
 5    1  0.4101055E-006  0.2000296E+02  0.7818608E-02  0.1745269E+00
          2   -1    0    0  501    0  0.00000000000E+00  0.00000000000E+00  0.47766484373E+02  0.47766484444E+02  0.26000000000E-02 0.  1.
         -2   -1    0    0    0  501 -0.00000000000E+00 -0.00000000000E+00 -0.20941378491E+01  0.20941394631E+01  0.26000000000E-02 0. -1.
       1023    2    1    2    0    0  0.00000000000E+00  0.00000000000E+00  0.45672346524E+02  0.49860623907E+02  0.20002964265E+02 0.  0.
        -11    1    3    3    0    0 -0.74597227934E+01  0.66613865913E+01  0.23060638951E+02  0.25135922592E+02  0.51100000000E-03 0. -1.
         11    1    3    3    0    0  0.74597227934E+01 -0.66613865913E+01  0.22611707573E+02  0.24724701315E+02  0.51100000000E-03 0.  1.
<mgrwt>
<rscale>  0 0.20002964E+02</rscale>
<asrwt>0</asrwt>
<pdfrwt beam="1">  1        2 0.73486894E-02 0.20002964E+02</pdfrwt>
<pdfrwt beam="2">  1       -2 0.32217521E-03 0.20002964E+02</pdfrwt>
<totfact> 0.45999238E+06</totfact>
</mgrwt>
</event>
<event>
 5    1  0.4340517E-006  0.2000237E+02  0.7818608E-02  0.1745281E+00
          2   -1    0    0  501    0  0.00000000000E+00  0.00000000000E+00  0.10827925736E+03  0.10827925739E+03  0.26000000000E-02 0.  1.
         -2   -1    0    0    0  501 -0.00000000000E+00 -0.00000000000E+00 -0.92375513316E+00  0.92375879213E+00  0.26000000000E-02 0. -1.
       1023    2    1    2    0    0  0.00000000000E+00  0.00000000000E+00  0.10735550223E+03  0.10920301618E+03  0.20002371988E+02 0.  0.
        -11    1    3    3    0    0 -0.15624870596E+01  0.98782985428E+01  0.53894288885E+02  0.54814382443E+02  0.51100000000E-03 0.  1.
         11    1    3    3    0    0  0.15624870596E+01 -0.98782985428E+01  0.53461213340E+02  0.54388633739E+02  0.51100000000E-03 0. -1.
<mgrwt>
<rscale>  0 0.20002372E+02</rscale>
<asrwt>0</asrwt>
<pdfrwt beam="1">  1        2 0.16658339E-01 0.20002372E+02</pdfrwt>
<pdfrwt beam="2">  1       -2 0.14211653E-03 0.20002372E+02</pdfrwt>
<totfact> 0.53724372E+06</totfact>
</mgrwt>
</event>
<event>
 5    1  0.4046313E-006  0.2000115E+02  0.7818608E-02  0.1745305E+00
         -2   -1    0    0    0  501 -0.00000000000E+00  0.00000000000E+00  0.25474791657E+01  0.25474804925E+01  0.26000000000E-02 0.  1.
          2   -1    0    0  501    0  0.00000000000E+00 -0.00000000000E+00 -0.39258992832E+02  0.39258992919E+02  0.26000000000E-02 0. -1.
       1023    2    1    2    0    0  0.00000000000E+00  0.00000000000E+00 -0.36711513667E+02  0.41806473411E+02  0.20001149551E+02 0.  0.
        -11    1    3    3    0    0  0.17033842184E+01 -0.98542586927E+01 -0.18230983744E+02  0.20793669727E+02  0.51100000000E-03 0. -1.
         11    1    3    3    0    0 -0.17033842184E+01  0.98542586927E+01 -0.18480529922E+02  0.21012803684E+02  0.51100000000E-03 0.  1.
<mgrwt>
<rscale>  0 0.20001150E+02</rscale>
<asrwt>0</asrwt>
<pdfrwt beam="2">  1        2 0.60398447E-02 0.20001150E+02</pdfrwt>
<pdfrwt beam="1">  1       -2 0.39192001E-03 0.20001150E+02</pdfrwt>
<totfact> 0.44781353E+06</totfact>
</mgrwt>
</event>
<event>
 5    1  0.4080163E-006  0.2000134E+02  0.7818608E-02  0.1745301E+00
         -2   -1    0    0    0  501 -0.00000000000E+00  0.00000000000E+00  0.20138316855E+01  0.20138333639E+01  0.26000000000E-02 0.  1.
          2   -1    0    0  501    0  0.00000000000E+00 -0.00000000000E+00 -0.49663218623E+02  0.49663218691E+02  0.26000000000E-02 0. -1.
       1023    2    1    2    0    0  0.00000000000E+00  0.00000000000E+00 -0.47649386938E+02  0.51677052055E+02  0.20001340794E+02 0.  0.
        -11    1    3    3    0    0 -0.34852450963E+01  0.93730807705E+01 -0.24105728670E+02  0.26097657586E+02  0.51100000000E-03 0. -1.
         11    1    3    3    0    0  0.34852450963E+01 -0.93730807705E+01 -0.23543658268E+02  0.25579394469E+02  0.51100000000E-03 0.  1.
<mgrwt>
<rscale>  0 0.20001341E+02</rscale>
<asrwt>0</asrwt>
<pdfrwt beam="2">  1        2 0.76404944E-02 0.20001341E+02</pdfrwt>
<pdfrwt beam="1">  1       -2 0.30982043E-03 0.20001341E+02</pdfrwt>
<totfact> 0.46274104E+06</totfact>
</mgrwt>
</event>
<event>
 5    1  0.4914121E-006  0.2000122E+02  0.7818608E-02  0.1745304E+00
         -2   -1    0    0    0  501 -0.00000000000E+00  0.00000000000E+00  0.20226764393E+01  0.20226781103E+01  0.26000000000E-02 0.  1.
          2   -1    0    0  501    0  0.00000000000E+00 -0.00000000000E+00 -0.49445468162E+02  0.49445468231E+02  0.26000000000E-02 0. -1.
       1023    2    1    2    0    0  0.00000000000E+00  0.00000000000E+00 -0.47422791723E+02  0.51468146341E+02  0.20001222787E+02 0.  0.
        -11    1    3    3    0    0 -0.99970060291E+01  0.24937962128E+00 -0.23455254181E+02  0.25498064019E+02  0.51100000000E-03 0. -1.
         11    1    3    3    0    0  0.99970060291E+01 -0.24937962128E+00 -0.23967537542E+02  0.25970082323E+02  0.51100000000E-03 0.  1.
<mgrwt>
<rscale>  0 0.20001223E+02</rscale>
<asrwt>0</asrwt>
<pdfrwt beam="2">  1        2 0.76069944E-02 0.20001223E+02</pdfrwt>
<pdfrwt beam="1">  1       -2 0.31118116E-03 0.20001223E+02</pdfrwt>
<totfact> 0.46244227E+06</totfact>
</mgrwt>
</event>
<event>
 5    1  0.4046313E-006  0.2000073E+02  0.7818608E-02  0.1745314E+00
         -2   -1    0    0    0  501 -0.00000000000E+00  0.00000000000E+00  0.25320097416E+02  0.25320097550E+02  0.26000000000E-02 0. -1.
          2   -1    0    0  501    0  0.00000000000E+00 -0.00000000000E+00 -0.39497186950E+01  0.39497195507E+01  0.26000000000E-02 0.  1.
       1023    2    1    2    0    0  0.00000000000E+00  0.00000000000E+00  0.21370378722E+02  0.29269817101E+02  0.20000727647E+02 0.  0.
        -11    1    3    3    0    0  0.88650799950E+01 -0.46279091722E+01  0.10671327793E+02  0.14624787990E+02  0.51100000000E-03 0. -1.
         11    1    3    3    0    0 -0.88650799950E+01  0.46279091722E+01  0.10699050928E+02  0.14645029111E+02  0.51100000000E-03 0.  1.
<mgrwt>
<rscale>  0 0.20000728E+02</rscale>
<asrwt>0</asrwt>
<pdfrwt beam="2">  1        2 0.60764909E-03 0.20000728E+02</pdfrwt>
<pdfrwt beam="1">  1       -2 0.38953998E-02 0.20000728E+02</pdfrwt>
<totfact> 0.36662779E+06</totfact>
</mgrwt>
</event>
<event>
 5    1  0.4046313E-006  0.2000108E+02  0.7818608E-02  0.1745307E+00
          2   -1    0    0  501    0  0.00000000000E+00  0.00000000000E+00  0.11414111671E+03  0.11414111674E+03  0.26000000000E-02 0. -1.
         -2   -1    0    0    0  501 -0.00000000000E+00 -0.00000000000E+00 -0.87620118078E+00  0.87620503833E+00  0.26000000000E-02 0.  1.
       1023    2    1    2    0    0  0.00000000000E+00  0.00000000000E+00  0.11326491553E+03  0.11501732178E+03  0.20001080449E+02 0.  0.
        -11    1    3    3    0    0 -0.99908334636E+01 -0.44048816191E+00  0.56659059744E+02  0.57534857560E+02  0.51100000000E-03 0. -1.
         11    1    3    3    0    0  0.99908334636E+01  0.44048816191E+00  0.56605855783E+02  0.57482464215E+02  0.51100000000E-03 0.  1.
<mgrwt>
<rscale>  0 0.20001080E+02</rscale>
<asrwt>0</asrwt>
<pdfrwt beam="1">  1        2 0.17560162E-01 0.20001080E+02</pdfrwt>
<pdfrwt beam="2">  1       -2 0.13480056E-03 0.20001080E+02</pdfrwt>
<totfact> 0.54413763E+06</totfact>
</mgrwt>
</event>
<event>
 5    1  0.4046313E-006  0.2000193E+02  0.7818608E-02  0.1745290E+00
         -2   -1    0    0    0  501 -0.00000000000E+00  0.00000000000E+00  0.11961267390E+03  0.11961267393E+03  0.26000000000E-02 0. -1.
          2   -1    0    0  501    0  0.00000000000E+00 -0.00000000000E+00 -0.83619134015E+00  0.83619538228E+00  0.26000000000E-02 0.  1.
       1023    2    1    2    0    0  0.00000000000E+00  0.00000000000E+00  0.11877648256E+03  0.12044886931E+03  0.20001932629E+02 0.  0.
        -11    1    3    3    0    0 -0.17827062008E+01  0.98405900350E+01  0.59772572201E+02  0.60603429288E+02  0.51100000000E-03 0.  1.
         11    1    3    3    0    0  0.17827062008E+01 -0.98405900350E+01  0.59003910355E+02  0.59845440020E+02  0.51100000000E-03 0. -1.
<mgrwt>
<rscale>  0 0.20001933E+02</rscale>
<asrwt>0</asrwt>
<pdfrwt beam="2">  1        2 0.12864510E-03 0.20001933E+02</pdfrwt>
<pdfrwt beam="1">  1       -2 0.18401956E-01 0.20001933E+02</pdfrwt>
<totfact> 0.28360897E+06</totfact>
</mgrwt>
</event>
<event>
 5    1  0.4046313E-006  0.2000269E+02  0.7818608E-02  0.1745275E+00
          2   -1    0    0  501    0  0.00000000000E+00  0.00000000000E+00  0.99789349641E+00  0.99789688354E+00  0.26000000000E-02 0. -1.
         -2   -1    0    0    0  501 -0.00000000000E+00 -0.00000000000E+00 -0.10023792321E+03  0.10023792324E+03  0.26000000000E-02 0.  1.
       1023    2    1    2    0    0  0.00000000000E+00  0.00000000000E+00 -0.99240029715E+02  0.10123582013E+03  0.20002694301E+02 0.  0.
        -11    1    3    3    0    0  0.95958063586E+01  0.28176383238E+01 -0.49157285369E+02  0.50164302951E+02  0.51100000000E-03 0. -1.
         11    1    3    3    0    0 -0.95958063586E+01 -0.28176383238E+01 -0.50082744345E+02  0.51071517177E+02  0.51100000000E-03 0.  1.
<mgrwt>
<rscale>  0 0.20002694E+02</rscale>
<asrwt>0</asrwt>
<pdfrwt beam="1">  1        2 0.15352242E-03 0.20002694E+02</pdfrwt>
<pdfrwt beam="2">  1       -2 0.15421211E-01 0.20002694E+02</pdfrwt>
<totfact> 0.29704740E+06</totfact>
</mgrwt>
</event>
<event>
 5    1  0.4046313E-006  0.2000076E+02  0.7818608E-02  0.1745313E+00
         -2   -1    0    0    0  501 -0.00000000000E+00  0.00000000000E+00  0.89252543508E+01  0.89252547295E+01  0.26000000000E-02 0. -1.
          2   -1    0    0  501    0  0.00000000000E+00 -0.00000000000E+00 -0.11205008824E+02  0.11205009126E+02  0.26000000000E-02 0.  1.
       1023    2    1    2    0    0  0.00000000000E+00  0.00000000000E+00 -0.22797544733E+01  0.20130263855E+02  0.20000756046E+02 0.  0.
        -11    1    3    3    0    0  0.93512723025E+01 -0.35438999340E+01 -0.11853352426E+01  0.10070280052E+02  0.51100000000E-03 0. -1.
         11    1    3    3    0    0 -0.93512723025E+01  0.35438999340E+01 -0.10944192307E+01  0.10059983804E+02  0.51100000000E-03 0.  1.
<mgrwt>
<rscale>  0 0.20000756E+02</rscale>
<asrwt>0</asrwt>
<pdfrwt beam="2">  1        2 0.17238476E-02 0.20000756E+02</pdfrwt>
<pdfrwt beam="1">  1       -2 0.13731161E-02 0.20000756E+02</pdfrwt>
<totfact> 0.39791734E+06</totfact>
</mgrwt>
</event>
<event>
 5    1  0.4046313E-006  0.2000113E+02  0.7818608E-02  0.1745306E+00
          2   -1    0    0  501    0  0.00000000000E+00  0.00000000000E+00  0.51250702179E+01  0.51250708774E+01  0.26000000000E-02 0.  1.
         -2   -1    0    0    0  501 -0.00000000000E+00 -0.00000000000E+00 -0.19514127941E+02  0.19514128114E+02  0.26000000000E-02 0. -1.
       1023    2    1    2    0    0  0.00000000000E+00  0.00000000000E+00 -0.14389057723E+02  0.24639198992E+02  0.20001128588E+02 0.  0.
        -11    1    3    3    0    0  0.55310449067E+01  0.83313667708E+01 -0.72987376619E+01  0.12380456443E+02  0.51100000000E-03 0. -1.
         11    1    3    3    0    0 -0.55310449067E+01 -0.83313667708E+01 -0.70903200612E+01  0.12258742548E+02  0.51100000000E-03 0.  1.
<mgrwt>
<rscale>  0 0.20001129E+02</rscale>
<asrwt>0</asrwt>
<pdfrwt beam="1">  1        2 0.78847241E-03 0.20001129E+02</pdfrwt>
<pdfrwt beam="2">  1       -2 0.30021736E-02 0.20001129E+02</pdfrwt>
<totfact> 0.37505799E+06</totfact>
</mgrwt>
</event>
<event>
 5    1  0.4046313E-006  0.2000027E+02  0.7818608E-02  0.1745323E+00
          2   -1    0    0  501    0  0.00000000000E+00  0.00000000000E+00  0.83362072735E+02  0.83362072775E+02  0.26000000000E-02 0. -1.
         -2   -1    0    0    0  501 -0.00000000000E+00 -0.00000000000E+00 -0.11996166586E+01  0.11996194762E+01  0.26000000000E-02 0.  1.
       1023    2    1    2    0    0  0.00000000000E+00  0.00000000000E+00  0.82162456076E+02  0.84561692252E+02  0.20000265197E+02 0.  0.
        -11    1    3    3    0    0 -0.83978501317E+01  0.54293597485E+01  0.40960331716E+02  0.42163379948E+02  0.51100000000E-03 0. -1.
         11    1    3    3    0    0  0.83978501317E+01 -0.54293597485E+01  0.41202124361E+02  0.42398312304E+02  0.51100000000E-03 0.  1.
<mgrwt>
<rscale>  0 0.20000265E+02</rscale>
<asrwt>0</asrwt>
<pdfrwt beam="1">  1        2 0.12824936E-01 0.20000265E+02</pdfrwt>
<pdfrwt beam="2">  1       -2 0.18455660E-03 0.20000265E+02</pdfrwt>
<totfact> 0.50720010E+06</totfact>
</mgrwt>
</event>
<event>
 4    1  0.4046313E-006  0.2001419E+02  0.7818608E-02  0.1745046E+00
         -2   -1    0    0    0  501 -0.00000000000E+00  0.00000000000E+00  0.26428179884E+01  0.26428192673E+01  0.26000000000E-02 0.  1.
          2   -1    0    0  501    0  0.00000000000E+00 -0.00000000000E+00 -0.37892084923E+02  0.37892085012E+02  0.26000000000E-02 0. -1.
        -11    1    1    2    0    0 -0.58003063547E+01  0.81544374385E+01 -0.17504688472E+02  0.20163147634E+02  0.51100000000E-03 0.  1.
         11    1    1    2    0    0  0.58003063547E+01 -0.81544374385E+01 -0.17744578463E+02  0.20371756646E+02  0.51100000000E-03 0. -1.
<mgrwt>
<rscale>  0 0.20014186E+02</rscale>
<asrwt>0</asrwt>
<pdfrwt beam="2">  1        2 0.58295512E-02 0.20014186E+02</pdfrwt>
<pdfrwt beam="1">  1       -2 0.40658752E-03 0.20014186E+02</pdfrwt>
<totfact> 0.44513718E+06</totfact>
</mgrwt>
</event>
<event>
 5    1  0.4208443E-006  0.2000059E+02  0.7818608E-02  0.1745316E+00
          2   -1    0    0  501    0  0.00000000000E+00  0.00000000000E+00  0.92357875698E+02  0.92357875735E+02  0.26000000000E-02 0. -1.
         -2   -1    0    0    0  501 -0.00000000000E+00 -0.00000000000E+00 -0.10828071531E+01  0.10828102747E+01  0.26000000000E-02 0.  1.
       1023    2    1    2    0    0  0.00000000000E+00  0.00000000000E+00  0.91275068545E+02  0.93440686009E+02  0.20000591592E+02 0.  0.
        -11    1    3    3    0    0 -0.48004823142E+01  0.87725385553E+01  0.45927515237E+02  0.47003603259E+02  0.51100000000E-03 0. -1.
         11    1    3    3    0    0  0.48004823142E+01 -0.87725385553E+01  0.45347553308E+02  0.46437082751E+02  0.51100000000E-03 0.  1.
<mgrwt>
<rscale>  0 0.20000592E+02</rscale>
<asrwt>0</asrwt>
<pdfrwt beam="1">  1        2 0.14208907E-01 0.20000592E+02</pdfrwt>
<pdfrwt beam="2">  1       -2 0.16658593E-03 0.20000592E+02</pdfrwt>
<totfact> 0.51830286E+06</totfact>
</mgrwt>
</event>
<event>
 5    1  0.4046313E-006  0.2000078E+02  0.7818608E-02  0.1745313E+00
          2   -1    0    0  501    0  0.00000000000E+00  0.00000000000E+00  0.77002588764E+01  0.77002593153E+01  0.26000000000E-02 0. -1.
         -2   -1    0    0    0  501 -0.00000000000E+00 -0.00000000000E+00 -0.12987585540E+02  0.12987585801E+02  0.26000000000E-02 0.  1.
       1023    2    1    2    0    0  0.00000000000E+00  0.00000000000E+00 -0.52873266639E+01  0.20687845116E+02  0.20000777792E+02 0.  0.
        -11    1    3    3    0    0 -0.84299359609E+01 -0.53794934204E+01 -0.27168618921E+01  0.10362630388E+02  0.51100000000E-03 0. -1.
         11    1    3    3    0    0  0.84299359609E+01  0.53794934204E+01 -0.25704647718E+01  0.10325214727E+02  0.51100000000E-03 0.  1.
<mgrwt>
<rscale>  0 0.20000778E+02</rscale>
<asrwt>0</asrwt>
<pdfrwt beam="1">  1        2 0.11846553E-02 0.20000778E+02</pdfrwt>
<pdfrwt beam="2">  1       -2 0.19980901E-02 0.20000778E+02</pdfrwt>
<totfact> 0.38710240E+06</totfact>
</mgrwt>
</event>
<event>
 5    1  0.4046313E-006  0.2001137E+02  0.7818608E-02  0.1745102E+00
         -2   -1    0    0    0  501 -0.00000000000E+00  0.00000000000E+00  0.19727779418E+02  0.19727779589E+02  0.26000000000E-02 0. -1.
          2   -1    0    0  501    0  0.00000000000E+00 -0.00000000000E+00 -0.50747568834E+01  0.50747575495E+01  0.26000000000E-02 0.  1.
       1023    2    1    2    0    0  0.00000000000E+00  0.00000000000E+00  0.14653022534E+02  0.24802537138E+02  0.20011366248E+02 0.  0.
        -11    1    3    3    0    0 -0.88651632372E+01  0.46391171707E+01  0.73688547684E+01  0.12426284570E+02  0.51100000000E-03 0.  1.
         11    1    3    3    0    0  0.88651632372E+01 -0.46391171707E+01  0.72841677657E+01  0.12376252569E+02  0.51100000000E-03 0. -1.
<mgrwt>
<rscale>  0 0.20011366E+02</rscale>
<asrwt>0</asrwt>
<pdfrwt beam="2">  1        2 0.78073191E-03 0.20011366E+02</pdfrwt>
<pdfrwt beam="1">  1       -2 0.30350430E-02 0.20011366E+02</pdfrwt>
<totfact> 0.37430434E+06</totfact>
</mgrwt>
</event>
<event>
 5    1  0.4046313E-006  0.2000086E+02  0.7818608E-02  0.1745311E+00
          2   -1    0    0  501    0  0.00000000000E+00  0.00000000000E+00  0.19654458729E+01  0.19654475926E+01  0.26000000000E-02 0.  1.
         -2   -1    0    0    0  501 -0.00000000000E+00 -0.00000000000E+00 -0.50883413618E+02  0.50883413684E+02  0.26000000000E-02 0. -1.
       1023    2    1    2    0    0  0.00000000000E+00  0.00000000000E+00 -0.48917967745E+02  0.52848861277E+02  0.20000864230E+02 0.  0.
        -11    1    3    3    0    0  0.44648309050E+01  0.89479617797E+01 -0.24224021415E+02  0.26206944667E+02  0.51100000000E-03 0. -1.
         11    1    3    3    0    0 -0.44648309050E+01 -0.89479617797E+01 -0.24693946330E+02  0.26641916610E+02  0.51100000000E-03 0.  1.
<mgrwt>
<rscale>  0 0.20000864E+02</rscale>
<asrwt>0</asrwt>
<pdfrwt beam="1">  1        2 0.30237646E-03 0.20000864E+02</pdfrwt>
<pdfrwt beam="2">  1       -2 0.78282166E-02 0.20000864E+02</pdfrwt>
<totfact> 0.33809610E+06</totfact>
</mgrwt>
</event>
<event>
 5    1  0.4046313E-006  0.2000063E+02  0.7818608E-02  0.1745315E+00
         -2   -1    0    0    0  501 -0.00000000000E+00  0.00000000000E+00  0.48676789820E+02  0.48676789889E+02  0.26000000000E-02 0. -1.
          2   -1    0    0  501    0  0.00000000000E+00 -0.00000000000E+00 -0.20544963472E+01  0.20544979924E+01  0.26000000000E-02 0.  1.
       1023    2    1    2    0    0  0.00000000000E+00  0.00000000000E+00  0.46622293473E+02  0.50731287882E+02  0.20000633027E+02 0.  0.
        -11    1    3    3    0    0 -0.99398189467E+01 -0.10982539499E+01  0.23343991940E+02  0.25395828838E+02  0.51100000000E-03 0. -1.
         11    1    3    3    0    0  0.99398189467E+01  0.10982539499E+01  0.23278301533E+02  0.25335459044E+02  0.51100000000E-03 0.  1.
<mgrwt>
<rscale>  0 0.20000633E+02</rscale>
<asrwt>0</asrwt>
<pdfrwt beam="2">  1        2 0.31607652E-03 0.20000633E+02</pdfrwt>
<pdfrwt beam="1">  1       -2 0.74887364E-02 0.20000633E+02</pdfrwt>
<totfact> 0.34026147E+06</totfact>
</mgrwt>
</event>
<event>
 5    1  0.4046313E-006  0.2000904E+02  0.7818608E-02  0.1745148E+00
          2   -1    0    0  501    0  0.00000000000E+00  0.00000000000E+00  0.16455538649E+02  0.16455538855E+02  0.26000000000E-02 0.  1.
         -2   -1    0    0    0  501 -0.00000000000E+00 -0.00000000000E+00 -0.60824775370E+01  0.60824780927E+01  0.26000000000E-02 0. -1.
       1023    2    1    2    0    0  0.00000000000E+00  0.00000000000E+00  0.10373061113E+02  0.22538016948E+02  0.20009043233E+02 0.  0.
        -11    1    3    3    0    0  0.64307327666E+01 -0.76614434613E+01  0.49657673427E+01  0.11167402804E+02  0.51100000000E-03 0.  1.
         11    1    3    3    0    0 -0.64307327666E+01  0.76614434613E+01  0.54072937698E+01  0.11370614143E+02  0.51100000000E-03 0. -1.
<mgrwt>
<rscale>  0 0.20009043E+02</rscale>
<asrwt>0</asrwt>
<pdfrwt beam="1">  1        2 0.25316214E-02 0.20009043E+02</pdfrwt>
<pdfrwt beam="2">  1       -2 0.93576583E-03 0.20009043E+02</pdfrwt>
<totfact> 0.40951544E+06</totfact>
</mgrwt>
</event>
<event>
 5    1  0.4046313E-006  0.2000077E+02  0.7818608E-02  0.1745313E+00
          2   -1    0    0  501    0  0.00000000000E+00  0.00000000000E+00  0.23836354344E+02  0.23836354485E+02  0.26000000000E-02 0. -1.
         -2   -1    0    0    0  501 -0.00000000000E+00 -0.00000000000E+00 -0.41955962164E+01  0.41955970220E+01  0.26000000000E-02 0.  1.
       1023    2    1    2    0    0  0.00000000000E+00  0.00000000000E+00  0.19640758127E+02  0.28031951507E+02  0.20000773123E+02 0.  0.
        -11    1    3    3    0    0  0.97710351717E+01  0.21291980889E+01  0.97735103260E+01  0.13983136886E+02  0.51100000000E-03 0.  1.
         11    1    3    3    0    0 -0.97710351717E+01 -0.21291980889E+01  0.98672478011E+01  0.14048814621E+02  0.51100000000E-03 0. -1.
<mgrwt>
<rscale>  0 0.20000773E+02</rscale>
<asrwt>0</asrwt>
<pdfrwt beam="1">  1        2 0.36671315E-02 0.20000773E+02</pdfrwt>
<pdfrwt beam="2">  1       -2 0.64547642E-03 0.20000773E+02</pdfrwt>
<totfact> 0.42355071E+06</totfact>
</mgrwt>
</event>
<event>
 5    1  0.4046313E-006  0.2000531E+02  0.7818608E-02  0.1745223E+00
          2   -1    0    0  501    0  0.00000000000E+00  0.00000000000E+00  0.25677451249E+01  0.25677464412E+01  0.26000000000E-02 0.  1.
         -2   -1    0    0    0  501 -0.00000000000E+00 -0.00000000000E+00 -0.38965327541E+02  0.38965327628E+02  0.26000000000E-02 0. -1.
       1023    2    1    2    0    0  0.00000000000E+00  0.00000000000E+00 -0.36397582416E+02  0.41533074069E+02  0.20005305193E+02 0.  0.
        -11    1    3    3    0    0  0.39868518465E+01 -0.91718512367E+01 -0.17809191497E+02  0.20425110643E+02  0.51100000000E-03 0.  1.
         11    1    3    3    0    0 -0.39868518465E+01  0.91718512367E+01 -0.18588390919E+02  0.21107963426E+02  0.51100000000E-03 0. -1.
<mgrwt>
<rscale>  0 0.20005305E+02</rscale>
<asrwt>0</asrwt>
<pdfrwt beam="1">  1        2 0.39503785E-03 0.20005305E+02</pdfrwt>
<pdfrwt beam="2">  1       -2 0.59946655E-02 0.20005305E+02</pdfrwt>
<totfact> 0.35011868E+06</totfact>
</mgrwt>
</event>
<event>
 5    1  0.4046313E-006  0.2000046E+02  0.7818608E-02  0.1745319E+00
         -2   -1    0    0    0  501 -0.00000000000E+00  0.00000000000E+00  0.88183316797E+01  0.88183320630E+01  0.26000000000E-02 0. -1.
          2   -1    0    0  501    0  0.00000000000E+00 -0.00000000000E+00 -0.11340531714E+02  0.11340532013E+02  0.26000000000E-02 0.  1.
       1023    2    1    2    0    0  0.00000000000E+00  0.00000000000E+00 -0.25222000348E+01  0.20158864075E+02  0.20000457690E+02 0.  0.
        -11    1    3    3    0    0 -0.56959863336E+01 -0.82195076976E+01 -0.12642204804E+01  0.10079822458E+02  0.51100000000E-03 0.  1.
         11    1    3    3    0    0  0.56959863336E+01  0.82195076976E+01 -0.12579795544E+01  0.10079041617E+02  0.51100000000E-03 0. -1.
<mgrwt>
<rscale>  0 0.20000458E+02</rscale>
<asrwt>0</asrwt>
<pdfrwt beam="2">  1        2 0.17446972E-02 0.20000458E+02</pdfrwt>
<pdfrwt beam="1">  1       -2 0.13566665E-02 0.20000458E+02</pdfrwt>
<totfact> 0.39828558E+06</totfact>
</mgrwt>
</event>
<event>
 5    1  0.4046313E-006  0.2000141E+02  0.7818608E-02  0.1745300E+00
         -2   -1    0    0    0  501 -0.00000000000E+00  0.00000000000E+00  0.10785936180E+03  0.10785936184E+03  0.26000000000E-02 0.  1.
          2   -1    0    0  501    0  0.00000000000E+00 -0.00000000000E+00 -0.92726239929E+00  0.92726604442E+00  0.26000000000E-02 0. -1.
       1023    2    1    2    0    0  0.00000000000E+00  0.00000000000E+00  0.10693209941E+03  0.10878662788E+03  0.20001413009E+02 0.  0.
        -11    1    3    3    0    0 -0.96141133146E+01  0.27521500555E+01  0.52960913173E+02  0.53896788672E+02  0.51100000000E-03 0. -1.
         11    1    3    3    0    0  0.96141133146E+01 -0.27521500555E+01  0.53971186232E+02  0.54889839208E+02  0.51100000000E-03 0.  1.
<mgrwt>
<rscale>  0 0.20001413E+02</rscale>
<asrwt>0</asrwt>
<pdfrwt beam="2">  1        2 0.14265592E-03 0.20001413E+02</pdfrwt>
<pdfrwt beam="1">  1       -2 0.16593761E-01 0.20001413E+02</pdfrwt>
<totfact> 0.29165246E+06</totfact>
</mgrwt>
</event>
<event>
 5    1  0.4046313E-006  0.2000268E+02  0.7818608E-02  0.1745275E+00
          2   -1    0    0  501    0  0.00000000000E+00  0.00000000000E+00  0.49011042081E+02  0.49011042150E+02  0.26000000000E-02 0. -1.
         -2   -1    0    0    0  501 -0.00000000000E+00 -0.00000000000E+00 -0.20409030724E+01  0.20409047285E+01  0.26000000000E-02 0.  1.
       1023    2    1    2    0    0  0.00000000000E+00  0.00000000000E+00  0.46970139009E+02  0.51051946879E+02  0.20002682860E+02 0.  0.
        -11    1    3    3    0    0 -0.96026715681E+01  0.27955383977E+01  0.23541793986E+02  0.25578162571E+02  0.51100000000E-03 0. -1.
         11    1    3    3    0    0  0.96026715681E+01 -0.27955383977E+01  0.23428345023E+02  0.25473784307E+02  0.51100000000E-03 0.  1.
<mgrwt>
<rscale>  0 0.20002683E+02</rscale>
<asrwt>0</asrwt>
<pdfrwt beam="1">  1        2 0.75401612E-02 0.20002683E+02</pdfrwt>
<pdfrwt beam="2">  1       -2 0.31398519E-03 0.20002683E+02</pdfrwt>
<totfact> 0.46175812E+06</totfact>
</mgrwt>
</event>
<event>
 5    1  0.4046313E-006  0.2000081E+02  0.7818608E-02  0.1745312E+00
         -2   -1    0    0    0  501 -0.00000000000E+00  0.00000000000E+00  0.22694253628E+02  0.22694253777E+02  0.26000000000E-02 0. -1.
          2   -1    0    0  501    0  0.00000000000E+00 -0.00000000000E+00 -0.44067580227E+01  0.44067587897E+01  0.26000000000E-02 0.  1.
       1023    2    1    2    0    0  0.00000000000E+00  0.00000000000E+00  0.18287495605E+02  0.27101012566E+02  0.20000809649E+02 0.  0.
        -11    1    3    3    0    0  0.85490799895E+01  0.51878373201E+01  0.90250663772E+01  0.13470421230E+02  0.51100000000E-03 0. -1.
         11    1    3    3    0    0 -0.85490799895E+01 -0.51878373201E+01  0.92624292277E+01  0.13630591337E+02  0.51100000000E-03 0.  1.
<mgrwt>
<rscale>  0 0.20000810E+02</rscale>
<asrwt>0</asrwt>
<pdfrwt beam="2">  1        2 0.67796285E-03 0.20000810E+02</pdfrwt>
<pdfrwt beam="1">  1       -2 0.34914237E-02 0.20000810E+02</pdfrwt>
<totfact> 0.37027513E+06</totfact>
</mgrwt>
</event>
<event>
 5    1  0.4135591E-006  0.2000082E+02  0.7818608E-02  0.1745312E+00
         -2   -1    0    0    0  501 -0.00000000000E+00  0.00000000000E+00  0.16822705414E+01  0.16822725506E+01  0.26000000000E-02 0.  1.
          2   -1    0    0  501    0  0.00000000000E+00 -0.00000000000E+00 -0.59448296480E+02  0.59448296537E+02  0.26000000000E-02 0. -1.
       1023    2    1    2    0    0  0.00000000000E+00  0.00000000000E+00 -0.57766025939E+02  0.61130569087E+02  0.20000818088E+02 0.  0.
        -11    1    3    3    0    0  0.99890650879E+01 -0.47559797804E+00 -0.28810297352E+02  0.30496571094E+02  0.51100000000E-03 0.  1.
         11    1    3    3    0    0 -0.99890650879E+01  0.47559797804E+00 -0.28955728587E+02  0.30633997993E+02  0.51100000000E-03 0. -1.
<mgrwt>
<rscale>  0 0.20000818E+02</rscale>
<asrwt>0</asrwt>
<pdfrwt beam="2">  1        2 0.91458903E-02 0.20000818E+02</pdfrwt>
<pdfrwt beam="1">  1       -2 0.25881106E-03 0.20000818E+02</pdfrwt>
<totfact> 0.47619123E+06</totfact>
</mgrwt>
</event>
<event>
 5    1  0.4046313E-006  0.2000650E+02  0.7818608E-02  0.1745199E+00
          2   -1    0    0  501    0  0.00000000000E+00  0.00000000000E+00  0.81811956348E+01  0.81811960479E+01  0.26000000000E-02 0. -1.
         -2   -1    0    0    0  501 -0.00000000000E+00 -0.00000000000E+00 -0.12231100172E+02  0.12231100448E+02  0.26000000000E-02 0.  1.
       1023    2    1    2    0    0  0.00000000000E+00  0.00000000000E+00 -0.40499045373E+01  0.20412296496E+02  0.20006501980E+02 0.  0.
        -11    1    3    3    0    0 -0.74043053257E+01  0.67259261594E+01 -0.19671457456E+01  0.10194679137E+02  0.51100000000E-03 0. -1.
         11    1    3    3    0    0  0.74043053257E+01 -0.67259261594E+01 -0.20827587917E+01  0.10217617359E+02  0.51100000000E-03 0.  1.
<mgrwt>
<rscale>  0 0.20006502E+02</rscale>
<asrwt>0</asrwt>
<pdfrwt beam="1">  1        2 0.12586455E-02 0.20006502E+02</pdfrwt>
<pdfrwt beam="2">  1       -2 0.18817078E-02 0.20006502E+02</pdfrwt>
<totfact> 0.38858125E+06</totfact>
</mgrwt>
</event>
<event>
 5    1  0.4195055E-006  0.2000112E+02  0.7818608E-02  0.1745306E+00
          2   -1    0    0  501    0  0.00000000000E+00  0.00000000000E+00  0.86403267551E+02  0.86403267590E+02  0.26000000000E-02 0.  1.
         -2   -1    0    0    0  501 -0.00000000000E+00 -0.00000000000E+00 -0.11574916782E+01  0.11574945983E+01  0.26000000000E-02 0. -1.
       1023    2    1    2    0    0  0.00000000000E+00  0.00000000000E+00  0.85245775873E+02  0.87560762189E+02  0.20001119241E+02 0.  0.
        -11    1    3    3    0    0 -0.33230547448E+01  0.94320381283E+01  0.42308528030E+02  0.43474332433E+02  0.51100000000E-03 0.  1.
         11    1    3    3    0    0  0.33230547448E+01 -0.94320381283E+01  0.42937247843E+02  0.44086429756E+02  0.51100000000E-03 0. -1.
<mgrwt>
<rscale>  0 0.20001119E+02</rscale>
<asrwt>0</asrwt>
<pdfrwt beam="1">  1        2 0.13292806E-01 0.20001119E+02</pdfrwt>
<pdfrwt beam="2">  1       -2 0.17807593E-03 0.20001119E+02</pdfrwt>
<totfact> 0.51094093E+06</totfact>
</mgrwt>
</event>
<event>
 5    1  0.4046313E-006  0.2000037E+02  0.7818608E-02  0.1745321E+00
         -2   -1    0    0    0  501 -0.00000000000E+00  0.00000000000E+00  0.19486649903E+02  0.19486650077E+02  0.26000000000E-02 0. -1.
          2   -1    0    0  501    0  0.00000000000E+00 -0.00000000000E+00 -0.51319069301E+01  0.51319075887E+01  0.26000000000E-02 0.  1.
       1023    2    1    2    0    0  0.00000000000E+00  0.00000000000E+00  0.14354742973E+02  0.24618557665E+02  0.20000368389E+02 0.  0.
        -11    1    3    3    0    0  0.16639951397E+01 -0.98607425600E+01  0.71482428500E+01  0.12292294325E+02  0.51100000000E-03 0.  1.
         11    1    3    3    0    0 -0.16639951397E+01  0.98607425600E+01  0.72065001230E+01  0.12326263341E+02  0.51100000000E-03 0. -1.
<mgrwt>
<rscale>  0 0.20000368E+02</rscale>
<asrwt>0</asrwt>
<pdfrwt beam="2">  1        2 0.78952423E-03 0.20000368E+02</pdfrwt>
<pdfrwt beam="1">  1       -2 0.29979461E-02 0.20000368E+02</pdfrwt>
<totfact> 0.37513255E+06</totfact>
</mgrwt>
</event>
<event>
 5    1  0.4143102E-006  0.2000177E+02  0.7818608E-02  0.1745293E+00
         -2   -1    0    0    0  501 -0.00000000000E+00  0.00000000000E+00  0.12449969440E+01  0.12449996588E+01  0.26000000000E-02 0. -1.
          2   -1    0    0  501    0  0.00000000000E+00 -0.00000000000E+00 -0.80335640423E+02  0.80335640465E+02  0.26000000000E-02 0.  1.
       1023    2    1    2    0    0  0.00000000000E+00  0.00000000000E+00 -0.79090643479E+02  0.81580640124E+02  0.20001773849E+02 0.  0.
        -11    1    3    3    0    0  0.95149367878E+01 -0.30789935176E+01 -0.39303478377E+02  0.40555858220E+02  0.51100000000E-03 0. -1.
         11    1    3    3    0    0 -0.95149367878E+01  0.30789935176E+01 -0.39787165102E+02  0.41024781904E+02  0.51100000000E-03 0.  1.
<mgrwt>
<rscale>  0 0.20001774E+02</rscale>
<asrwt>0</asrwt>
<pdfrwt beam="2">  1        2 0.12359325E-01 0.20001774E+02</pdfrwt>
<pdfrwt beam="1">  1       -2 0.19153827E-03 0.20001774E+02</pdfrwt>
<totfact> 0.50332008E+06</totfact>
</mgrwt>
</event>
<event>
 5    1  0.4046313E-006  0.2000138E+02  0.7818608E-02  0.1745301E+00
         -2   -1    0    0    0  501 -0.00000000000E+00  0.00000000000E+00  0.55552381609E+01  0.55552387694E+01  0.26000000000E-02 0.  1.
          2   -1    0    0  501    0  0.00000000000E+00 -0.00000000000E+00 -0.18003517210E+02  0.18003517398E+02  0.26000000000E-02 0. -1.
       1023    2    1    2    0    0  0.00000000000E+00  0.00000000000E+00 -0.12448279049E+02  0.23558756167E+02  0.20001383474E+02 0.  0.
        -11    1    3    3    0    0 -0.34542112069E+01  0.93845245802E+01 -0.60900588220E+01  0.11708530795E+02  0.51100000000E-03 0. -1.
         11    1    3    3    0    0  0.34542112069E+01 -0.93845245802E+01 -0.63582202272E+01  0.11850225372E+02  0.51100000000E-03 0.  1.
<mgrwt>
<rscale>  0 0.20001383E+02</rscale>
<asrwt>0</asrwt>
<pdfrwt beam="2">  1        2 0.27697719E-02 0.20001383E+02</pdfrwt>
<pdfrwt beam="1">  1       -2 0.85465209E-03 0.20001383E+02</pdfrwt>
<totfact> 0.41294311E+06</totfact>
</mgrwt>
</event>
<event>
 5    1  0.4943578E-006  0.2000072E+02  0.7818608E-02  0.1745314E+00
          2   -1    0    0  501    0  0.00000000000E+00  0.00000000000E+00  0.49987616957E+02  0.49987617025E+02  0.26000000000E-02 0. -1.
         -2   -1    0    0    0  501 -0.00000000000E+00 -0.00000000000E+00 -0.20006385972E+01  0.20006402867E+01  0.26000000000E-02 0.  1.
       1023    2    1    2    0    0  0.00000000000E+00  0.00000000000E+00  0.47986978360E+02  0.51988257311E+02  0.20000720141E+02 0.  0.
        -11    1    3    3    0    0 -0.10000188032E+02 -0.34112073954E-01  0.24117522213E+02  0.26108615480E+02  0.51100000000E-03 0.  1.
         11    1    3    3    0    0  0.10000188032E+02  0.34112073954E-01  0.23869456147E+02  0.25879641831E+02  0.51100000000E-03 0. -1.
<mgrwt>
<rscale>  0 0.20000720E+02</rscale>
<asrwt>0</asrwt>
<pdfrwt beam="1">  1        2 0.76904021E-02 0.20000720E+02</pdfrwt>
<pdfrwt beam="2">  1       -2 0.30779071E-03 0.20000720E+02</pdfrwt>
<totfact> 0.46322666E+06</totfact>
</mgrwt>
</event>
<event>
 5    1  0.4046313E-006  0.2000025E+02  0.7818608E-02  0.1745323E+00
          2   -1    0    0  501    0  0.00000000000E+00  0.00000000000E+00  0.17533314238E+01  0.17533333515E+01  0.26000000000E-02 0. -1.
         -2   -1    0    0    0  501 -0.00000000000E+00 -0.00000000000E+00 -0.57035667096E+02  0.57035667155E+02  0.26000000000E-02 0.  1.
       1023    2    1    2    0    0  0.00000000000E+00  0.00000000000E+00 -0.55282335672E+02  0.58789000507E+02  0.20000248579E+02 0.  0.
        -11    1    3    3    0    0 -0.92038933512E+01 -0.39100773689E+01 -0.27776753849E+02  0.29521998789E+02  0.51100000000E-03 0.  1.
         11    1    3    3    0    0  0.92038933512E+01  0.39100773689E+01 -0.27505581823E+02  0.29267001718E+02  0.51100000000E-03 0. -1.
<mgrwt>
<rscale>  0 0.20000249E+02</rscale>
<asrwt>0</asrwt>
<pdfrwt beam="1">  1        2 0.26974349E-03 0.20000249E+02</pdfrwt>
<pdfrwt beam="2">  1       -2 0.87747168E-02 0.20000249E+02</pdfrwt>
<totfact> 0.33230335E+06</totfact>
</mgrwt>
</event>
<event>
 5    1  0.4046313E-006  0.2000945E+02  0.7818608E-02  0.1745140E+00
          2   -1    0    0  501    0  0.00000000000E+00  0.00000000000E+00  0.14342437735E+01  0.14342461301E+01  0.26000000000E-02 0. -1.
         -2   -1    0    0    0  501 -0.00000000000E+00 -0.00000000000E+00 -0.69788989201E+02  0.69788989250E+02  0.26000000000E-02 0.  1.
       1023    2    1    2    0    0  0.00000000000E+00  0.00000000000E+00 -0.68354745428E+02  0.71223235380E+02  0.20009448655E+02 0.  0.
        -11    1    3    3    0    0  0.62597761562E+01 -0.78044670490E+01 -0.34169284400E+02  0.35603855130E+02  0.51100000000E-03 0. -1.
         11    1    3    3    0    0 -0.62597761562E+01  0.78044670490E+01 -0.34185461028E+02  0.35619380250E+02  0.51100000000E-03 0.  1.
<mgrwt>
<rscale>  0 0.20009449E+02</rscale>
<asrwt>0</asrwt>
<pdfrwt beam="1">  1        2 0.22065313E-03 0.20009449E+02</pdfrwt>
<pdfrwt beam="2">  1       -2 0.10736765E-01 0.20009449E+02</pdfrwt>
<totfact> 0.32068061E+06</totfact>
</mgrwt>
</event>
<event>
 5    1  0.4311828E-006  0.2000146E+02  0.7818608E-02  0.1745299E+00
          2   -1    0    0  501    0  0.00000000000E+00  0.00000000000E+00  0.16306425154E+01  0.16306445882E+01  0.26000000000E-02 0.  1.
         -2   -1    0    0    0  501 -0.00000000000E+00 -0.00000000000E+00 -0.61334420741E+02  0.61334420796E+02  0.26000000000E-02 0. -1.
       1023    2    1    2    0    0  0.00000000000E+00  0.00000000000E+00 -0.59703778225E+02  0.62965065384E+02  0.20001458058E+02 0.  0.
        -11    1    3    3    0    0 -0.99980441682E+01 -0.23139404379E+00 -0.29813275754E+02  0.31445919319E+02  0.51100000000E-03 0.  1.
         11    1    3    3    0    0  0.99980441682E+01  0.23139404379E+00 -0.29890502472E+02  0.31519146065E+02  0.51100000000E-03 0. -1.
<mgrwt>
<rscale>  0 0.20001458E+02</rscale>
<asrwt>0</asrwt>
<pdfrwt beam="1">  1        2 0.25086829E-03 0.20001458E+02</pdfrwt>
<pdfrwt beam="2">  1       -2 0.94360631E-02 0.20001458E+02</pdfrwt>
<totfact> 0.32834389E+06</totfact>
</mgrwt>
</event>
<event>
 5    1  0.4046313E-006  0.2000020E+02  0.7818608E-02  0.1745324E+00
         -2   -1    0    0    0  501 -0.00000000000E+00  0.00000000000E+00  0.11593734808E+01  0.11593763962E+01  0.26000000000E-02 0.  1.
          2   -1    0    0  501    0  0.00000000000E+00 -0.00000000000E+00 -0.86255121664E+02  0.86255121703E+02  0.26000000000E-02 0. -1.
       1023    2    1    2    0    0  0.00000000000E+00  0.00000000000E+00 -0.85095748183E+02  0.87414498100E+02  0.20000202977E+02 0.  0.
        -11    1    3    3    0    0  0.94352521230E+01 -0.33133114561E+01 -0.42531469903E+02  0.43691279997E+02  0.51100000000E-03 0.  1.
         11    1    3    3    0    0 -0.94352521230E+01  0.33133114561E+01 -0.42564278281E+02  0.43723218103E+02  0.51100000000E-03 0. -1.
<mgrwt>
<rscale>  0 0.20000203E+02</rscale>
<asrwt>0</asrwt>
<pdfrwt beam="2">  1        2 0.13270014E-01 0.20000203E+02</pdfrwt>
<pdfrwt beam="1">  1       -2 0.17836544E-03 0.20000203E+02</pdfrwt>
<totfact> 0.51080875E+06</totfact>
</mgrwt>
</event>
<event>
 5    1  0.4046313E-006  0.2000015E+02  0.7818608E-02  0.1745325E+00
         -2   -1    0    0    0  501 -0.00000000000E+00  0.00000000000E+00  0.22122817339E+01  0.22122832617E+01  0.26000000000E-02 0. -1.
          2   -1    0    0  501    0  0.00000000000E+00 -0.00000000000E+00 -0.45202877247E+02  0.45202877322E+02  0.26000000000E-02 0.  1.
       1023    2    1    2    0    0  0.00000000000E+00  0.00000000000E+00 -0.42990595513E+02  0.47415160583E+02  0.20000153764E+02 0.  0.
        -11    1    3    3    0    0 -0.90537726846E+01 -0.42461910910E+01 -0.21553309689E+02  0.23760178817E+02  0.51100000000E-03 0.  1.
         11    1    3    3    0    0  0.90537726846E+01  0.42461910910E+01 -0.21437285824E+02  0.23654981766E+02  0.51100000000E-03 0. -1.
<mgrwt>
<rscale>  0 0.20000154E+02</rscale>
<asrwt>0</asrwt>
<pdfrwt beam="2">  1        2 0.69542882E-02 0.20000154E+02</pdfrwt>
<pdfrwt beam="1">  1       -2 0.34035119E-03 0.20000154E+02</pdfrwt>
<totfact> 0.45649543E+06</totfact>
</mgrwt>
</event>
<event>
 5    1  0.4046313E-006  0.2000041E+02  0.7818608E-02  0.1745320E+00
          2   -1    0    0  501    0  0.00000000000E+00  0.00000000000E+00  0.10333213015E+03  0.10333213018E+03  0.26000000000E-02 0. -1.
         -2   -1    0    0    0  501 -0.00000000000E+00 -0.00000000000E+00 -0.96779157887E+00  0.96779507136E+00  0.26000000000E-02 0.  1.
       1023    2    1    2    0    0  0.00000000000E+00  0.00000000000E+00  0.10236433857E+03  0.10429992525E+03  0.20000414918E+02 0.  0.
        -11    1    3    3    0    0 -0.99089378237E+01  0.13477329506E+01  0.51042622703E+02  0.52013005735E+02  0.51100000000E-03 0. -1.
         11    1    3    3    0    0  0.99089378237E+01 -0.13477329506E+01  0.51321715863E+02  0.52286919514E+02  0.51100000000E-03 0.  1.
<mgrwt>
<rscale>  0 0.20000415E+02</rscale>
<asrwt>0</asrwt>
<pdfrwt beam="1">  1        2 0.15897247E-01 0.20000415E+02</pdfrwt>
<pdfrwt beam="2">  1       -2 0.14889132E-03 0.20000415E+02</pdfrwt>
<totfact> 0.53152850E+06</totfact>
</mgrwt>
</event>
<event>
 5    1  0.4046313E-006  0.2000050E+02  0.7818608E-02  0.1745318E+00
          2   -1    0    0  501    0  0.00000000000E+00  0.00000000000E+00  0.40764256287E+01  0.40764264579E+01  0.26000000000E-02 0.  1.
         -2   -1    0    0    0  501 -0.00000000000E+00 -0.00000000000E+00 -0.24532515872E+02  0.24532516010E+02  0.26000000000E-02 0. -1.
       1023    2    1    2    0    0  0.00000000000E+00  0.00000000000E+00 -0.20456090243E+02  0.28608942468E+02  0.20000499021E+02 0.  0.
        -11    1    3    3    0    0  0.91768907826E+01 -0.39735046808E+01 -0.10184514415E+02  0.14273345719E+02  0.51100000000E-03 0.  1.
         11    1    3    3    0    0 -0.91768907826E+01  0.39735046808E+01 -0.10271575828E+02  0.14335596748E+02  0.51100000000E-03 0. -1.
<mgrwt>
<rscale>  0 0.20000499E+02</rscale>
<asrwt>0</asrwt>
<pdfrwt beam="1">  1        2 0.62714249E-03 0.20000499E+02</pdfrwt>
<pdfrwt beam="2">  1       -2 0.37742332E-02 0.20000499E+02</pdfrwt>
<totfact> 0.36770729E+06</totfact>
</mgrwt>
</event>
<event>
 5    1  0.4046313E-006  0.2000055E+02  0.7818608E-02  0.1745317E+00
          2   -1    0    0  501    0  0.00000000000E+00  0.00000000000E+00  0.23672414106E+02  0.23672414249E+02  0.26000000000E-02 0. -1.
         -2   -1    0    0    0  501 -0.00000000000E+00 -0.00000000000E+00 -0.42245570924E+01  0.42245578925E+01  0.26000000000E-02 0.  1.
       1023    2    1    2    0    0  0.00000000000E+00  0.00000000000E+00  0.19447857014E+02  0.27896972141E+02  0.20000547798E+02 0.  0.
        -11    1    3    3    0    0  0.48006807362E+01  0.87725345143E+01  0.96684777974E+01  0.13909829636E+02  0.51100000000E-03 0.  1.
         11    1    3    3    0    0 -0.48006807362E+01 -0.87725345143E+01  0.97793792161E+01  0.13987142505E+02  0.51100000000E-03 0. -1.
<mgrwt>
<rscale>  0 0.20000548E+02</rscale>
<asrwt>0</asrwt>
<pdfrwt beam="1">  1        2 0.36419101E-02 0.20000548E+02</pdfrwt>
<pdfrwt beam="2">  1       -2 0.64993191E-03 0.20000548E+02</pdfrwt>
<totfact> 0.42327982E+06</totfact>
</mgrwt>
</event>
<event>
 4    1  0.4046313E-006  0.2005517E+02  0.7818608E-02  0.1744233E+00
          2   -1    0    0  501    0  0.00000000000E+00  0.00000000000E+00  0.30345023675E+02  0.30345023787E+02  0.26000000000E-02 0. -1.
         -2   -1    0    0    0  501 -0.00000000000E+00 -0.00000000000E+00 -0.33136369835E+01  0.33136380035E+01  0.26000000000E-02 0.  1.
        -11    1    1    2    0    0  0.37869258574E+01  0.92680124268E+01  0.14458460602E+02  0.17586470511E+02  0.51100000000E-03 0. -1.
         11    1    1    2    0    0 -0.37869258574E+01 -0.92680124268E+01  0.12572926090E+02  0.16072191279E+02  0.51100000000E-03 0.  1.
<mgrwt>
<rscale>  0 0.20055165E+02</rscale>
<asrwt>0</asrwt>
<pdfrwt beam="1">  1        2 0.46684651E-02 0.20055165E+02</pdfrwt>
<pdfrwt beam="2">  1       -2 0.50979041E-03 0.20055165E+02</pdfrwt>
<totfact> 0.43160565E+06</totfact>
</mgrwt>
</event>
<event>
 5    1  0.4046313E-006  0.2000054E+02  0.7818608E-02  0.1745317E+00
          2   -1    0    0  501    0  0.00000000000E+00  0.00000000000E+00  0.10655990822E+02  0.10655991140E+02  0.26000000000E-02 0. -1.
         -2   -1    0    0    0  501 -0.00000000000E+00 -0.00000000000E+00 -0.93848999576E+01  0.93849003178E+01  0.26000000000E-02 0.  1.
       1023    2    1    2    0    0  0.00000000000E+00  0.00000000000E+00  0.12710908648E+01  0.20040891457E+02  0.20000541453E+02 0.  0.
        -11    1    3    3    0    0 -0.24237434569E+01  0.97020302886E+01  0.59686341909E+00  0.10017992327E+02  0.51100000000E-03 0. -1.
         11    1    3    3    0    0  0.24237434569E+01 -0.97020302886E+01  0.67422744568E+00  0.10022899130E+02  0.51100000000E-03 0.  1.
<mgrwt>
<rscale>  0 0.20000541E+02</rscale>
<asrwt>0</asrwt>
<pdfrwt beam="1">  1        2 0.16393833E-02 0.20000541E+02</pdfrwt>
<pdfrwt beam="2">  1       -2 0.14438308E-02 0.20000541E+02</pdfrwt>
<totfact> 0.39645322E+06</totfact>
</mgrwt>
</event>
<event>
 5    1  0.4587873E-006  0.2000438E+02  0.7818608E-02  0.1745241E+00
          2   -1    0    0  501    0  0.00000000000E+00  0.00000000000E+00  0.66068652886E+02  0.66068652937E+02  0.26000000000E-02 0.  1.
         -2   -1    0    0    0  501 -0.00000000000E+00 -0.00000000000E+00 -0.15142390077E+01  0.15142412398E+01  0.26000000000E-02 0. -1.
       1023    2    1    2    0    0  0.00000000000E+00  0.00000000000E+00  0.64554413878E+02  0.67582894177E+02  0.20004380374E+02 0.  0.
        -11    1    3    3    0    0 -0.99873800748E+01 -0.54127287103E+00  0.32464432785E+02  0.33970283093E+02  0.51100000000E-03 0.  1.
         11    1    3    3    0    0  0.99873800748E+01  0.54127287103E+00  0.32089981093E+02  0.33612611084E+02  0.51100000000E-03 0. -1.
<mgrwt>
<rscale>  0 0.20004380E+02</rscale>
<asrwt>0</asrwt>
<pdfrwt beam="1">  1        2 0.10164409E-01 0.20004380E+02</pdfrwt>
<pdfrwt beam="2">  1       -2 0.23296001E-03 0.20004380E+02</pdfrwt>
<totfact> 0.48481789E+06</totfact>
</mgrwt>
</event>
<event>
 5    1  0.4046313E-006  0.2000087E+02  0.7818608E-02  0.1745311E+00
          2   -1    0    0  501    0  0.00000000000E+00  0.00000000000E+00  0.43348569572E+02  0.43348569650E+02  0.26000000000E-02 0. -1.
         -2   -1    0    0    0  501 -0.00000000000E+00 -0.00000000000E+00 -0.23070808943E+01  0.23070823594E+01  0.26000000000E-02 0.  1.
       1023    2    1    2    0    0  0.00000000000E+00  0.00000000000E+00  0.41041488678E+02  0.45655652009E+02  0.20000869169E+02 0.  0.
        -11    1    3    3    0    0 -0.24290296089E+01  0.97007316102E+01  0.20670656073E+02  0.22962586992E+02  0.51100000000E-03 0.  1.
         11    1    3    3    0    0  0.24290296089E+01 -0.97007316102E+01  0.20370832605E+02  0.22693065017E+02  0.51100000000E-03 0. -1.
<mgrwt>
<rscale>  0 0.20000869E+02</rscale>
<asrwt>0</asrwt>
<pdfrwt beam="1">  1        2 0.66690107E-02 0.20000869E+02</pdfrwt>
<pdfrwt beam="2">  1       -2 0.35493565E-03 0.20000869E+02</pdfrwt>
<totfact> 0.45379637E+06</totfact>
</mgrwt>
</event>
<event>
 5    1  0.4628311E-006  0.2000220E+02  0.7818608E-02  0.1745284E+00
         -2   -1    0    0    0  501 -0.00000000000E+00  0.00000000000E+00  0.14248332691E+02  0.14248332928E+02  0.26000000000E-02 0.  1.
          2   -1    0    0  501    0  0.00000000000E+00 -0.00000000000E+00 -0.70199098258E+01  0.70199103073E+01  0.26000000000E-02 0. -1.
       1023    2    1    2    0    0  0.00000000000E+00  0.00000000000E+00  0.72284228653E+01  0.21268243236E+02  0.20002201709E+02 0.  0.
        -11    1    3    3    0    0 -0.99986959661E+01  0.21904775516E+00  0.36028038922E+01  0.10630244545E+02  0.51100000000E-03 0.  1.
         11    1    3    3    0    0  0.99986959661E+01 -0.21904775516E+00  0.36256189731E+01  0.10637998691E+02  0.51100000000E-03 0. -1.
<mgrwt>
<rscale>  0 0.20002202E+02</rscale>
<asrwt>0</asrwt>
<pdfrwt beam="2">  1        2 0.10799862E-02 0.20002202E+02</pdfrwt>
<pdfrwt beam="1">  1       -2 0.21920512E-02 0.20002202E+02</pdfrwt>
<totfact> 0.38437651E+06</totfact>
</mgrwt>
</event>
<event>
 5    1  0.4046313E-006  0.2000357E+02  0.7818608E-02  0.1745257E+00
         -2   -1    0    0    0  501 -0.00000000000E+00  0.00000000000E+00  0.16296004730E+01  0.16296025471E+01  0.26000000000E-02 0.  1.
          2   -1    0    0  501    0  0.00000000000E+00 -0.00000000000E+00 -0.61386581014E+02  0.61386581069E+02  0.26000000000E-02 0. -1.
       1023    2    1    2    0    0  0.00000000000E+00  0.00000000000E+00 -0.59756980541E+02  0.63016183616E+02  0.20003566536E+02 0.  0.
        -11    1    3    3    0    0 -0.74320879450E+01 -0.66931283253E+01 -0.29745944654E+02  0.31382401463E+02  0.51100000000E-03 0. -1.
         11    1    3    3    0    0  0.74320879450E+01  0.66931283253E+01 -0.30011035888E+02  0.31633782153E+02  0.51100000000E-03 0.  1.
<mgrwt>
<rscale>  0 0.20003567E+02</rscale>
<asrwt>0</asrwt>
<pdfrwt beam="2">  1        2 0.94440878E-02 0.20003567E+02</pdfrwt>
<pdfrwt beam="1">  1       -2 0.25070798E-03 0.20003567E+02</pdfrwt>
<totfact> 0.47864801E+06</totfact>
</mgrwt>
</event>
<event>
 5    1  0.4046313E-006  0.2000082E+02  0.7818608E-02  0.1745312E+00
         -2   -1    0    0    0  501 -0.00000000000E+00  0.00000000000E+00  0.16049877471E+02  0.16049877682E+02  0.26000000000E-02 0.  1.
          2   -1    0    0  501    0  0.00000000000E+00 -0.00000000000E+00 -0.62310903492E+01  0.62310908916E+01  0.26000000000E-02 0. -1.
       1023    2    1    2    0    0  0.00000000000E+00  0.00000000000E+00  0.98187871221E+01  0.22280968574E+02  0.20000824484E+02 0.  0.
        -11    1    3    3    0    0  0.67655130108E+01  0.73644516556E+01  0.48754163237E+01  0.11125511183E+02  0.51100000000E-03 0. -1.
         11    1    3    3    0    0 -0.67655130108E+01 -0.73644516556E+01  0.49433707984E+01  0.11155457391E+02  0.51100000000E-03 0.  1.
<mgrwt>
<rscale>  0 0.20000824E+02</rscale>
<asrwt>0</asrwt>
<pdfrwt beam="2">  1        2 0.95862935E-03 0.20000824E+02</pdfrwt>
<pdfrwt beam="1">  1       -2 0.24692120E-02 0.20000824E+02</pdfrwt>
<totfact> 0.38096202E+06</totfact>
</mgrwt>
</event>
<event>
 5    1  0.4046313E-006  0.2000022E+02  0.7818608E-02  0.1745324E+00
         -2   -1    0    0    0  501 -0.00000000000E+00  0.00000000000E+00  0.10096038705E+01  0.10096072183E+01  0.26000000000E-02 0. -1.
          2   -1    0    0  501    0  0.00000000000E+00 -0.00000000000E+00 -0.99050714914E+02  0.99050714948E+02  0.26000000000E-02 0.  1.
       1023    2    1    2    0    0  0.00000000000E+00  0.00000000000E+00 -0.98041111043E+02  0.10006032217E+03  0.20000215434E+02 0.  0.
        -11    1    3    3    0    0 -0.29406777624E+01  0.95579149735E+01 -0.48876443794E+02  0.49888957521E+02  0.51100000000E-03 0.  1.
         11    1    3    3    0    0  0.29406777624E+01 -0.95579149735E+01 -0.49164667249E+02  0.50171364645E+02  0.51100000000E-03 0. -1.
<mgrwt>
<rscale>  0 0.20000215E+02</rscale>
<asrwt>0</asrwt>
<pdfrwt beam="2">  1        2 0.15238564E-01 0.20000215E+02</pdfrwt>
<pdfrwt beam="1">  1       -2 0.15532401E-03 0.20000215E+02</pdfrwt>
<totfact> 0.52642883E+06</totfact>
</mgrwt>
</event>
<event>
 5    1  0.4046313E-006  0.2000147E+02  0.7818608E-02  0.1745299E+00
         -2   -1    0    0    0  501 -0.00000000000E+00  0.00000000000E+00  0.36932316949E+01  0.36932326101E+01  0.26000000000E-02 0.  1.
          2   -1    0    0  501    0  0.00000000000E+00 -0.00000000000E+00 -0.27080529700E+02  0.27080529825E+02  0.26000000000E-02 0. -1.
       1023    2    1    2    0    0  0.00000000000E+00  0.00000000000E+00 -0.23387298005E+02  0.30773762435E+02  0.20001468607E+02 0.  0.
        -11    1    3    3    0    0  0.98674827227E+01  0.16249479473E+01 -0.11822515399E+02  0.15484816490E+02  0.51100000000E-03 0. -1.
         11    1    3    3    0    0 -0.98674827227E+01 -0.16249479473E+01 -0.11564782606E+02  0.15288945945E+02  0.51100000000E-03 0.  1.
<mgrwt>
<rscale>  0 0.20001469E+02</rscale>
<asrwt>0</asrwt>
<pdfrwt beam="2">  1        2 0.41662353E-02 0.20001469E+02</pdfrwt>
<pdfrwt beam="1">  1       -2 0.56818959E-03 0.20001469E+02</pdfrwt>
<totfact> 0.42895525E+06</totfact>
</mgrwt>
</event>
<event>
 5    1  0.4046313E-006  0.2000193E+02  0.7818608E-02  0.1745290E+00
          2   -1    0    0  501    0  0.00000000000E+00  0.00000000000E+00  0.21311428803E+01  0.21311444663E+01  0.26000000000E-02 0. -1.
         -2   -1    0    0    0  501 -0.00000000000E+00 -0.00000000000E+00 -0.46932197452E+02  0.46932197524E+02  0.26000000000E-02 0.  1.
       1023    2    1    2    0    0  0.00000000000E+00  0.00000000000E+00 -0.44801054571E+02  0.49063341990E+02  0.20001925820E+02 0.  0.
        -11    1    3    3    0    0  0.87195127310E+01 -0.48978434334E+01 -0.22346434593E+02  0.24482277506E+02  0.51100000000E-03 0. -1.
         11    1    3    3    0    0 -0.87195127310E+01  0.48978434334E+01 -0.22454619978E+02  0.24581064484E+02  0.51100000000E-03 0.  1.
<mgrwt>
<rscale>  0 0.20001926E+02</rscale>
<asrwt>0</asrwt>
<pdfrwt beam="1">  1        2 0.32786830E-03 0.20001926E+02</pdfrwt>
<pdfrwt beam="2">  1       -2 0.72203374E-02 0.20001926E+02</pdfrwt>
<totfact> 0.34194776E+06</totfact>
</mgrwt>
</event>
<event>
 5    1  0.4115839E-006  0.2000176E+02  0.7818608E-02  0.1745293E+00
         -2   -1    0    0    0  501 -0.00000000000E+00  0.00000000000E+00  0.26627074923E+01  0.26627087617E+01  0.26000000000E-02 0. -1.
          2   -1    0    0  501    0  0.00000000000E+00 -0.00000000000E+00 -0.37562370074E+02  0.37562370164E+02  0.26000000000E-02 0.  1.
       1023    2    1    2    0    0  0.00000000000E+00  0.00000000000E+00 -0.34899662581E+02  0.40225078925E+02  0.20001763079E+02 0.  0.
        -11    1    3    3    0    0 -0.65227493298E+01 -0.75808514756E+01 -0.17541183559E+02  0.20191797563E+02  0.51100000000E-03 0. -1.
         11    1    3    3    0    0  0.65227493298E+01  0.75808514756E+01 -0.17358479023E+02  0.20033281363E+02  0.51100000000E-03 0.  1.
<mgrwt>
<rscale>  0 0.20001763E+02</rscale>
<asrwt>0</asrwt>
<pdfrwt beam="2">  1        2 0.57788259E-02 0.20001763E+02</pdfrwt>
<pdfrwt beam="1">  1       -2 0.40964744E-03 0.20001763E+02</pdfrwt>
<totfact> 0.44526363E+06</totfact>
</mgrwt>
</event>
<event>
 5    1  0.4046313E-006  0.2000086E+02  0.7818608E-02  0.1745311E+00
          2   -1    0    0  501    0  0.00000000000E+00  0.00000000000E+00  0.96311999226E+00  0.96312350168E+00  0.26000000000E-02 0.  1.
         -2   -1    0    0    0  501 -0.00000000000E+00 -0.00000000000E+00 -0.10383799901E+03  0.10383799904E+03  0.26000000000E-02 0. -1.
       1023    2    1    2    0    0  0.00000000000E+00  0.00000000000E+00 -0.10287487901E+03  0.10480112254E+03  0.20000863821E+02 0.  0.
        -11    1    3    3    0    0 -0.62768121774E+01 -0.77851076784E+01 -0.51692284115E+02  0.52650721837E+02  0.51100000000E-03 0.  1.
         11    1    3    3    0    0  0.62768121774E+01  0.77851076784E+01 -0.51182594899E+02  0.52150400704E+02  0.51100000000E-03 0. -1.
<mgrwt>
<rscale>  0 0.20000864E+02</rscale>
<asrwt>0</asrwt>
<pdfrwt beam="1">  1        2 0.14817266E-03 0.20000864E+02</pdfrwt>
<pdfrwt beam="2">  1       -2 0.15975068E-01 0.20000864E+02</pdfrwt>
<totfact> 0.29451596E+06</totfact>
</mgrwt>
</event>
<event>
 5    1  0.4046313E-006  0.2000332E+02  0.7818608E-02  0.1745262E+00
          2   -1    0    0  501    0  0.00000000000E+00  0.00000000000E+00  0.27697242157E+01  0.27697254361E+01  0.26000000000E-02 0. -1.
         -2   -1    0    0    0  501 -0.00000000000E+00 -0.00000000000E+00 -0.36116653630E+02  0.36116653723E+02  0.26000000000E-02 0.  1.
       1023    2    1    2    0    0  0.00000000000E+00  0.00000000000E+00 -0.33346929414E+02  0.38886379160E+02  0.20003319294E+02 0.  0.
        -11    1    3    3    0    0 -0.86107952280E+01 -0.50851290367E+01 -0.16343193199E+02  0.19159965970E+02  0.51100000000E-03 0.  1.
         11    1    3    3    0    0  0.86107952280E+01  0.50851290367E+01 -0.17003736216E+02  0.19726413190E+02  0.51100000000E-03 0. -1.
<mgrwt>
<rscale>  0 0.20003319E+02</rscale>
<asrwt>0</asrwt>
<pdfrwt beam="1">  1        2 0.42611154E-03 0.20003319E+02</pdfrwt>
<pdfrwt beam="2">  1       -2 0.55564080E-02 0.20003319E+02</pdfrwt>
<totfact> 0.35333764E+06</totfact>
</mgrwt>
</event>
<event>
 5    1  0.4046313E-006  0.2000862E+02  0.7818608E-02  0.1745157E+00
          2   -1    0    0  501    0  0.00000000000E+00  0.00000000000E+00  0.33283401786E+02  0.33283401887E+02  0.26000000000E-02 0.  1.
         -2   -1    0    0    0  501 -0.00000000000E+00 -0.00000000000E+00 -0.30070894788E+01  0.30070906028E+01  0.26000000000E-02 0. -1.
       1023    2    1    2    0    0  0.00000000000E+00  0.00000000000E+00  0.30276312307E+02  0.36290492490E+02  0.20008617100E+02 0.  0.
        -11    1    3    3    0    0 -0.91566214569E+01 -0.40301910744E+01  0.15127783698E+02  0.18136592747E+02  0.51100000000E-03 0. -1.
         11    1    3    3    0    0  0.91566214569E+01  0.40301910744E+01  0.15148528609E+02  0.18153899743E+02  0.51100000000E-03 0.  1.
<mgrwt>
<rscale>  0 0.20008617E+02</rscale>
<asrwt>0</asrwt>
<pdfrwt beam="1">  1        2 0.51205234E-02 0.20008617E+02</pdfrwt>
<pdfrwt beam="2">  1       -2 0.46262925E-03 0.20008617E+02</pdfrwt>
<totfact> 0.43844072E+06</totfact>
</mgrwt>
</event>
<event>
 5    1  0.4046313E-006  0.2000084E+02  0.7818608E-02  0.1745311E+00
          2   -1    0    0  501    0  0.00000000000E+00  0.00000000000E+00  0.94299477013E+01  0.94299480597E+01  0.26000000000E-02 0. -1.
         -2   -1    0    0    0  501 -0.00000000000E+00 -0.00000000000E+00 -0.10605399911E+02  0.10605400229E+02  0.26000000000E-02 0.  1.
       1023    2    1    2    0    0  0.00000000000E+00  0.00000000000E+00 -0.11754522095E+01  0.20035348289E+02  0.20000837312E+02 0.  0.
        -11    1    3    3    0    0  0.70201316181E+01  0.71216695752E+01 -0.67702900969E+00  0.10022913449E+02  0.51100000000E-03 0.  1.
         11    1    3    3    0    0 -0.70201316181E+01 -0.71216695752E+01 -0.49842319977E+00  0.10012434840E+02  0.51100000000E-03 0. -1.
<mgrwt>
<rscale>  0 0.20000837E+02</rscale>
<asrwt>0</asrwt>
<pdfrwt beam="1">  1        2 0.14507612E-02 0.20000837E+02</pdfrwt>
<pdfrwt beam="2">  1       -2 0.16316000E-02 0.20000837E+02</pdfrwt>
<totfact> 0.39290239E+06</totfact>
</mgrwt>
</event>
<event>
 5    1  0.4046313E-006  0.2000024E+02  0.7818608E-02  0.1745323E+00
          2   -1    0    0  501    0  0.00000000000E+00  0.00000000000E+00  0.32162138677E+02  0.32162138783E+02  0.26000000000E-02 0.  1.
         -2   -1    0    0    0  501 -0.00000000000E+00 -0.00000000000E+00 -0.31093197112E+01  0.31093207983E+01  0.26000000000E-02 0. -1.
       1023    2    1    2    0    0  0.00000000000E+00  0.00000000000E+00  0.29052818966E+02  0.35271459581E+02  0.20000239276E+02 0.  0.
        -11    1    3    3    0    0 -0.83064154643E+01 -0.55680907235E+01  0.14609508871E+02  0.17704178091E+02  0.51100000000E-03 0.  1.
         11    1    3    3    0    0  0.83064154643E+01  0.55680907235E+01  0.14443310096E+02  0.17567281490E+02  0.51100000000E-03 0. -1.
<mgrwt>
<rscale>  0 0.20000239E+02</rscale>
<asrwt>0</asrwt>
<pdfrwt beam="1">  1        2 0.49480216E-02 0.20000239E+02</pdfrwt>
<pdfrwt beam="2">  1       -2 0.47835695E-03 0.20000239E+02</pdfrwt>
<totfact> 0.43711651E+06</totfact>
</mgrwt>
</event>
<event>
 5    1  0.4046313E-006  0.2000230E+02  0.7818608E-02  0.1745282E+00
         -2   -1    0    0    0  501 -0.00000000000E+00  0.00000000000E+00  0.32521411721E+01  0.32521422114E+01  0.26000000000E-02 0.  1.
          2   -1    0    0  501    0  0.00000000000E+00 -0.00000000000E+00 -0.30756035688E+02  0.30756035797E+02  0.26000000000E-02 0. -1.
       1023    2    1    2    0    0  0.00000000000E+00  0.00000000000E+00 -0.27503894515E+02  0.34008178009E+02  0.20002298817E+02 0.  0.
        -11    1    3    3    0    0 -0.97040031093E+01  0.24170432116E+01 -0.13947397872E+02  0.17162158428E+02  0.51100000000E-03 0. -1.
         11    1    3    3    0    0  0.97040031093E+01 -0.24170432116E+01 -0.13556496643E+02  0.16846019581E+02  0.51100000000E-03 0.  1.
<mgrwt>
<rscale>  0 0.20002299E+02</rscale>
<asrwt>0</asrwt>
<pdfrwt beam="2">  1        2 0.47316977E-02 0.20002299E+02</pdfrwt>
<pdfrwt beam="1">  1       -2 0.50032952E-03 0.20002299E+02</pdfrwt>
<totfact> 0.43481558E+06</totfact>
</mgrwt>
</event>
<event>
 5    1  0.4046313E-006  0.2000188E+02  0.7818608E-02  0.1745291E+00
          2   -1    0    0  501    0  0.00000000000E+00  0.00000000000E+00  0.50842653315E+01  0.50842659963E+01  0.26000000000E-02 0. -1.
         -2   -1    0    0    0  501 -0.00000000000E+00 -0.00000000000E+00 -0.19672230519E+02  0.19672230691E+02  0.26000000000E-02 0.  1.
       1023    2    1    2    0    0  0.00000000000E+00  0.00000000000E+00 -0.14587965187E+02  0.24756496687E+02  0.20001884909E+02 0.  0.
        -11    1    3    3    0    0 -0.98758987308E+01 -0.15706444478E+01 -0.71254087744E+01  0.12278914862E+02  0.51100000000E-03 0. -1.
         11    1    3    3    0    0  0.98758987308E+01  0.15706444478E+01 -0.74625564131E+01  0.12477581825E+02  0.51100000000E-03 0.  1.
<mgrwt>
<rscale>  0 0.20001885E+02</rscale>
<asrwt>0</asrwt>
<pdfrwt beam="1">  1        2 0.78219474E-03 0.20001885E+02</pdfrwt>
<pdfrwt beam="2">  1       -2 0.30264970E-02 0.20001885E+02</pdfrwt>
<totfact> 0.37477697E+06</totfact>
</mgrwt>
</event>
<event>
 5    1  0.4046313E-006  0.2000058E+02  0.7818608E-02  0.1745317E+00
          2   -1    0    0  501    0  0.00000000000E+00  0.00000000000E+00  0.34225655162E+02  0.34225655261E+02  0.26000000000E-02 0. -1.
         -2   -1    0    0    0  501 -0.00000000000E+00 -0.00000000000E+00 -0.29219522174E+01  0.29219533742E+01  0.26000000000E-02 0.  1.
       1023    2    1    2    0    0  0.00000000000E+00  0.00000000000E+00  0.31303702945E+02  0.37147608635E+02  0.20000575223E+02 0.  0.
        -11    1    3    3    0    0  0.29013747651E+01 -0.95700468514E+01  0.15569210083E+02  0.18504163725E+02  0.51100000000E-03 0. -1.
         11    1    3    3    0    0 -0.29013747651E+01  0.95700468514E+01  0.15734492862E+02  0.18643444911E+02  0.51100000000E-03 0.  1.
<mgrwt>
<rscale>  0 0.20000575E+02</rscale>
<asrwt>0</asrwt>
<pdfrwt beam="1">  1        2 0.52654857E-02 0.20000575E+02</pdfrwt>
<pdfrwt beam="2">  1       -2 0.44953119E-03 0.20000575E+02</pdfrwt>
<totfact> 0.44028166E+06</totfact>
</mgrwt>
</event>
<event>
 5    1  0.4046313E-006  0.2000026E+02  0.7818608E-02  0.1745323E+00
         -2   -1    0    0    0  501 -0.00000000000E+00  0.00000000000E+00  0.89866676601E+01  0.89866680362E+01  0.26000000000E-02 0.  1.
          2   -1    0    0  501    0  0.00000000000E+00 -0.00000000000E+00 -0.11127884875E+02  0.11127885179E+02  0.26000000000E-02 0. -1.
       1023    2    1    2    0    0  0.00000000000E+00  0.00000000000E+00 -0.21412172148E+01  0.20114553215E+02  0.20000260995E+02 0.  0.
        -11    1    3    3    0    0 -0.77090344308E+01  0.63697096405E+01 -0.10847225934E+01  0.10058779057E+02  0.51100000000E-03 0. -1.
         11    1    3    3    0    0  0.77090344308E+01 -0.63697096405E+01 -0.10564946215E+01  0.10055774158E+02  0.51100000000E-03 0.  1.
<mgrwt>
<rscale>  0 0.20000261E+02</rscale>
<asrwt>0</asrwt>
<pdfrwt beam="2">  1        2 0.17119823E-02 0.20000261E+02</pdfrwt>
<pdfrwt beam="1">  1       -2 0.13825643E-02 0.20000261E+02</pdfrwt>
<totfact> 0.39773640E+06</totfact>
</mgrwt>
</event>
<event>
 5    1  0.4046313E-006  0.2000220E+02  0.7818608E-02  0.1745284E+00
          2   -1    0    0  501    0  0.00000000000E+00  0.00000000000E+00  0.22836490186E+02  0.22836490334E+02  0.26000000000E-02 0.  1.
         -2   -1    0    0    0  501 -0.00000000000E+00 -0.00000000000E+00 -0.43799199877E+01  0.43799207594E+01  0.26000000000E-02 0. -1.
       1023    2    1    2    0    0  0.00000000000E+00  0.00000000000E+00  0.18456570198E+02  0.27216411093E+02  0.20002201112E+02 0.  0.
        -11    1    3    3    0    0  0.12357996333E+01 -0.99237175799E+01  0.90636454458E+01  0.13496556611E+02  0.51100000000E-03 0. -1.
         11    1    3    3    0    0 -0.12357996333E+01  0.99237175799E+01  0.93929247525E+01  0.13719854482E+02  0.51100000000E-03 0.  1.
<mgrwt>
<rscale>  0 0.20002201E+02</rscale>
<asrwt>0</asrwt>
<pdfrwt beam="1">  1        2 0.35133063E-02 0.20002201E+02</pdfrwt>
<pdfrwt beam="2">  1       -2 0.67383391E-03 0.20002201E+02</pdfrwt>
<totfact> 0.42175396E+06</totfact>
</mgrwt>
</event>
<event>
 5    1  0.4046313E-006  0.2000374E+02  0.7818608E-02  0.1745254E+00
         -2   -1    0    0    0  501 -0.00000000000E+00  0.00000000000E+00  0.22269090644E+01  0.22269105822E+01  0.26000000000E-02 0.  1.
          2   -1    0    0  501    0  0.00000000000E+00 -0.00000000000E+00 -0.44922049221E+02  0.44922049296E+02  0.26000000000E-02 0. -1.
       1023    2    1    2    0    0  0.00000000000E+00  0.00000000000E+00 -0.42695140157E+02  0.47148959878E+02  0.20003735267E+02 0.  0.
        -11    1    3    3    0    0 -0.27866822152E+01  0.96057598131E+01 -0.21268109277E+02  0.23502525222E+02  0.51100000000E-03 0.  1.
         11    1    3    3    0    0  0.27866822152E+01 -0.96057598131E+01 -0.21427030880E+02  0.23646434656E+02  0.51100000000E-03 0. -1.
<mgrwt>
<rscale>  0 0.20003735E+02</rscale>
<asrwt>0</asrwt>
<pdfrwt beam="2">  1        2 0.69110840E-02 0.20003735E+02</pdfrwt>
<pdfrwt beam="1">  1       -2 0.34260155E-03 0.20003735E+02</pdfrwt>
<totfact> 0.45591168E+06</totfact>
</mgrwt>
</event>
<event>
 5    1  0.4046313E-006  0.2000071E+02  0.7818608E-02  0.1745314E+00
          2   -1    0    0  501    0  0.00000000000E+00  0.00000000000E+00  0.24814269469E+02  0.24814269605E+02  0.26000000000E-02 0. -1.
         -2   -1    0    0    0  501 -0.00000000000E+00 -0.00000000000E+00 -0.40302260829E+01  0.40302269216E+01  0.26000000000E-02 0.  1.
       1023    2    1    2    0    0  0.00000000000E+00  0.00000000000E+00  0.20784043386E+02  0.28844496527E+02  0.20000712998E+02 0.  0.
        -11    1    3    3    0    0  0.92836316744E+01 -0.37176564467E+01  0.10365299861E+02  0.14402993716E+02  0.51100000000E-03 0. -1.
         11    1    3    3    0    0 -0.92836316744E+01  0.37176564467E+01  0.10418743526E+02  0.14441502811E+02  0.51100000000E-03 0.  1.
<mgrwt>
<rscale>  0 0.20000713E+02</rscale>
<asrwt>0</asrwt>
<pdfrwt beam="1">  1        2 0.38175800E-02 0.20000713E+02</pdfrwt>
<pdfrwt beam="2">  1       -2 0.62003486E-03 0.20000713E+02</pdfrwt>
<totfact> 0.42521885E+06</totfact>
</mgrwt>
</event>
<event>
 5    1  0.4046313E-006  0.2000008E+02  0.7818608E-02  0.1745327E+00
         -2   -1    0    0    0  501 -0.00000000000E+00  0.00000000000E+00  0.17950805111E+01  0.17950823940E+01  0.26000000000E-02 0. -1.
          2   -1    0    0  501    0  0.00000000000E+00 -0.00000000000E+00 -0.55708205029E+02  0.55708205089E+02  0.26000000000E-02 0.  1.
       1023    2    1    2    0    0  0.00000000000E+00  0.00000000000E+00 -0.53913124518E+02  0.57503287484E+02  0.20000076904E+02 0.  0.
        -11    1    3    3    0    0  0.73059209060E+01  0.68281873316E+01 -0.26991333422E+02  0.28784244001E+02  0.51100000000E-03 0.  1.
         11    1    3    3    0    0 -0.73059209060E+01 -0.68281873316E+01 -0.26921791095E+02  0.28719043483E+02  0.51100000000E-03 0. -1.
<mgrwt>
<rscale>  0 0.20000077E+02</rscale>
<asrwt>0</asrwt>
<pdfrwt beam="2">  1        2 0.85704919E-02 0.20000077E+02</pdfrwt>
<pdfrwt beam="1">  1       -2 0.27616642E-03 0.20000077E+02</pdfrwt>
<totfact> 0.47115869E+06</totfact>
</mgrwt>
</event>
<event>
 5    1  0.4046313E-006  0.2000080E+02  0.7818608E-02  0.1745312E+00
          2   -1    0    0  501    0  0.00000000000E+00  0.00000000000E+00  0.14402526791E+01  0.14402550259E+01  0.26000000000E-02 0.  1.
         -2   -1    0    0    0  501 -0.00000000000E+00 -0.00000000000E+00 -0.69437748472E+02  0.69437748520E+02  0.26000000000E-02 0. -1.
       1023    2    1    2    0    0  0.00000000000E+00  0.00000000000E+00 -0.67997495793E+02  0.70878003546E+02  0.20000798800E+02 0.  0.
        -11    1    3    3    0    0  0.36196746584E+00  0.99937640543E+01 -0.34142585910E+02  0.35576994157E+02  0.51100000000E-03 0. -1.
         11    1    3    3    0    0 -0.36196746584E+00 -0.99937640543E+01 -0.33854909883E+02  0.35301009389E+02  0.51100000000E-03 0.  1.
<mgrwt>
<rscale>  0 0.20000799E+02</rscale>
<asrwt>0</asrwt>
<pdfrwt beam="1">  1        2 0.22157757E-03 0.20000799E+02</pdfrwt>
<pdfrwt beam="2">  1       -2 0.10682728E-01 0.20000799E+02</pdfrwt>
<totfact> 0.32128259E+06</totfact>
</mgrwt>
</event>
<event>
 5    1  0.4046313E-006  0.2000119E+02  0.7818608E-02  0.1745304E+00
         -2   -1    0    0    0  501 -0.00000000000E+00  0.00000000000E+00  0.59976045642E+01  0.59976051278E+01  0.26000000000E-02 0. -1.
          2   -1    0    0  501    0  0.00000000000E+00 -0.00000000000E+00 -0.16675299735E+02  0.16675299937E+02  0.26000000000E-02 0.  1.
       1023    2    1    2    0    0  0.00000000000E+00  0.00000000000E+00 -0.10677695170E+02  0.22672905065E+02  0.20001186213E+02 0.  0.
        -11    1    3    3    0    0  0.69665609882E+01 -0.71743549167E+01 -0.54371605744E+01  0.11382752560E+02  0.51100000000E-03 0. -1.
         11    1    3    3    0    0 -0.69665609882E+01  0.71743549167E+01 -0.52405345960E+01  0.11290152505E+02  0.51100000000E-03 0.  1.
<mgrwt>
<rscale>  0 0.20001186E+02</rscale>
<asrwt>0</asrwt>
<pdfrwt beam="2">  1        2 0.25654308E-02 0.20001186E+02</pdfrwt>
<pdfrwt beam="1">  1       -2 0.92270846E-03 0.20001186E+02</pdfrwt>
<totfact> 0.41032455E+06</totfact>
</mgrwt>
</event>
<event>
 5    1  0.4046313E-006  0.2000099E+02  0.7818608E-02  0.1745308E+00
          2   -1    0    0  501    0  0.00000000000E+00  0.00000000000E+00  0.10360167390E+02  0.10360167717E+02  0.26000000000E-02 0.  1.
         -2   -1    0    0    0  501 -0.00000000000E+00 -0.00000000000E+00 -0.96533129455E+01  0.96533132956E+01  0.26000000000E-02 0. -1.
       1023    2    1    2    0    0  0.00000000000E+00  0.00000000000E+00  0.70685444480E+00  0.20013481012E+02  0.20000994451E+02 0.  0.
        -11    1    3    3    0    0  0.41410559053E+01 -0.91024751030E+01  0.27246019484E+00  0.10003880838E+02  0.51100000000E-03 0. -1.
         11    1    3    3    0    0 -0.41410559053E+01  0.91024751030E+01  0.43439424997E+00  0.10009600174E+02  0.51100000000E-03 0.  1.
<mgrwt>
<rscale>  0 0.20000994E+02</rscale>
<asrwt>0</asrwt>
<pdfrwt beam="1">  1        2 0.15938719E-02 0.20000994E+02</pdfrwt>
<pdfrwt beam="2">  1       -2 0.14851251E-02 0.20000994E+02</pdfrwt>
<totfact> 0.39561256E+06</totfact>
</mgrwt>
</event>
<event>
 5    1  0.4046313E-006  0.2000044E+02  0.7818608E-02  0.1745319E+00
         -2   -1    0    0    0  501 -0.00000000000E+00  0.00000000000E+00  0.12062172434E+02  0.12062172714E+02  0.26000000000E-02 0. -1.
          2   -1    0    0  501    0  0.00000000000E+00 -0.00000000000E+00 -0.82907488751E+01  0.82907492828E+01  0.26000000000E-02 0.  1.
       1023    2    1    2    0    0  0.00000000000E+00  0.00000000000E+00  0.37714235591E+01  0.20352921997E+02  0.20000444949E+02 0.  0.
        -11    1    3    3    0    0  0.88597901487E+01  0.46375931929E+01  0.18490606784E+01  0.10169669501E+02  0.51100000000E-03 0.  1.
         11    1    3    3    0    0 -0.88597901487E+01 -0.46375931929E+01  0.19223628808E+01  0.10183252497E+02  0.51100000000E-03 0. -1.
<mgrwt>
<rscale>  0 0.20000445E+02</rscale>
<asrwt>0</asrwt>
<pdfrwt beam="2">  1        2 0.12754999E-02 0.20000445E+02</pdfrwt>
<pdfrwt beam="1">  1       -2 0.18557189E-02 0.20000445E+02</pdfrwt>
<totfact> 0.38923203E+06</totfact>
</mgrwt>
</event>
<event>
 4    1  0.4046313E-006  0.2092369E+02  0.7818608E-02  0.1727560E+00
          2   -1    0    0  501    0  0.00000000000E+00  0.00000000000E+00  0.23519400097E+02  0.23519400241E+02  0.26000000000E-02 0.  1.
         -2   -1    0    0    0  501 -0.00000000000E+00 -0.00000000000E+00 -0.46536122864E+01  0.46536130127E+01  0.26000000000E-02 0. -1.
        -11    1    1    2    0    0  0.32810896519E+01  0.99118211456E+01  0.10326477626E+02  0.14684886385E+02  0.51100000000E-03 0.  1.
         11    1    1    2    0    0 -0.32810896519E+01 -0.99118211456E+01  0.85393101850E+01  0.13488126869E+02  0.51100000000E-03 0. -1.
<mgrwt>
<rscale>  0 0.20923688E+02</rscale>
<asrwt>0</asrwt>
<pdfrwt beam="1">  1        2 0.36183693E-02 0.20923688E+02</pdfrwt>
<pdfrwt beam="2">  1       -2 0.71594041E-03 0.20923688E+02</pdfrwt>
<totfact> 0.38198937E+06</totfact>
</mgrwt>
</event>
<event>
 5    1  0.4046313E-006  0.2000116E+02  0.7818608E-02  0.1745305E+00
         -2   -1    0    0    0  501 -0.00000000000E+00  0.00000000000E+00  0.12019732887E+03  0.12019732890E+03  0.26000000000E-02 0.  1.
          2   -1    0    0  501    0  0.00000000000E+00 -0.00000000000E+00 -0.83206002621E+00  0.83206408841E+00  0.26000000000E-02 0. -1.
       1023    2    1    2    0    0  0.00000000000E+00  0.00000000000E+00  0.11936526885E+03  0.12102939299E+03  0.20001163980E+02 0.  0.
        -11    1    3    3    0    0 -0.14222946651E+01  0.98988430517E+01  0.59926487678E+02  0.60755196827E+02  0.51100000000E-03 0.  1.
         11    1    3    3    0    0  0.14222946651E+01 -0.98988430517E+01  0.59438781169E+02  0.60274196162E+02  0.51100000000E-03 0. -1.
<mgrwt>
<rscale>  0 0.20001164E+02</rscale>
<asrwt>0</asrwt>
<pdfrwt beam="2">  1        2 0.12800945E-03 0.20001164E+02</pdfrwt>
<pdfrwt beam="1">  1       -2 0.18491911E-01 0.20001164E+02</pdfrwt>
<totfact> 0.28324405E+06</totfact>
</mgrwt>
</event>
<event>
 5    1  0.4046313E-006  0.2000642E+02  0.7818608E-02  0.1745200E+00
         -2   -1    0    0    0  501 -0.00000000000E+00  0.00000000000E+00  0.28673361543E+02  0.28673361661E+02  0.26000000000E-02 0. -1.
          2   -1    0    0  501    0  0.00000000000E+00 -0.00000000000E+00 -0.34897955550E+01  0.34897965235E+01  0.26000000000E-02 0.  1.
       1023    2    1    2    0    0  0.00000000000E+00  0.00000000000E+00  0.25183565988E+02  0.32163158185E+02  0.20006417684E+02 0.  0.
        -11    1    3    3    0    0  0.63452919670E+01 -0.77331311098E+01  0.12572763656E+02  0.16066687061E+02  0.51100000000E-03 0.  1.
         11    1    3    3    0    0 -0.63452919670E+01  0.77331311098E+01  0.12610802333E+02  0.16096471124E+02  0.51100000000E-03 0. -1.
<mgrwt>
<rscale>  0 0.20006418E+02</rscale>
<asrwt>0</asrwt>
<pdfrwt beam="2">  1        2 0.53689170E-03 0.20006418E+02</pdfrwt>
<pdfrwt beam="1">  1       -2 0.44112865E-02 0.20006418E+02</pdfrwt>
<totfact> 0.36204140E+06</totfact>
</mgrwt>
</event>
<event>
 5    1  0.4046313E-006  0.2001114E+02  0.7818608E-02  0.1745107E+00
         -2   -1    0    0    0  501 -0.00000000000E+00  0.00000000000E+00  0.27949458321E+02  0.27949458442E+02  0.26000000000E-02 0. -1.
          2   -1    0    0  501    0  0.00000000000E+00 -0.00000000000E+00 -0.35818713926E+01  0.35818723363E+01  0.26000000000E-02 0.  1.
       1023    2    1    2    0    0  0.00000000000E+00  0.00000000000E+00  0.24367586928E+02  0.31531330778E+02  0.20011135099E+02 0.  0.
        -11    1    3    3    0    0 -0.99670696082E+01 -0.87466268833E+00  0.12281820190E+02  0.15841420986E+02  0.51100000000E-03 0. -1.
         11    1    3    3    0    0  0.99670696082E+01  0.87466268833E+00  0.12085766738E+02  0.15689909793E+02  0.51100000000E-03 0.  1.
<mgrwt>
<rscale>  0 0.20011135E+02</rscale>
<asrwt>0</asrwt>
<pdfrwt beam="2">  1        2 0.55105720E-03 0.20011135E+02</pdfrwt>
<pdfrwt beam="1">  1       -2 0.42999169E-02 0.20011135E+02</pdfrwt>
<totfact> 0.36277238E+06</totfact>
</mgrwt>
</event>
<event>
 5    1  0.4058125E-006  0.2000109E+02  0.7818608E-02  0.1745306E+00
          2   -1    0    0  501    0  0.00000000000E+00  0.00000000000E+00  0.75826363139E+02  0.75826363183E+02  0.26000000000E-02 0. -1.
         -2   -1    0    0    0  501 -0.00000000000E+00 -0.00000000000E+00 -0.13189446163E+01  0.13189471790E+01  0.26000000000E-02 0.  1.
       1023    2    1    2    0    0  0.00000000000E+00  0.00000000000E+00  0.74507418522E+02  0.77145310362E+02  0.20001087371E+02 0.  0.
        -11    1    3    3    0    0  0.54441454162E+01 -0.83883953499E+01  0.36931514947E+02  0.38261477918E+02  0.51100000000E-03 0.  1.
         11    1    3    3    0    0 -0.54441454162E+01  0.83883953499E+01  0.37575903575E+02  0.38883832445E+02  0.51100000000E-03 0. -1.
<mgrwt>
<rscale>  0 0.20001087E+02</rscale>
<asrwt>0</asrwt>
<pdfrwt beam="1">  1        2 0.11665594E-01 0.20001087E+02</pdfrwt>
<pdfrwt beam="2">  1       -2 0.20291477E-03 0.20001087E+02</pdfrwt>
<totfact> 0.49764183E+06</totfact>
</mgrwt>
</event>
<event>
 5    1  0.4046313E-006  0.2000100E+02  0.7818608E-02  0.1745308E+00
         -2   -1    0    0    0  501 -0.00000000000E+00  0.00000000000E+00  0.39507789746E+02  0.39507789831E+02  0.26000000000E-02 0.  1.
          2   -1    0    0  501    0  0.00000000000E+00 -0.00000000000E+00 -0.25313979539E+01  0.25313992892E+01  0.26000000000E-02 0. -1.
       1023    2    1    2    0    0  0.00000000000E+00  0.00000000000E+00  0.36976391792E+02  0.42039189120E+02  0.20000996774E+02 0.  0.
        -11    1    3    3    0    0  0.81546442486E+01 -0.57888724160E+01  0.18543847843E+02  0.21068544320E+02  0.51100000000E-03 0. -1.
         11    1    3    3    0    0 -0.81546442486E+01  0.57888724160E+01  0.18432543949E+02  0.20970644801E+02  0.51100000000E-03 0.  1.
<mgrwt>
<rscale>  0 0.20000997E+02</rscale>
<asrwt>0</asrwt>
<pdfrwt beam="2">  1        2 0.38944596E-03 0.20000997E+02</pdfrwt>
<pdfrwt beam="1">  1       -2 0.60781214E-02 0.20000997E+02</pdfrwt>
<totfact> 0.34969665E+06</totfact>
</mgrwt>
</event>
<event>
 5    1  0.4250016E-006  0.2000198E+02  0.7818608E-02  0.1745289E+00
          2   -1    0    0  501    0  0.00000000000E+00  0.00000000000E+00  0.95513379781E+02  0.95513379816E+02  0.26000000000E-02 0.  1.
         -2   -1    0    0    0  501 -0.00000000000E+00 -0.00000000000E+00 -0.10471799107E+01  0.10471831385E+01  0.26000000000E-02 0. -1.
       1023    2    1    2    0    0  0.00000000000E+00  0.00000000000E+00  0.94466199870E+02  0.96560562954E+02  0.20001984907E+02 0.  0.
        -11    1    3    3    0    0 -0.24851098456E+01 -0.96872745787E+01  0.47368795123E+02  0.48413033486E+02  0.51100000000E-03 0. -1.
         11    1    3    3    0    0  0.24851098456E+01  0.96872745787E+01  0.47097404747E+02  0.48147529468E+02  0.51100000000E-03 0.  1.
<mgrwt>
<rscale>  0 0.20001985E+02</rscale>
<asrwt>0</asrwt>
<pdfrwt beam="1">  1        2 0.14694365E-01 0.20001985E+02</pdfrwt>
<pdfrwt beam="2">  1       -2 0.16110487E-03 0.20001985E+02</pdfrwt>
<totfact> 0.52206113E+06</totfact>
</mgrwt>
</event>
<event>
 4    1  0.4046313E-006  0.2003481E+02  0.7818608E-02  0.1744637E+00
         -2   -1    0    0    0  501 -0.00000000000E+00  0.00000000000E+00  0.90169413007E+00  0.90169787856E+00  0.26000000000E-02 0.  1.
          2   -1    0    0  501    0  0.00000000000E+00 -0.00000000000E+00 -0.11128852265E+03  0.11128852268E+03  0.26000000000E-02 0. -1.
        -11    1    1    2    0    0  0.84009008753E+00  0.99752449649E+01 -0.53119566186E+02  0.54054598098E+02  0.51100000000E-03 0. -1.
         11    1    1    2    0    0 -0.84009008753E+00 -0.99752449649E+01 -0.57267262338E+02  0.58135622465E+02  0.51100000000E-03 0.  1.
<mgrwt>
<rscale>  0 0.20034812E+02</rscale>
<asrwt>0</asrwt>
<pdfrwt beam="2">  1        2 0.17121301E-01 0.20034812E+02</pdfrwt>
<pdfrwt beam="1">  1       -2 0.13872255E-03 0.20034812E+02</pdfrwt>
<totfact> 0.53882758E+06</totfact>
</mgrwt>
</event>
<event>
 5    1  0.4046313E-006  0.2000135E+02  0.7818608E-02  0.1745301E+00
          2   -1    0    0  501    0  0.00000000000E+00  0.00000000000E+00  0.33012999588E+01  0.33013009826E+01  0.26000000000E-02 0.  1.
         -2   -1    0    0    0  501 -0.00000000000E+00 -0.00000000000E+00 -0.30295168854E+02  0.30295168966E+02  0.26000000000E-02 0. -1.
       1023    2    1    2    0    0  0.00000000000E+00  0.00000000000E+00 -0.26993868896E+02  0.33596469949E+02  0.20001345831E+02 0.  0.
        -11    1    3    3    0    0 -0.97859064367E+01 -0.20583413533E+01 -0.13307457539E+02  0.16645995324E+02  0.51100000000E-03 0. -1.
         11    1    3    3    0    0  0.97859064367E+01  0.20583413533E+01 -0.13686411357E+02  0.16950474625E+02  0.51100000000E-03 0.  1.
<mgrwt>
<rscale>  0 0.20001346E+02</rscale>
<asrwt>0</asrwt>
<pdfrwt beam="1">  1        2 0.50789241E-03 0.20001346E+02</pdfrwt>
<pdfrwt beam="2">  1       -2 0.46607951E-02 0.20001346E+02</pdfrwt>
<totfact> 0.36022835E+06</totfact>
</mgrwt>
</event>
<event>
 5    1  0.4046313E-006  0.2000344E+02  0.7818608E-02  0.1745260E+00
         -2   -1    0    0    0  501 -0.00000000000E+00  0.00000000000E+00  0.11635430800E+03  0.11635430803E+03  0.26000000000E-02 0. -1.
          2   -1    0    0  501    0  0.00000000000E+00 -0.00000000000E+00 -0.85973797995E+00  0.85974191137E+00  0.26000000000E-02 0.  1.
       1023    2    1    2    0    0  0.00000000000E+00  0.00000000000E+00  0.11549457002E+03  0.11721404994E+03  0.20003444687E+02 0.  0.
        -11    1    3    3    0    0 -0.23515117444E+01  0.97207854354E+01  0.57127912225E+02  0.57996738119E+02  0.51100000000E-03 0.  1.
         11    1    3    3    0    0  0.23515117444E+01 -0.97207854354E+01  0.58366657799E+02  0.59217311825E+02  0.51100000000E-03 0. -1.
<mgrwt>
<rscale>  0 0.20003445E+02</rscale>
<asrwt>0</asrwt>
<pdfrwt beam="2">  1        2 0.13226771E-03 0.20003445E+02</pdfrwt>
<pdfrwt beam="1">  1       -2 0.17900660E-01 0.20003445E+02</pdfrwt>
<totfact> 0.28574569E+06</totfact>
</mgrwt>
</event>
<event>
 5    1  0.4046313E-006  0.2000049E+02  0.7818608E-02  0.1745318E+00
          2   -1    0    0  501    0  0.00000000000E+00  0.00000000000E+00  0.32428008766E+01  0.32428019189E+01  0.26000000000E-02 0. -1.
         -2   -1    0    0    0  501 -0.00000000000E+00 -0.00000000000E+00 -0.30839050784E+02  0.30839050893E+02  0.26000000000E-02 0.  1.
       1023    2    1    2    0    0  0.00000000000E+00  0.00000000000E+00 -0.27596249907E+02  0.34081852812E+02  0.20000492049E+02 0.  0.
        -11    1    3    3    0    0  0.18765119106E+01 -0.98225883009E+01 -0.13831448007E+02  0.17067908252E+02  0.51100000000E-03 0. -1.
         11    1    3    3    0    0 -0.18765119106E+01  0.98225883009E+01 -0.13764801900E+02  0.17013944560E+02  0.51100000000E-03 0.  1.
<mgrwt>
<rscale>  0 0.20000492E+02</rscale>
<asrwt>0</asrwt>
<pdfrwt beam="1">  1        2 0.49889255E-03 0.20000492E+02</pdfrwt>
<pdfrwt beam="2">  1       -2 0.47444692E-02 0.20000492E+02</pdfrwt>
<totfact> 0.35959918E+06</totfact>
</mgrwt>
</event>
<event>
 4    1  0.4046313E-006  0.2002138E+02  0.7818608E-02  0.1744903E+00
          2   -1    0    0  501    0  0.00000000000E+00  0.00000000000E+00  0.14205463035E+01  0.14205486828E+01  0.26000000000E-02 0.  1.
         -2   -1    0    0    0  501 -0.00000000000E+00 -0.00000000000E+00 -0.70545979981E+02  0.70545980029E+02  0.26000000000E-02 0. -1.
        -11    1    1    2    0    0  0.53574366831E+01  0.84561335186E+01 -0.34831613729E+02  0.36241545733E+02  0.51100000000E-03 0. -1.
         11    1    1    2    0    0 -0.53574366831E+01 -0.84561335186E+01 -0.34293819949E+02  0.35724982979E+02  0.51100000000E-03 0.  1.
<mgrwt>
<rscale>  0 0.20021380E+02</rscale>
<asrwt>0</asrwt>
<pdfrwt beam="1">  1        2 0.21854583E-03 0.20021380E+02</pdfrwt>
<pdfrwt beam="2">  1       -2 0.10853225E-01 0.20021380E+02</pdfrwt>
<totfact> 0.31962258E+06</totfact>
</mgrwt>
</event>
<event>
 5    1  0.4408601E-006  0.2000131E+02  0.7818608E-02  0.1745302E+00
          2   -1    0    0  501    0  0.00000000000E+00  0.00000000000E+00  0.10018320062E+03  0.10018320065E+03  0.26000000000E-02 0.  1.
         -2   -1    0    0    0  501 -0.00000000000E+00 -0.00000000000E+00 -0.99830025147E+00  0.99830363721E+00  0.26000000000E-02 0. -1.
       1023    2    1    2    0    0  0.00000000000E+00  0.00000000000E+00  0.99184900367E+02  0.10118150429E+03  0.20001308694E+02 0.  0.
        -11    1    3    3    0    0  0.81265604696E+01  0.58283550288E+01  0.49839226461E+02  0.50832658812E+02  0.51100000000E-03 0. -1.
         11    1    3    3    0    0 -0.81265604696E+01 -0.58283550288E+01  0.49345673906E+02  0.50348845478E+02  0.51100000000E-03 0.  1.
<mgrwt>
<rscale>  0 0.20001309E+02</rscale>
<asrwt>0</asrwt>
<pdfrwt beam="1">  1        2 0.15412797E-01 0.20001309E+02</pdfrwt>
<pdfrwt beam="2">  1       -2 0.15358495E-03 0.20001309E+02</pdfrwt>
<totfact> 0.52772267E+06</totfact>
</mgrwt>
</event>
<event>
 5    1  0.4046313E-006  0.2000201E+02  0.7818608E-02  0.1745288E+00
         -2   -1    0    0    0  501 -0.00000000000E+00  0.00000000000E+00  0.12330035058E+02  0.12330035332E+02  0.26000000000E-02 0.  1.
          2   -1    0    0  501    0  0.00000000000E+00 -0.00000000000E+00 -0.81119050696E+01  0.81119054862E+01  0.26000000000E-02 0. -1.
       1023    2    1    2    0    0  0.00000000000E+00  0.00000000000E+00  0.42181299886E+01  0.20441940819E+02  0.20002007995E+02 0.  0.
        -11    1    3    3    0    0  0.17111540341E+01  0.98535223316E+01  0.20974022075E+01  0.10218563830E+02  0.51100000000E-03 0.  1.
         11    1    3    3    0    0 -0.17111540341E+01 -0.98535223316E+01  0.21207277811E+01  0.10223376989E+02  0.51100000000E-03 0. -1.
<mgrwt>
<rscale>  0 0.20002008E+02</rscale>
<asrwt>0</asrwt>
<pdfrwt beam="2">  1        2 0.12479855E-02 0.20002008E+02</pdfrwt>
<pdfrwt beam="1">  1       -2 0.18969285E-02 0.20002008E+02</pdfrwt>
<totfact> 0.38853848E+06</totfact>
</mgrwt>
</event>
<event>
 5    1  0.4046313E-006  0.2000333E+02  0.7818608E-02  0.1745262E+00
         -2   -1    0    0    0  501 -0.00000000000E+00  0.00000000000E+00  0.11636467038E+02  0.11636467328E+02  0.26000000000E-02 0. -1.
          2   -1    0    0  501    0  0.00000000000E+00 -0.00000000000E+00 -0.85965352211E+01  0.85965356143E+01  0.26000000000E-02 0.  1.
       1023    2    1    2    0    0  0.00000000000E+00  0.00000000000E+00  0.30399318169E+01  0.20233002943E+02  0.20003330288E+02 0.  0.
        -11    1    3    3    0    0  0.30999532374E+00 -0.99967803882E+01  0.15603006405E+01  0.10122561612E+02  0.51100000000E-03 0.  1.
         11    1    3    3    0    0 -0.30999532374E+00  0.99967803882E+01  0.14796311764E+01  0.10110441331E+02  0.51100000000E-03 0. -1.
<mgrwt>
<rscale>  0 0.20003330E+02</rscale>
<asrwt>0</asrwt>
<pdfrwt beam="2">  1        2 0.13225439E-02 0.20003330E+02</pdfrwt>
<pdfrwt beam="1">  1       -2 0.17902258E-02 0.20003330E+02</pdfrwt>
<totfact> 0.39013906E+06</totfact>
</mgrwt>
</event>
<event>
 5    1  0.4046313E-006  0.2000234E+02  0.7818608E-02  0.1745282E+00
         -2   -1    0    0    0  501 -0.00000000000E+00  0.00000000000E+00  0.73880760588E+01  0.73880765163E+01  0.26000000000E-02 0. -1.
          2   -1    0    0  501    0  0.00000000000E+00 -0.00000000000E+00 -0.13538491849E+02  0.13538492099E+02  0.26000000000E-02 0.  1.
       1023    2    1    2    0    0  0.00000000000E+00  0.00000000000E+00 -0.61504157904E+01  0.20926568615E+02  0.20002341353E+02 0.  0.
        -11    1    3    3    0    0 -0.82001759742E+00 -0.99672957019E+01 -0.31413937418E+01  0.10482736636E+02  0.51100000000E-03 0. -1.
         11    1    3    3    0    0  0.82001759742E+00  0.99672957019E+01 -0.30090220485E+01  0.10443831980E+02  0.51100000000E-03 0.  1.
<mgrwt>
<rscale>  0 0.20002341E+02</rscale>
<asrwt>0</asrwt>
<pdfrwt beam="2">  1        2 0.20828449E-02 0.20002341E+02</pdfrwt>
<pdfrwt beam="1">  1       -2 0.11366271E-02 0.20002341E+02</pdfrwt>
<totfact> 0.40355312E+06</totfact>
</mgrwt>
</event>
<event>
 5    1  0.4046313E-006  0.2000057E+02  0.7818608E-02  0.1745317E+00
         -2   -1    0    0    0  501 -0.00000000000E+00  0.00000000000E+00  0.19277353956E+02  0.19277354131E+02  0.26000000000E-02 0. -1.
          2   -1    0    0  501    0  0.00000000000E+00 -0.00000000000E+00 -0.51877292057E+01  0.51877298573E+01  0.26000000000E-02 0.  1.
       1023    2    1    2    0    0  0.00000000000E+00  0.00000000000E+00  0.14089624750E+02  0.24465083989E+02  0.20000570216E+02 0.  0.
        -11    1    3    3    0    0  0.91020354832E+01  0.41416854979E+01  0.69575146162E+01  0.12182266562E+02  0.51100000000E-03 0.  1.
         11    1    3    3    0    0 -0.91020354832E+01 -0.41416854979E+01  0.71321101342E+01  0.12282817426E+02  0.51100000000E-03 0. -1.
<mgrwt>
<rscale>  0 0.20000570E+02</rscale>
<asrwt>0</asrwt>
<pdfrwt beam="2">  1        2 0.79811226E-03 0.20000570E+02</pdfrwt>
<pdfrwt beam="1">  1       -2 0.29657468E-02 0.20000570E+02</pdfrwt>
<totfact> 0.37545818E+06</totfact>
</mgrwt>
</event>
<event>
 5    1  0.4060787E-006  0.2000241E+02  0.7818608E-02  0.1745280E+00
         -2   -1    0    0    0  501 -0.00000000000E+00  0.00000000000E+00  0.17258354503E+01  0.17258374088E+01  0.26000000000E-02 0. -1.
          2   -1    0    0  501    0  0.00000000000E+00 -0.00000000000E+00 -0.57956905308E+02  0.57956905366E+02  0.26000000000E-02 0.  1.
       1023    2    1    2    0    0  0.00000000000E+00  0.00000000000E+00 -0.56231069857E+02  0.59682742775E+02  0.20002414050E+02 0.  0.
        -11    1    3    3    0    0 -0.87323973843E+01  0.48750390575E+01 -0.28288794574E+02  0.30004610789E+02  0.51100000000E-03 0.  1.
         11    1    3    3    0    0  0.87323973843E+01 -0.48750390575E+01 -0.27942275284E+02  0.29678131986E+02  0.51100000000E-03 0. -1.
<mgrwt>
<rscale>  0 0.20002414E+02</rscale>
<asrwt>0</asrwt>
<pdfrwt beam="2">  1        2 0.89164456E-02 0.20002414E+02</pdfrwt>
<pdfrwt beam="1">  1       -2 0.26551335E-03 0.20002414E+02</pdfrwt>
<totfact> 0.47409190E+06</totfact>
</mgrwt>
</event>
<event>
 5    1  0.4046313E-006  0.2000624E+02  0.7818608E-02  0.1745204E+00
          2   -1    0    0  501    0  0.00000000000E+00  0.00000000000E+00  0.12081084948E+01  0.12081112925E+01  0.26000000000E-02 0. -1.
         -2   -1    0    0    0  501 -0.00000000000E+00 -0.00000000000E+00 -0.82825572606E+02  0.82825572646E+02  0.26000000000E-02 0.  1.
       1023    2    1    2    0    0  0.00000000000E+00  0.00000000000E+00 -0.81617464111E+02  0.84033683939E+02  0.20006238739E+02 0.  0.
        -11    1    3    3    0    0  0.91544179986E+01 -0.40274046594E+01 -0.39978802876E+02  0.41210775737E+02  0.51100000000E-03 0.  1.
         11    1    3    3    0    0 -0.91544179986E+01  0.40274046594E+01 -0.41638661235E+02  0.42822908202E+02  0.51100000000E-03 0. -1.
<mgrwt>
<rscale>  0 0.20006239E+02</rscale>
<asrwt>0</asrwt>
<pdfrwt beam="1">  1        2 0.18586313E-03 0.20006239E+02</pdfrwt>
<pdfrwt beam="2">  1       -2 0.12742392E-01 0.20006239E+02</pdfrwt>
<totfact> 0.31011745E+06</totfact>
</mgrwt>
</event>
<event>
 5    1  0.4046313E-006  0.2000046E+02  0.7818608E-02  0.1745319E+00
         -2   -1    0    0    0  501 -0.00000000000E+00  0.00000000000E+00  0.20127359925E+01  0.20127376718E+01  0.26000000000E-02 0.  1.
          2   -1    0    0  501    0  0.00000000000E+00 -0.00000000000E+00 -0.49685862415E+02  0.49685862483E+02  0.26000000000E-02 0. -1.
       1023    2    1    2    0    0  0.00000000000E+00  0.00000000000E+00 -0.47673126423E+02  0.51698600155E+02  0.20000456872E+02 0.  0.
        -11    1    3    3    0    0 -0.76304572045E+01  0.64634455461E+01 -0.24011171821E+02  0.26010312916E+02  0.51100000000E-03 0.  1.
         11    1    3    3    0    0  0.76304572045E+01 -0.64634455461E+01 -0.23661954601E+02  0.25688287240E+02  0.51100000000E-03 0. -1.
<mgrwt>
<rscale>  0 0.20000457E+02</rscale>
<asrwt>0</asrwt>
<pdfrwt beam="2">  1        2 0.76439780E-02 0.20000457E+02</pdfrwt>
<pdfrwt beam="1">  1       -2 0.30965186E-03 0.20000457E+02</pdfrwt>
<totfact> 0.46281828E+06</totfact>
</mgrwt>
</event>
<event>
 5    1  0.4046313E-006  0.2000257E+02  0.7818608E-02  0.1745277E+00
          2   -1    0    0  501    0  0.00000000000E+00  0.00000000000E+00  0.37973561260E+01  0.37973570161E+01  0.26000000000E-02 0. -1.
         -2   -1    0    0    0  501 -0.00000000000E+00 -0.00000000000E+00 -0.26340880275E+02  0.26340880403E+02  0.26000000000E-02 0.  1.
       1023    2    1    2    0    0  0.00000000000E+00  0.00000000000E+00 -0.22543524149E+02  0.30138237419E+02  0.20002571677E+02 0.  0.
        -11    1    3    3    0    0 -0.59989725420E+01  0.80014217627E+01 -0.11085413395E+02  0.14929729140E+02  0.51100000000E-03 0.  1.
         11    1    3    3    0    0  0.59989725420E+01 -0.80014217627E+01 -0.11458110753E+02  0.15208508279E+02  0.51100000000E-03 0. -1.
<mgrwt>
<rscale>  0 0.20002572E+02</rscale>
<asrwt>0</asrwt>
<pdfrwt beam="1">  1        2 0.58420873E-03 0.20002572E+02</pdfrwt>
<pdfrwt beam="2">  1       -2 0.40524431E-02 0.20002572E+02</pdfrwt>
<totfact> 0.36519517E+06</totfact>
</mgrwt>
</event>
<event>
 5    1  0.4113117E-006  0.2000075E+02  0.7818608E-02  0.1745313E+00
          2   -1    0    0  501    0  0.00000000000E+00  0.00000000000E+00  0.70039843089E+02  0.70039843137E+02  0.26000000000E-02 0.  1.
         -2   -1    0    0    0  501 -0.00000000000E+00 -0.00000000000E+00 -0.14278642588E+01  0.14278666259E+01  0.26000000000E-02 0. -1.
       1023    2    1    2    0    0  0.00000000000E+00  0.00000000000E+00  0.68611978830E+02  0.71467709763E+02  0.20000747481E+02 0.  0.
        -11    1    3    3    0    0  0.88103097462E+01 -0.47310308804E+01  0.34510124174E+02  0.35929832755E+02  0.51100000000E-03 0.  1.
         11    1    3    3    0    0 -0.88103097462E+01  0.47310308804E+01  0.34101854656E+02  0.35537877008E+02  0.51100000000E-03 0. -1.
<mgrwt>
<rscale>  0 0.20000747E+02</rscale>
<asrwt>0</asrwt>
<pdfrwt beam="1">  1        2 0.10775361E-01 0.20000747E+02</pdfrwt>
<pdfrwt beam="2">  1       -2 0.21967161E-03 0.20000747E+02</pdfrwt>
<totfact> 0.49020940E+06</totfact>
</mgrwt>
</event>
<event>
 5    1  0.4352195E-006  0.2000168E+02  0.7818608E-02  0.1745295E+00
         -2   -1    0    0    0  501 -0.00000000000E+00  0.00000000000E+00  0.10418881945E+01  0.10418914386E+01  0.26000000000E-02 0.  1.
          2   -1    0    0  501    0  0.00000000000E+00 -0.00000000000E+00 -0.95995555591E+02  0.95995555626E+02  0.26000000000E-02 0. -1.
       1023    2    1    2    0    0  0.00000000000E+00  0.00000000000E+00 -0.94953667396E+02  0.97037447065E+02  0.20001679450E+02 0.  0.
        -11    1    3    3    0    0 -0.96392841408E+01 -0.26629692098E+01 -0.47951959852E+02  0.48983646839E+02  0.51100000000E-03 0.  1.
         11    1    3    3    0    0  0.96392841408E+01  0.26629692098E+01 -0.47001707545E+02  0.48053800226E+02  0.51100000000E-03 0. -1.
<mgrwt>
<rscale>  0 0.20001679E+02</rscale>
<asrwt>0</asrwt>
<pdfrwt beam="2">  1        2 0.14768540E-01 0.20001679E+02</pdfrwt>
<pdfrwt beam="1">  1       -2 0.16029082E-03 0.20001679E+02</pdfrwt>
<totfact> 0.52266238E+06</totfact>
</mgrwt>
</event>
<event>
 5    1  0.4046313E-006  0.2000021E+02  0.7818608E-02  0.1745324E+00
         -2   -1    0    0    0  501 -0.00000000000E+00  0.00000000000E+00  0.16639440897E+01  0.16639461211E+01  0.26000000000E-02 0.  1.
          2   -1    0    0  501    0  0.00000000000E+00 -0.00000000000E+00 -0.60099414788E+02  0.60099414844E+02  0.26000000000E-02 0. -1.
       1023    2    1    2    0    0  0.00000000000E+00  0.00000000000E+00 -0.58435470698E+02  0.61763360965E+02  0.20000213049E+02 0.  0.
        -11    1    3    3    0    0  0.99030158741E+01  0.13900891558E+01 -0.29241450742E+02  0.30904118059E+02  0.51100000000E-03 0.  1.
         11    1    3    3    0    0 -0.99030158741E+01 -0.13900891558E+01 -0.29194019956E+02  0.30859242906E+02  0.51100000000E-03 0. -1.
<mgrwt>
<rscale>  0 0.20000213E+02</rscale>
<asrwt>0</asrwt>
<pdfrwt beam="2">  1        2 0.92460623E-02 0.20000213E+02</pdfrwt>
<pdfrwt beam="1">  1       -2 0.25599160E-03 0.20000213E+02</pdfrwt>
<totfact> 0.47709969E+06</totfact>
</mgrwt>
</event>
<event>
 5    1  0.4046313E-006  0.2000042E+02  0.7818608E-02  0.1745320E+00
         -2   -1    0    0    0  501 -0.00000000000E+00  0.00000000000E+00  0.88364255862E+02  0.88364255900E+02  0.26000000000E-02 0. -1.
          2   -1    0    0  501    0  0.00000000000E+00 -0.00000000000E+00 -0.11317250271E+01  0.11317280136E+01  0.26000000000E-02 0.  1.
       1023    2    1    2    0    0  0.00000000000E+00  0.00000000000E+00  0.87232530835E+02  0.89495983914E+02  0.20000417517E+02 0.  0.
        -11    1    3    3    0    0  0.75419759724E+01 -0.65665599008E+01  0.43863973924E+02  0.44989435640E+02  0.51100000000E-03 0. -1.
         11    1    3    3    0    0 -0.75419759724E+01  0.65665599008E+01  0.43368556911E+02  0.44506548274E+02  0.51100000000E-03 0.  1.
<mgrwt>
<rscale>  0 0.20000418E+02</rscale>
<asrwt>0</asrwt>
<pdfrwt beam="2">  1        2 0.17411181E-03 0.20000418E+02</pdfrwt>
<pdfrwt beam="1">  1       -2 0.13594498E-01 0.20000418E+02</pdfrwt>
<totfact> 0.30599267E+06</totfact>
</mgrwt>
</event>
<event>
 4    1  0.4046313E-006  0.2004072E+02  0.7818608E-02  0.1744520E+00
         -2   -1    0    0    0  501 -0.00000000000E+00  0.00000000000E+00  0.32771989093E+02  0.32771989196E+02  0.26000000000E-02 0. -1.
          2   -1    0    0  501    0  0.00000000000E+00 -0.00000000000E+00 -0.30638235784E+01  0.30638246816E+01  0.26000000000E-02 0.  1.
        -11    1    1    2    0    0 -0.92342238891E+01 -0.38717781838E+01  0.14170697975E+02  0.17351375695E+02  0.51100000000E-03 0.  1.
         11    1    1    2    0    0  0.92342238891E+01  0.38717781838E+01  0.15537467540E+02  0.18484438183E+02  0.51100000000E-03 0. -1.
<mgrwt>
<rscale>  0 0.20040720E+02</rscale>
<asrwt>0</asrwt>
<pdfrwt beam="2">  1        2 0.47135757E-03 0.20040720E+02</pdfrwt>
<pdfrwt beam="1">  1       -2 0.50418445E-02 0.20040720E+02</pdfrwt>
<totfact> 0.35572751E+06</totfact>
</mgrwt>
</event>
<event>
 5    1  0.4046313E-006  0.2000282E+02  0.7818608E-02  0.1745272E+00
         -2   -1    0    0    0  501 -0.00000000000E+00  0.00000000000E+00  0.31199398524E+02  0.31199398632E+02  0.26000000000E-02 0.  1.
          2   -1    0    0  501    0  0.00000000000E+00 -0.00000000000E+00 -0.32060923626E+01  0.32060934169E+01  0.26000000000E-02 0. -1.
       1023    2    1    2    0    0  0.00000000000E+00  0.00000000000E+00  0.27993306161E+02  0.34405492049E+02  0.20002817134E+02 0.  0.
        -11    1    3    3    0    0  0.92807607049E+01  0.37249762815E+01  0.14241148908E+02  0.17401674921E+02  0.51100000000E-03 0.  1.
         11    1    3    3    0    0 -0.92807607049E+01 -0.37249762815E+01  0.13752157253E+02  0.17003817128E+02  0.51100000000E-03 0. -1.
<mgrwt>
<rscale>  0 0.20002817E+02</rscale>
<asrwt>0</asrwt>
<pdfrwt beam="2">  1        2 0.49324507E-03 0.20002817E+02</pdfrwt>
<pdfrwt beam="1">  1       -2 0.47999075E-02 0.20002817E+02</pdfrwt>
<totfact> 0.35907234E+06</totfact>
</mgrwt>
</event>
<event>
 4    1  0.4046313E-006  0.2001763E+02  0.7818608E-02  0.1744978E+00
          2   -1    0    0  501    0  0.00000000000E+00  0.00000000000E+00  0.20114945208E+02  0.20114945376E+02  0.26000000000E-02 0. -1.
         -2   -1    0    0    0  501 -0.00000000000E+00 -0.00000000000E+00 -0.49801955403E+01  0.49801962190E+01  0.26000000000E-02 0.  1.
        -11    1    1    2    0    0 -0.44233206413E+01 -0.89783302062E+01  0.75500040305E+01  0.12537094556E+02  0.51100000000E-03 0.  1.
         11    1    1    2    0    0  0.44233206413E+01  0.89783302062E+01  0.75847456371E+01  0.12558047039E+02  0.51100000000E-03 0. -1.
<mgrwt>
<rscale>  0 0.20017629E+02</rscale>
<asrwt>0</asrwt>
<pdfrwt beam="1">  1        2 0.30946070E-02 0.20017629E+02</pdfrwt>
<pdfrwt beam="2">  1       -2 0.76618399E-03 0.20017629E+02</pdfrwt>
<totfact> 0.41616415E+06</totfact>
</mgrwt>
</event>
<event>
 5    1  0.4046313E-006  0.2000163E+02  0.7818608E-02  0.1745296E+00
          2   -1    0    0  501    0  0.00000000000E+00  0.00000000000E+00  0.33376749098E+01  0.33376759225E+01  0.26000000000E-02 0. -1.
         -2   -1    0    0    0  501 -0.00000000000E+00 -0.00000000000E+00 -0.29965858125E+02  0.29965858238E+02  0.26000000000E-02 0.  1.
       1023    2    1    2    0    0  0.00000000000E+00  0.00000000000E+00 -0.26628183215E+02  0.33303534160E+02  0.20001631089E+02 0.  0.
        -11    1    3    3    0    0 -0.20557689624E+01 -0.97872406599E+01 -0.13325327096E+02  0.16660750530E+02  0.51100000000E-03 0. -1.
         11    1    3    3    0    0  0.20557689624E+01  0.97872406599E+01 -0.13302856119E+02  0.16642783630E+02  0.51100000000E-03 0.  1.
<mgrwt>
<rscale>  0 0.20001631E+02</rscale>
<asrwt>0</asrwt>
<pdfrwt beam="1">  1        2 0.51348855E-03 0.20001631E+02</pdfrwt>
<pdfrwt beam="2">  1       -2 0.46101319E-02 0.20001631E+02</pdfrwt>
<totfact> 0.36062131E+06</totfact>
</mgrwt>
</event>
<event>
 5    1  0.4046313E-006  0.2000191E+02  0.7818608E-02  0.1745290E+00
         -2   -1    0    0    0  501 -0.00000000000E+00  0.00000000000E+00  0.78614026286E+02  0.78614026329E+02  0.26000000000E-02 0. -1.
          2   -1    0    0  501    0  0.00000000000E+00 -0.00000000000E+00 -0.12722793757E+01  0.12722820324E+01  0.26000000000E-02 0.  1.
       1023    2    1    2    0    0  0.00000000000E+00  0.00000000000E+00  0.77341746911E+02  0.79886308362E+02  0.20001911121E+02 0.  0.
        -11    1    3    3    0    0  0.96006780021E+01 -0.27981766529E+01  0.38160943702E+02  0.39449466855E+02  0.51100000000E-03 0. -1.
         11    1    3    3    0    0 -0.96006780021E+01  0.27981766529E+01  0.39180803209E+02  0.40436841507E+02  0.51100000000E-03 0.  1.
<mgrwt>
<rscale>  0 0.20001911E+02</rscale>
<asrwt>0</asrwt>
<pdfrwt beam="2">  1        2 0.19573544E-03 0.20001911E+02</pdfrwt>
<pdfrwt beam="1">  1       -2 0.12094469E-01 0.20001911E+02</pdfrwt>
<totfact> 0.31362908E+06</totfact>
</mgrwt>
</event>
<event>
 5    1  0.4046313E-006  0.2000011E+02  0.7818608E-02  0.1745326E+00
          2   -1    0    0  501    0  0.00000000000E+00  0.00000000000E+00  0.75591889269E+01  0.75591893740E+01  0.26000000000E-02 0. -1.
         -2   -1    0    0    0  501 -0.00000000000E+00 -0.00000000000E+00 -0.13229081309E+02  0.13229081564E+02  0.26000000000E-02 0.  1.
       1023    2    1    2    0    0  0.00000000000E+00  0.00000000000E+00 -0.56698923821E+01  0.20788270938E+02  0.20000113224E+02 0.  0.
        -11    1    3    3    0    0 -0.99550621335E+01 -0.94743906466E+00 -0.28506795179E+01  0.10398426652E+02  0.51100000000E-03 0. -1.
         11    1    3    3    0    0  0.99550621335E+01  0.94743906466E+00 -0.28192128642E+01  0.10389844286E+02  0.51100000000E-03 0.  1.
<mgrwt>
<rscale>  0 0.20000113E+02</rscale>
<asrwt>0</asrwt>
<pdfrwt beam="1">  1        2 0.11629522E-02 0.20000113E+02</pdfrwt>
<pdfrwt beam="2">  1       -2 0.20352433E-02 0.20000113E+02</pdfrwt>
<totfact> 0.38660140E+06</totfact>
</mgrwt>
</event>
<event>
 5    1  0.4046313E-006  0.2000005E+02  0.7818608E-02  0.1745327E+00
          2   -1    0    0  501    0  0.00000000000E+00  0.00000000000E+00  0.12000325872E+03  0.12000325875E+03  0.26000000000E-02 0.  1.
         -2   -1    0    0    0  501 -0.00000000000E+00 -0.00000000000E+00 -0.83331301563E+00  0.83331707172E+00  0.26000000000E-02 0. -1.
       1023    2    1    2    0    0  0.00000000000E+00  0.00000000000E+00  0.11916994570E+03  0.12083657582E+03  0.20000052417E+02 0.  0.
        -11    1    3    3    0    0 -0.89922412683E+01  0.43749255480E+01  0.59511637319E+02  0.60345963852E+02  0.51100000000E-03 0. -1.
         11    1    3    3    0    0  0.89922412683E+01 -0.43749255480E+01  0.59658308382E+02  0.60490611964E+02  0.51100000000E-03 0.  1.
<mgrwt>
<rscale>  0 0.20000052E+02</rscale>
<asrwt>0</asrwt>
<pdfrwt beam="1">  1        2 0.18462027E-01 0.20000052E+02</pdfrwt>
<pdfrwt beam="2">  1       -2 0.12820241E-03 0.20000052E+02</pdfrwt>
<totfact> 0.55092322E+06</totfact>
</mgrwt>
</event>
<event>
 5    1  0.4046313E-006  0.2000055E+02  0.7818608E-02  0.1745317E+00
         -2   -1    0    0    0  501 -0.00000000000E+00  0.00000000000E+00  0.21297181438E+01  0.21297197309E+01  0.26000000000E-02 0.  1.
          2   -1    0    0  501    0  0.00000000000E+00 -0.00000000000E+00 -0.46957149925E+02  0.46957149997E+02  0.26000000000E-02 0. -1.
       1023    2    1    2    0    0  0.00000000000E+00  0.00000000000E+00 -0.44827431781E+02  0.49086869727E+02  0.20000553482E+02 0.  0.
        -11    1    3    3    0    0  0.79864067362E+01 -0.60185378520E+01 -0.22397399001E+02  0.24528533847E+02  0.51100000000E-03 0. -1.
         11    1    3    3    0    0 -0.79864067362E+01  0.60185378520E+01 -0.22430032780E+02  0.24558335880E+02  0.51100000000E-03 0.  1.
<mgrwt>
<rscale>  0 0.20000553E+02</rscale>
<asrwt>0</asrwt>
<pdfrwt beam="2">  1        2 0.72241762E-02 0.20000553E+02</pdfrwt>
<pdfrwt beam="1">  1       -2 0.32764911E-03 0.20000553E+02</pdfrwt>
<totfact> 0.45897138E+06</totfact>
</mgrwt>
</event>
<event>
 5    1  0.4046313E-006  0.2000275E+02  0.7818608E-02  0.1745273E+00
          2   -1    0    0  501    0  0.00000000000E+00  0.00000000000E+00  0.27540821183E+01  0.27540833456E+01  0.26000000000E-02 0. -1.
         -2   -1    0    0    0  501 -0.00000000000E+00 -0.00000000000E+00 -0.36319713912E+02  0.36319714005E+02  0.26000000000E-02 0.  1.
       1023    2    1    2    0    0  0.00000000000E+00  0.00000000000E+00 -0.33565631794E+02  0.39073797351E+02  0.20002749853E+02 0.  0.
        -11    1    3    3    0    0 -0.93097770330E+01  0.36520128792E+01 -0.16518174632E+02  0.19309563431E+02  0.51100000000E-03 0.  1.
         11    1    3    3    0    0  0.93097770330E+01 -0.36520128792E+01 -0.17047457162E+02  0.19764233920E+02  0.51100000000E-03 0. -1.
<mgrwt>
<rscale>  0 0.20002750E+02</rscale>
<asrwt>0</asrwt>
<pdfrwt beam="1">  1        2 0.42370507E-03 0.20002750E+02</pdfrwt>
<pdfrwt beam="2">  1       -2 0.55876480E-02 0.20002750E+02</pdfrwt>
<totfact> 0.35313185E+06</totfact>
</mgrwt>
</event>
<event>
 5    1  0.4046313E-006  0.2000039E+02  0.7818608E-02  0.1745320E+00
         -2   -1    0    0    0  501 -0.00000000000E+00  0.00000000000E+00  0.11210181631E+01  0.11210211782E+01  0.26000000000E-02 0. -1.
          2   -1    0    0  501    0  0.00000000000E+00 -0.00000000000E+00 -0.89207980179E+02  0.89207980217E+02  0.26000000000E-02 0.  1.
       1023    2    1    2    0    0  0.00000000000E+00  0.00000000000E+00 -0.88086962016E+02  0.90329001395E+02  0.20000390392E+02 0.  0.
        -11    1    3    3    0    0  0.43880163672E+01  0.89860012657E+01 -0.43900853324E+02  0.45025413148E+02  0.51100000000E-03 0. -1.
         11    1    3    3    0    0 -0.43880163672E+01 -0.89860012657E+01 -0.44186108692E+02  0.45303588246E+02  0.51100000000E-03 0.  1.
<mgrwt>
<rscale>  0 0.20000390E+02</rscale>
<asrwt>0</asrwt>
<pdfrwt beam="2">  1        2 0.13724299E-01 0.20000390E+02</pdfrwt>
<pdfrwt beam="1">  1       -2 0.17246464E-03 0.20000390E+02</pdfrwt>
<totfact> 0.51445029E+06</totfact>
</mgrwt>
</event>
<event>
 5    1  0.4046313E-006  0.2000016E+02  0.7818608E-02  0.1745325E+00
          2   -1    0    0  501    0  0.00000000000E+00  0.00000000000E+00  0.63599577085E+02  0.63599577138E+02  0.26000000000E-02 0. -1.
         -2   -1    0    0    0  501 -0.00000000000E+00 -0.00000000000E+00 -0.15723618513E+01  0.15723640009E+01  0.26000000000E-02 0.  1.
       1023    2    1    2    0    0  0.00000000000E+00  0.00000000000E+00  0.62027215234E+02  0.65171941139E+02  0.20000162054E+02 0.  0.
        -11    1    3    3    0    0 -0.83689600993E-02 -0.10000070058E+02  0.30973820088E+02  0.32548102899E+02  0.51100000000E-03 0.  1.
         11    1    3    3    0    0  0.83689600993E-02  0.10000070058E+02  0.31053395145E+02  0.32623838240E+02  0.51100000000E-03 0. -1.
<mgrwt>
<rscale>  0 0.20000162E+02</rscale>
<asrwt>0</asrwt>
<pdfrwt beam="1">  1        2 0.97845484E-02 0.20000162E+02</pdfrwt>
<pdfrwt beam="2">  1       -2 0.24190204E-03 0.20000162E+02</pdfrwt>
<totfact> 0.48177936E+06</totfact>
</mgrwt>
</event>
<event>
 5    1  0.4046313E-006  0.2000014E+02  0.7818608E-02  0.1745325E+00
         -2   -1    0    0    0  501 -0.00000000000E+00  0.00000000000E+00  0.28598691775E+02  0.28598691893E+02  0.26000000000E-02 0. -1.
          2   -1    0    0  501    0  0.00000000000E+00 -0.00000000000E+00 -0.34967120640E+01  0.34967130306E+01  0.26000000000E-02 0.  1.
       1023    2    1    2    0    0  0.00000000000E+00  0.00000000000E+00  0.25101979711E+02  0.32095404924E+02  0.20000140795E+02 0.  0.
        -11    1    3    3    0    0  0.63155469994E+01 -0.77534009804E+01  0.12539985047E+02  0.16039095545E+02  0.51100000000E-03 0.  1.
         11    1    3    3    0    0 -0.63155469994E+01  0.77534009804E+01  0.12561994664E+02  0.16056309379E+02  0.51100000000E-03 0. -1.
<mgrwt>
<rscale>  0 0.20000141E+02</rscale>
<asrwt>0</asrwt>
<pdfrwt beam="2">  1        2 0.53795577E-03 0.20000141E+02</pdfrwt>
<pdfrwt beam="1">  1       -2 0.43997990E-02 0.20000141E+02</pdfrwt>
<totfact> 0.36238314E+06</totfact>
</mgrwt>
</event>
<event>
 5    1  0.4046313E-006  0.2000907E+02  0.7818608E-02  0.1745148E+00
         -2   -1    0    0    0  501 -0.00000000000E+00  0.00000000000E+00  0.10755551341E+01  0.10755582766E+01  0.26000000000E-02 0. -1.
          2   -1    0    0  501    0  0.00000000000E+00 -0.00000000000E+00 -0.93059453443E+02  0.93059453479E+02  0.26000000000E-02 0.  1.
       1023    2    1    2    0    0  0.00000000000E+00  0.00000000000E+00 -0.91983898309E+02  0.94135011756E+02  0.20009070198E+02 0.  0.
        -11    1    3    3    0    0 -0.39921609061E+01 -0.91734338491E+01 -0.46173244941E+02  0.47244658808E+02  0.51100000000E-03 0. -1.
         11    1    3    3    0    0  0.39921609061E+01  0.91734338491E+01 -0.45810653368E+02  0.46890352948E+02  0.51100000000E-03 0.  1.
<mgrwt>
<rscale>  0 0.20009070E+02</rscale>
<asrwt>0</asrwt>
<pdfrwt beam="2">  1        2 0.14316833E-01 0.20009070E+02</pdfrwt>
<pdfrwt beam="1">  1       -2 0.16547034E-03 0.20009070E+02</pdfrwt>
<totfact> 0.51867321E+06</totfact>
</mgrwt>
</event>
<event>
 4    1  0.4046313E-006  0.2001931E+02  0.7818608E-02  0.1744944E+00
         -2   -1    0    0    0  501 -0.00000000000E+00  0.00000000000E+00  0.69928658418E+01  0.69928663251E+01  0.26000000000E-02 0. -1.
          2   -1    0    0  501    0  0.00000000000E+00 -0.00000000000E+00 -0.14327916716E+02  0.14327916952E+02  0.26000000000E-02 0.  1.
        -11    1    1    2    0    0  0.10003512054E+02 -0.21346659764E+00 -0.39637925895E+01  0.10762317286E+02  0.51100000000E-03 0.  1.
         11    1    1    2    0    0 -0.10003512054E+02  0.21346659764E+00 -0.33712582849E+01  0.10558465991E+02  0.51100000000E-03 0. -1.
<mgrwt>
<rscale>  0 0.20019311E+02</rscale>
<asrwt>0</asrwt>
<pdfrwt beam="2">  1        2 0.22042949E-02 0.20019311E+02</pdfrwt>
<pdfrwt beam="1">  1       -2 0.10758256E-02 0.20019311E+02</pdfrwt>
<totfact> 0.40454788E+06</totfact>
</mgrwt>
</event>
<event>
 5    1  0.4046313E-006  0.2000644E+02  0.7818608E-02  0.1745200E+00
         -2   -1    0    0    0  501 -0.00000000000E+00  0.00000000000E+00  0.90982699968E+02  0.90982700005E+02  0.26000000000E-02 0. -1.
          2   -1    0    0  501    0  0.00000000000E+00 -0.00000000000E+00 -0.10998169612E+01  0.10998200345E+01  0.26000000000E-02 0.  1.
       1023    2    1    2    0    0  0.00000000000E+00  0.00000000000E+00  0.89882883006E+02  0.92082520039E+02  0.20006444942E+02 0.  0.
        -11    1    3    3    0    0 -0.57111249694E+01 -0.82099743524E+01  0.43977824997E+02  0.45100662069E+02  0.51100000000E-03 0. -1.
         11    1    3    3    0    0  0.57111249694E+01  0.82099743524E+01  0.45905058009E+02  0.46981857971E+02  0.51100000000E-03 0.  1.
<mgrwt>
<rscale>  0 0.20006445E+02</rscale>
<asrwt>0</asrwt>
<pdfrwt beam="2">  1        2 0.16920282E-03 0.20006445E+02</pdfrwt>
<pdfrwt beam="1">  1       -2 0.13997341E-01 0.20006445E+02</pdfrwt>
<totfact> 0.30379120E+06</totfact>
</mgrwt>
</event>
<event>
 5    1  0.4046313E-006  0.2000058E+02  0.7818608E-02  0.1745317E+00
         -2   -1    0    0    0  501 -0.00000000000E+00  0.00000000000E+00  0.59325539623E+02  0.59325539680E+02  0.26000000000E-02 0.  1.
          2   -1    0    0  501    0  0.00000000000E+00 -0.00000000000E+00 -0.16857106718E+01  0.16857126768E+01  0.26000000000E-02 0. -1.
       1023    2    1    2    0    0  0.00000000000E+00  0.00000000000E+00  0.57639828952E+02  0.61011252357E+02  0.20000575807E+02 0.  0.
        -11    1    3    3    0    0 -0.89281833726E+01  0.45046786389E+01  0.28715575783E+02  0.30407053142E+02  0.51100000000E-03 0.  1.
         11    1    3    3    0    0  0.89281833726E+01 -0.45046786389E+01  0.28924253168E+02  0.30604199215E+02  0.51100000000E-03 0. -1.
<mgrwt>
<rscale>  0 0.20000576E+02</rscale>
<asrwt>0</asrwt>
<pdfrwt beam="2">  1        2 0.25934026E-03 0.20000576E+02</pdfrwt>
<pdfrwt beam="1">  1       -2 0.91270062E-02 0.20000576E+02</pdfrwt>
<totfact> 0.33019156E+06</totfact>
</mgrwt>
</event>
<event>
 5    1  0.4046313E-006  0.2000042E+02  0.7818608E-02  0.1745320E+00
          2   -1    0    0  501    0  0.00000000000E+00  0.00000000000E+00  0.66364451986E+02  0.66364452037E+02  0.26000000000E-02 0.  1.
         -2   -1    0    0    0  501 -0.00000000000E+00 -0.00000000000E+00 -0.15068934553E+01  0.15068956983E+01  0.26000000000E-02 0. -1.
       1023    2    1    2    0    0  0.00000000000E+00  0.00000000000E+00  0.64857558530E+02  0.67871347735E+02  0.20000423616E+02 0.  0.
        -11    1    3    3    0    0 -0.88522992333E+01  0.46517986437E+01  0.32284661138E+02  0.33797955225E+02  0.51100000000E-03 0.  1.
         11    1    3    3    0    0  0.88522992333E+01 -0.46517986437E+01  0.32572897393E+02  0.34073392510E+02  0.51100000000E-03 0. -1.
<mgrwt>
<rscale>  0 0.20000424E+02</rscale>
<asrwt>0</asrwt>
<pdfrwt beam="1">  1        2 0.10209915E-01 0.20000424E+02</pdfrwt>
<pdfrwt beam="2">  1       -2 0.23182996E-03 0.20000424E+02</pdfrwt>
<totfact> 0.48542013E+06</totfact>
</mgrwt>
</event>
<event>
 5    1  0.4046313E-006  0.2000046E+02  0.7818608E-02  0.1745319E+00
          2   -1    0    0  501    0  0.00000000000E+00  0.00000000000E+00  0.70206915467E+02  0.70206915515E+02  0.26000000000E-02 0. -1.
         -2   -1    0    0    0  501 -0.00000000000E+00 -0.00000000000E+00 -0.14244247336E+01  0.14244271065E+01  0.26000000000E-02 0.  1.
       1023    2    1    2    0    0  0.00000000000E+00  0.00000000000E+00  0.68782490733E+02  0.71631342622E+02  0.20000455352E+02 0.  0.
        -11    1    3    3    0    0  0.93681199121E+01  0.34989785370E+01  0.34371042702E+02  0.35796272127E+02  0.51100000000E-03 0.  1.
         11    1    3    3    0    0 -0.93681199121E+01 -0.34989785370E+01  0.34411448032E+02  0.35835070495E+02  0.51100000000E-03 0. -1.
<mgrwt>
<rscale>  0 0.20000455E+02</rscale>
<asrwt>0</asrwt>
<pdfrwt beam="1">  1        2 0.10801066E-01 0.20000455E+02</pdfrwt>
<pdfrwt beam="2">  1       -2 0.21914242E-03 0.20000455E+02</pdfrwt>
<totfact> 0.49044244E+06</totfact>
</mgrwt>
</event>
<event>
 5    1  0.4046313E-006  0.2000134E+02  0.7818608E-02  0.1745301E+00
         -2   -1    0    0    0  501 -0.00000000000E+00  0.00000000000E+00  0.11339349049E+03  0.11339349052E+03  0.26000000000E-02 0.  1.
          2   -1    0    0  501    0  0.00000000000E+00 -0.00000000000E+00 -0.88200120965E+00  0.88200504184E+00  0.26000000000E-02 0. -1.
       1023    2    1    2    0    0  0.00000000000E+00  0.00000000000E+00  0.11251148928E+03  0.11427549556E+03  0.20001341599E+02 0.  0.
        -11    1    3    3    0    0  0.27543572575E+01  0.96138915922E+01  0.56229731377E+02  0.57112136070E+02  0.51100000000E-03 0.  1.
         11    1    3    3    0    0 -0.27543572575E+01 -0.96138915922E+01  0.56281757898E+02  0.57163359487E+02  0.51100000000E-03 0. -1.
<mgrwt>
<rscale>  0 0.20001342E+02</rscale>
<asrwt>0</asrwt>
<pdfrwt beam="2">  1        2 0.13569288E-03 0.20001342E+02</pdfrwt>
<pdfrwt beam="1">  1       -2 0.17445141E-01 0.20001342E+02</pdfrwt>
<totfact> 0.28782286E+06</totfact>
</mgrwt>
</event>
<event>
 5    1  0.4046313E-006  0.2000088E+02  0.7818608E-02  0.1745311E+00
          2   -1    0    0  501    0  0.00000000000E+00  0.00000000000E+00  0.14509399505E+01  0.14509422800E+01  0.26000000000E-02 0.  1.
         -2   -1    0    0    0  501 -0.00000000000E+00 -0.00000000000E+00 -0.68926848983E+02  0.68926849032E+02  0.26000000000E-02 0. -1.
       1023    2    1    2    0    0  0.00000000000E+00  0.00000000000E+00 -0.67475909033E+02  0.70377791312E+02  0.20000880236E+02 0.  0.
        -11    1    3    3    0    0  0.93111533369E+01 -0.36481021484E+01 -0.33916564290E+02  0.35360140827E+02  0.51100000000E-03 0.  1.
         11    1    3    3    0    0 -0.93111533369E+01  0.36481021484E+01 -0.33559344742E+02  0.35017650486E+02  0.51100000000E-03 0. -1.
<mgrwt>
<rscale>  0 0.20000880E+02</rscale>
<asrwt>0</asrwt>
<pdfrwt beam="1">  1        2 0.22322177E-03 0.20000880E+02</pdfrwt>
<pdfrwt beam="2">  1       -2 0.10604128E-01 0.20000880E+02</pdfrwt>
<totfact> 0.32171574E+06</totfact>
</mgrwt>
</event>
<event>
 5    1  0.4046313E-006  0.2000314E+02  0.7818608E-02  0.1745266E+00
          2   -1    0    0  501    0  0.00000000000E+00  0.00000000000E+00  0.28105938125E+02  0.28105938246E+02  0.26000000000E-02 0.  1.
         -2   -1    0    0    0  501 -0.00000000000E+00 -0.00000000000E+00 -0.35590842031E+01  0.35590851528E+01  0.26000000000E-02 0. -1.
       1023    2    1    2    0    0  0.00000000000E+00  0.00000000000E+00  0.24546853922E+02  0.31665023399E+02  0.20003141487E+02 0.  0.
        -11    1    3    3    0    0  0.26261685659E+01 -0.96492575809E+01  0.12531042692E+02  0.16032216453E+02  0.51100000000E-03 0. -1.
         11    1    3    3    0    0 -0.26261685659E+01  0.96492575809E+01  0.12015811231E+02  0.15632806945E+02  0.51100000000E-03 0.  1.
<mgrwt>
<rscale>  0 0.20003141E+02</rscale>
<asrwt>0</asrwt>
<pdfrwt beam="1">  1        2 0.43239906E-02 0.20003141E+02</pdfrwt>
<pdfrwt beam="2">  1       -2 0.54755149E-03 0.20003141E+02</pdfrwt>
<totfact> 0.43054519E+06</totfact>
</mgrwt>
</event>
<event>
 5    1  0.4046313E-006  0.2000064E+02  0.7818608E-02  0.1745315E+00
          2   -1    0    0  501    0  0.00000000000E+00  0.00000000000E+00  0.78943258413E+01  0.78943262694E+01  0.26000000000E-02 0. -1.
         -2   -1    0    0    0  501 -0.00000000000E+00 -0.00000000000E+00 -0.12668132795E+02  0.12668133062E+02  0.26000000000E-02 0.  1.
       1023    2    1    2    0    0  0.00000000000E+00  0.00000000000E+00 -0.47738069537E+01  0.20562459331E+02  0.20000637513E+02 0.  0.
        -11    1    3    3    0    0 -0.86409837471E+01 -0.50338541093E+01 -0.23772779328E+01  0.10278994987E+02  0.51100000000E-03 0. -1.
         11    1    3    3    0    0  0.86409837471E+01  0.50338541093E+01 -0.23965290210E+01  0.10283464344E+02  0.51100000000E-03 0.  1.
<mgrwt>
<rscale>  0 0.20000638E+02</rscale>
<asrwt>0</asrwt>
<pdfrwt beam="1">  1        2 0.12145117E-02 0.20000638E+02</pdfrwt>
<pdfrwt beam="2">  1       -2 0.19489436E-02 0.20000638E+02</pdfrwt>
<totfact> 0.38782158E+06</totfact>
</mgrwt>
</event>
<event>
 5    1  0.4046313E-006  0.2000201E+02  0.7818608E-02  0.1745288E+00
         -2   -1    0    0    0  501 -0.00000000000E+00  0.00000000000E+00  0.17204133683E+02  0.17204133880E+02  0.26000000000E-02 0. -1.
          2   -1    0    0  501    0  0.00000000000E+00 -0.00000000000E+00 -0.58137254449E+01  0.58137260263E+01  0.26000000000E-02 0.  1.
       1023    2    1    2    0    0  0.00000000000E+00  0.00000000000E+00  0.11390408239E+02  0.23017859906E+02  0.20002011769E+02 0.  0.
        -11    1    3    3    0    0 -0.51577232529E+01  0.85673932590E+01  0.55417487711E+01  0.11432992439E+02  0.51100000000E-03 0.  1.
         11    1    3    3    0    0  0.51577232529E+01 -0.85673932590E+01  0.58486594674E+01  0.11584867467E+02  0.51100000000E-03 0. -1.
<mgrwt>
<rscale>  0 0.20002012E+02</rscale>
<asrwt>0</asrwt>
<pdfrwt beam="2">  1        2 0.89441937E-03 0.20002012E+02</pdfrwt>
<pdfrwt beam="1">  1       -2 0.26467898E-02 0.20002012E+02</pdfrwt>
<totfact> 0.37885241E+06</totfact>
</mgrwt>
</event>
<event>
 5    1  0.4046313E-006  0.2000072E+02  0.7818608E-02  0.1745314E+00
         -2   -1    0    0    0  501 -0.00000000000E+00  0.00000000000E+00  0.10570378253E+02  0.10570378572E+02  0.26000000000E-02 0. -1.
          2   -1    0    0  501    0  0.00000000000E+00 -0.00000000000E+00 -0.94610807207E+01  0.94610810779E+01  0.26000000000E-02 0.  1.
       1023    2    1    2    0    0  0.00000000000E+00  0.00000000000E+00  0.11092975319E+01  0.20031459650E+02  0.20000720855E+02 0.  0.
        -11    1    3    3    0    0  0.17779302449E-02  0.10000180895E+02  0.61463509516E+00  0.10019051734E+02  0.51100000000E-03 0.  1.
         11    1    3    3    0    0 -0.17779302449E-02 -0.10000180895E+02  0.49466243675E+00  0.10012407916E+02  0.51100000000E-03 0. -1.
<mgrwt>
<rscale>  0 0.20000721E+02</rscale>
<asrwt>0</asrwt>
<pdfrwt beam="2">  1        2 0.14555509E-02 0.20000721E+02</pdfrwt>
<pdfrwt beam="1">  1       -2 0.16262121E-02 0.20000721E+02</pdfrwt>
<totfact> 0.39300234E+06</totfact>
</mgrwt>
</event>
<event>
 5    1  0.4046313E-006  0.2000308E+02  0.7818608E-02  0.1745267E+00
          2   -1    0    0  501    0  0.00000000000E+00  0.00000000000E+00  0.28705754921E+01  0.28705766695E+01  0.26000000000E-02 0.  1.
         -2   -1    0    0    0  501 -0.00000000000E+00 -0.00000000000E+00 -0.34846956449E+02  0.34846956546E+02  0.26000000000E-02 0. -1.
       1023    2    1    2    0    0  0.00000000000E+00  0.00000000000E+00 -0.31976380957E+02  0.37717533216E+02  0.20003084081E+02 0.  0.
        -11    1    3    3    0    0  0.33798934618E+01 -0.94131218467E+01 -0.16020861517E+02  0.18886464643E+02  0.51100000000E-03 0.  1.
         11    1    3    3    0    0 -0.33798934618E+01  0.94131218467E+01 -0.15955519441E+02  0.18831068573E+02  0.51100000000E-03 0. -1.
<mgrwt>
<rscale>  0 0.20003084E+02</rscale>
<asrwt>0</asrwt>
<pdfrwt beam="1">  1        2 0.44162712E-03 0.20003084E+02</pdfrwt>
<pdfrwt beam="2">  1       -2 0.53610700E-02 0.20003084E+02</pdfrwt>
<totfact> 0.35478448E+06</totfact>
</mgrwt>
</event>
<event>
 5    1  0.4046313E-006  0.2000064E+02  0.7818608E-02  0.1745315E+00
          2   -1    0    0  501    0  0.00000000000E+00  0.00000000000E+00  0.11794684328E+03  0.11794684331E+03  0.26000000000E-02 0. -1.
         -2   -1    0    0    0  501 -0.00000000000E+00 -0.00000000000E+00 -0.84789147957E+00  0.84789546592E+00  0.26000000000E-02 0.  1.
       1023    2    1    2    0    0  0.00000000000E+00  0.00000000000E+00  0.11709895180E+03  0.11879473877E+03  0.20000636184E+02 0.  0.
        -11    1    3    3    0    0  0.95229995222E+01  0.30523342993E+01  0.58277479417E+02  0.59129255636E+02  0.51100000000E-03 0. -1.
         11    1    3    3    0    0 -0.95229995222E+01 -0.30523342993E+01  0.58821472380E+02  0.59665483136E+02  0.51100000000E-03 0.  1.
<mgrwt>
<rscale>  0 0.20000636E+02</rscale>
<asrwt>0</asrwt>
<pdfrwt beam="1">  1        2 0.18145668E-01 0.20000636E+02</pdfrwt>
<pdfrwt beam="2">  1       -2 0.13044515E-03 0.20000636E+02</pdfrwt>
<totfact> 0.54853982E+06</totfact>
</mgrwt>
</event>
<event>
 5    1  0.4046313E-006  0.2000022E+02  0.7818608E-02  0.1745324E+00
         -2   -1    0    0    0  501 -0.00000000000E+00  0.00000000000E+00  0.14788319278E+02  0.14788319507E+02  0.26000000000E-02 0. -1.
          2   -1    0    0  501    0  0.00000000000E+00 -0.00000000000E+00 -0.67622420361E+01  0.67622425359E+01  0.26000000000E-02 0.  1.
       1023    2    1    2    0    0  0.00000000000E+00  0.00000000000E+00  0.80260772421E+01  0.21550562043E+02  0.20000220210E+02 0.  0.
        -11    1    3    3    0    0  0.58152784792E+01  0.81353221093E+01  0.40514719978E+01  0.10789594766E+02  0.51100000000E-03 0.  1.
         11    1    3    3    0    0 -0.58152784792E+01 -0.81353221093E+01  0.39746052442E+01  0.10760967276E+02  0.51100000000E-03 0. -1.
<mgrwt>
<rscale>  0 0.20000220E+02</rscale>
<asrwt>0</asrwt>
<pdfrwt beam="2">  1        2 0.10403450E-02 0.20000220E+02</pdfrwt>
<pdfrwt beam="1">  1       -2 0.22751261E-02 0.20000220E+02</pdfrwt>
<totfact> 0.38338060E+06</totfact>
</mgrwt>
</event>
<event>
 5    1  0.4046313E-006  0.2000088E+02  0.7818608E-02  0.1745310E+00
          2   -1    0    0  501    0  0.00000000000E+00  0.00000000000E+00  0.16941148525E+02  0.16941148724E+02  0.26000000000E-02 0.  1.
         -2   -1    0    0    0  501 -0.00000000000E+00 -0.00000000000E+00 -0.59033088971E+01  0.59033094696E+01  0.26000000000E-02 0. -1.
       1023    2    1    2    0    0  0.00000000000E+00  0.00000000000E+00  0.11037839627E+02  0.22844458194E+02  0.20000884143E+02 0.  0.
        -11    1    3    3    0    0 -0.14181933226E+01 -0.98993176535E+01  0.54814004866E+01  0.11404100748E+02  0.51100000000E-03 0.  1.
         11    1    3    3    0    0  0.14181933226E+01  0.98993176535E+01  0.55564391409E+01  0.11440357446E+02  0.51100000000E-03 0. -1.
<mgrwt>
<rscale>  0 0.20000884E+02</rscale>
<asrwt>0</asrwt>
<pdfrwt beam="1">  1        2 0.26063305E-02 0.20000884E+02</pdfrwt>
<pdfrwt beam="2">  1       -2 0.90820145E-03 0.20000884E+02</pdfrwt>
<totfact> 0.41087306E+06</totfact>
</mgrwt>
</event>
<event>
 5    1  0.4046313E-006  0.2000229E+02  0.7818608E-02  0.1745283E+00
         -2   -1    0    0    0  501 -0.00000000000E+00  0.00000000000E+00  0.64812567986E+02  0.64812568038E+02  0.26000000000E-02 0.  1.
          2   -1    0    0  501    0  0.00000000000E+00 -0.00000000000E+00 -0.15432623348E+01  0.15432645250E+01  0.26000000000E-02 0. -1.
       1023    2    1    2    0    0  0.00000000000E+00  0.00000000000E+00  0.63269305651E+02  0.66355832563E+02  0.20002286808E+02 0.  0.
        -11    1    3    3    0    0 -0.91311350860E+00  0.99593475522E+01  0.31708025621E+02  0.33247876157E+02  0.51100000000E-03 0.  1.
         11    1    3    3    0    0  0.91311350860E+00 -0.99593475522E+01  0.31561280030E+02  0.33107956405E+02  0.51100000000E-03 0. -1.
<mgrwt>
<rscale>  0 0.20002287E+02</rscale>
<asrwt>0</asrwt>
<pdfrwt beam="2">  1        2 0.23742516E-03 0.20002287E+02</pdfrwt>
<pdfrwt beam="1">  1       -2 0.99711639E-02 0.20002287E+02</pdfrwt>
<totfact> 0.32522818E+06</totfact>
</mgrwt>
</event>
<event>
 5    1  0.4046313E-006  0.2000069E+02  0.7818608E-02  0.1745314E+00
         -2   -1    0    0    0  501 -0.00000000000E+00  0.00000000000E+00  0.11424795428E+03  0.11424795431E+03  0.26000000000E-02 0. -1.
          2   -1    0    0  501    0  0.00000000000E+00 -0.00000000000E+00 -0.87534799628E+00  0.87535185759E+00  0.26000000000E-02 0.  1.
       1023    2    1    2    0    0  0.00000000000E+00  0.00000000000E+00  0.11337260628E+03  0.11512330616E+03  0.20000694170E+02 0.  0.
        -11    1    3    3    0    0  0.93611512394E+01 -0.35174332497E+01  0.56348100761E+02  0.57228593805E+02  0.51100000000E-03 0.  1.
         11    1    3    3    0    0 -0.93611512394E+01  0.35174332497E+01  0.57024505519E+02  0.57894712359E+02  0.51100000000E-03 0. -1.
<mgrwt>
<rscale>  0 0.20000694E+02</rscale>
<asrwt>0</asrwt>
<pdfrwt beam="2">  1        2 0.13466936E-03 0.20000694E+02</pdfrwt>
<pdfrwt beam="1">  1       -2 0.17576590E-01 0.20000694E+02</pdfrwt>
<totfact> 0.28725992E+06</totfact>
</mgrwt>
</event>
<event>
 5    1  0.4046313E-006  0.2000307E+02  0.7818608E-02  0.1745267E+00
         -2   -1    0    0    0  501 -0.00000000000E+00  0.00000000000E+00  0.25101145981E+02  0.25101146116E+02  0.26000000000E-02 0. -1.
          2   -1    0    0  501    0  0.00000000000E+00 -0.00000000000E+00 -0.39851036522E+01  0.39851045004E+01  0.26000000000E-02 0.  1.
       1023    2    1    2    0    0  0.00000000000E+00  0.00000000000E+00  0.21116042329E+02  0.29086250616E+02  0.20003068046E+02 0.  0.
        -11    1    3    3    0    0 -0.45930123478E+01  0.88831669355E+01  0.10331512824E+02  0.14378684735E+02  0.51100000000E-03 0. -1.
         11    1    3    3    0    0  0.45930123478E+01 -0.88831669355E+01  0.10784529505E+02  0.14707565881E+02  0.51100000000E-03 0.  1.
<mgrwt>
<rscale>  0 0.20003068E+02</rscale>
<asrwt>0</asrwt>
<pdfrwt beam="2">  1        2 0.61309296E-03 0.20003068E+02</pdfrwt>
<pdfrwt beam="1">  1       -2 0.38617147E-02 0.20003068E+02</pdfrwt>
<totfact> 0.36682999E+06</totfact>
</mgrwt>
</event>
<event>
 5    1  0.4046313E-006  0.2000113E+02  0.7818608E-02  0.1745306E+00
         -2   -1    0    0    0  501 -0.00000000000E+00  0.00000000000E+00  0.29930686358E+01  0.29930697651E+01  0.26000000000E-02 0.  1.
          2   -1    0    0  501    0  0.00000000000E+00 -0.00000000000E+00 -0.33414289964E+02  0.33414290065E+02  0.26000000000E-02 0. -1.
       1023    2    1    2    0    0  0.00000000000E+00  0.00000000000E+00 -0.30421221328E+02  0.36407359830E+02  0.20001128536E+02 0.  0.
        -11    1    3    3    0    0  0.62125197662E+01  0.78368278374E+01 -0.15217178249E+02  0.18209167651E+02  0.51100000000E-03 0. -1.
         11    1    3    3    0    0 -0.62125197662E+01 -0.78368278374E+01 -0.15204043079E+02  0.18198192179E+02  0.51100000000E-03 0.  1.
<mgrwt>
<rscale>  0 0.20001129E+02</rscale>
<asrwt>0</asrwt>
<pdfrwt beam="2">  1        2 0.51406598E-02 0.20001129E+02</pdfrwt>
<pdfrwt beam="1">  1       -2 0.46047221E-03 0.20001129E+02</pdfrwt>
<totfact> 0.43900980E+06</totfact>
</mgrwt>
</event>
<event>
 5    1  0.4046313E-006  0.2000727E+02  0.7818608E-02  0.1745183E+00
          2   -1    0    0  501    0  0.00000000000E+00  0.00000000000E+00  0.69917459980E+02  0.69917460029E+02  0.26000000000E-02 0. -1.
         -2   -1    0    0    0  501 -0.00000000000E+00 -0.00000000000E+00 -0.14312972011E+01  0.14312995626E+01  0.26000000000E-02 0.  1.
       1023    2    1    2    0    0  0.00000000000E+00  0.00000000000E+00  0.68486162779E+02  0.71348759591E+02  0.20007273752E+02 0.  0.
        -11    1    3    3    0    0  0.49362233849E+01 -0.86990596713E+01  0.34889035609E+02  0.36294417566E+02  0.51100000000E-03 0. -1.
         11    1    3    3    0    0 -0.49362233849E+01  0.86990596713E+01  0.33597127171E+02  0.35054342026E+02  0.51100000000E-03 0.  1.
<mgrwt>
<rscale>  0 0.20007274E+02</rscale>
<asrwt>0</asrwt>
<pdfrwt beam="1">  1        2 0.10756532E-01 0.20007274E+02</pdfrwt>
<pdfrwt beam="2">  1       -2 0.22019977E-03 0.20007274E+02</pdfrwt>
<totfact> 0.48969585E+06</totfact>
</mgrwt>
</event>
<event>
 5    1  0.4046313E-006  0.2000077E+02  0.7818608E-02  0.1745313E+00
          2   -1    0    0  501    0  0.00000000000E+00  0.00000000000E+00  0.12341195721E+02  0.12341195995E+02  0.26000000000E-02 0. -1.
         -2   -1    0    0    0  501 -0.00000000000E+00 -0.00000000000E+00 -0.81035619499E+01  0.81035623670E+01  0.26000000000E-02 0.  1.
       1023    2    1    2    0    0  0.00000000000E+00  0.00000000000E+00  0.42376337710E+01  0.20444758362E+02  0.20000765098E+02 0.  0.
        -11    1    3    3    0    0 -0.99685672791E+01 -0.79697927886E+00  0.21309674980E+01  0.10224897667E+02  0.51100000000E-03 0. -1.
         11    1    3    3    0    0  0.99685672791E+01  0.79697927886E+00  0.21066662730E+01  0.10219860695E+02  0.51100000000E-03 0.  1.
<mgrwt>
<rscale>  0 0.20000765E+02</rscale>
<asrwt>0</asrwt>
<pdfrwt beam="1">  1        2 0.18986455E-02 0.20000765E+02</pdfrwt>
<pdfrwt beam="2">  1       -2 0.12467019E-02 0.20000765E+02</pdfrwt>
<totfact> 0.40079508E+06</totfact>
</mgrwt>
</event>
<event>
 5    1  0.4046313E-006  0.2000003E+02  0.7818608E-02  0.1745327E+00
         -2   -1    0    0    0  501 -0.00000000000E+00  0.00000000000E+00  0.71700090946E+01  0.71700095660E+01  0.26000000000E-02 0.  1.
          2   -1    0    0  501    0  0.00000000000E+00 -0.00000000000E+00 -0.13947030451E+02  0.13947030693E+02  0.26000000000E-02 0. -1.
       1023    2    1    2    0    0  0.00000000000E+00  0.00000000000E+00 -0.67770213561E+01  0.21117040259E+02  0.20000034271E+02 0.  0.
        -11    1    3    3    0    0 -0.71009586427E+01 -0.70410640642E+01 -0.33757682156E+01  0.10554430734E+02  0.51100000000E-03 0. -1.
         11    1    3    3    0    0  0.71009586427E+01  0.70410640642E+01 -0.34012531404E+01  0.10562609526E+02  0.51100000000E-03 0.  1.
<mgrwt>
<rscale>  0 0.20000034E+02</rscale>
<asrwt>0</asrwt>
<pdfrwt beam="2">  1        2 0.21456970E-02 0.20000034E+02</pdfrwt>
<pdfrwt beam="1">  1       -2 0.11030784E-02 0.20000034E+02</pdfrwt>
<totfact> 0.40458467E+06</totfact>
</mgrwt>
</event>
<event>
 5    1  0.4046313E-006  0.2000204E+02  0.7818608E-02  0.1745287E+00
         -2   -1    0    0    0  501 -0.00000000000E+00  0.00000000000E+00  0.27065211872E+02  0.27065211997E+02  0.26000000000E-02 0.  1.
          2   -1    0    0  501    0  0.00000000000E+00 -0.00000000000E+00 -0.36955348906E+01  0.36955358052E+01  0.26000000000E-02 0. -1.
       1023    2    1    2    0    0  0.00000000000E+00  0.00000000000E+00  0.23369676981E+02  0.30760747802E+02  0.20002044974E+02 0.  0.
        -11    1    3    3    0    0 -0.31896924903E+01 -0.94780845144E+01  0.11854885725E+02  0.15509562859E+02  0.51100000000E-03 0. -1.
         11    1    3    3    0    0  0.31896924903E+01  0.94780845144E+01  0.11514791256E+02  0.15251184943E+02  0.51100000000E-03 0.  1.
<mgrwt>
<rscale>  0 0.20002045E+02</rscale>
<asrwt>0</asrwt>
<pdfrwt beam="2">  1        2 0.56854392E-03 0.20002045E+02</pdfrwt>
<pdfrwt beam="1">  1       -2 0.41638787E-02 0.20002045E+02</pdfrwt>
<totfact> 0.36426946E+06</totfact>
</mgrwt>
</event>
<event>
 5    1  0.4046313E-006  0.2000174E+02  0.7818608E-02  0.1745293E+00
          2   -1    0    0  501    0  0.00000000000E+00  0.00000000000E+00  0.18054648646E+01  0.18054667367E+01  0.26000000000E-02 0. -1.
         -2   -1    0    0    0  501 -0.00000000000E+00 -0.00000000000E+00 -0.55397025043E+02  0.55397025104E+02  0.26000000000E-02 0.  1.
       1023    2    1    2    0    0  0.00000000000E+00  0.00000000000E+00 -0.53591560179E+02  0.57202491841E+02  0.20001743685E+02 0.  0.
        -11    1    3    3    0    0 -0.22582199433E+01 -0.97425148734E+01 -0.26693303350E+02  0.28505238069E+02  0.51100000000E-03 0. -1.
         11    1    3    3    0    0  0.22582199433E+01  0.97425148734E+01 -0.26898256828E+02  0.28697253772E+02  0.51100000000E-03 0.  1.
<mgrwt>
<rscale>  0 0.20001744E+02</rscale>
<asrwt>0</asrwt>
<pdfrwt beam="1">  1        2 0.27776402E-03 0.20001744E+02</pdfrwt>
<pdfrwt beam="2">  1       -2 0.85226181E-02 0.20001744E+02</pdfrwt>
<totfact> 0.33377108E+06</totfact>
</mgrwt>
</event>
<event>
 4    1  0.4046313E-006  0.2004542E+02  0.7818608E-02  0.1744426E+00
          2   -1    0    0  501    0  0.00000000000E+00  0.00000000000E+00  0.73380073280E+02  0.73380073326E+02  0.26000000000E-02 0.  1.
         -2   -1    0    0    0  501 -0.00000000000E+00 -0.00000000000E+00 -0.13689629595E+01  0.13689654285E+01  0.26000000000E-02 0. -1.
        -11    1    1    2    0    0  0.88415304288E+01 -0.46797911830E+01  0.33702050524E+02  0.35155388145E+02  0.51100000000E-03 0. -1.
         11    1    1    2    0    0 -0.88415304288E+01  0.46797911830E+01  0.38309059797E+02  0.39593650610E+02  0.51100000000E-03 0.  1.
<mgrwt>
<rscale>  0 0.20045418E+02</rscale>
<asrwt>0</asrwt>
<pdfrwt beam="1">  1        2 0.11289242E-01 0.20045418E+02</pdfrwt>
<pdfrwt beam="2">  1       -2 0.21060989E-03 0.20045418E+02</pdfrwt>
<totfact> 0.49208827E+06</totfact>
</mgrwt>
</event>
<event>
 5    1  0.4046313E-006  0.2000334E+02  0.7818608E-02  0.1745262E+00
          2   -1    0    0  501    0  0.00000000000E+00  0.00000000000E+00  0.10882432153E+01  0.10882463213E+01  0.26000000000E-02 0. -1.
         -2   -1    0    0    0  501 -0.00000000000E+00 -0.00000000000E+00 -0.91921762567E+02  0.91921762604E+02  0.26000000000E-02 0.  1.
       1023    2    1    2    0    0  0.00000000000E+00  0.00000000000E+00 -0.90833519352E+02  0.93010008925E+02  0.20003337782E+02 0.  0.
        -11    1    3    3    0    0  0.98543258391E+01  0.17073868830E+01 -0.44940926017E+02  0.46040305595E+02  0.51100000000E-03 0. -1.
         11    1    3    3    0    0 -0.98543258391E+01 -0.17073868830E+01 -0.45892593335E+02  0.46969703331E+02  0.51100000000E-03 0.  1.
<mgrwt>
<rscale>  0 0.20003338E+02</rscale>
<asrwt>0</asrwt>
<pdfrwt beam="1">  1        2 0.16742235E-03 0.20003338E+02</pdfrwt>
<pdfrwt beam="2">  1       -2 0.14141804E-01 0.20003338E+02</pdfrwt>
<totfact> 0.30318303E+06</totfact>
</mgrwt>
</event>
<event>
 5    1  0.4046313E-006  0.2000045E+02  0.7818608E-02  0.1745319E+00
         -2   -1    0    0    0  501 -0.00000000000E+00  0.00000000000E+00  0.16840833142E+02  0.16840833343E+02  0.26000000000E-02 0. -1.
          2   -1    0    0  501    0  0.00000000000E+00 -0.00000000000E+00 -0.59382150226E+01  0.59382155918E+01  0.26000000000E-02 0.  1.
       1023    2    1    2    0    0  0.00000000000E+00  0.00000000000E+00  0.10902618119E+02  0.22779048934E+02  0.20000449707E+02 0.  0.
        -11    1    3    3    0    0 -0.14077852764E+01  0.99006048136E+01  0.54220095582E+01  0.11375500999E+02  0.51100000000E-03 0. -1.
         11    1    3    3    0    0  0.14077852764E+01 -0.99006048136E+01  0.54806085611E+01  0.11403547936E+02  0.51100000000E-03 0.  1.
<mgrwt>
<rscale>  0 0.20000450E+02</rscale>
<asrwt>0</asrwt>
<pdfrwt beam="2">  1        2 0.91357161E-03 0.20000450E+02</pdfrwt>
<pdfrwt beam="1">  1       -2 0.25908974E-02 0.20000450E+02</pdfrwt>
<totfact> 0.37955316E+06</totfact>
</mgrwt>
</event>
<event>
 5    1  0.4209327E-006  0.2000088E+02  0.7818608E-02  0.1745311E+00
          2   -1    0    0  501    0  0.00000000000E+00  0.00000000000E+00  0.66178432262E+02  0.66178432313E+02  0.26000000000E-02 0.  1.
         -2   -1    0    0    0  501 -0.00000000000E+00 -0.00000000000E+00 -0.15111974751E+01  0.15111997117E+01  0.26000000000E-02 0. -1.
       1023    2    1    2    0    0  0.00000000000E+00  0.00000000000E+00  0.64667234787E+02  0.67689632024E+02  0.20000875698E+02 0.  0.
        -11    1    3    3    0    0 -0.56919158701E+00 -0.99841926644E+01  0.32421524378E+02  0.33928797879E+02  0.51100000000E-03 0.  1.
         11    1    3    3    0    0  0.56919158701E+00  0.99841926644E+01  0.32245710408E+02  0.33760834146E+02  0.51100000000E-03 0. -1.
<mgrwt>
<rscale>  0 0.20000876E+02</rscale>
<asrwt>0</asrwt>
<pdfrwt beam="1">  1        2 0.10181298E-01 0.20000876E+02</pdfrwt>
<pdfrwt beam="2">  1       -2 0.23249209E-03 0.20000876E+02</pdfrwt>
<totfact> 0.48515098E+06</totfact>
</mgrwt>
</event>
<event>
 5    1  0.4046313E-006  0.2000771E+02  0.7818608E-02  0.1745175E+00
         -2   -1    0    0    0  501 -0.00000000000E+00  0.00000000000E+00  0.46979166872E+02  0.46979166944E+02  0.26000000000E-02 0. -1.
          2   -1    0    0  501    0  0.00000000000E+00 -0.00000000000E+00 -0.21302429649E+01  0.21302445516E+01  0.26000000000E-02 0.  1.
       1023    2    1    2    0    0  0.00000000000E+00  0.00000000000E+00  0.44848923907E+02  0.49109411496E+02  0.20007706561E+02 0.  0.
        -11    1    3    3    0    0  0.91736996608E+01  0.39854358458E+01  0.22894141828E+02  0.24983638539E+02  0.51100000000E-03 0. -1.
         11    1    3    3    0    0 -0.91736996608E+01 -0.39854358458E+01  0.21954782079E+02  0.24125772957E+02  0.51100000000E-03 0.  1.
<mgrwt>
<rscale>  0 0.20007707E+02</rscale>
<asrwt>0</asrwt>
<pdfrwt beam="2">  1        2 0.32772982E-03 0.20007707E+02</pdfrwt>
<pdfrwt beam="1">  1       -2 0.72275640E-02 0.20007707E+02</pdfrwt>
<totfact> 0.34168494E+06</totfact>
</mgrwt>
</event>
<event>
 5    1  0.4046313E-006  0.2000103E+02  0.7818608E-02  0.1745308E+00
         -2   -1    0    0    0  501 -0.00000000000E+00  0.00000000000E+00  0.53228191874E+01  0.53228198224E+01  0.26000000000E-02 0.  1.
          2   -1    0    0  501    0  0.00000000000E+00 -0.00000000000E+00 -0.18788963728E+02  0.18788963908E+02  0.26000000000E-02 0. -1.
       1023    2    1    2    0    0  0.00000000000E+00  0.00000000000E+00 -0.13466144541E+02  0.24111783730E+02  0.20001026620E+02 0.  0.
        -11    1    3    3    0    0  0.96256731282E+01  0.27107556257E+01 -0.66220133508E+01  0.11993866779E+02  0.51100000000E-03 0.  1.
         11    1    3    3    0    0 -0.96256731282E+01 -0.27107556257E+01 -0.68441311897E+01  0.12117916951E+02  0.51100000000E-03 0. -1.
<mgrwt>
<rscale>  0 0.20001027E+02</rscale>
<asrwt>0</asrwt>
<pdfrwt beam="2">  1        2 0.28906098E-02 0.20001027E+02</pdfrwt>
<pdfrwt beam="1">  1       -2 0.81889533E-03 0.20001027E+02</pdfrwt>
<totfact> 0.41446773E+06</totfact>
</mgrwt>
</event>
<event>
 5    1  0.4046313E-006  0.2000039E+02  0.7818608E-02  0.1745320E+00
          2   -1    0    0  501    0  0.00000000000E+00  0.00000000000E+00  0.20282964603E+02  0.20282964769E+02  0.26000000000E-02 0.  1.
         -2   -1    0    0    0  501 -0.00000000000E+00 -0.00000000000E+00 -0.49304380495E+01  0.49304387350E+01  0.26000000000E-02 0. -1.
       1023    2    1    2    0    0  0.00000000000E+00  0.00000000000E+00  0.15352526553E+02  0.25213403504E+02  0.20000391114E+02 0.  0.
        -11    1    3    3    0    0  0.52232679140E+01 -0.85276546996E+01  0.76483993568E+01  0.12589735317E+02  0.51100000000E-03 0.  1.
         11    1    3    3    0    0 -0.52232679140E+01  0.85276546996E+01  0.77041271964E+01  0.12623668187E+02  0.51100000000E-03 0. -1.
<mgrwt>
<rscale>  0 0.20000391E+02</rscale>
<asrwt>0</asrwt>
<pdfrwt beam="1">  1        2 0.31204562E-02 0.20000391E+02</pdfrwt>
<pdfrwt beam="2">  1       -2 0.75852897E-03 0.20000391E+02</pdfrwt>
<totfact> 0.41728128E+06</totfact>
</mgrwt>
</event>
<event>
 5    1  0.4046313E-006  0.2000141E+02  0.7818608E-02  0.1745300E+00
          2   -1    0    0  501    0  0.00000000000E+00  0.00000000000E+00  0.24871581166E+02  0.24871581302E+02  0.26000000000E-02 0.  1.
         -2   -1    0    0    0  501 -0.00000000000E+00 -0.00000000000E+00 -0.40212189764E+01  0.40212198169E+01  0.26000000000E-02 0. -1.
       1023    2    1    2    0    0  0.00000000000E+00  0.00000000000E+00  0.20850362190E+02  0.28892801119E+02  0.20001408777E+02 0.  0.
        -11    1    3    3    0    0  0.99054973360E+01  0.13715756472E+01  0.10596044836E+02  0.14569703623E+02  0.51100000000E-03 0. -1.
         11    1    3    3    0    0 -0.99054973360E+01 -0.13715756472E+01  0.10254317353E+02  0.14323097496E+02  0.51100000000E-03 0.  1.
<mgrwt>
<rscale>  0 0.20001409E+02</rscale>
<asrwt>0</asrwt>
<pdfrwt beam="1">  1        2 0.38263971E-02 0.20001409E+02</pdfrwt>
<pdfrwt beam="2">  1       -2 0.61864916E-03 0.20001409E+02</pdfrwt>
<totfact> 0.42528246E+06</totfact>
</mgrwt>
</event>
<event>
 5    1  0.4046313E-006  0.2000035E+02  0.7818608E-02  0.1745321E+00
          2   -1    0    0  501    0  0.00000000000E+00  0.00000000000E+00  0.10652951811E+03  0.10652951814E+03  0.26000000000E-02 0. -1.
         -2   -1    0    0    0  501 -0.00000000000E+00 -0.00000000000E+00 -0.93873789007E+00  0.93874149065E+00  0.26000000000E-02 0.  1.
       1023    2    1    2    0    0  0.00000000000E+00  0.00000000000E+00  0.10559078022E+03  0.10746825963E+03  0.20000349020E+02 0.  0.
        -11    1    3    3    0    0 -0.98945332520E+01 -0.14489774911E+01  0.52545318213E+02  0.53488426696E+02  0.51100000000E-03 0. -1.
         11    1    3    3    0    0  0.98945332520E+01  0.14489774911E+01  0.53045462002E+02  0.53979832932E+02  0.51100000000E-03 0.  1.
<mgrwt>
<rscale>  0 0.20000349E+02</rscale>
<asrwt>0</asrwt>
<pdfrwt beam="1">  1        2 0.16389160E-01 0.20000349E+02</pdfrwt>
<pdfrwt beam="2">  1       -2 0.14442147E-03 0.20000349E+02</pdfrwt>
<totfact> 0.53530949E+06</totfact>
</mgrwt>
</event>
<event>
 5    1  0.4046313E-006  0.2000025E+02  0.7818608E-02  0.1745323E+00
         -2   -1    0    0    0  501 -0.00000000000E+00  0.00000000000E+00  0.72978535784E+01  0.72978540416E+01  0.26000000000E-02 0.  1.
          2   -1    0    0  501    0  0.00000000000E+00 -0.00000000000E+00 -0.13703002226E+02  0.13703002472E+02  0.26000000000E-02 0. -1.
       1023    2    1    2    0    0  0.00000000000E+00  0.00000000000E+00 -0.64051486473E+01  0.21000856514E+02  0.20000251127E+02 0.  0.
        -11    1    3    3    0    0 -0.97353560309E+01 -0.22858409347E+01 -0.31848417406E+01  0.10495019914E+02  0.51100000000E-03 0. -1.
         11    1    3    3    0    0  0.97353560309E+01  0.22858409347E+01 -0.32203069067E+01  0.10505836600E+02  0.51100000000E-03 0.  1.
<mgrwt>
<rscale>  0 0.20000251E+02</rscale>
<asrwt>0</asrwt>
<pdfrwt beam="2">  1        2 0.21081542E-02 0.20000251E+02</pdfrwt>
<pdfrwt beam="1">  1       -2 0.11227468E-02 0.20000251E+02</pdfrwt>
<totfact> 0.40402384E+06</totfact>
</mgrwt>
</event>
<event>
 5    1  0.4046313E-006  0.2001001E+02  0.7818608E-02  0.1745129E+00
         -2   -1    0    0    0  501 -0.00000000000E+00  0.00000000000E+00  0.29655016655E+02  0.29655016769E+02  0.26000000000E-02 0. -1.
          2   -1    0    0  501    0  0.00000000000E+00 -0.00000000000E+00 -0.33754872768E+01  0.33754882782E+01  0.26000000000E-02 0.  1.
       1023    2    1    2    0    0  0.00000000000E+00  0.00000000000E+00  0.26279529378E+02  0.33030505047E+02  0.20010012477E+02 0.  0.
        -11    1    3    3    0    0 -0.99204824523E+01 -0.12765170017E+01  0.12753762847E+02  0.16208144087E+02  0.51100000000E-03 0.  1.
         11    1    3    3    0    0  0.99204824523E+01  0.12765170017E+01  0.13525766532E+02  0.16822360960E+02  0.51100000000E-03 0. -1.
<mgrwt>
<rscale>  0 0.20010012E+02</rscale>
<asrwt>0</asrwt>
<pdfrwt beam="2">  1        2 0.51930582E-03 0.20010012E+02</pdfrwt>
<pdfrwt beam="1">  1       -2 0.45623103E-02 0.20010012E+02</pdfrwt>
<totfact> 0.36067540E+06</totfact>
</mgrwt>
</event>
<event>
 5    1  0.4046313E-006  0.2000070E+02  0.7818608E-02  0.1745314E+00
          2   -1    0    0  501    0  0.00000000000E+00  0.00000000000E+00  0.78210678405E+01  0.78210682727E+01  0.26000000000E-02 0.  1.
         -2   -1    0    0    0  501 -0.00000000000E+00 -0.00000000000E+00 -0.12786867920E+02  0.12786868184E+02  0.26000000000E-02 0. -1.
       1023    2    1    2    0    0  0.00000000000E+00  0.00000000000E+00 -0.49658000792E+01  0.20607936457E+02  0.20000696852E+02 0.  0.
        -11    1    3    3    0    0 -0.56243706323E+01  0.82688182316E+01 -0.24743768990E+01  0.10301914446E+02  0.51100000000E-03 0.  1.
         11    1    3    3    0    0  0.56243706323E+01 -0.82688182316E+01 -0.24914231802E+01  0.10306022011E+02  0.51100000000E-03 0. -1.
<mgrwt>
<rscale>  0 0.20000697E+02</rscale>
<asrwt>0</asrwt>
<pdfrwt beam="1">  1        2 0.12032413E-02 0.20000697E+02</pdfrwt>
<pdfrwt beam="2">  1       -2 0.19672105E-02 0.20000697E+02</pdfrwt>
<totfact> 0.38755199E+06</totfact>
</mgrwt>
</event>
<event>
 5    1  0.4046313E-006  0.2000845E+02  0.7818608E-02  0.1745160E+00
         -2   -1    0    0    0  501 -0.00000000000E+00  0.00000000000E+00  0.87789060195E+00  0.87789445208E+00  0.26000000000E-02 0.  1.
          2   -1    0    0  501    0  0.00000000000E+00 -0.00000000000E+00 -0.11400545327E+03  0.11400545330E+03  0.26000000000E-02 0. -1.
       1023    2    1    2    0    0  0.00000000000E+00  0.00000000000E+00 -0.11312756267E+03  0.11488334775E+03  0.20008452100E+02 0.  0.
        -11    1    3    3    0    0 -0.31314087875E-01  0.10002174113E+02 -0.57713148748E+02  0.58573475278E+02  0.51100000000E-03 0.  1.
         11    1    3    3    0    0  0.31314087875E-01 -0.10002174113E+02 -0.55414413922E+02  0.56309872474E+02  0.51100000000E-03 0. -1.
<mgrwt>
<rscale>  0 0.20008452E+02</rscale>
<asrwt>0</asrwt>
<pdfrwt beam="2">  1        2 0.17539289E-01 0.20008452E+02</pdfrwt>
<pdfrwt beam="1">  1       -2 0.13506048E-03 0.20008452E+02</pdfrwt>
<totfact> 0.54353955E+06</totfact>
</mgrwt>
</event>
<event>
 5    1  0.4046313E-006  0.2000459E+02  0.7818608E-02  0.1745237E+00
         -2   -1    0    0    0  501 -0.00000000000E+00  0.00000000000E+00  0.13578284326E+02  0.13578284575E+02  0.26000000000E-02 0. -1.
          2   -1    0    0  501    0  0.00000000000E+00 -0.00000000000E+00 -0.73680844905E+01  0.73680849492E+01  0.26000000000E-02 0.  1.
       1023    2    1    2    0    0  0.00000000000E+00  0.00000000000E+00  0.62101998351E+01  0.20946369524E+02  0.20004594828E+02 0.  0.
        -11    1    3    3    0    0  0.48168046544E+00  0.99897977011E+01  0.29650921794E+01  0.10431675133E+02  0.51100000000E-03 0. -1.
         11    1    3    3    0    0 -0.48168046544E+00 -0.99897977011E+01  0.32451076557E+01  0.10514694391E+02  0.51100000000E-03 0.  1.
<mgrwt>
<rscale>  0 0.20004595E+02</rscale>
<asrwt>0</asrwt>
<pdfrwt beam="2">  1        2 0.11335515E-02 0.20004595E+02</pdfrwt>
<pdfrwt beam="1">  1       -2 0.20889668E-02 0.20004595E+02</pdfrwt>
<totfact> 0.38566616E+06</totfact>
</mgrwt>
</event>
<event>
 5    1  0.4046313E-006  0.2000062E+02  0.7818608E-02  0.1745316E+00
         -2   -1    0    0    0  501 -0.00000000000E+00  0.00000000000E+00  0.48119172840E+02  0.48119172911E+02  0.26000000000E-02 0.  1.
          2   -1    0    0  501    0  0.00000000000E+00 -0.00000000000E+00 -0.20783019162E+01  0.20783035425E+01  0.26000000000E-02 0. -1.
       1023    2    1    2    0    0  0.00000000000E+00  0.00000000000E+00  0.46040870924E+02  0.50197476453E+02  0.20000621161E+02 0.  0.
        -11    1    3    3    0    0 -0.99910139804E+01 -0.42427246354E+00  0.23212298814E+02  0.25274714320E+02  0.51100000000E-03 0. -1.
         11    1    3    3    0    0  0.99910139804E+01  0.42427246354E+00  0.22828572110E+02  0.24922762133E+02  0.51100000000E-03 0.  1.
<mgrwt>
<rscale>  0 0.20000621E+02</rscale>
<asrwt>0</asrwt>
<pdfrwt beam="2">  1        2 0.31973885E-03 0.20000621E+02</pdfrwt>
<pdfrwt beam="1">  1       -2 0.74029507E-02 0.20000621E+02</pdfrwt>
<totfact> 0.34081340E+06</totfact>
</mgrwt>
</event>
<event>
 4    1  0.4046313E-006  0.2003599E+02  0.7818608E-02  0.1744613E+00
          2   -1    0    0  501    0  0.00000000000E+00  0.00000000000E+00  0.27872380744E+01  0.27872392871E+01  0.26000000000E-02 0.  1.
         -2   -1    0    0    0  501 -0.00000000000E+00 -0.00000000000E+00 -0.36007034105E+02  0.36007034198E+02  0.26000000000E-02 0. -1.
        -11    1    1    2    0    0  0.64798598549E+01 -0.76351989283E+01 -0.16078385977E+02  0.18941999427E+02  0.51100000000E-03 0. -1.
         11    1    1    2    0    0 -0.64798598549E+01  0.76351989283E+01 -0.17141410053E+02  0.19852274059E+02  0.51100000000E-03 0.  1.
<mgrwt>
<rscale>  0 0.20035988E+02</rscale>
<asrwt>0</asrwt>
<pdfrwt beam="1">  1        2 0.42880599E-03 0.20035988E+02</pdfrwt>
<pdfrwt beam="2">  1       -2 0.55395434E-02 0.20035988E+02</pdfrwt>
<totfact> 0.35220406E+06</totfact>
</mgrwt>
</event>
<event>
 5    1  0.4046313E-006  0.2000074E+02  0.7818608E-02  0.1745313E+00
          2   -1    0    0  501    0  0.00000000000E+00  0.00000000000E+00  0.16777993296E+02  0.16777993497E+02  0.26000000000E-02 0.  1.
         -2   -1    0    0    0  501 -0.00000000000E+00 -0.00000000000E+00 -0.59606287564E+01  0.59606293235E+01  0.26000000000E-02 0. -1.
       1023    2    1    2    0    0  0.00000000000E+00  0.00000000000E+00  0.10817364539E+02  0.22738622821E+02  0.20000739791E+02 0.  0.
        -11    1    3    3    0    0 -0.54845001986E+01 -0.83621017423E+01  0.53473554223E+01  0.11340136606E+02  0.51100000000E-03 0. -1.
         11    1    3    3    0    0  0.54845001986E+01  0.83621017423E+01  0.54700091171E+01  0.11398486214E+02  0.51100000000E-03 0.  1.
<mgrwt>
<rscale>  0 0.20000740E+02</rscale>
<asrwt>0</asrwt>
<pdfrwt beam="1">  1        2 0.25812297E-02 0.20000740E+02</pdfrwt>
<pdfrwt beam="2">  1       -2 0.91701989E-03 0.20000740E+02</pdfrwt>
<totfact> 0.41055226E+06</totfact>
</mgrwt>
</event>
<event>
 5    1  0.4046313E-006  0.2000425E+02  0.7818608E-02  0.1745244E+00
         -2   -1    0    0    0  501 -0.00000000000E+00  0.00000000000E+00  0.16216004341E+02  0.16216004550E+02  0.26000000000E-02 0. -1.
          2   -1    0    0  501    0  0.00000000000E+00 -0.00000000000E+00 -0.61693651491E+01  0.61693656969E+01  0.26000000000E-02 0.  1.
       1023    2    1    2    0    0  0.00000000000E+00  0.00000000000E+00  0.10046639192E+02  0.22385370247E+02  0.20004245600E+02 0.  0.
        -11    1    3    3    0    0  0.10001355869E+02 -0.11856838451E+00  0.49832437581E+01  0.11174698935E+02  0.51100000000E-03 0.  1.
         11    1    3    3    0    0 -0.10001355869E+02  0.11856838451E+00  0.50633954342E+01  0.11210671312E+02  0.51100000000E-03 0. -1.
<mgrwt>
<rscale>  0 0.20004246E+02</rscale>
<asrwt>0</asrwt>
<pdfrwt beam="2">  1        2 0.94913315E-03 0.20004246E+02</pdfrwt>
<pdfrwt beam="1">  1       -2 0.24947700E-02 0.20004246E+02</pdfrwt>
<totfact> 0.38051762E+06</totfact>
</mgrwt>
</event>
<event>
 5    1  0.4046313E-006  0.2000035E+02  0.7818608E-02  0.1745321E+00
          2   -1    0    0  501    0  0.00000000000E+00  0.00000000000E+00  0.35243837648E+02  0.35243837744E+02  0.26000000000E-02 0.  1.
         -2   -1    0    0    0  501 -0.00000000000E+00 -0.00000000000E+00 -0.28374733209E+01  0.28374745121E+01  0.26000000000E-02 0. -1.
       1023    2    1    2    0    0  0.00000000000E+00  0.00000000000E+00  0.32406364327E+02  0.38081312256E+02  0.20000347353E+02 0.  0.
        -11    1    3    3    0    0 -0.98242660724E+01  0.18673217765E+01  0.16240240913E+02  0.19072192314E+02  0.51100000000E-03 0. -1.
         11    1    3    3    0    0  0.98242660724E+01 -0.18673217765E+01  0.16166123414E+02  0.19009119942E+02  0.51100000000E-03 0.  1.
<mgrwt>
<rscale>  0 0.20000347E+02</rscale>
<asrwt>0</asrwt>
<pdfrwt beam="1">  1        2 0.54221289E-02 0.20000347E+02</pdfrwt>
<pdfrwt beam="2">  1       -2 0.43653446E-03 0.20000347E+02</pdfrwt>
<totfact> 0.44184415E+06</totfact>
</mgrwt>
</event>
<event>
 5    1  0.4046313E-006  0.2000251E+02  0.7818608E-02  0.1745278E+00
         -2   -1    0    0    0  501 -0.00000000000E+00  0.00000000000E+00  0.20525178502E+01  0.20525194969E+01  0.26000000000E-02 0. -1.
          2   -1    0    0  501    0  0.00000000000E+00 -0.00000000000E+00 -0.48732832607E+02  0.48732832676E+02  0.26000000000E-02 0.  1.
       1023    2    1    2    0    0  0.00000000000E+00  0.00000000000E+00 -0.46680314757E+02  0.50785352173E+02  0.20002505082E+02 0.  0.
        -11    1    3    3    0    0 -0.98309414774E+01 -0.18349870780E+01 -0.23080436098E+02  0.25153948371E+02  0.51100000000E-03 0.  1.
         11    1    3    3    0    0  0.98309414774E+01  0.18349870780E+01 -0.23599878658E+02  0.25631403802E+02  0.51100000000E-03 0. -1.
<mgrwt>
<rscale>  0 0.20002505E+02</rscale>
<asrwt>0</asrwt>
<pdfrwt beam="2">  1        2 0.74973581E-02 0.20002505E+02</pdfrwt>
<pdfrwt beam="1">  1       -2 0.31577214E-03 0.20002505E+02</pdfrwt>
<totfact> 0.46137661E+06</totfact>
</mgrwt>
</event>
<event>
 4    1  0.4046313E-006  0.2002781E+02  0.7818608E-02  0.1744776E+00
          2   -1    0    0  501    0  0.00000000000E+00  0.00000000000E+00  0.77895501209E+02  0.77895501253E+02  0.26000000000E-02 0. -1.
         -2   -1    0    0    0  501 -0.00000000000E+00 -0.00000000000E+00 -0.12873420298E+01  0.12873446554E+01  0.26000000000E-02 0.  1.
        -11    1    1    2    0    0 -0.67511015008E+01 -0.73781787291E+01  0.40333055667E+02  0.41554425427E+02  0.51100000000E-03 0. -1.
         11    1    1    2    0    0  0.67511015008E+01  0.73781787291E+01  0.36275103512E+02  0.37628420481E+02  0.51100000000E-03 0.  1.
<mgrwt>
<rscale>  0 0.20027807E+02</rscale>
<asrwt>0</asrwt>
<pdfrwt beam="1">  1        2 0.11983929E-01 0.20027807E+02</pdfrwt>
<pdfrwt beam="2">  1       -2 0.19805273E-03 0.20027807E+02</pdfrwt>
<totfact> 0.49879767E+06</totfact>
</mgrwt>
</event>
<event>
 5    1  0.4046313E-006  0.2000516E+02  0.7818608E-02  0.1745225E+00
          2   -1    0    0  501    0  0.00000000000E+00  0.00000000000E+00  0.88680746760E+00  0.88681127901E+00  0.26000000000E-02 0. -1.
         -2   -1    0    0    0  501 -0.00000000000E+00 -0.00000000000E+00 -0.11282199248E+03  0.11282199251E+03  0.26000000000E-02 0.  1.
       1023    2    1    2    0    0  0.00000000000E+00  0.00000000000E+00 -0.11193518501E+03  0.11370880379E+03  0.20005159718E+02 0.  0.
        -11    1    3    3    0    0 -0.78130903005E+01 -0.62433306341E+01 -0.55015698684E+02  0.55917355619E+02  0.51100000000E-03 0. -1.
         11    1    3    3    0    0  0.78130903005E+01  0.62433306341E+01 -0.56919486326E+02  0.57791448168E+02  0.51100000000E-03 0.  1.
<mgrwt>
<rscale>  0 0.20005160E+02</rscale>
<asrwt>0</asrwt>
<pdfrwt beam="1">  1        2 0.13643230E-03 0.20005160E+02</pdfrwt>
<pdfrwt beam="2">  1       -2 0.17357219E-01 0.20005160E+02</pdfrwt>
<totfact> 0.28809429E+06</totfact>
</mgrwt>
</event>
<event>
 5    1  0.4046313E-006  0.2000076E+02  0.7818608E-02  0.1745313E+00
         -2   -1    0    0    0  501 -0.00000000000E+00  0.00000000000E+00  0.56032553995E+01  0.56032560027E+01  0.26000000000E-02 0. -1.
          2   -1    0    0  501    0  0.00000000000E+00 -0.00000000000E+00 -0.17848118814E+02  0.17848119003E+02  0.26000000000E-02 0.  1.
       1023    2    1    2    0    0  0.00000000000E+00  0.00000000000E+00 -0.12244863414E+02  0.23451375006E+02  0.20000757726E+02 0.  0.
        -11    1    3    3    0    0 -0.74146162061E+01 -0.67105144941E+01 -0.61297435209E+01  0.11729505282E+02  0.51100000000E-03 0.  1.
         11    1    3    3    0    0  0.74146162061E+01  0.67105144941E+01 -0.61151198936E+01  0.11721869724E+02  0.51100000000E-03 0. -1.
<mgrwt>
<rscale>  0 0.20000758E+02</rscale>
<asrwt>0</asrwt>
<pdfrwt beam="2">  1        2 0.27458645E-02 0.20000758E+02</pdfrwt>
<pdfrwt beam="1">  1       -2 0.86203936E-03 0.20000758E+02</pdfrwt>
<totfact> 0.41267010E+06</totfact>
</mgrwt>
</event>
<event>
 5    1  0.4046313E-006  0.2000268E+02  0.7818608E-02  0.1745275E+00
         -2   -1    0    0    0  501 -0.00000000000E+00  0.00000000000E+00  0.13295976419E+02  0.13295976673E+02  0.26000000000E-02 0. -1.
          2   -1    0    0  501    0  0.00000000000E+00 -0.00000000000E+00 -0.75230900627E+01  0.75230905120E+01  0.26000000000E-02 0.  1.
       1023    2    1    2    0    0  0.00000000000E+00  0.00000000000E+00  0.57728863558E+01  0.20819067185E+02  0.20002683359E+02 0.  0.
        -11    1    3    3    0    0  0.38866458666E+00  0.99935817485E+01  0.29530780584E+01  0.10428010673E+02  0.51100000000E-03 0.  1.
         11    1    3    3    0    0 -0.38866458666E+00 -0.99935817485E+01  0.28198082973E+01  0.10391056511E+02  0.51100000000E-03 0. -1.
<mgrwt>
<rscale>  0 0.20002683E+02</rscale>
<asrwt>0</asrwt>
<pdfrwt beam="2">  1        2 0.11573985E-02 0.20002683E+02</pdfrwt>
<pdfrwt beam="1">  1       -2 0.20455349E-02 0.20002683E+02</pdfrwt>
<totfact> 0.38634958E+06</totfact>
</mgrwt>
</event>
<event>
 4    1  0.4046313E-006  0.2011792E+02  0.7818608E-02  0.1742993E+00
         -2   -1    0    0    0  501 -0.00000000000E+00  0.00000000000E+00  0.75232303166E+02  0.75232303211E+02  0.26000000000E-02 0. -1.
          2   -1    0    0  501    0  0.00000000000E+00 -0.00000000000E+00 -0.13449352915E+01  0.13449378046E+01  0.26000000000E-02 0.  1.
        -11    1    1    2    0    0  0.35502029935E+00  0.10031811894E+02  0.34478640245E+02  0.35910164616E+02  0.51100000000E-03 0. -1.
         11    1    1    2    0    0 -0.35502029935E+00 -0.10031811894E+02  0.39408727629E+02  0.40667076400E+02  0.51100000000E-03 0.  1.
<mgrwt>
<rscale>  0 0.20117920E+02</rscale>
<asrwt>0</asrwt>
<pdfrwt beam="2">  1        2 0.20691331E-03 0.20117920E+02</pdfrwt>
<pdfrwt beam="1">  1       -2 0.11574201E-01 0.20117920E+02</pdfrwt>
<totfact> 0.31241685E+06</totfact>
</mgrwt>
</event>
<event>
 5    1  0.4046313E-006  0.2000032E+02  0.7818608E-02  0.1745322E+00
          2   -1    0    0  501    0  0.00000000000E+00  0.00000000000E+00  0.37282613459E+01  0.37282622525E+01  0.26000000000E-02 0. -1.
         -2   -1    0    0    0  501 -0.00000000000E+00 -0.00000000000E+00 -0.26823000462E+02  0.26823000588E+02  0.26000000000E-02 0.  1.
       1023    2    1    2    0    0  0.00000000000E+00  0.00000000000E+00 -0.23094739116E+02  0.30551262840E+02  0.20000317155E+02 0.  0.
        -11    1    3    3    0    0 -0.79110836910E+00 -0.99687313926E+01 -0.11610597192E+02  0.15323427340E+02  0.51100000000E-03 0. -1.
         11    1    3    3    0    0  0.79110836910E+00  0.99687313926E+01 -0.11484141924E+02  0.15227835500E+02  0.51100000000E-03 0.  1.
<mgrwt>
<rscale>  0 0.20000317E+02</rscale>
<asrwt>0</asrwt>
<pdfrwt beam="1">  1        2 0.57357877E-03 0.20000317E+02</pdfrwt>
<pdfrwt beam="2">  1       -2 0.41266154E-02 0.20000317E+02</pdfrwt>
<totfact> 0.36465303E+06</totfact>
</mgrwt>
</event>
<event>
 5    1  0.4046313E-006  0.2000589E+02  0.7818608E-02  0.1745211E+00
         -2   -1    0    0    0  501 -0.00000000000E+00  0.00000000000E+00  0.16616614678E+01  0.16616635019E+01  0.26000000000E-02 0. -1.
          2   -1    0    0  501    0  0.00000000000E+00 -0.00000000000E+00 -0.60216150607E+02  0.60216150663E+02  0.26000000000E-02 0.  1.
       1023    2    1    2    0    0  0.00000000000E+00  0.00000000000E+00 -0.58554489139E+02  0.61877814165E+02  0.20005891319E+02 0.  0.
        -11    1    3    3    0    0 -0.83797223862E+01  0.54621773224E+01 -0.29467738888E+02  0.31119170359E+02  0.51100000000E-03 0. -1.
         11    1    3    3    0    0  0.83797223862E+01 -0.54621773224E+01 -0.29086750250E+02  0.30758643806E+02  0.51100000000E-03 0.  1.
<mgrwt>
<rscale>  0 0.20005891E+02</rscale>
<asrwt>0</asrwt>
<pdfrwt beam="2">  1        2 0.92640217E-02 0.20005891E+02</pdfrwt>
<pdfrwt beam="1">  1       -2 0.25564043E-03 0.20005891E+02</pdfrwt>
<totfact> 0.47695568E+06</totfact>
</mgrwt>
</event>
<event>
 4    1  0.4046313E-006  0.2001443E+02  0.7818608E-02  0.1745041E+00
          2   -1    0    0  501    0  0.00000000000E+00  0.00000000000E+00  0.78110964543E+02  0.78110964586E+02  0.26000000000E-02 0.  1.
         -2   -1    0    0    0  501 -0.00000000000E+00 -0.00000000000E+00 -0.12820766377E+01  0.12820792741E+01  0.26000000000E-02 0. -1.
        -11    1    1    2    0    0  0.54873395857E+01 -0.83676893359E+01  0.38903958579E+02  0.40170226710E+02  0.51100000000E-03 0. -1.
         11    1    1    2    0    0 -0.54873395857E+01  0.83676893359E+01  0.37924929326E+02  0.39222817150E+02  0.51100000000E-03 0.  1.
<mgrwt>
<rscale>  0 0.20014430E+02</rscale>
<asrwt>0</asrwt>
<pdfrwt beam="1">  1        2 0.12017074E-01 0.20014430E+02</pdfrwt>
<pdfrwt beam="2">  1       -2 0.19724272E-03 0.20014430E+02</pdfrwt>
<totfact> 0.49980898E+06</totfact>
</mgrwt>
</event>
<event>
 5    1  0.4046313E-006  0.2000412E+02  0.7818608E-02  0.1745246E+00
         -2   -1    0    0    0  501 -0.00000000000E+00  0.00000000000E+00  0.69177247921E+02  0.69177247970E+02  0.26000000000E-02 0. -1.
          2   -1    0    0  501    0  0.00000000000E+00 -0.00000000000E+00 -0.14461570966E+01  0.14461594338E+01  0.26000000000E-02 0.  1.
       1023    2    1    2    0    0  0.00000000000E+00  0.00000000000E+00  0.67731090824E+02  0.70623407404E+02  0.20004124801E+02 0.  0.
        -11    1    3    3    0    0 -0.95977671021E+01  0.28127801829E+01  0.34258461566E+02  0.35688528337E+02  0.51100000000E-03 0.  1.
         11    1    3    3    0    0  0.95977671021E+01 -0.28127801829E+01  0.33472629258E+02  0.34934879067E+02  0.51100000000E-03 0. -1.
<mgrwt>
<rscale>  0 0.20004125E+02</rscale>
<asrwt>0</asrwt>
<pdfrwt beam="2">  1        2 0.22248592E-03 0.20004125E+02</pdfrwt>
<pdfrwt beam="1">  1       -2 0.10642652E-01 0.20004125E+02</pdfrwt>
<totfact> 0.32138798E+06</totfact>
</mgrwt>
</event>
<event>
 5    1  0.4046313E-006  0.2000068E+02  0.7818608E-02  0.1745315E+00
          2   -1    0    0  501    0  0.00000000000E+00  0.00000000000E+00  0.39319710916E+01  0.39319719512E+01  0.26000000000E-02 0.  1.
         -2   -1    0    0    0  501 -0.00000000000E+00 -0.00000000000E+00 -0.25434265372E+02  0.25434265504E+02  0.26000000000E-02 0. -1.
       1023    2    1    2    0    0  0.00000000000E+00  0.00000000000E+00 -0.21502294280E+02  0.29366237456E+02  0.20000681063E+02 0.  0.
        -11    1    3    3    0    0  0.29446277986E+01 -0.95567877709E+01 -0.10841479465E+02  0.14749261087E+02  0.51100000000E-03 0.  1.
         11    1    3    3    0    0 -0.29446277986E+01  0.95567877709E+01 -0.10660814815E+02  0.14616976368E+02  0.51100000000E-03 0. -1.
<mgrwt>
<rscale>  0 0.20000681E+02</rscale>
<asrwt>0</asrwt>
<pdfrwt beam="1">  1        2 0.60491872E-03 0.20000681E+02</pdfrwt>
<pdfrwt beam="2">  1       -2 0.39129639E-02 0.20000681E+02</pdfrwt>
<totfact> 0.36647610E+06</totfact>
</mgrwt>
</event>
<event>
 5    1  0.4046313E-006  0.2000003E+02  0.7818608E-02  0.1745327E+00
         -2   -1    0    0    0  501 -0.00000000000E+00  0.00000000000E+00  0.15520571465E+02  0.15520571682E+02  0.26000000000E-02 0.  1.
          2   -1    0    0  501    0  0.00000000000E+00 -0.00000000000E+00 -0.64430824428E+01  0.64430829674E+01  0.26000000000E-02 0. -1.
       1023    2    1    2    0    0  0.00000000000E+00  0.00000000000E+00  0.90774890218E+01  0.21963654650E+02  0.20000032966E+02 0.  0.
        -11    1    3    3    0    0  0.90481492712E+01  0.42580842641E+01  0.45459091044E+01  0.10984788422E+02  0.51100000000E-03 0. -1.
         11    1    3    3    0    0 -0.90481492712E+01 -0.42580842641E+01  0.45315799174E+01  0.10978866228E+02  0.51100000000E-03 0.  1.
<mgrwt>
<rscale>  0 0.20000033E+02</rscale>
<asrwt>0</asrwt>
<pdfrwt beam="2">  1        2 0.99124353E-03 0.20000033E+02</pdfrwt>
<pdfrwt beam="1">  1       -2 0.23877802E-02 0.20000033E+02</pdfrwt>
<totfact> 0.38197916E+06</totfact>
</mgrwt>
</event>
<event>
 4    1  0.4046313E-006  0.2009050E+02  0.7818608E-02  0.1743534E+00
         -2   -1    0    0    0  501 -0.00000000000E+00  0.00000000000E+00  0.53273792863E+02  0.53273792927E+02  0.26000000000E-02 0. -1.
          2   -1    0    0  501    0  0.00000000000E+00 -0.00000000000E+00 -0.18941200652E+01  0.18941218497E+01  0.26000000000E-02 0.  1.
        -11    1    1    2    0    0  0.76262037181E+01  0.64902002585E+01  0.27861286740E+02  0.29606299694E+02  0.51100000000E-03 0. -1.
         11    1    1    2    0    0 -0.76262037181E+01 -0.64902002585E+01  0.23518386058E+02  0.25561615082E+02  0.51100000000E-03 0.  1.
<mgrwt>
<rscale>  0 0.20090496E+02</rscale>
<asrwt>0</asrwt>
<pdfrwt beam="2">  1        2 0.29140320E-03 0.20090496E+02</pdfrwt>
<pdfrwt beam="1">  1       -2 0.81959690E-02 0.20090496E+02</pdfrwt>
<totfact> 0.33253789E+06</totfact>
</mgrwt>
</event>
<event>
 5    1  0.4046313E-006  0.2000119E+02  0.7818608E-02  0.1745304E+00
         -2   -1    0    0    0  501 -0.00000000000E+00  0.00000000000E+00  0.11314196354E+02  0.11314196652E+02  0.26000000000E-02 0. -1.
          2   -1    0    0  501    0  0.00000000000E+00 -0.00000000000E+00 -0.88395041976E+01  0.88395045800E+01  0.26000000000E-02 0.  1.
       1023    2    1    2    0    0  0.00000000000E+00  0.00000000000E+00  0.24746921560E+01  0.20153701232E+02  0.20001189267E+02 0.  0.
        -11    1    3    3    0    0 -0.83083340647E+01 -0.55662781511E+01  0.12322700540E+01  0.10076227326E+02  0.51100000000E-03 0.  1.
         11    1    3    3    0    0  0.83083340647E+01  0.55662781511E+01  0.12424221020E+01  0.10077473906E+02  0.51100000000E-03 0. -1.
<mgrwt>
<rscale>  0 0.20001189E+02</rscale>
<asrwt>0</asrwt>
<pdfrwt beam="2">  1        2 0.13599238E-02 0.20001189E+02</pdfrwt>
<pdfrwt beam="1">  1       -2 0.17406456E-02 0.20001189E+02</pdfrwt>
<totfact> 0.39103267E+06</totfact>
</mgrwt>
</event>
<event>
 5    1  0.4046313E-006  0.2000338E+02  0.7818608E-02  0.1745261E+00
         -2   -1    0    0    0  501 -0.00000000000E+00  0.00000000000E+00  0.64752661408E+01  0.64752666628E+01  0.26000000000E-02 0. -1.
          2   -1    0    0  501    0  0.00000000000E+00 -0.00000000000E+00 -0.15448606824E+02  0.15448607043E+02  0.26000000000E-02 0.  1.
       1023    2    1    2    0    0  0.00000000000E+00  0.00000000000E+00 -0.89733406834E+01  0.21923873706E+02  0.20003384595E+02 0.  0.
        -11    1    3    3    0    0 -0.29985949234E+01 -0.95415901872E+01 -0.44666480018E+01  0.10953741801E+02  0.51100000000E-03 0. -1.
         11    1    3    3    0    0  0.29985949234E+01  0.95415901872E+01 -0.45066926816E+01  0.10970131905E+02  0.51100000000E-03 0.  1.
<mgrwt>
<rscale>  0 0.20003385E+02</rscale>
<asrwt>0</asrwt>
<pdfrwt beam="2">  1        2 0.23767088E-02 0.20003385E+02</pdfrwt>
<pdfrwt beam="1">  1       -2 0.99619485E-03 0.20003385E+02</pdfrwt>
<totfact> 0.40769357E+06</totfact>
</mgrwt>
</event>
<event>
 5    1  0.4046313E-006  0.2000056E+02  0.7818608E-02  0.1745317E+00
         -2   -1    0    0    0  501 -0.00000000000E+00  0.00000000000E+00  0.16546334970E+01  0.16546355398E+01  0.26000000000E-02 0.  1.
          2   -1    0    0  501    0  0.00000000000E+00 -0.00000000000E+00 -0.60439668685E+02  0.60439668741E+02  0.26000000000E-02 0. -1.
       1023    2    1    2    0    0  0.00000000000E+00  0.00000000000E+00 -0.58785035188E+02  0.62094304281E+02  0.20000556544E+02 0.  0.
        -11    1    3    3    0    0  0.14339959951E+01  0.98967342811E+01 -0.29199348076E+02  0.30864277446E+02  0.51100000000E-03 0. -1.
         11    1    3    3    0    0 -0.14339959951E+01 -0.98967342811E+01 -0.29585687112E+02  0.31230026834E+02  0.51100000000E-03 0.  1.
<mgrwt>
<rscale>  0 0.20000557E+02</rscale>
<asrwt>0</asrwt>
<pdfrwt beam="2">  1        2 0.92984090E-02 0.20000557E+02</pdfrwt>
<pdfrwt beam="1">  1       -2 0.25455921E-03 0.20000557E+02</pdfrwt>
<totfact> 0.47753866E+06</totfact>
</mgrwt>
</event>
<event>
 5    1  0.4046313E-006  0.2000266E+02  0.7818608E-02  0.1745275E+00
          2   -1    0    0  501    0  0.00000000000E+00  0.00000000000E+00  0.34522850941E+01  0.34522860731E+01  0.26000000000E-02 0.  1.
         -2   -1    0    0    0  501 -0.00000000000E+00 -0.00000000000E+00 -0.28974032674E+02  0.28974032791E+02  0.26000000000E-02 0. -1.
       1023    2    1    2    0    0  0.00000000000E+00  0.00000000000E+00 -0.25521747580E+02  0.32426318864E+02  0.20002663711E+02 0.  0.
        -11    1    3    3    0    0  0.26068213109E+01  0.96554838484E+01 -0.12675817383E+02  0.16146214178E+02  0.51100000000E-03 0. -1.
         11    1    3    3    0    0 -0.26068213109E+01 -0.96554838484E+01 -0.12845930197E+02  0.16280104686E+02  0.51100000000E-03 0.  1.
<mgrwt>
<rscale>  0 0.20002664E+02</rscale>
<asrwt>0</asrwt>
<pdfrwt beam="1">  1        2 0.53112089E-03 0.20002664E+02</pdfrwt>
<pdfrwt beam="2">  1       -2 0.44575434E-02 0.20002664E+02</pdfrwt>
<totfact> 0.36181191E+06</totfact>
</mgrwt>
</event>
<event>
 5    1  0.4046313E-006  0.2000178E+02  0.7818608E-02  0.1745293E+00
         -2   -1    0    0    0  501 -0.00000000000E+00  0.00000000000E+00  0.13082079970E+02  0.13082080228E+02  0.26000000000E-02 0. -1.
          2   -1    0    0  501    0  0.00000000000E+00 -0.00000000000E+00 -0.76454063482E+01  0.76454067903E+01  0.26000000000E-02 0.  1.
       1023    2    1    2    0    0  0.00000000000E+00  0.00000000000E+00  0.54366736214E+01  0.20727487018E+02  0.20001782371E+02 0.  0.
        -11    1    3    3    0    0 -0.46276430819E+01  0.88658044270E+01  0.27349048284E+01  0.10368089183E+02  0.51100000000E-03 0.  1.
         11    1    3    3    0    0  0.46276430819E+01 -0.88658044270E+01  0.27017687931E+01  0.10359397835E+02  0.51100000000E-03 0. -1.
<mgrwt>
<rscale>  0 0.20001782E+02</rscale>
<asrwt>0</asrwt>
<pdfrwt beam="2">  1        2 0.11762164E-02 0.20001782E+02</pdfrwt>
<pdfrwt beam="1">  1       -2 0.20126277E-02 0.20001782E+02</pdfrwt>
<totfact> 0.38685272E+06</totfact>
</mgrwt>
</event>
<event>
 5    1  0.4046313E-006  0.2000750E+02  0.7818608E-02  0.1745179E+00
         -2   -1    0    0    0  501 -0.00000000000E+00  0.00000000000E+00  0.18556906511E+01  0.18556924726E+01  0.26000000000E-02 0.  1.
          2   -1    0    0  501    0  0.00000000000E+00 -0.00000000000E+00 -0.53928680874E+02  0.53928680937E+02  0.26000000000E-02 0. -1.
       1023    2    1    2    0    0  0.00000000000E+00  0.00000000000E+00 -0.52072990223E+02  0.55784373409E+02  0.20007498742E+02 0.  0.
        -11    1    3    3    0    0  0.56087635668E+00  0.99873663125E+01 -0.25719413882E+02  0.27596201167E+02  0.51100000000E-03 0.  1.
         11    1    3    3    0    0 -0.56087635668E+00 -0.99873663125E+01 -0.26353576341E+02  0.28188172243E+02  0.51100000000E-03 0. -1.
<mgrwt>
<rscale>  0 0.20007499E+02</rscale>
<asrwt>0</asrwt>
<pdfrwt beam="2">  1        2 0.82967191E-02 0.20007499E+02</pdfrwt>
<pdfrwt beam="1">  1       -2 0.28549106E-03 0.20007499E+02</pdfrwt>
<totfact> 0.46833449E+06</totfact>
</mgrwt>
</event>
<event>
 5    1  0.4046313E-006  0.2000171E+02  0.7818608E-02  0.1745294E+00
          2   -1    0    0  501    0  0.00000000000E+00  0.00000000000E+00  0.53012592762E+02  0.53012592826E+02  0.26000000000E-02 0. -1.
         -2   -1    0    0    0  501 -0.00000000000E+00 -0.00000000000E+00 -0.18866666954E+01  0.18866684870E+01  0.26000000000E-02 0.  1.
       1023    2    1    2    0    0  0.00000000000E+00  0.00000000000E+00  0.51125926067E+02  0.54899261313E+02  0.20001714339E+02 0.  0.
        -11    1    3    3    0    0 -0.99219352757E+01 -0.12536194153E+01  0.25486178617E+02  0.27378123785E+02  0.51100000000E-03 0. -1.
         11    1    3    3    0    0  0.99219352757E+01  0.12536194153E+01  0.25639747450E+02  0.27521137527E+02  0.51100000000E-03 0.  1.
<mgrwt>
<rscale>  0 0.20001714E+02</rscale>
<asrwt>0</asrwt>
<pdfrwt beam="1">  1        2 0.81557830E-02 0.20001714E+02</pdfrwt>
<pdfrwt beam="2">  1       -2 0.29025658E-03 0.20001714E+02</pdfrwt>
<totfact> 0.46737462E+06</totfact>
</mgrwt>
</event>
<event>
 5    1  0.4046313E-006  0.2000022E+02  0.7818608E-02  0.1745324E+00
          2   -1    0    0  501    0  0.00000000000E+00  0.00000000000E+00  0.24080417163E+01  0.24080431199E+01  0.26000000000E-02 0. -1.
         -2   -1    0    0    0  501 -0.00000000000E+00 -0.00000000000E+00 -0.41528431156E+02  0.41528431237E+02  0.26000000000E-02 0.  1.
       1023    2    1    2    0    0  0.00000000000E+00  0.00000000000E+00 -0.39120389440E+02  0.43936474357E+02  0.20000222725E+02 0.  0.
        -11    1    3    3    0    0 -0.15351930115E+01  0.98815690211E+01 -0.19564061312E+02  0.21971679935E+02  0.51100000000E-03 0. -1.
         11    1    3    3    0    0  0.15351930115E+01 -0.98815690211E+01 -0.19556328128E+02  0.21964794422E+02  0.51100000000E-03 0.  1.
<mgrwt>
<rscale>  0 0.20000223E+02</rscale>
<asrwt>0</asrwt>
<pdfrwt beam="1">  1        2 0.37046810E-03 0.20000223E+02</pdfrwt>
<pdfrwt beam="2">  1       -2 0.63889890E-02 0.20000223E+02</pdfrwt>
<totfact> 0.34756854E+06</totfact>
</mgrwt>
</event>
<event>
 5    1  0.4046313E-006  0.2000434E+02  0.7818608E-02  0.1745242E+00
         -2   -1    0    0    0  501 -0.00000000000E+00  0.00000000000E+00  0.12558280279E+02  0.12558280548E+02  0.26000000000E-02 0. -1.
          2   -1    0    0  501    0  0.00000000000E+00 -0.00000000000E+00 -0.79663305912E+01  0.79663310155E+01  0.26000000000E-02 0.  1.
       1023    2    1    2    0    0  0.00000000000E+00  0.00000000000E+00  0.45919496876E+01  0.20524611563E+02  0.20004341476E+02 0.  0.
        -11    1    3    3    0    0  0.99744990852E+01  0.74348398104E+00  0.22915283982E+01  0.10261310983E+02  0.51100000000E-03 0.  1.
         11    1    3    3    0    0 -0.99744990852E+01 -0.74348398104E+00  0.23004212894E+01  0.10263300580E+02  0.51100000000E-03 0. -1.
<mgrwt>
<rscale>  0 0.20004341E+02</rscale>
<asrwt>0</asrwt>
<pdfrwt beam="2">  1        2 0.12255894E-02 0.20004341E+02</pdfrwt>
<pdfrwt beam="1">  1       -2 0.19320432E-02 0.20004341E+02</pdfrwt>
<totfact> 0.38791637E+06</totfact>
</mgrwt>
</event>
<event>
 5    1  0.4046313E-006  0.2000118E+02  0.7818608E-02  0.1745305E+00
          2   -1    0    0  501    0  0.00000000000E+00  0.00000000000E+00  0.92912994791E+01  0.92912998429E+01  0.26000000000E-02 0. -1.
         -2   -1    0    0    0  501 -0.00000000000E+00 -0.00000000000E+00 -0.10764024227E+02  0.10764024541E+02  0.26000000000E-02 0.  1.
       1023    2    1    2    0    0  0.00000000000E+00  0.00000000000E+00 -0.14727247484E+01  0.20055324384E+02  0.20001177915E+02 0.  0.
        -11    1    3    3    0    0 -0.29286150076E+01  0.95621568166E+01 -0.74865874434E+00  0.10028565153E+02  0.51100000000E-03 0. -1.
         11    1    3    3    0    0  0.29286150076E+01 -0.95621568166E+01 -0.72406600404E+00  0.10026759232E+02  0.51100000000E-03 0.  1.
<mgrwt>
<rscale>  0 0.20001178E+02</rscale>
<asrwt>0</asrwt>
<pdfrwt beam="1">  1        2 0.14294307E-02 0.20001178E+02</pdfrwt>
<pdfrwt beam="2">  1       -2 0.16560038E-02 0.20001178E+02</pdfrwt>
<totfact> 0.39246179E+06</totfact>
</mgrwt>
</event>
<event>
 5    1  0.4046313E-006  0.2000269E+02  0.7818608E-02  0.1745275E+00
          2   -1    0    0  501    0  0.00000000000E+00  0.00000000000E+00  0.34231678968E+01  0.34231688842E+01  0.26000000000E-02 0. -1.
         -2   -1    0    0    0  501 -0.00000000000E+00 -0.00000000000E+00 -0.29220559657E+02  0.29220559772E+02  0.26000000000E-02 0.  1.
       1023    2    1    2    0    0  0.00000000000E+00  0.00000000000E+00 -0.25797391760E+02  0.32643728657E+02  0.20002689794E+02 0.  0.
        -11    1    3    3    0    0  0.91042009249E+01  0.41400599565E+01 -0.12869114416E+02  0.16298486956E+02  0.51100000000E-03 0.  1.
         11    1    3    3    0    0 -0.91042009249E+01 -0.41400599565E+01 -0.12928277344E+02  0.16345241701E+02  0.51100000000E-03 0. -1.
<mgrwt>
<rscale>  0 0.20002690E+02</rscale>
<asrwt>0</asrwt>
<pdfrwt beam="1">  1        2 0.52664132E-03 0.20002690E+02</pdfrwt>
<pdfrwt beam="2">  1       -2 0.44954706E-02 0.20002690E+02</pdfrwt>
<totfact> 0.36150284E+06</totfact>
</mgrwt>
</event>
<event>
 5    1  0.4046313E-006  0.2000046E+02  0.7818608E-02  0.1745319E+00
         -2   -1    0    0    0  501 -0.00000000000E+00  0.00000000000E+00  0.18005895595E+02  0.18005895783E+02  0.26000000000E-02 0.  1.
          2   -1    0    0  501    0  0.00000000000E+00 -0.00000000000E+00 -0.55539928795E+01  0.55539934881E+01  0.26000000000E-02 0. -1.
       1023    2    1    2    0    0  0.00000000000E+00  0.00000000000E+00  0.12451902715E+02  0.23559889271E+02  0.20000462525E+02 0.  0.
        -11    1    3    3    0    0 -0.80354939580E+01 -0.59524495236E+01  0.61532739085E+01  0.11741533057E+02  0.51100000000E-03 0.  1.
         11    1    3    3    0    0  0.80354939580E+01  0.59524495236E+01  0.62986288069E+01  0.11818356213E+02  0.51100000000E-03 0. -1.
<mgrwt>
<rscale>  0 0.20000463E+02</rscale>
<asrwt>0</asrwt>
<pdfrwt beam="2">  1        2 0.85446051E-03 0.20000463E+02</pdfrwt>
<pdfrwt beam="1">  1       -2 0.27701378E-02 0.20000463E+02</pdfrwt>
<totfact> 0.37754621E+06</totfact>
</mgrwt>
</event>
<event>
 5    1  0.4049047E-006  0.2000058E+02  0.7818608E-02  0.1745317E+00
         -2   -1    0    0    0  501 -0.00000000000E+00  0.00000000000E+00  0.12683986102E+01  0.12684012750E+01  0.26000000000E-02 0. -1.
          2   -1    0    0  501    0  0.00000000000E+00 -0.00000000000E+00 -0.78844067201E+02  0.78844067244E+02  0.26000000000E-02 0.  1.
       1023    2    1    2    0    0  0.00000000000E+00  0.00000000000E+00 -0.77575668591E+02  0.80112468519E+02  0.20000581364E+02 0.  0.
        -11    1    3    3    0    0  0.34379983570E+01 -0.93904574080E+01 -0.38496492449E+02  0.39774117893E+02  0.51100000000E-03 0. -1.
         11    1    3    3    0    0 -0.34379983570E+01  0.93904574080E+01 -0.39079176142E+02  0.40338350626E+02  0.51100000000E-03 0.  1.
<mgrwt>
<rscale>  0 0.20000581E+02</rscale>
<asrwt>0</asrwt>
<pdfrwt beam="2">  1        2 0.12129853E-01 0.20000581E+02</pdfrwt>
<pdfrwt beam="1">  1       -2 0.19513852E-03 0.20000581E+02</pdfrwt>
<totfact> 0.50150376E+06</totfact>
</mgrwt>
</event>
<event>
 5    1  0.4046313E-006  0.2000007E+02  0.7818608E-02  0.1745327E+00
          2   -1    0    0  501    0  0.00000000000E+00  0.00000000000E+00  0.32032253933E+01  0.32032264484E+01  0.26000000000E-02 0. -1.
         -2   -1    0    0    0  501 -0.00000000000E+00 -0.00000000000E+00 -0.31218752402E+02  0.31218752511E+02  0.26000000000E-02 0.  1.
       1023    2    1    2    0    0  0.00000000000E+00  0.00000000000E+00 -0.28015527009E+02  0.34421978959E+02  0.20000072046E+02 0.  0.
        -11    1    3    3    0    0 -0.99163970709E+01  0.12906545979E+01 -0.14008131624E+02  0.17211289087E+02  0.51100000000E-03 0.  1.
         11    1    3    3    0    0  0.99163970709E+01 -0.12906545979E+01 -0.14007395385E+02  0.17210689873E+02  0.51100000000E-03 0. -1.
<mgrwt>
<rscale>  0 0.20000072E+02</rscale>
<asrwt>0</asrwt>
<pdfrwt beam="1">  1        2 0.49280402E-03 0.20000072E+02</pdfrwt>
<pdfrwt beam="2">  1       -2 0.48028849E-02 0.20000072E+02</pdfrwt>
<totfact> 0.35915647E+06</totfact>
</mgrwt>
</event>
<event>
 5    1  0.4046313E-006  0.2000066E+02  0.7818608E-02  0.1745315E+00
         -2   -1    0    0    0  501 -0.00000000000E+00  0.00000000000E+00  0.11669022673E+02  0.11669022962E+02  0.26000000000E-02 0. -1.
          2   -1    0    0  501    0  0.00000000000E+00 -0.00000000000E+00 -0.85702669236E+01  0.85702673180E+01  0.26000000000E-02 0.  1.
       1023    2    1    2    0    0  0.00000000000E+00  0.00000000000E+00  0.30987557490E+01  0.20239290280E+02  0.20000664585E+02 0.  0.
        -11    1    3    3    0    0 -0.97703948453E+01  0.21314745322E+01  0.16033678634E+01  0.10127911329E+02  0.51100000000E-03 0. -1.
         11    1    3    3    0    0  0.97703948453E+01 -0.21314745322E+01  0.14953878856E+01  0.10111378952E+02  0.51100000000E-03 0.  1.
<mgrwt>
<rscale>  0 0.20000665E+02</rscale>
<asrwt>0</asrwt>
<pdfrwt beam="2">  1        2 0.13185027E-02 0.20000665E+02</pdfrwt>
<pdfrwt beam="1">  1       -2 0.17952343E-02 0.20000665E+02</pdfrwt>
<totfact> 0.39017074E+06</totfact>
</mgrwt>
</event>
<event>
 4    1  0.4046313E-006  0.2034353E+02  0.7818608E-02  0.1738582E+00
         -2   -1    0    0    0  501 -0.00000000000E+00  0.00000000000E+00  0.73485833889E+02  0.73485833935E+02  0.26000000000E-02 0. -1.
          2   -1    0    0  501    0  0.00000000000E+00 -0.00000000000E+00 -0.14079550123E+01  0.14079574130E+01  0.26000000000E-02 0.  1.
        -11    1    1    2    0    0 -0.10002558675E+02 -0.12323926085E+01  0.41106616116E+02  0.42324034074E+02  0.51100000000E-03 0.  1.
         11    1    1    2    0    0  0.10002558675E+02  0.12323926085E+01  0.30971262761E+02  0.32569757274E+02  0.51100000000E-03 0. -1.
<mgrwt>
<rscale>  0 0.20343534E+02</rscale>
<asrwt>0</asrwt>
<pdfrwt beam="2">  1        2 0.21660866E-03 0.20343534E+02</pdfrwt>
<pdfrwt beam="1">  1       -2 0.11305513E-01 0.20343534E+02</pdfrwt>
<totfact> 0.30627745E+06</totfact>
</mgrwt>
</event>
<event>
 5    1  0.4046313E-006  0.2000164E+02  0.7818608E-02  0.1745296E+00
          2   -1    0    0  501    0  0.00000000000E+00  0.00000000000E+00  0.34452920022E+02  0.34452920120E+02  0.26000000000E-02 0.  1.
         -2   -1    0    0    0  501 -0.00000000000E+00 -0.00000000000E+00 -0.29029857940E+01  0.29029869584E+01  0.26000000000E-02 0. -1.
       1023    2    1    2    0    0  0.00000000000E+00  0.00000000000E+00  0.31549934227E+02  0.37355907078E+02  0.20001636030E+02 0.  0.
        -11    1    3    3    0    0  0.69886010730E+01 -0.71526267716E+01  0.16009324731E+02  0.18875886557E+02  0.51100000000E-03 0. -1.
         11    1    3    3    0    0 -0.69886010730E+01  0.71526267716E+01  0.15540609496E+02  0.18480020521E+02  0.51100000000E-03 0.  1.
<mgrwt>
<rscale>  0 0.20001636E+02</rscale>
<asrwt>0</asrwt>
<pdfrwt beam="1">  1        2 0.53004495E-02 0.20001636E+02</pdfrwt>
<pdfrwt beam="2">  1       -2 0.44661329E-03 0.20001636E+02</pdfrwt>
<totfact> 0.44057666E+06</totfact>
</mgrwt>
</event>
<event>
 5    1  0.4046313E-006  0.2000454E+02  0.7818608E-02  0.1745238E+00
         -2   -1    0    0    0  501 -0.00000000000E+00  0.00000000000E+00  0.20234538602E+02  0.20234538769E+02  0.26000000000E-02 0. -1.
          2   -1    0    0  501    0  0.00000000000E+00 -0.00000000000E+00 -0.49442890072E+01  0.49442896908E+01  0.26000000000E-02 0.  1.
       1023    2    1    2    0    0  0.00000000000E+00  0.00000000000E+00  0.15290249595E+02  0.25178828460E+02  0.20004541233E+02 0.  0.
        -11    1    3    3    0    0  0.88399164717E+01  0.46770380543E+01  0.74398094217E+01  0.12464733157E+02  0.51100000000E-03 0.  1.
         11    1    3    3    0    0 -0.88399164717E+01 -0.46770380543E+01  0.78504401728E+01  0.12714095302E+02  0.51100000000E-03 0. -1.
<mgrwt>
<rscale>  0 0.20004541E+02</rscale>
<asrwt>0</asrwt>
<pdfrwt beam="2">  1        2 0.76065991E-03 0.20004541E+02</pdfrwt>
<pdfrwt beam="1">  1       -2 0.31130060E-02 0.20004541E+02</pdfrwt>
<totfact> 0.37379017E+06</totfact>
</mgrwt>
</event>
<event>
 5    1  0.4046313E-006  0.2000055E+02  0.7818608E-02  0.1745317E+00
         -2   -1    0    0    0  501 -0.00000000000E+00  0.00000000000E+00  0.12555214700E+02  0.12555214969E+02  0.26000000000E-02 0.  1.
          2   -1    0    0  501    0  0.00000000000E+00 -0.00000000000E+00 -0.79652580114E+01  0.79652584358E+01  0.26000000000E-02 0. -1.
       1023    2    1    2    0    0  0.00000000000E+00  0.00000000000E+00  0.45899566883E+01  0.20520473405E+02  0.20000553151E+02 0.  0.
        -11    1    3    3    0    0  0.10117990934E+01  0.99487638643E+01  0.22309748758E+01  0.10245920602E+02  0.51100000000E-03 0. -1.
         11    1    3    3    0    0 -0.10117990934E+01 -0.99487638643E+01  0.23589818125E+01  0.10274552802E+02  0.51100000000E-03 0.  1.
<mgrwt>
<rscale>  0 0.20000553E+02</rscale>
<asrwt>0</asrwt>
<pdfrwt beam="2">  1        2 0.12254244E-02 0.20000553E+02</pdfrwt>
<pdfrwt beam="1">  1       -2 0.19315715E-02 0.20000553E+02</pdfrwt>
<totfact> 0.38808139E+06</totfact>
</mgrwt>
</event>
<event>
 5    1  0.4046313E-006  0.2000011E+02  0.7818608E-02  0.1745326E+00
          2   -1    0    0  501    0  0.00000000000E+00  0.00000000000E+00  0.30986953190E+01  0.30986964098E+01  0.26000000000E-02 0.  1.
         -2   -1    0    0    0  501 -0.00000000000E+00 -0.00000000000E+00 -0.32271982164E+02  0.32271982268E+02  0.26000000000E-02 0. -1.
       1023    2    1    2    0    0  0.00000000000E+00  0.00000000000E+00 -0.29173286845E+02  0.35370678678E+02  0.20000106121E+02 0.  0.
        -11    1    3    3    0    0  0.99060485944E+01 -0.13678420175E+01 -0.14615725119E+02  0.17709325553E+02  0.51100000000E-03 0.  1.
         11    1    3    3    0    0 -0.99060485944E+01  0.13678420175E+01 -0.14557561726E+02  0.17661353125E+02  0.51100000000E-03 0. -1.
<mgrwt>
<rscale>  0 0.20000106E+02</rscale>
<asrwt>0</asrwt>
<pdfrwt beam="1">  1        2 0.47672247E-03 0.20000106E+02</pdfrwt>
<pdfrwt beam="2">  1       -2 0.49649202E-02 0.20000106E+02</pdfrwt>
<totfact> 0.35789591E+06</totfact>
</mgrwt>
</event>
<event>
 5    1  0.4046313E-006  0.2000201E+02  0.7818608E-02  0.1745288E+00
         -2   -1    0    0    0  501 -0.00000000000E+00  0.00000000000E+00  0.17864568981E+02  0.17864569170E+02  0.26000000000E-02 0. -1.
          2   -1    0    0  501    0  0.00000000000E+00 -0.00000000000E+00 -0.55987954553E+01  0.55987960590E+01  0.26000000000E-02 0.  1.
       1023    2    1    2    0    0  0.00000000000E+00  0.00000000000E+00  0.12265773526E+02  0.23463365229E+02  0.20002007592E+02 0.  0.
        -11    1    3    3    0    0  0.94346859650E+01 -0.33162645392E+01  0.62451992931E+01  0.11790395423E+02  0.51100000000E-03 0.  1.
         11    1    3    3    0    0 -0.94346859650E+01  0.33162645392E+01  0.60205742324E+01  0.11672969806E+02  0.51100000000E-03 0. -1.
<mgrwt>
<rscale>  0 0.20002008E+02</rscale>
<asrwt>0</asrwt>
<pdfrwt beam="2">  1        2 0.86135321E-03 0.20002008E+02</pdfrwt>
<pdfrwt beam="1">  1       -2 0.27483953E-02 0.20002008E+02</pdfrwt>
<totfact> 0.37772108E+06</totfact>
</mgrwt>
</event>
<event>
 5    1  0.4046313E-006  0.2000116E+02  0.7818608E-02  0.1745305E+00
         -2   -1    0    0    0  501 -0.00000000000E+00  0.00000000000E+00  0.25541260393E+01  0.25541273626E+01  0.26000000000E-02 0.  1.
          2   -1    0    0  501    0  0.00000000000E+00 -0.00000000000E+00 -0.39156859890E+02  0.39156859976E+02  0.26000000000E-02 0. -1.
       1023    2    1    2    0    0  0.00000000000E+00  0.00000000000E+00 -0.36602733850E+02  0.41710987338E+02  0.20001158452E+02 0.  0.
        -11    1    3    3    0    0 -0.32458645328E+01 -0.94586806404E+01 -0.18100162768E+02  0.20678930546E+02  0.51100000000E-03 0. -1.
         11    1    3    3    0    0  0.32458645328E+01  0.94586806404E+01 -0.18502571082E+02  0.21032056793E+02  0.51100000000E-03 0.  1.
<mgrwt>
<rscale>  0 0.20001158E+02</rscale>
<asrwt>0</asrwt>
<pdfrwt beam="2">  1        2 0.60241319E-02 0.20001158E+02</pdfrwt>
<pdfrwt beam="1">  1       -2 0.39294261E-03 0.20001158E+02</pdfrwt>
<totfact> 0.44766219E+06</totfact>
</mgrwt>
</event>
<event>
 5    1  0.4046313E-006  0.2000047E+02  0.7818608E-02  0.1745319E+00
          2   -1    0    0  501    0  0.00000000000E+00  0.00000000000E+00  0.56566833455E+02  0.56566833515E+02  0.26000000000E-02 0. -1.
         -2   -1    0    0    0  501 -0.00000000000E+00 -0.00000000000E+00 -0.17679017610E+01  0.17679036728E+01  0.26000000000E-02 0.  1.
       1023    2    1    2    0    0  0.00000000000E+00  0.00000000000E+00  0.54798931694E+02  0.58334737187E+02  0.20000466193E+02 0.  0.
        -11    1    3    3    0    0  0.97840482682E+01  0.20672368017E+01  0.27574300933E+02  0.29331606514E+02  0.51100000000E-03 0.  1.
         11    1    3    3    0    0 -0.97840482682E+01 -0.20672368017E+01  0.27224630761E+02  0.29003130673E+02  0.51100000000E-03 0. -1.
<mgrwt>
<rscale>  0 0.20000466E+02</rscale>
<asrwt>0</asrwt>
<pdfrwt beam="1">  1        2 0.87025907E-02 0.20000466E+02</pdfrwt>
<pdfrwt beam="2">  1       -2 0.27198501E-03 0.20000466E+02</pdfrwt>
<totfact> 0.47230831E+06</totfact>
</mgrwt>
</event>
<event>
 5    1  0.4046313E-006  0.2000026E+02  0.7818608E-02  0.1745323E+00
         -2   -1    0    0    0  501 -0.00000000000E+00  0.00000000000E+00  0.16660443846E+01  0.16660464134E+01  0.26000000000E-02 0.  1.
          2   -1    0    0  501    0  0.00000000000E+00 -0.00000000000E+00 -0.60023935106E+02  0.60023935163E+02  0.26000000000E-02 0. -1.
       1023    2    1    2    0    0  0.00000000000E+00  0.00000000000E+00 -0.58357890722E+02  0.61689981576E+02  0.20000260433E+02 0.  0.
        -11    1    3    3    0    0  0.44803575479E+00 -0.99899869640E+01 -0.29317866014E+02  0.30976407852E+02  0.51100000000E-03 0. -1.
         11    1    3    3    0    0 -0.44803575479E+00  0.99899869640E+01 -0.29040024708E+02  0.30713573724E+02  0.51100000000E-03 0.  1.
<mgrwt>
<rscale>  0 0.20000260E+02</rscale>
<asrwt>0</asrwt>
<pdfrwt beam="2">  1        2 0.92344501E-02 0.20000260E+02</pdfrwt>
<pdfrwt beam="1">  1       -2 0.25631473E-03 0.20000260E+02</pdfrwt>
<totfact> 0.47699569E+06</totfact>
</mgrwt>
</event>
<event>
 5    1  0.4070508E-006  0.2000090E+02  0.7818608E-02  0.1745310E+00
         -2   -1    0    0    0  501 -0.00000000000E+00  0.00000000000E+00  0.12395612565E+01  0.12395639833E+01  0.26000000000E-02 0. -1.
          2   -1    0    0  501    0  0.00000000000E+00 -0.00000000000E+00 -0.80680912987E+02  0.80680913029E+02  0.26000000000E-02 0.  1.
       1023    2    1    2    0    0  0.00000000000E+00  0.00000000000E+00 -0.79441351731E+02  0.81920477013E+02  0.20000904708E+02 0.  0.
        -11    1    3    3    0    0  0.31709845898E+01 -0.94840183045E+01 -0.39370714028E+02  0.40620867418E+02  0.51100000000E-03 0. -1.
         11    1    3    3    0    0 -0.31709845898E+01  0.94840183045E+01 -0.40070637703E+02  0.41299609595E+02  0.51100000000E-03 0.  1.
<mgrwt>
<rscale>  0 0.20000905E+02</rscale>
<asrwt>0</asrwt>
<pdfrwt beam="2">  1        2 0.12412444E-01 0.20000905E+02</pdfrwt>
<pdfrwt beam="1">  1       -2 0.19070201E-03 0.20000905E+02</pdfrwt>
<totfact> 0.50380315E+06</totfact>
</mgrwt>
</event>
<event>
 5    1  0.4046313E-006  0.2000130E+02  0.7818608E-02  0.1745302E+00
         -2   -1    0    0    0  501 -0.00000000000E+00  0.00000000000E+00  0.11316127269E+03  0.11316127272E+03  0.26000000000E-02 0.  1.
          2   -1    0    0  501    0  0.00000000000E+00 -0.00000000000E+00 -0.88380720428E+00  0.88381102864E+00  0.26000000000E-02 0. -1.
       1023    2    1    2    0    0  0.00000000000E+00  0.00000000000E+00  0.11227746548E+03  0.11404508374E+03  0.20001296740E+02 0.  0.
        -11    1    3    3    0    0 -0.80235700986E+01  0.59693899217E+01  0.55905415034E+02  0.56792840425E+02  0.51100000000E-03 0. -1.
         11    1    3    3    0    0  0.80235700986E+01 -0.59693899217E+01  0.56372050447E+02  0.57252243319E+02  0.51100000000E-03 0.  1.
<mgrwt>
<rscale>  0 0.20001297E+02</rscale>
<asrwt>0</asrwt>
<pdfrwt beam="2">  1        2 0.13597069E-03 0.20001297E+02</pdfrwt>
<pdfrwt beam="1">  1       -2 0.17409420E-01 0.20001297E+02</pdfrwt>
<totfact> 0.28798313E+06</totfact>
</mgrwt>
</event>
<event>
 5    1  0.4046313E-006  0.2000018E+02  0.7818608E-02  0.1745325E+00
         -2   -1    0    0    0  501 -0.00000000000E+00  0.00000000000E+00  0.33009297305E+02  0.33009297408E+02  0.26000000000E-02 0. -1.
          2   -1    0    0  501    0  0.00000000000E+00 -0.00000000000E+00 -0.30295028310E+01  0.30295039467E+01  0.26000000000E-02 0.  1.
       1023    2    1    2    0    0  0.00000000000E+00  0.00000000000E+00  0.29979794474E+02  0.36038801355E+02  0.20000178158E+02 0.  0.
        -11    1    3    3    0    0 -0.84208981576E+01 -0.53934448871E+01  0.14932693780E+02  0.17971814525E+02  0.51100000000E-03 0.  1.
         11    1    3    3    0    0  0.84208981576E+01  0.53934448871E+01  0.15047100694E+02  0.18066986829E+02  0.51100000000E-03 0. -1.
<mgrwt>
<rscale>  0 0.20000178E+02</rscale>
<asrwt>0</asrwt>
<pdfrwt beam="2">  1        2 0.46607746E-03 0.20000178E+02</pdfrwt>
<pdfrwt beam="1">  1       -2 0.50783535E-02 0.20000178E+02</pdfrwt>
<totfact> 0.35702364E+06</totfact>
</mgrwt>
</event>
<event>
 5    1  0.4046313E-006  0.2000090E+02  0.7818608E-02  0.1745310E+00
         -2   -1    0    0    0  501 -0.00000000000E+00  0.00000000000E+00  0.43784062016E+01  0.43784069736E+01  0.26000000000E-02 0.  1.
          2   -1    0    0  501    0  0.00000000000E+00 -0.00000000000E+00 -0.22841416563E+02  0.22841416711E+02  0.26000000000E-02 0. -1.
       1023    2    1    2    0    0  0.00000000000E+00  0.00000000000E+00 -0.18463010361E+02  0.27219823684E+02  0.20000901225E+02 0.  0.
        -11    1    3    3    0    0  0.42086182598E+01  0.90717013813E+01 -0.92694793439E+01  0.13635669444E+02  0.51100000000E-03 0.  1.
         11    1    3    3    0    0 -0.42086182598E+01 -0.90717013813E+01 -0.91935310172E+01  0.13584154241E+02  0.51100000000E-03 0. -1.
<mgrwt>
<rscale>  0 0.20000901E+02</rscale>
<asrwt>0</asrwt>
<pdfrwt beam="2">  1        2 0.35140641E-02 0.20000901E+02</pdfrwt>
<pdfrwt beam="1">  1       -2 0.67360104E-03 0.20000901E+02</pdfrwt>
<totfact> 0.42182422E+06</totfact>
</mgrwt>
</event>
<event>
 5    1  0.4046313E-006  0.2000040E+02  0.7818608E-02  0.1745320E+00
          2   -1    0    0  501    0  0.00000000000E+00  0.00000000000E+00  0.28978015676E+02  0.28978015792E+02  0.26000000000E-02 0. -1.
         -2   -1    0    0    0  501 -0.00000000000E+00 -0.00000000000E+00 -0.34510297255E+01  0.34510307049E+01  0.26000000000E-02 0.  1.
       1023    2    1    2    0    0  0.00000000000E+00  0.00000000000E+00  0.25526985950E+02  0.32429046497E+02  0.20000401121E+02 0.  0.
        -11    1    3    3    0    0  0.39904266109E+01  0.91695105718E+01  0.12802620289E+02  0.16245322871E+02  0.51100000000E-03 0.  1.
         11    1    3    3    0    0 -0.39904266109E+01 -0.91695105718E+01  0.12724365661E+02  0.16183723626E+02  0.51100000000E-03 0. -1.
<mgrwt>
<rscale>  0 0.20000401E+02</rscale>
<asrwt>0</asrwt>
<pdfrwt beam="1">  1        2 0.44581563E-02 0.20000401E+02</pdfrwt>
<pdfrwt beam="2">  1       -2 0.53092774E-03 0.20000401E+02</pdfrwt>
<totfact> 0.43208265E+06</totfact>
</mgrwt>
</event>
<event>
 5    1  0.4046313E-006  0.2000225E+02  0.7818608E-02  0.1745283E+00
          2   -1    0    0  501    0  0.00000000000E+00  0.00000000000E+00  0.12477865853E+01  0.12477892941E+01  0.26000000000E-02 0.  1.
         -2   -1    0    0    0  501 -0.00000000000E+00 -0.00000000000E+00 -0.80159828726E+02  0.80159828768E+02  0.26000000000E-02 0. -1.
       1023    2    1    2    0    0  0.00000000000E+00  0.00000000000E+00 -0.78912042140E+02  0.81407618062E+02  0.20002246967E+02 0.  0.
        -11    1    3    3    0    0  0.12193069035E+01  0.99265097752E+01 -0.39508305447E+02  0.40754490614E+02  0.51100000000E-03 0.  1.
         11    1    3    3    0    0 -0.12193069035E+01 -0.99265097752E+01 -0.39403736693E+02  0.40653127448E+02  0.51100000000E-03 0. -1.
<mgrwt>
<rscale>  0 0.20002247E+02</rscale>
<asrwt>0</asrwt>
<pdfrwt beam="1">  1        2 0.19196744E-03 0.20002247E+02</pdfrwt>
<pdfrwt beam="2">  1       -2 0.12332278E-01 0.20002247E+02</pdfrwt>
<totfact> 0.31237353E+06</totfact>
</mgrwt>
</event>
<event>
 5    1  0.4046313E-006  0.2000932E+02  0.7818608E-02  0.1745143E+00
         -2   -1    0    0    0  501 -0.00000000000E+00  0.00000000000E+00  0.14965255572E+02  0.14965255798E+02  0.26000000000E-02 0. -1.
          2   -1    0    0  501    0  0.00000000000E+00 -0.00000000000E+00 -0.66883731950E+01  0.66883737004E+01  0.26000000000E-02 0.  1.
       1023    2    1    2    0    0  0.00000000000E+00  0.00000000000E+00  0.82768823769E+01  0.21653629498E+02  0.20009320043E+02 0.  0.
        -11    1    3    3    0    0  0.49072586993E+01 -0.87174324487E+01  0.42852565432E+01  0.10882933444E+02  0.51100000000E-03 0. -1.
         11    1    3    3    0    0 -0.49072586993E+01  0.87174324487E+01  0.39916258337E+01  0.10770696054E+02  0.51100000000E-03 0.  1.
<mgrwt>
<rscale>  0 0.20009320E+02</rscale>
<asrwt>0</asrwt>
<pdfrwt beam="2">  1        2 0.10289806E-02 0.20009320E+02</pdfrwt>
<pdfrwt beam="1">  1       -2 0.23023470E-02 0.20009320E+02</pdfrwt>
<totfact> 0.38265878E+06</totfact>
</mgrwt>
</event>
<event>
 5    1  0.4046313E-006  0.2000799E+02  0.7818608E-02  0.1745169E+00
         -2   -1    0    0    0  501 -0.00000000000E+00  0.00000000000E+00  0.26660795240E+01  0.26660807918E+01  0.26000000000E-02 0.  1.
          2   -1    0    0  501    0  0.00000000000E+00 -0.00000000000E+00 -0.37538212106E+02  0.37538212196E+02  0.26000000000E-02 0. -1.
       1023    2    1    2    0    0  0.00000000000E+00  0.00000000000E+00 -0.34872132582E+02  0.40204292988E+02  0.20007987001E+02 0.  0.
        -11    1    3    3    0    0 -0.91047394116E+01 -0.41450097471E+01 -0.17536539765E+02  0.20189294508E+02  0.51100000000E-03 0. -1.
         11    1    3    3    0    0  0.91047394116E+01  0.41450097471E+01 -0.17335592818E+02  0.20014998480E+02  0.51100000000E-03 0.  1.
<mgrwt>
<rscale>  0 0.20007987E+02</rscale>
<asrwt>0</asrwt>
<pdfrwt beam="2">  1        2 0.57751093E-02 0.20007987E+02</pdfrwt>
<pdfrwt beam="1">  1       -2 0.41016621E-03 0.20007987E+02</pdfrwt>
<totfact> 0.44491803E+06</totfact>
</mgrwt>
</event>
<event>
 5    1  0.4046313E-006  0.2000032E+02  0.7818608E-02  0.1745322E+00
         -2   -1    0    0    0  501 -0.00000000000E+00  0.00000000000E+00  0.30821191743E+02  0.30821191852E+02  0.26000000000E-02 0.  1.
          2   -1    0    0  501    0  0.00000000000E+00 -0.00000000000E+00 -0.32446227974E+01  0.32446238391E+01  0.26000000000E-02 0. -1.
       1023    2    1    2    0    0  0.00000000000E+00  0.00000000000E+00  0.27576568945E+02  0.34065815691E+02  0.20000316096E+02 0.  0.
        -11    1    3    3    0    0  0.22465614827E+01 -0.97443904691E+01  0.13881211686E+02  0.17108133219E+02  0.51100000000E-03 0.  1.
         11    1    3    3    0    0 -0.22465614827E+01  0.97443904691E+01  0.13695357259E+02  0.16957682472E+02  0.51100000000E-03 0. -1.
<mgrwt>
<rscale>  0 0.20000316E+02</rscale>
<asrwt>0</asrwt>
<pdfrwt beam="2">  1        2 0.49917284E-03 0.20000316E+02</pdfrwt>
<pdfrwt beam="1">  1       -2 0.47417217E-02 0.20000316E+02</pdfrwt>
<totfact> 0.35962774E+06</totfact>
</mgrwt>
</event>
<event>
 5    1  0.4046313E-006  0.2000002E+02  0.7818608E-02  0.1745328E+00
          2   -1    0    0  501    0  0.00000000000E+00  0.00000000000E+00  0.93188864686E+02  0.93188864722E+02  0.26000000000E-02 0. -1.
         -2   -1    0    0    0  501 -0.00000000000E+00 -0.00000000000E+00 -0.10730896763E+01  0.10730928261E+01  0.26000000000E-02 0.  1.
       1023    2    1    2    0    0  0.00000000000E+00  0.00000000000E+00  0.92115775010E+02  0.94261957548E+02  0.20000015880E+02 0.  0.
        -11    1    3    3    0    0  0.34854598338E+01 -0.93729247825E+01  0.46072268757E+02  0.47145032590E+02  0.51100000000E-03 0.  1.
         11    1    3    3    0    0 -0.34854598338E+01  0.93729247825E+01  0.46043506252E+02  0.47116924958E+02  0.51100000000E-03 0. -1.
<mgrwt>
<rscale>  0 0.20000016E+02</rscale>
<asrwt>0</asrwt>
<pdfrwt beam="1">  1        2 0.14336753E-01 0.20000016E+02</pdfrwt>
<pdfrwt beam="2">  1       -2 0.16509091E-03 0.20000016E+02</pdfrwt>
<totfact> 0.51934988E+06</totfact>
</mgrwt>
</event>
<event>
 5    1  0.4075199E-006  0.2000099E+02  0.7818608E-02  0.1745308E+00
         -2   -1    0    0    0  501 -0.00000000000E+00  0.00000000000E+00  0.13953691754E+01  0.13953715977E+01  0.26000000000E-02 0. -1.
          2   -1    0    0  501    0  0.00000000000E+00 -0.00000000000E+00 -0.71672622289E+02  0.71672622336E+02  0.26000000000E-02 0.  1.
       1023    2    1    2    0    0  0.00000000000E+00  0.00000000000E+00 -0.70277253114E+02  0.73067993934E+02  0.20000985784E+02 0.  0.
        -11    1    3    3    0    0  0.81870070748E+01 -0.57422103042E+01 -0.34777090639E+02  0.36186269462E+02  0.51100000000E-03 0. -1.
         11    1    3    3    0    0 -0.81870070748E+01  0.57422103042E+01 -0.35500162475E+02  0.36881724472E+02  0.51100000000E-03 0.  1.
<mgrwt>
<rscale>  0 0.20000986E+02</rscale>
<asrwt>0</asrwt>
<pdfrwt beam="2">  1        2 0.11026555E-01 0.20000986E+02</pdfrwt>
<pdfrwt beam="1">  1       -2 0.21467243E-03 0.20000986E+02</pdfrwt>
<totfact> 0.49231335E+06</totfact>
</mgrwt>
</event>
<event>
 5    1  0.4046313E-006  0.2000130E+02  0.7818608E-02  0.1745302E+00
         -2   -1    0    0    0  501 -0.00000000000E+00  0.00000000000E+00  0.10997543618E+02  0.10997543925E+02  0.26000000000E-02 0.  1.
          2   -1    0    0  501    0  0.00000000000E+00 -0.00000000000E+00 -0.90941178501E+01  0.90941182218E+01  0.26000000000E-02 0. -1.
       1023    2    1    2    0    0  0.00000000000E+00  0.00000000000E+00  0.19034257680E+01  0.20091662147E+02  0.20001296413E+02 0.  0.
        -11    1    3    3    0    0 -0.94499677171E+01  0.32713468378E+01  0.10489193826E+01  0.10055040135E+02  0.51100000000E-03 0. -1.
         11    1    3    3    0    0  0.94499677171E+01 -0.32713468378E+01  0.85450638542E+00  0.10036622012E+02  0.51100000000E-03 0.  1.
<mgrwt>
<rscale>  0 0.20001296E+02</rscale>
<asrwt>0</asrwt>
<pdfrwt beam="2">  1        2 0.13990951E-02 0.20001296E+02</pdfrwt>
<pdfrwt beam="1">  1       -2 0.16919298E-02 0.20001296E+02</pdfrwt>
<totfact> 0.39184142E+06</totfact>
</mgrwt>
</event>
<event>
 5    1  0.4046313E-006  0.2000051E+02  0.7818608E-02  0.1745318E+00
         -2   -1    0    0    0  501 -0.00000000000E+00  0.00000000000E+00  0.86512147112E+00  0.86512537808E+00  0.26000000000E-02 0. -1.
          2   -1    0    0  501    0  0.00000000000E+00 -0.00000000000E+00 -0.11559628138E+03  0.11559628141E+03  0.26000000000E-02 0.  1.
       1023    2    1    2    0    0  0.00000000000E+00  0.00000000000E+00 -0.11473115991E+03  0.11646140679E+03  0.20000505415E+02 0.  0.
        -11    1    3    3    0    0 -0.39423694894E+01  0.91902375825E+01 -0.57085719867E+02  0.57955001139E+02  0.51100000000E-03 0.  1.
         11    1    3    3    0    0  0.39423694894E+01 -0.91902375825E+01 -0.57645440041E+02  0.58506405648E+02  0.51100000000E-03 0. -1.
<mgrwt>
<rscale>  0 0.20000505E+02</rscale>
<asrwt>0</asrwt>
<pdfrwt beam="2">  1        2 0.17784031E-01 0.20000505E+02</pdfrwt>
<pdfrwt beam="1">  1       -2 0.13309601E-03 0.20000505E+02</pdfrwt>
<totfact> 0.54584975E+06</totfact>
</mgrwt>
</event>
<event>
 5    1  0.4046313E-006  0.2000033E+02  0.7818608E-02  0.1745322E+00
          2   -1    0    0  501    0  0.00000000000E+00  0.00000000000E+00  0.29447253473E+01  0.29447264951E+01  0.26000000000E-02 0. -1.
         -2   -1    0    0    0  501 -0.00000000000E+00 -0.00000000000E+00 -0.33960125532E+02  0.33960125631E+02  0.26000000000E-02 0.  1.
       1023    2    1    2    0    0  0.00000000000E+00  0.00000000000E+00 -0.31015400184E+02  0.36904852126E+02  0.20000326544E+02 0.  0.
        -11    1    3    3    0    0 -0.29279420547E+01  0.95619227618E+01 -0.15521212808E+02  0.18463782355E+02  0.51100000000E-03 0. -1.
         11    1    3    3    0    0  0.29279420547E+01 -0.95619227618E+01 -0.15494187376E+02  0.18441069771E+02  0.51100000000E-03 0.  1.
<mgrwt>
<rscale>  0 0.20000327E+02</rscale>
<asrwt>0</asrwt>
<pdfrwt beam="1">  1        2 0.45303479E-03 0.20000327E+02</pdfrwt>
<pdfrwt beam="2">  1       -2 0.52246345E-02 0.20000327E+02</pdfrwt>
<totfact> 0.35591049E+06</totfact>
</mgrwt>
</event>
<event>
 5    1  0.4046313E-006  0.2000111E+02  0.7818608E-02  0.1745306E+00
          2   -1    0    0  501    0  0.00000000000E+00  0.00000000000E+00  0.99187289024E+01  0.99187292432E+01  0.26000000000E-02 0.  1.
         -2   -1    0    0    0  501 -0.00000000000E+00 -0.00000000000E+00 -0.10083053282E+02  0.10083053617E+02  0.26000000000E-02 0. -1.
       1023    2    1    2    0    0  0.00000000000E+00  0.00000000000E+00 -0.16432437937E+00  0.20001782860E+02  0.20001107846E+02 0.  0.
        -11    1    3    3    0    0  0.67424799398E+01 -0.73854718581E+01 -0.15179358955E+00  0.10001463486E+02  0.51100000000E-03 0. -1.
         11    1    3    3    0    0 -0.67424799398E+01  0.73854718581E+01 -0.12530789822E-01  0.10000319374E+02  0.51100000000E-03 0.  1.
<mgrwt>
<rscale>  0 0.20001108E+02</rscale>
<asrwt>0</asrwt>
<pdfrwt beam="1">  1        2 0.15259583E-02 0.20001108E+02</pdfrwt>
<pdfrwt beam="2">  1       -2 0.15512390E-02 0.20001108E+02</pdfrwt>
<totfact> 0.39434586E+06</totfact>
</mgrwt>
</event>
<event>
 5    1  0.4046313E-006  0.2000100E+02  0.7818608E-02  0.1745308E+00
         -2   -1    0    0    0  501 -0.00000000000E+00  0.00000000000E+00  0.17187619300E+02  0.17187619496E+02  0.26000000000E-02 0. -1.
          2   -1    0    0  501    0  0.00000000000E+00 -0.00000000000E+00 -0.58187255100E+01  0.58187260909E+01  0.26000000000E-02 0.  1.
       1023    2    1    2    0    0  0.00000000000E+00  0.00000000000E+00  0.11368893790E+02  0.23006345587E+02  0.20001004757E+02 0.  0.
        -11    1    3    3    0    0  0.80251711400E+01 -0.59670648830E+01  0.57172325906E+01  0.11519374284E+02  0.51100000000E-03 0.  1.
         11    1    3    3    0    0 -0.80251711400E+01  0.59670648830E+01  0.56516611990E+01  0.11486971303E+02  0.51100000000E-03 0. -1.
<mgrwt>
<rscale>  0 0.20001005E+02</rscale>
<asrwt>0</asrwt>
<pdfrwt beam="2">  1        2 0.89518861E-03 0.20001005E+02</pdfrwt>
<pdfrwt beam="1">  1       -2 0.26442492E-02 0.20001005E+02</pdfrwt>
<totfact> 0.37892241E+06</totfact>
</mgrwt>
</event>
<event>
 5    1  0.4046313E-006  0.2000312E+02  0.7818608E-02  0.1745266E+00
          2   -1    0    0  501    0  0.00000000000E+00  0.00000000000E+00  0.38717842876E+02  0.38717842963E+02  0.26000000000E-02 0.  1.
         -2   -1    0    0    0  501 -0.00000000000E+00 -0.00000000000E+00 -0.25835925090E+01  0.25835938172E+01  0.26000000000E-02 0. -1.
       1023    2    1    2    0    0  0.00000000000E+00  0.00000000000E+00  0.36134250367E+02  0.41301436780E+02  0.20003115521E+02 0.  0.
        -11    1    3    3    0    0  0.10361787039E+01  0.99462782453E+01  0.17715267659E+02  0.20342881451E+02  0.51100000000E-03 0. -1.
         11    1    3    3    0    0 -0.10361787039E+01 -0.99462782453E+01  0.18418982708E+02  0.20958555329E+02  0.51100000000E-03 0.  1.
<mgrwt>
<rscale>  0 0.20003116E+02</rscale>
<asrwt>0</asrwt>
<pdfrwt beam="1">  1        2 0.59565914E-02 0.20003116E+02</pdfrwt>
<pdfrwt beam="2">  1       -2 0.39747587E-03 0.20003116E+02</pdfrwt>
<totfact> 0.44691477E+06</totfact>
</mgrwt>
</event>
<event>
 5    1  0.4046313E-006  0.2000118E+02  0.7818608E-02  0.1745305E+00
         -2   -1    0    0    0  501 -0.00000000000E+00  0.00000000000E+00  0.24132938948E+02  0.24132939088E+02  0.26000000000E-02 0.  1.
          2   -1    0    0  501    0  0.00000000000E+00 -0.00000000000E+00 -0.41442032110E+01  0.41442040266E+01  0.26000000000E-02 0. -1.
       1023    2    1    2    0    0  0.00000000000E+00  0.00000000000E+00  0.19988735737E+02  0.28277143115E+02  0.20001181624E+02 0.  0.
        -11    1    3    3    0    0  0.18646083882E+01 -0.98248842272E+01  0.98786298869E+01  0.14056757920E+02  0.51100000000E-03 0.  1.
         11    1    3    3    0    0 -0.18646083882E+01  0.98248842272E+01  0.10110105850E+02  0.14220385195E+02  0.51100000000E-03 0. -1.
<mgrwt>
<rscale>  0 0.20001182E+02</rscale>
<asrwt>0</asrwt>
<pdfrwt beam="2">  1        2 0.63756981E-03 0.20001182E+02</pdfrwt>
<pdfrwt beam="1">  1       -2 0.37127598E-02 0.20001182E+02</pdfrwt>
<totfact> 0.36823070E+06</totfact>
</mgrwt>
</event>
<event>
 5    1  0.4046313E-006  0.2000058E+02  0.7818608E-02  0.1745317E+00
          2   -1    0    0  501    0  0.00000000000E+00  0.00000000000E+00  0.70563262823E+01  0.70563267613E+01  0.26000000000E-02 0. -1.
         -2   -1    0    0    0  501 -0.00000000000E+00 -0.00000000000E+00 -0.14172500116E+02  0.14172500355E+02  0.26000000000E-02 0.  1.
       1023    2    1    2    0    0  0.00000000000E+00  0.00000000000E+00 -0.71161738338E+01  0.21228827116E+02  0.20000579259E+02 0.  0.
        -11    1    3    3    0    0 -0.82217058764E+01 -0.56925650743E+01 -0.34905577751E+01  0.10591776928E+02  0.51100000000E-03 0.  1.
         11    1    3    3    0    0  0.82217058764E+01  0.56925650743E+01 -0.36256160587E+01  0.10637050188E+02  0.51100000000E-03 0. -1.
<mgrwt>
<rscale>  0 0.20000579E+02</rscale>
<asrwt>0</asrwt>
<pdfrwt beam="1">  1        2 0.10855887E-02 0.20000579E+02</pdfrwt>
<pdfrwt beam="2">  1       -2 0.21803847E-02 0.20000579E+02</pdfrwt>
<totfact> 0.38459801E+06</totfact>
</mgrwt>
</event>
<event>
 5    1  0.4046313E-006  0.2000084E+02  0.7818608E-02  0.1745311E+00
          2   -1    0    0  501    0  0.00000000000E+00  0.00000000000E+00  0.22550931217E+02  0.22550931367E+02  0.26000000000E-02 0.  1.
         -2   -1    0    0    0  501 -0.00000000000E+00 -0.00000000000E+00 -0.44347783457E+01  0.44347791079E+01  0.26000000000E-02 0. -1.
       1023    2    1    2    0    0  0.00000000000E+00  0.00000000000E+00  0.18116152871E+02  0.26985710475E+02  0.20000839357E+02 0.  0.
        -11    1    3    3    0    0  0.24337082829E+01 -0.96997654870E+01  0.90616394574E+01  0.13495247179E+02  0.51100000000E-03 0.  1.
         11    1    3    3    0    0 -0.24337082829E+01  0.96997654870E+01  0.90545134140E+01  0.13490463296E+02  0.51100000000E-03 0. -1.
<mgrwt>
<rscale>  0 0.20000839E+02</rscale>
<asrwt>0</asrwt>
<pdfrwt beam="1">  1        2 0.34693742E-02 0.20000839E+02</pdfrwt>
<pdfrwt beam="2">  1       -2 0.68227365E-03 0.20000839E+02</pdfrwt>
<totfact> 0.42131950E+06</totfact>
</mgrwt>
</event>
<event>
 5    1  0.4046313E-006  0.2000120E+02  0.7818608E-02  0.1745304E+00
         -2   -1    0    0    0  501 -0.00000000000E+00  0.00000000000E+00  0.51703077956E+02  0.51703078021E+02  0.26000000000E-02 0.  1.
          2   -1    0    0  501    0  0.00000000000E+00 -0.00000000000E+00 -0.19343522254E+01  0.19343539728E+01  0.26000000000E-02 0. -1.
       1023    2    1    2    0    0  0.00000000000E+00  0.00000000000E+00  0.49768725730E+02  0.53637431994E+02  0.20001201216E+02 0.  0.
        -11    1    3    3    0    0 -0.36371596399E+01 -0.93151707310E+01  0.24607272407E+02  0.26561611238E+02  0.51100000000E-03 0.  1.
         11    1    3    3    0    0  0.36371596399E+01  0.93151707310E+01  0.25161453323E+02  0.27075820756E+02  0.51100000000E-03 0. -1.
<mgrwt>
<rscale>  0 0.20001201E+02</rscale>
<asrwt>0</asrwt>
<pdfrwt beam="2">  1        2 0.29759280E-03 0.20001201E+02</pdfrwt>
<pdfrwt beam="1">  1       -2 0.79543196E-02 0.20001201E+02</pdfrwt>
<totfact> 0.33729258E+06</totfact>
</mgrwt>
</event>
<event>
 5    1  0.4497445E-006  0.2000098E+02  0.7818608E-02  0.1745309E+00
         -2   -1    0    0    0  501 -0.00000000000E+00  0.00000000000E+00  0.98151488663E+00  0.98151833028E+00  0.26000000000E-02 0. -1.
          2   -1    0    0  501    0  0.00000000000E+00 -0.00000000000E+00 -0.10189314742E+03  0.10189314745E+03  0.26000000000E-02 0.  1.
       1023    2    1    2    0    0  0.00000000000E+00  0.00000000000E+00 -0.10091163253E+03  0.10287466578E+03  0.20000981964E+02 0.  0.
        -11    1    3    3    0    0 -0.88612336877E+01 -0.46351542929E+01 -0.50768759327E+02  0.51744304437E+02  0.51100000000E-03 0. -1.
         11    1    3    3    0    0  0.88612336877E+01  0.46351542929E+01 -0.50142873207E+02  0.51130361347E+02  0.51100000000E-03 0.  1.
<mgrwt>
<rscale>  0 0.20000982E+02</rscale>
<asrwt>0</asrwt>
<pdfrwt beam="2">  1        2 0.15675861E-01 0.20000982E+02</pdfrwt>
<pdfrwt beam="1">  1       -2 0.15100264E-03 0.20000982E+02</pdfrwt>
<totfact> 0.52978368E+06</totfact>
</mgrwt>
</event>
<event>
 5    1  0.4046313E-006  0.2000168E+02  0.7818608E-02  0.1745295E+00
         -2   -1    0    0    0  501 -0.00000000000E+00  0.00000000000E+00  0.36929439141E+02  0.36929439233E+02  0.26000000000E-02 0. -1.
          2   -1    0    0  501    0  0.00000000000E+00 -0.00000000000E+00 -0.27083200892E+01  0.27083213372E+01  0.26000000000E-02 0.  1.
       1023    2    1    2    0    0  0.00000000000E+00  0.00000000000E+00  0.34221119052E+02  0.39637760570E+02  0.20001676775E+02 0.  0.
        -11    1    3    3    0    0  0.87721082529E+01  0.48025635489E+01  0.17204943472E+02  0.19900366328E+02  0.51100000000E-03 0. -1.
         11    1    3    3    0    0 -0.87721082529E+01 -0.48025635489E+01  0.17016175580E+02  0.19737394242E+02  0.51100000000E-03 0.  1.
<mgrwt>
<rscale>  0 0.20001677E+02</rscale>
<asrwt>0</asrwt>
<pdfrwt beam="2">  1        2 0.41666471E-03 0.20001677E+02</pdfrwt>
<pdfrwt beam="1">  1       -2 0.56814525E-02 0.20001677E+02</pdfrwt>
<totfact> 0.35249281E+06</totfact>
</mgrwt>
</event>
<event>
 5    1  0.4046313E-006  0.2000181E+02  0.7818608E-02  0.1745292E+00
         -2   -1    0    0    0  501 -0.00000000000E+00  0.00000000000E+00  0.95130454363E+01  0.95130457916E+01  0.26000000000E-02 0.  1.
          2   -1    0    0  501    0  0.00000000000E+00 -0.00000000000E+00 -0.10513781151E+02  0.10513781472E+02  0.26000000000E-02 0. -1.
       1023    2    1    2    0    0  0.00000000000E+00  0.00000000000E+00 -0.10007357144E+01  0.20026827264E+02  0.20001808375E+02 0.  0.
        -11    1    3    3    0    0  0.99960827388E+01  0.30596219387E+00 -0.55336160445E+00  0.10016061717E+02  0.51100000000E-03 0.  1.
         11    1    3    3    0    0 -0.99960827388E+01 -0.30596219387E+00 -0.44737410996E+00  0.10010765547E+02  0.51100000000E-03 0. -1.
<mgrwt>
<rscale>  0 0.20001808E+02</rscale>
<asrwt>0</asrwt>
<pdfrwt beam="2">  1        2 0.16175049E-02 0.20001808E+02</pdfrwt>
<pdfrwt beam="1">  1       -2 0.14635455E-02 0.20001808E+02</pdfrwt>
<totfact> 0.39600410E+06</totfact>
</mgrwt>
</event>
<event>
 4    1  0.4046313E-006  0.2058726E+02  0.7818608E-02  0.1733896E+00
         -2   -1    0    0    0  501 -0.00000000000E+00  0.00000000000E+00  0.75355368264E+01  0.75355372750E+01  0.26000000000E-02 0. -1.
          2   -1    0    0  501    0  0.00000000000E+00 -0.00000000000E+00 -0.14061213506E+02  0.14061213747E+02  0.26000000000E-02 0.  1.
        -11    1    1    2    0    0  0.96677591184E+01  0.34410408781E+01 -0.41102031264E+01  0.11054415349E+02  0.51100000000E-03 0. -1.
         11    1    1    2    0    0 -0.96677591184E+01 -0.34410408781E+01 -0.24154735534E+01  0.10542335673E+02  0.51100000000E-03 0.  1.
<mgrwt>
<rscale>  0 0.20587258E+02</rscale>
<asrwt>0</asrwt>
<pdfrwt beam="2">  1        2 0.21632637E-02 0.20587258E+02</pdfrwt>
<pdfrwt beam="1">  1       -2 0.11593134E-02 0.20587258E+02</pdfrwt>
<totfact> 0.37903000E+06</totfact>
</mgrwt>
</event>
<event>
 4    1  0.4046313E-006  0.2008673E+02  0.7818608E-02  0.1743609E+00
         -2   -1    0    0    0  501 -0.00000000000E+00  0.00000000000E+00  0.42065140353E+01  0.42065148388E+01  0.26000000000E-02 0.  1.
          2   -1    0    0  501    0  0.00000000000E+00 -0.00000000000E+00 -0.23979278171E+02  0.23979278312E+02  0.26000000000E-02 0. -1.
        -11    1    1    2    0    0 -0.53547937039E+01 -0.84541020239E+01 -0.11079953071E+02  0.14930204853E+02  0.51100000000E-03 0. -1.
         11    1    1    2    0    0  0.53547937039E+01  0.84541020239E+01 -0.86928110644E+01  0.13255588297E+02  0.51100000000E-03 0.  1.
<mgrwt>
<rscale>  0 0.20086730E+02</rscale>
<asrwt>0</asrwt>
<pdfrwt beam="2">  1        2 0.36891197E-02 0.20086730E+02</pdfrwt>
<pdfrwt beam="1">  1       -2 0.64715609E-03 0.20086730E+02</pdfrwt>
<totfact> 0.41972799E+06</totfact>
</mgrwt>
</event>
<event>
 5    1  0.4046313E-006  0.2000174E+02  0.7818608E-02  0.1745293E+00
          2   -1    0    0  501    0  0.00000000000E+00  0.00000000000E+00  0.97161960225E+01  0.97161963704E+01  0.26000000000E-02 0. -1.
         -2   -1    0    0    0  501 -0.00000000000E+00 -0.00000000000E+00 -0.10293885035E+02  0.10293885363E+02  0.26000000000E-02 0.  1.
       1023    2    1    2    0    0  0.00000000000E+00  0.00000000000E+00 -0.57768901254E+00  0.20010081734E+02  0.20001741084E+02 0.  0.
        -11    1    3    3    0    0 -0.98676871882E+01 -0.16239775026E+01 -0.19468849769E+00  0.10002322593E+02  0.51100000000E-03 0.  1.
         11    1    3    3    0    0  0.98676871882E+01  0.16239775026E+01 -0.38300051485E+00  0.10007759141E+02  0.51100000000E-03 0. -1.
<mgrwt>
<rscale>  0 0.20001741E+02</rscale>
<asrwt>0</asrwt>
<pdfrwt beam="1">  1        2 0.14947994E-02 0.20001741E+02</pdfrwt>
<pdfrwt beam="2">  1       -2 0.15836747E-02 0.20001741E+02</pdfrwt>
<totfact> 0.39372214E+06</totfact>
</mgrwt>
</event>
<event>
 4    1  0.4046313E-006  0.2001692E+02  0.7818608E-02  0.1744992E+00
         -2   -1    0    0    0  501 -0.00000000000E+00  0.00000000000E+00  0.39547241258E+02  0.39547241343E+02  0.26000000000E-02 0. -1.
          2   -1    0    0  501    0  0.00000000000E+00 -0.00000000000E+00 -0.25329011158E+01  0.25329024502E+01  0.26000000000E-02 0.  1.
        -11    1    1    2    0    0  0.61769913699E+01  0.78722041317E+01  0.18073984218E+02  0.20659034974E+02  0.51100000000E-03 0. -1.
         11    1    1    2    0    0 -0.61769913699E+01 -0.78722041317E+01  0.18940355924E+02  0.21421108820E+02  0.51100000000E-03 0.  1.
<mgrwt>
<rscale>  0 0.20016921E+02</rscale>
<asrwt>0</asrwt>
<pdfrwt beam="2">  1        2 0.38967721E-03 0.20016921E+02</pdfrwt>
<pdfrwt beam="1">  1       -2 0.60841909E-02 0.20016921E+02</pdfrwt>
<totfact> 0.34904701E+06</totfact>
</mgrwt>
</event>
<event>
 5    1  0.4046313E-006  0.2000038E+02  0.7818608E-02  0.1745321E+00
         -2   -1    0    0    0  501 -0.00000000000E+00  0.00000000000E+00  0.16142841651E+01  0.16142862589E+01  0.26000000000E-02 0. -1.
          2   -1    0    0  501    0  0.00000000000E+00 -0.00000000000E+00 -0.61949250652E+02  0.61949250706E+02  0.26000000000E-02 0.  1.
       1023    2    1    2    0    0  0.00000000000E+00  0.00000000000E+00 -0.60334966487E+02  0.63563536965E+02  0.20000376261E+02 0.  0.
        -11    1    3    3    0    0 -0.97112255560E+01 -0.23861985343E+01 -0.30306637596E+02  0.31913854795E+02  0.51100000000E-03 0.  1.
         11    1    3    3    0    0  0.97112255560E+01  0.23861985343E+01 -0.30028328891E+02  0.31649682170E+02  0.51100000000E-03 0. -1.
<mgrwt>
<rscale>  0 0.20000376E+02</rscale>
<asrwt>0</asrwt>
<pdfrwt beam="2">  1        2 0.95306523E-02 0.20000376E+02</pdfrwt>
<pdfrwt beam="1">  1       -2 0.24835162E-03 0.20000376E+02</pdfrwt>
<totfact> 0.47956992E+06</totfact>
</mgrwt>
</event>
<event>
 5    1  0.4046313E-006  0.2000140E+02  0.7818608E-02  0.1745300E+00
         -2   -1    0    0    0  501 -0.00000000000E+00  0.00000000000E+00  0.77734857988E+01  0.77734862336E+01  0.26000000000E-02 0. -1.
          2   -1    0    0  501    0  0.00000000000E+00 -0.00000000000E+00 -0.12866038836E+02  0.12866039099E+02  0.26000000000E-02 0.  1.
       1023    2    1    2    0    0  0.00000000000E+00  0.00000000000E+00 -0.50925530371E+01  0.20639525332E+02  0.20001397689E+02 0.  0.
        -11    1    3    3    0    0 -0.29322751117E+01 -0.95611369586E+01 -0.25256424824E+01  0.10314671467E+02  0.51100000000E-03 0. -1.
         11    1    3    3    0    0  0.29322751117E+01  0.95611369586E+01 -0.25669105547E+01  0.10324853865E+02  0.51100000000E-03 0.  1.
<mgrwt>
<rscale>  0 0.20001398E+02</rscale>
<asrwt>0</asrwt>
<pdfrwt beam="2">  1        2 0.19793906E-02 0.20001398E+02</pdfrwt>
<pdfrwt beam="1">  1       -2 0.11959209E-02 0.20001398E+02</pdfrwt>
<totfact> 0.40203012E+06</totfact>
</mgrwt>
</event>
<event>
 5    1  0.4046313E-006  0.2000314E+02  0.7818608E-02  0.1745266E+00
          2   -1    0    0  501    0  0.00000000000E+00  0.00000000000E+00  0.58587227450E+02  0.58587227507E+02  0.26000000000E-02 0. -1.
         -2   -1    0    0    0  501 -0.00000000000E+00 -0.00000000000E+00 -0.17073913662E+01  0.17073933458E+01  0.26000000000E-02 0.  1.
       1023    2    1    2    0    0  0.00000000000E+00  0.00000000000E+00  0.56879836083E+02  0.60294620853E+02  0.20003138527E+02 0.  0.
        -11    1    3    3    0    0 -0.11469067633E+01 -0.99355921314E+01  0.28436417271E+02  0.30144007922E+02  0.51100000000E-03 0. -1.
         11    1    3    3    0    0  0.11469067633E+01  0.99355921314E+01  0.28443418813E+02  0.30150612931E+02  0.51100000000E-03 0.  1.
<mgrwt>
<rscale>  0 0.20003139E+02</rscale>
<asrwt>0</asrwt>
<pdfrwt beam="1">  1        2 0.90134187E-02 0.20003139E+02</pdfrwt>
<pdfrwt beam="2">  1       -2 0.26267578E-03 0.20003139E+02</pdfrwt>
<totfact> 0.47490659E+06</totfact>
</mgrwt>
</event>
<event>
 5    1  0.4046313E-006  0.2000115E+02  0.7818608E-02  0.1745305E+00
         -2   -1    0    0    0  501 -0.00000000000E+00  0.00000000000E+00  0.21720699179E+01  0.21720714740E+01  0.26000000000E-02 0. -1.
          2   -1    0    0  501    0  0.00000000000E+00 -0.00000000000E+00 -0.46044287239E+02  0.46044287313E+02  0.26000000000E-02 0.  1.
       1023    2    1    2    0    0  0.00000000000E+00  0.00000000000E+00 -0.43872217321E+02  0.48216358787E+02  0.20001145016E+02 0.  0.
        -11    1    3    3    0    0  0.44108562919E+01 -0.89751155542E+01 -0.22070281764E+02  0.24230263925E+02  0.51100000000E-03 0. -1.
         11    1    3    3    0    0 -0.44108562919E+01  0.89751155542E+01 -0.21801935557E+02  0.23986094862E+02  0.51100000000E-03 0.  1.
<mgrwt>
<rscale>  0 0.20001145E+02</rscale>
<asrwt>0</asrwt>
<pdfrwt beam="2">  1        2 0.70837359E-02 0.20001145E+02</pdfrwt>
<pdfrwt beam="1">  1       -2 0.33416476E-03 0.20001145E+02</pdfrwt>
<totfact> 0.45764489E+06</totfact>
</mgrwt>
</event>
<event>
 5    1  0.4046313E-006  0.2000156E+02  0.7818608E-02  0.1745297E+00
          2   -1    0    0  501    0  0.00000000000E+00  0.00000000000E+00  0.17173591105E+02  0.17173591301E+02  0.26000000000E-02 0.  1.
         -2   -1    0    0    0  501 -0.00000000000E+00 -0.00000000000E+00 -0.58238032894E+01  0.58238038698E+01  0.26000000000E-02 0. -1.
       1023    2    1    2    0    0  0.00000000000E+00  0.00000000000E+00  0.11349787815E+02  0.22997395171E+02  0.20001562469E+02 0.  0.
        -11    1    3    3    0    0 -0.61154759952E+01  0.79128235976E+01  0.57457814208E+01  0.11533682340E+02  0.51100000000E-03 0.  1.
         11    1    3    3    0    0  0.61154759952E+01 -0.79128235976E+01  0.56040063943E+01  0.11463712831E+02  0.51100000000E-03 0. -1.
<mgrwt>
<rscale>  0 0.20001562E+02</rscale>
<asrwt>0</asrwt>
<pdfrwt beam="1">  1        2 0.26420910E-02 0.20001562E+02</pdfrwt>
<pdfrwt beam="2">  1       -2 0.89596980E-03 0.20001562E+02</pdfrwt>
<totfact> 0.41130524E+06</totfact>
</mgrwt>
</event>
<event>
 5    1  0.4046313E-006  0.2000056E+02  0.7818608E-02  0.1745317E+00
         -2   -1    0    0    0  501 -0.00000000000E+00  0.00000000000E+00  0.41376831160E+02  0.41376831242E+02  0.26000000000E-02 0. -1.
          2   -1    0    0  501    0  0.00000000000E+00 -0.00000000000E+00 -0.24169453572E+01  0.24169467557E+01  0.26000000000E-02 0.  1.
       1023    2    1    2    0    0  0.00000000000E+00  0.00000000000E+00  0.38959885803E+02  0.43793777998E+02  0.20000557230E+02 0.  0.
        -11    1    3    3    0    0 -0.74631088311E+01 -0.66563007867E+01  0.19402883807E+02  0.21828335573E+02  0.51100000000E-03 0. -1.
         11    1    3    3    0    0  0.74631088311E+01  0.66563007867E+01  0.19557001996E+02  0.21965442425E+02  0.51100000000E-03 0.  1.
<mgrwt>
<rscale>  0 0.20000557E+02</rscale>
<asrwt>0</asrwt>
<pdfrwt beam="2">  1        2 0.37183788E-03 0.20000557E+02</pdfrwt>
<pdfrwt beam="1">  1       -2 0.63656661E-02 0.20000557E+02</pdfrwt>
<totfact> 0.34771614E+06</totfact>
</mgrwt>
</event>
<event>
 5    1  0.4046313E-006  0.2000064E+02  0.7818608E-02  0.1745315E+00
          2   -1    0    0  501    0  0.00000000000E+00  0.00000000000E+00  0.31638071255E+01  0.31638081939E+01  0.26000000000E-02 0.  1.
         -2   -1    0    0    0  501 -0.00000000000E+00 -0.00000000000E+00 -0.31609497951E+02  0.31609498058E+02  0.26000000000E-02 0. -1.
       1023    2    1    2    0    0  0.00000000000E+00  0.00000000000E+00 -0.28445690825E+02  0.34773306251E+02  0.20000637518E+02 0.  0.
        -11    1    3    3    0    0  0.55439482171E+01  0.83226941696E+01 -0.14116024143E+02  0.17299269867E+02  0.51100000000E-03 0. -1.
         11    1    3    3    0    0 -0.55439482171E+01 -0.83226941696E+01 -0.14329666682E+02  0.17474036384E+02  0.51100000000E-03 0.  1.
<mgrwt>
<rscale>  0 0.20000638E+02</rscale>
<asrwt>0</asrwt>
<pdfrwt beam="1">  1        2 0.48673967E-03 0.20000638E+02</pdfrwt>
<pdfrwt beam="2">  1       -2 0.48629996E-02 0.20000638E+02</pdfrwt>
<totfact> 0.35866475E+06</totfact>
</mgrwt>
</event>
<event>
 4    1  0.4046313E-006  0.2002281E+02  0.7818608E-02  0.1744875E+00
          2   -1    0    0  501    0  0.00000000000E+00  0.00000000000E+00  0.33056636302E+02  0.33056636404E+02  0.26000000000E-02 0.  1.
         -2   -1    0    0    0  501 -0.00000000000E+00 -0.00000000000E+00 -0.30320135904E+01  0.30320147052E+01  0.26000000000E-02 0. -1.
        -11    1    1    2    0    0  0.99923017269E+01  0.57426962274E+00  0.14600071696E+02  0.17701355123E+02  0.51100000000E-03 0. -1.
         11    1    1    2    0    0 -0.99923017269E+01 -0.57426962274E+00  0.15424551016E+02  0.18387295987E+02  0.51100000000E-03 0.  1.
<mgrwt>
<rscale>  0 0.20022806E+02</rscale>
<asrwt>0</asrwt>
<pdfrwt beam="1">  1        2 0.50856367E-02 0.20022806E+02</pdfrwt>
<pdfrwt beam="2">  1       -2 0.46646370E-03 0.20022806E+02</pdfrwt>
<totfact> 0.43739655E+06</totfact>
</mgrwt>
</event>
<event>
 5    1  0.4046313E-006  0.2000152E+02  0.7818608E-02  0.1745298E+00
         -2   -1    0    0    0  501 -0.00000000000E+00  0.00000000000E+00  0.72355390547E+01  0.72355395219E+01  0.26000000000E-02 0. -1.
          2   -1    0    0  501    0  0.00000000000E+00 -0.00000000000E+00 -0.13822767258E+02  0.13822767503E+02  0.26000000000E-02 0.  1.
       1023    2    1    2    0    0  0.00000000000E+00  0.00000000000E+00 -0.65872282035E+01  0.21058307025E+02  0.20001517926E+02 0.  0.
        -11    1    3    3    0    0 -0.91774734339E+01  0.39734197282E+01 -0.33284788031E+01  0.10540059505E+02  0.51100000000E-03 0.  1.
         11    1    3    3    0    0  0.91774734339E+01 -0.39734197282E+01 -0.32587494004E+01  0.10518247520E+02  0.51100000000E-03 0. -1.
<mgrwt>
<rscale>  0 0.20001518E+02</rscale>
<asrwt>0</asrwt>
<pdfrwt beam="2">  1        2 0.21265796E-02 0.20001518E+02</pdfrwt>
<pdfrwt beam="1">  1       -2 0.11131599E-02 0.20001518E+02</pdfrwt>
<totfact> 0.40423692E+06</totfact>
</mgrwt>
</event>
<event>
 5    1  0.4046313E-006  0.2000064E+02  0.7818608E-02  0.1745315E+00
         -2   -1    0    0    0  501 -0.00000000000E+00  0.00000000000E+00  0.48046652772E+01  0.48046659807E+01  0.26000000000E-02 0.  1.
          2   -1    0    0  501    0  0.00000000000E+00 -0.00000000000E+00 -0.20814429985E+02  0.20814430148E+02  0.26000000000E-02 0. -1.
       1023    2    1    2    0    0  0.00000000000E+00  0.00000000000E+00 -0.16009764708E+02  0.25619096128E+02  0.20000638000E+02 0.  0.
        -11    1    3    3    0    0  0.67616512626E+01  0.73679337801E+01 -0.80023655138E+01  0.12807975252E+02  0.51100000000E-03 0.  1.
         11    1    3    3    0    0 -0.67616512626E+01 -0.73679337801E+01 -0.80073991944E+01  0.12811120876E+02  0.51100000000E-03 0. -1.
<mgrwt>
<rscale>  0 0.20000638E+02</rscale>
<asrwt>0</asrwt>
<pdfrwt beam="2">  1        2 0.32022200E-02 0.20000638E+02</pdfrwt>
<pdfrwt beam="1">  1       -2 0.73917935E-03 0.20000638E+02</pdfrwt>
<totfact> 0.41823737E+06</totfact>
</mgrwt>
</event>
<event>
 5    1  0.4046313E-006  0.2000049E+02  0.7818608E-02  0.1745318E+00
          2   -1    0    0  501    0  0.00000000000E+00  0.00000000000E+00  0.15350356769E+01  0.15350378788E+01  0.26000000000E-02 0.  1.
         -2   -1    0    0    0  501 -0.00000000000E+00 -0.00000000000E+00 -0.65148203670E+02  0.65148203722E+02  0.26000000000E-02 0. -1.
       1023    2    1    2    0    0  0.00000000000E+00  0.00000000000E+00 -0.63613167993E+02  0.66683241600E+02  0.20000489200E+02 0.  0.
        -11    1    3    3    0    0 -0.42435132116E+01  0.90551049496E+01 -0.31637832899E+02  0.33180638945E+02  0.51100000000E-03 0.  1.
         11    1    3    3    0    0  0.42435132116E+01 -0.90551049496E+01 -0.31975335094E+02  0.33502602655E+02  0.51100000000E-03 0. -1.
<mgrwt>
<rscale>  0 0.20000489E+02</rscale>
<asrwt>0</asrwt>
<pdfrwt beam="1">  1        2 0.23615956E-03 0.20000489E+02</pdfrwt>
<pdfrwt beam="2">  1       -2 0.10022799E-01 0.20000489E+02</pdfrwt>
<totfact> 0.32499791E+06</totfact>
</mgrwt>
</event>
<event>
 5    1  0.4046313E-006  0.2000039E+02  0.7818608E-02  0.1745320E+00
          2   -1    0    0  501    0  0.00000000000E+00  0.00000000000E+00  0.34056741478E+02  0.34056741577E+02  0.26000000000E-02 0.  1.
         -2   -1    0    0    0  501 -0.00000000000E+00 -0.00000000000E+00 -0.29363907624E+01  0.29363919135E+01  0.26000000000E-02 0. -1.
       1023    2    1    2    0    0  0.00000000000E+00  0.00000000000E+00  0.31120350716E+02  0.36993133491E+02  0.20000392416E+02 0.  0.
        -11    1    3    3    0    0  0.83111562443E-01 -0.99997875563E+01  0.15625966673E+02  0.18551913471E+02  0.51100000000E-03 0.  1.
         11    1    3    3    0    0 -0.83111562443E-01  0.99997875563E+01  0.15494384043E+02  0.18441220020E+02  0.51100000000E-03 0. -1.
<mgrwt>
<rscale>  0 0.20000392E+02</rscale>
<asrwt>0</asrwt>
<pdfrwt beam="1">  1        2 0.52394987E-02 0.20000392E+02</pdfrwt>
<pdfrwt beam="2">  1       -2 0.45175253E-03 0.20000392E+02</pdfrwt>
<totfact> 0.44003214E+06</totfact>
</mgrwt>
</event>
<event>
 5    1  0.4046313E-006  0.2000137E+02  0.7818608E-02  0.1745301E+00
         -2   -1    0    0    0  501 -0.00000000000E+00  0.00000000000E+00  0.85525357213E+00  0.85525752416E+00  0.26000000000E-02 0. -1.
          2   -1    0    0  501    0  0.00000000000E+00 -0.00000000000E+00 -0.11694013064E+03  0.11694013066E+03  0.26000000000E-02 0.  1.
       1023    2    1    2    0    0  0.00000000000E+00  0.00000000000E+00 -0.11608487706E+03  0.11779538819E+03  0.20001369845E+02 0.  0.
        -11    1    3    3    0    0  0.95718691733E+01 -0.28957347005E+01 -0.58560559930E+02  0.59408291833E+02  0.51100000000E-03 0.  1.
         11    1    3    3    0    0 -0.95718691733E+01  0.28957347005E+01 -0.57524317133E+02  0.58387096355E+02  0.51100000000E-03 0. -1.
<mgrwt>
<rscale>  0 0.20001370E+02</rscale>
<asrwt>0</asrwt>
<pdfrwt beam="2">  1        2 0.17990777E-01 0.20001370E+02</pdfrwt>
<pdfrwt beam="1">  1       -2 0.13157787E-03 0.20001370E+02</pdfrwt>
<totfact> 0.54734189E+06</totfact>
</mgrwt>
</event>
<event>
 5    1  0.4046313E-006  0.2000600E+02  0.7818608E-02  0.1745209E+00
          2   -1    0    0  501    0  0.00000000000E+00  0.00000000000E+00  0.58309053258E+02  0.58309053316E+02  0.26000000000E-02 0.  1.
         -2   -1    0    0    0  501 -0.00000000000E+00 -0.00000000000E+00 -0.17160282134E+01  0.17160301831E+01  0.26000000000E-02 0. -1.
       1023    2    1    2    0    0  0.00000000000E+00  0.00000000000E+00  0.56593025045E+02  0.60025083499E+02  0.20006003233E+02 0.  0.
        -11    1    3    3    0    0  0.99131928145E+01 -0.13363028364E+01  0.28133716483E+02  0.29859053911E+02  0.51100000000E-03 0.  1.
         11    1    3    3    0    0 -0.99131928145E+01  0.13363028364E+01  0.28459308561E+02  0.30166029588E+02  0.51100000000E-03 0. -1.
<mgrwt>
<rscale>  0 0.20006003E+02</rscale>
<asrwt>0</asrwt>
<pdfrwt beam="1">  1        2 0.89706228E-02 0.20006003E+02</pdfrwt>
<pdfrwt beam="2">  1       -2 0.26400453E-03 0.20006003E+02</pdfrwt>
<totfact> 0.47437942E+06</totfact>
</mgrwt>
</event>
<event>
 5    1  0.4046313E-006  0.2000020E+02  0.7818608E-02  0.1745324E+00
          2   -1    0    0  501    0  0.00000000000E+00  0.00000000000E+00  0.91622262108E+02  0.91622262145E+02  0.26000000000E-02 0.  1.
         -2   -1    0    0    0  501 -0.00000000000E+00 -0.00000000000E+00 -0.10914579603E+01  0.10914610571E+01  0.26000000000E-02 0. -1.
       1023    2    1    2    0    0  0.00000000000E+00  0.00000000000E+00  0.90530804147E+02  0.92713723202E+02  0.20000199257E+02 0.  0.
        -11    1    3    3    0    0  0.68871831939E+01  0.72503245104E+01  0.45444608455E+02  0.46531848617E+02  0.51100000000E-03 0.  1.
         11    1    3    3    0    0 -0.68871831939E+01 -0.72503245104E+01  0.45086195693E+02  0.46181874585E+02  0.51100000000E-03 0. -1.
<mgrwt>
<rscale>  0 0.20000199E+02</rscale>
<asrwt>0</asrwt>
<pdfrwt beam="1">  1        2 0.14095736E-01 0.20000199E+02</pdfrwt>
<pdfrwt beam="2">  1       -2 0.16791682E-03 0.20000199E+02</pdfrwt>
<totfact> 0.51742582E+06</totfact>
</mgrwt>
</event>
<event>
 5    1  0.4046313E-006  0.2000277E+02  0.7818608E-02  0.1745273E+00
          2   -1    0    0  501    0  0.00000000000E+00  0.00000000000E+00  0.14999193025E+02  0.14999193250E+02  0.26000000000E-02 0. -1.
         -2   -1    0    0    0  501 -0.00000000000E+00 -0.00000000000E+00 -0.66688708075E+01  0.66688713143E+01  0.26000000000E-02 0.  1.
       1023    2    1    2    0    0  0.00000000000E+00  0.00000000000E+00  0.83303222176E+01  0.21668064565E+02  0.20002768652E+02 0.  0.
        -11    1    3    3    0    0 -0.22076362120E+01 -0.97545007325E+01  0.42314610545E+01  0.10859521403E+02  0.51100000000E-03 0. -1.
         11    1    3    3    0    0  0.22076362120E+01  0.97545007325E+01  0.40988611631E+01  0.10808543162E+02  0.51100000000E-03 0.  1.
<mgrwt>
<rscale>  0 0.20002769E+02</rscale>
<asrwt>0</asrwt>
<pdfrwt beam="1">  1        2 0.23075682E-02 0.20002769E+02</pdfrwt>
<pdfrwt beam="2">  1       -2 0.10259802E-02 0.20002769E+02</pdfrwt>
<totfact> 0.40676653E+06</totfact>
</mgrwt>
</event>
<event>
 5    1  0.4046313E-006  0.2000078E+02  0.7818608E-02  0.1745313E+00
          2   -1    0    0  501    0  0.00000000000E+00  0.00000000000E+00  0.45077884156E+01  0.45077891654E+01  0.26000000000E-02 0.  1.
         -2   -1    0    0    0  501 -0.00000000000E+00 -0.00000000000E+00 -0.22185550381E+02  0.22185550533E+02  0.26000000000E-02 0. -1.
       1023    2    1    2    0    0  0.00000000000E+00  0.00000000000E+00 -0.17677761965E+02  0.26693339699E+02  0.20000777889E+02 0.  0.
        -11    1    3    3    0    0  0.99950693073E+01  0.31623515658E+00 -0.87324154270E+01  0.13276162645E+02  0.51100000000E-03 0. -1.
         11    1    3    3    0    0 -0.99950693073E+01 -0.31623515658E+00 -0.89453465384E+01  0.13417177054E+02  0.51100000000E-03 0.  1.
<mgrwt>
<rscale>  0 0.20000778E+02</rscale>
<asrwt>0</asrwt>
<pdfrwt beam="1">  1        2 0.69350599E-03 0.20000778E+02</pdfrwt>
<pdfrwt beam="2">  1       -2 0.34131616E-02 0.20000778E+02</pdfrwt>
<totfact> 0.37101293E+06</totfact>
</mgrwt>
</event>
<event>
 5    1  0.4046313E-006  0.2000068E+02  0.7818608E-02  0.1745314E+00
          2   -1    0    0  501    0  0.00000000000E+00  0.00000000000E+00  0.11885823970E+03  0.11885823973E+03  0.26000000000E-02 0.  1.
         -2   -1    0    0    0  501 -0.00000000000E+00 -0.00000000000E+00 -0.84139381962E+00  0.84139783675E+00  0.26000000000E-02 0. -1.
       1023    2    1    2    0    0  0.00000000000E+00  0.00000000000E+00  0.11801684588E+03  0.11969963757E+03  0.20000683031E+02 0.  0.
        -11    1    3    3    0    0 -0.58271462041E+01 -0.81271880165E+01  0.58987500320E+02  0.59829190302E+02  0.51100000000E-03 0. -1.
         11    1    3    3    0    0  0.58271462041E+01  0.81271880165E+01  0.59029345562E+02  0.59870447264E+02  0.51100000000E-03 0.  1.
<mgrwt>
<rscale>  0 0.20000683E+02</rscale>
<asrwt>0</asrwt>
<pdfrwt beam="1">  1        2 0.18285883E-01 0.20000683E+02</pdfrwt>
<pdfrwt beam="2">  1       -2 0.12944552E-03 0.20000683E+02</pdfrwt>
<totfact> 0.54957904E+06</totfact>
</mgrwt>
</event>
<event>
 5    1  0.4046313E-006  0.2000058E+02  0.7818608E-02  0.1745317E+00
          2   -1    0    0  501    0  0.00000000000E+00  0.00000000000E+00  0.10010891774E+02  0.10010892112E+02  0.26000000000E-02 0. -1.
         -2   -1    0    0    0  501 -0.00000000000E+00 -0.00000000000E+00 -0.99897001519E+01  0.99897004903E+01  0.26000000000E-02 0.  1.
       1023    2    1    2    0    0  0.00000000000E+00  0.00000000000E+00  0.21191622307E-01  0.20000592602E+02  0.20000581375E+02 0.  0.
        -11    1    3    3    0    0 -0.13486784770E+01  0.99087456193E+01  0.70929877118E-01  0.10000360228E+02  0.51100000000E-03 0.  1.
         11    1    3    3    0    0  0.13486784770E+01 -0.99087456193E+01 -0.49738254811E-01  0.10000232374E+02  0.51100000000E-03 0. -1.
<mgrwt>
<rscale>  0 0.20000581E+02</rscale>
<asrwt>0</asrwt>
<pdfrwt beam="1">  1        2 0.15401372E-02 0.20000581E+02</pdfrwt>
<pdfrwt beam="2">  1       -2 0.15368770E-02 0.20000581E+02</pdfrwt>
<totfact> 0.39463692E+06</totfact>
</mgrwt>
</event>
<event>
 4    1  0.4046313E-006  0.2009698E+02  0.7818608E-02  0.1743406E+00
          2   -1    0    0  501    0  0.00000000000E+00  0.00000000000E+00  0.57413999277E+02  0.57413999335E+02  0.26000000000E-02 0. -1.
         -2   -1    0    0    0  501 -0.00000000000E+00 -0.00000000000E+00 -0.17586676037E+01  0.17586695256E+01  0.26000000000E-02 0.  1.
        -11    1    1    2    0    0 -0.33392730709E+01  0.94415134587E+01  0.30254354030E+02  0.31868775613E+02  0.51100000000E-03 0.  1.
         11    1    1    2    0    0  0.33392730709E+01 -0.94415134587E+01  0.25400977642E+02  0.27303893248E+02  0.51100000000E-03 0. -1.
<mgrwt>
<rscale>  0 0.20096985E+02</rscale>
<asrwt>0</asrwt>
<pdfrwt beam="1">  1        2 0.88329222E-02 0.20096985E+02</pdfrwt>
<pdfrwt beam="2">  1       -2 0.27056443E-03 0.20096985E+02</pdfrwt>
<totfact> 0.46841636E+06</totfact>
</mgrwt>
</event>
<event>
 5    1  0.4046313E-006  0.2000848E+02  0.7818608E-02  0.1745159E+00
          2   -1    0    0  501    0  0.00000000000E+00  0.00000000000E+00  0.11660295571E+02  0.11660295861E+02  0.26000000000E-02 0.  1.
         -2   -1    0    0    0  501 -0.00000000000E+00 -0.00000000000E+00 -0.85833880096E+01  0.85833884033E+01  0.26000000000E-02 0. -1.
       1023    2    1    2    0    0  0.00000000000E+00  0.00000000000E+00  0.30769075615E+01  0.20243684264E+02  0.20008483012E+02 0.  0.
        -11    1    3    3    0    0 -0.39027207495E+01  0.92114471760E+01  0.15925569164E+01  0.10130065455E+02  0.51100000000E-03 0. -1.
         11    1    3    3    0    0  0.39027207495E+01 -0.92114471760E+01  0.14843506452E+01  0.10113618810E+02  0.51100000000E-03 0.  1.
<mgrwt>
<rscale>  0 0.20008483E+02</rscale>
<asrwt>0</asrwt>
<pdfrwt beam="1">  1        2 0.17938917E-02 0.20008483E+02</pdfrwt>
<pdfrwt beam="2">  1       -2 0.13205213E-02 0.20008483E+02</pdfrwt>
<totfact> 0.39874540E+06</totfact>
</mgrwt>
</event>
<event>
 5    1  0.4046313E-006  0.2000183E+02  0.7818608E-02  0.1745292E+00
          2   -1    0    0  501    0  0.00000000000E+00  0.00000000000E+00  0.15759819381E+02  0.15759819595E+02  0.26000000000E-02 0.  1.
         -2   -1    0    0    0  501 -0.00000000000E+00 -0.00000000000E+00 -0.63464129511E+01  0.63464134837E+01  0.26000000000E-02 0. -1.
       1023    2    1    2    0    0  0.00000000000E+00  0.00000000000E+00  0.94134064298E+01  0.22106233079E+02  0.20001832924E+02 0.  0.
        -11    1    3    3    0    0 -0.99993416235E+01  0.15888088232E+00  0.47941042148E+01  0.11090334148E+02  0.51100000000E-03 0. -1.
         11    1    3    3    0    0  0.99993416235E+01 -0.15888088232E+00  0.46193022150E+01  0.11015898931E+02  0.51100000000E-03 0.  1.
<mgrwt>
<rscale>  0 0.20001833E+02</rscale>
<asrwt>0</asrwt>
<pdfrwt beam="1">  1        2 0.24245876E-02 0.20001833E+02</pdfrwt>
<pdfrwt beam="2">  1       -2 0.97637128E-03 0.20001833E+02</pdfrwt>
<totfact> 0.40841737E+06</totfact>
</mgrwt>
</event>
<event>
 5    1  0.4046313E-006  0.2000009E+02  0.7818608E-02  0.1745326E+00
          2   -1    0    0  501    0  0.00000000000E+00  0.00000000000E+00  0.27414474094E+01  0.27414486423E+01  0.26000000000E-02 0.  1.
         -2   -1    0    0    0  501 -0.00000000000E+00 -0.00000000000E+00 -0.36477417407E+02  0.36477417500E+02  0.26000000000E-02 0. -1.
       1023    2    1    2    0    0  0.00000000000E+00  0.00000000000E+00 -0.33735969998E+02  0.39218866142E+02  0.20000094744E+02 0.  0.
        -11    1    3    3    0    0  0.98978744984E+01 -0.14258103146E+01 -0.16849120793E+02  0.19593206129E+02  0.51100000000E-03 0. -1.
         11    1    3    3    0    0 -0.98978744984E+01  0.14258103146E+01 -0.16886849204E+02  0.19625660013E+02  0.51100000000E-03 0.  1.
<mgrwt>
<rscale>  0 0.20000095E+02</rscale>
<asrwt>0</asrwt>
<pdfrwt beam="1">  1        2 0.42176127E-03 0.20000095E+02</pdfrwt>
<pdfrwt beam="2">  1       -2 0.56119101E-02 0.20000095E+02</pdfrwt>
<totfact> 0.35305767E+06</totfact>
</mgrwt>
</event>
<event>
 5    1  0.4046313E-006  0.2000047E+02  0.7818608E-02  0.1745319E+00
         -2   -1    0    0    0  501 -0.00000000000E+00  0.00000000000E+00  0.20147190787E+01  0.20147207564E+01  0.26000000000E-02 0. -1.
          2   -1    0    0  501    0  0.00000000000E+00 -0.00000000000E+00 -0.49637032820E+02  0.49637032888E+02  0.26000000000E-02 0.  1.
       1023    2    1    2    0    0  0.00000000000E+00  0.00000000000E+00 -0.47622313741E+02  0.51651753644E+02  0.20000472206E+02 0.  0.
        -11    1    3    3    0    0 -0.76027560086E+01  0.64961663894E+01 -0.23678334287E+02  0.25703415951E+02  0.51100000000E-03 0.  1.
         11    1    3    3    0    0  0.76027560086E+01 -0.64961663894E+01 -0.23943979453E+02  0.25948337693E+02  0.51100000000E-03 0. -1.
<mgrwt>
<rscale>  0 0.20000472E+02</rscale>
<asrwt>0</asrwt>
<pdfrwt beam="2">  1        2 0.76364658E-02 0.20000472E+02</pdfrwt>
<pdfrwt beam="1">  1       -2 0.30995695E-03 0.20000472E+02</pdfrwt>
<totfact> 0.46274915E+06</totfact>
</mgrwt>
</event>
<event>
 5    1  0.4046313E-006  0.2000218E+02  0.7818608E-02  0.1745285E+00
         -2   -1    0    0    0  501 -0.00000000000E+00  0.00000000000E+00  0.47456209365E+01  0.47456216488E+01  0.26000000000E-02 0. -1.
          2   -1    0    0  501    0  0.00000000000E+00 -0.00000000000E+00 -0.21076647214E+02  0.21076647374E+02  0.26000000000E-02 0.  1.
       1023    2    1    2    0    0  0.00000000000E+00  0.00000000000E+00 -0.16331026278E+02  0.25822269023E+02  0.20002178837E+02 0.  0.
        -11    1    3    3    0    0  0.23466913992E+01 -0.97215194076E+01 -0.82726652939E+01  0.12978901781E+02  0.51100000000E-03 0.  1.
         11    1    3    3    0    0 -0.23466913992E+01  0.97215194076E+01 -0.80583609837E+01  0.12843367242E+02  0.51100000000E-03 0. -1.
<mgrwt>
<rscale>  0 0.20002179E+02</rscale>
<asrwt>0</asrwt>
<pdfrwt beam="2">  1        2 0.32425611E-02 0.20002179E+02</pdfrwt>
<pdfrwt beam="1">  1       -2 0.73009561E-03 0.20002179E+02</pdfrwt>
<totfact> 0.41863826E+06</totfact>
</mgrwt>
</event>
<event>
 5    1  0.4046313E-006  0.2000027E+02  0.7818608E-02  0.1745323E+00
         -2   -1    0    0    0  501 -0.00000000000E+00  0.00000000000E+00  0.10014706138E+03  0.10014706141E+03  0.26000000000E-02 0. -1.
          2   -1    0    0  501    0  0.00000000000E+00 -0.00000000000E+00 -0.99855661275E+00  0.99855999763E+00  0.26000000000E-02 0.  1.
       1023    2    1    2    0    0  0.00000000000E+00  0.00000000000E+00  0.99148504762E+02  0.10114562141E+03  0.20000268326E+02 0.  0.
        -11    1    3    3    0    0  0.99495172406E+01 -0.10042940190E+01  0.49400295018E+02  0.50402288122E+02  0.51100000000E-03 0.  1.
         11    1    3    3    0    0 -0.99495172406E+01  0.10042940190E+01  0.49748209744E+02  0.50743333284E+02  0.51100000000E-03 0. -1.
<mgrwt>
<rscale>  0 0.20000268E+02</rscale>
<asrwt>0</asrwt>
<pdfrwt beam="2">  1        2 0.15362430E-03 0.20000268E+02</pdfrwt>
<pdfrwt beam="1">  1       -2 0.15407247E-01 0.20000268E+02</pdfrwt>
<totfact> 0.29719189E+06</totfact>
</mgrwt>
</event>
<event>
 5    1  0.4046313E-006  0.2000178E+02  0.7818608E-02  0.1745293E+00
         -2   -1    0    0    0  501 -0.00000000000E+00  0.00000000000E+00  0.95294111083E+01  0.95294114630E+01  0.26000000000E-02 0.  1.
          2   -1    0    0  501    0  0.00000000000E+00 -0.00000000000E+00 -0.10495694368E+02  0.10495694690E+02  0.26000000000E-02 0. -1.
       1023    2    1    2    0    0  0.00000000000E+00  0.00000000000E+00 -0.96628325926E+00  0.20025106153E+02  0.20001779248E+02 0.  0.
        -11    1    3    3    0    0 -0.29680283348E+00  0.99960559239E+01 -0.39047529414E+00  0.10008081593E+02  0.51100000000E-03 0. -1.
         11    1    3    3    0    0  0.29680283348E+00 -0.99960559239E+01 -0.57580796512E+00  0.10017024560E+02  0.51100000000E-03 0.  1.
<mgrwt>
<rscale>  0 0.20001779E+02</rscale>
<asrwt>0</asrwt>
<pdfrwt beam="2">  1        2 0.16147223E-02 0.20001779E+02</pdfrwt>
<pdfrwt beam="1">  1       -2 0.14660633E-02 0.20001779E+02</pdfrwt>
<totfact> 0.39595526E+06</totfact>
</mgrwt>
</event>
<event>
 5    1  0.4046313E-006  0.2000024E+02  0.7818608E-02  0.1745323E+00
         -2   -1    0    0    0  501 -0.00000000000E+00  0.00000000000E+00  0.35426979156E+02  0.35426979252E+02  0.26000000000E-02 0.  1.
          2   -1    0    0  501    0  0.00000000000E+00 -0.00000000000E+00 -0.28227738072E+01  0.28227750046E+01  0.26000000000E-02 0. -1.
       1023    2    1    2    0    0  0.00000000000E+00  0.00000000000E+00  0.32604205349E+02  0.38249754256E+02  0.20000237354E+02 0.  0.
        -11    1    3    3    0    0 -0.99013101601E+01 -0.14020640284E+01  0.16253461815E+02  0.19083415513E+02  0.51100000000E-03 0.  1.
         11    1    3    3    0    0  0.99013101601E+01  0.14020640284E+01  0.16350743534E+02  0.19166338743E+02  0.51100000000E-03 0. -1.
<mgrwt>
<rscale>  0 0.20000237E+02</rscale>
<asrwt>0</asrwt>
<pdfrwt beam="2">  1        2 0.43427298E-03 0.20000237E+02</pdfrwt>
<pdfrwt beam="1">  1       -2 0.54503048E-02 0.20000237E+02</pdfrwt>
<totfact> 0.35423468E+06</totfact>
</mgrwt>
</event>
<event>
 5    1  0.4046313E-006  0.2000042E+02  0.7818608E-02  0.1745320E+00
         -2   -1    0    0    0  501 -0.00000000000E+00  0.00000000000E+00  0.31503321258E+01  0.31503331987E+01  0.26000000000E-02 0. -1.
          2   -1    0    0  501    0  0.00000000000E+00 -0.00000000000E+00 -0.31744025065E+02  0.31744025171E+02  0.26000000000E-02 0.  1.
       1023    2    1    2    0    0  0.00000000000E+00  0.00000000000E+00 -0.28593692939E+02  0.34894358370E+02  0.20000424249E+02 0.  0.
        -11    1    3    3    0    0  0.47273397248E+01  0.88122794268E+01 -0.14323461211E+02  0.17468988262E+02  0.51100000000E-03 0.  1.
         11    1    3    3    0    0 -0.47273397248E+01 -0.88122794268E+01 -0.14270231728E+02  0.17425370108E+02  0.51100000000E-03 0. -1.
<mgrwt>
<rscale>  0 0.20000424E+02</rscale>
<asrwt>0</asrwt>
<pdfrwt beam="2">  1        2 0.48836960E-02 0.20000424E+02</pdfrwt>
<pdfrwt beam="1">  1       -2 0.48466659E-03 0.20000424E+02</pdfrwt>
<totfact> 0.43645603E+06</totfact>
</mgrwt>
</event>
<event>
 5    1  0.4046313E-006  0.2000853E+02  0.7818608E-02  0.1745159E+00
          2   -1    0    0  501    0  0.00000000000E+00  0.00000000000E+00  0.48084097545E+01  0.48084104574E+01  0.26000000000E-02 0. -1.
         -2   -1    0    0    0  501 -0.00000000000E+00 -0.00000000000E+00 -0.20814630124E+02  0.20814630286E+02  0.26000000000E-02 0.  1.
       1023    2    1    2    0    0  0.00000000000E+00  0.00000000000E+00 -0.16006220369E+02  0.25623040744E+02  0.20008526343E+02 0.  0.
        -11    1    3    3    0    0 -0.92089920790E+01  0.38990804020E+01 -0.76479450900E+01  0.12589655573E+02  0.51100000000E-03 0. -1.
         11    1    3    3    0    0  0.92089920790E+01 -0.38990804020E+01 -0.83582752793E+01  0.13033385170E+02  0.51100000000E-03 0.  1.
<mgrwt>
<rscale>  0 0.20008526E+02</rscale>
<asrwt>0</asrwt>
<pdfrwt beam="1">  1        2 0.73975543E-03 0.20008526E+02</pdfrwt>
<pdfrwt beam="2">  1       -2 0.32022508E-02 0.20008526E+02</pdfrwt>
<totfact> 0.37273943E+06</totfact>
</mgrwt>
</event>
<event>
 5    1  0.4046313E-006  0.2000036E+02  0.7818608E-02  0.1745321E+00
          2   -1    0    0  501    0  0.00000000000E+00  0.00000000000E+00  0.73565379824E+02  0.73565379870E+02  0.26000000000E-02 0. -1.
         -2   -1    0    0    0  501 -0.00000000000E+00 -0.00000000000E+00 -0.13593827476E+01  0.13593852340E+01  0.26000000000E-02 0.  1.
       1023    2    1    2    0    0  0.00000000000E+00  0.00000000000E+00  0.72205997076E+02  0.74924765104E+02  0.20000360299E+02 0.  0.
        -11    1    3    3    0    0 -0.79826498136E+00  0.99682677506E+01  0.36116930750E+02  0.37475809210E+02  0.51100000000E-03 0. -1.
         11    1    3    3    0    0  0.79826498136E+00 -0.99682677506E+01  0.36089066326E+02  0.37448955893E+02  0.51100000000E-03 0.  1.
<mgrwt>
<rscale>  0 0.20000360E+02</rscale>
<asrwt>0</asrwt>
<pdfrwt beam="1">  1        2 0.11317752E-01 0.20000360E+02</pdfrwt>
<pdfrwt beam="2">  1       -2 0.20913599E-03 0.20000360E+02</pdfrwt>
<totfact> 0.49478664E+06</totfact>
</mgrwt>
</event>
<event>
 5    1  0.4046313E-006  0.2000096E+02  0.7818608E-02  0.1745309E+00
          2   -1    0    0  501    0  0.00000000000E+00  0.00000000000E+00  0.43777676121E+02  0.43777676198E+02  0.26000000000E-02 0.  1.
         -2   -1    0    0    0  501 -0.00000000000E+00 -0.00000000000E+00 -0.22844884257E+01  0.22844899052E+01  0.26000000000E-02 0. -1.
       1023    2    1    2    0    0  0.00000000000E+00  0.00000000000E+00  0.41493187695E+02  0.46062166103E+02  0.20000963002E+02 0.  0.
        -11    1    3    3    0    0 -0.17194133427E+01 -0.98515282307E+01  0.20688365277E+02  0.22978630264E+02  0.51100000000E-03 0. -1.
         11    1    3    3    0    0  0.17194133427E+01  0.98515282307E+01  0.20804822418E+02  0.23083535839E+02  0.51100000000E-03 0.  1.
<mgrwt>
<rscale>  0 0.20000963E+02</rscale>
<asrwt>0</asrwt>
<pdfrwt beam="1">  1        2 0.67350268E-02 0.20000963E+02</pdfrwt>
<pdfrwt beam="2">  1       -2 0.35145990E-03 0.20000963E+02</pdfrwt>
<totfact> 0.45441007E+06</totfact>
</mgrwt>
</event>
<event>
 5    1  0.4046313E-006  0.2000011E+02  0.7818608E-02  0.1745326E+00
         -2   -1    0    0    0  501 -0.00000000000E+00  0.00000000000E+00  0.10388078457E+02  0.10388078782E+02  0.26000000000E-02 0.  1.
          2   -1    0    0  501    0  0.00000000000E+00 -0.00000000000E+00 -0.96265210577E+01  0.96265214088E+01  0.26000000000E-02 0. -1.
       1023    2    1    2    0    0  0.00000000000E+00  0.00000000000E+00  0.76155739887E+00  0.20014600191E+02  0.20000106278E+02 0.  0.
        -11    1    3    3    0    0  0.85215263462E+01 -0.52329376033E+01  0.41266540145E+00  0.10008513387E+02  0.51100000000E-03 0. -1.
         11    1    3    3    0    0 -0.85215263462E+01  0.52329376033E+01  0.34889199742E+00  0.10006086803E+02  0.51100000000E-03 0.  1.
<mgrwt>
<rscale>  0 0.20000106E+02</rscale>
<asrwt>0</asrwt>
<pdfrwt beam="2">  1        2 0.14810033E-02 0.20000106E+02</pdfrwt>
<pdfrwt beam="1">  1       -2 0.15981660E-02 0.20000106E+02</pdfrwt>
<totfact> 0.39352862E+06</totfact>
</mgrwt>
</event>
<event>
 5    1  0.4046313E-006  0.2000052E+02  0.7818608E-02  0.1745318E+00
         -2   -1    0    0    0  501 -0.00000000000E+00  0.00000000000E+00  0.33728768405E+02  0.33728768505E+02  0.26000000000E-02 0. -1.
          2   -1    0    0  501    0  0.00000000000E+00 -0.00000000000E+00 -0.29649801138E+01  0.29649812538E+01  0.26000000000E-02 0.  1.
       1023    2    1    2    0    0  0.00000000000E+00  0.00000000000E+00  0.30763788291E+02  0.36693749759E+02  0.20000515027E+02 0.  0.
        -11    1    3    3    0    0 -0.99572440106E+01 -0.92651182052E+00  0.15389599059E+02  0.18353334626E+02  0.51100000000E-03 0.  1.
         11    1    3    3    0    0  0.99572440106E+01  0.92651182052E+00  0.15374189232E+02  0.18340415133E+02  0.51100000000E-03 0. -1.
<mgrwt>
<rscale>  0 0.20000515E+02</rscale>
<asrwt>0</asrwt>
<pdfrwt beam="2">  1        2 0.45615089E-03 0.20000515E+02</pdfrwt>
<pdfrwt beam="1">  1       -2 0.51890413E-02 0.20000515E+02</pdfrwt>
<totfact> 0.35617121E+06</totfact>
</mgrwt>
</event>
<event>
 5    1  0.4046313E-006  0.2000888E+02  0.7818608E-02  0.1745151E+00
          2   -1    0    0  501    0  0.00000000000E+00  0.00000000000E+00  0.15933958321E+01  0.15933979534E+01  0.26000000000E-02 0.  1.
         -2   -1    0    0    0  501 -0.00000000000E+00 -0.00000000000E+00 -0.62814772259E+02  0.62814772313E+02  0.26000000000E-02 0. -1.
       1023    2    1    2    0    0  0.00000000000E+00  0.00000000000E+00 -0.61221376427E+02  0.64408170266E+02  0.20008884663E+02 0.  0.
        -11    1    3    3    0    0  0.87486491361E+01  0.48524995975E+01 -0.30794256053E+02  0.32378570385E+02  0.51100000000E-03 0. -1.
         11    1    3    3    0    0 -0.87486491361E+01 -0.48524995975E+01 -0.30427120374E+02  0.32029599882E+02  0.51100000000E-03 0.  1.
<mgrwt>
<rscale>  0 0.20008885E+02</rscale>
<asrwt>0</asrwt>
<pdfrwt beam="1">  1        2 0.24513804E-03 0.20008885E+02</pdfrwt>
<pdfrwt beam="2">  1       -2 0.96638094E-02 0.20008885E+02</pdfrwt>
<totfact> 0.32675648E+06</totfact>
</mgrwt>
</event>
<event>
 5    1  0.4046313E-006  0.2000037E+02  0.7818608E-02  0.1745321E+00
          2   -1    0    0  501    0  0.00000000000E+00  0.00000000000E+00  0.67167749023E+02  0.67167749074E+02  0.26000000000E-02 0.  1.
         -2   -1    0    0    0  501 -0.00000000000E+00 -0.00000000000E+00 -0.14888630859E+01  0.14888653561E+01  0.26000000000E-02 0. -1.
       1023    2    1    2    0    0  0.00000000000E+00  0.00000000000E+00  0.65678885937E+02  0.68656614430E+02  0.20000366171E+02 0.  0.
        -11    1    3    3    0    0  0.96849666931E+01 -0.24905701481E+01  0.32998316530E+02  0.34480290219E+02  0.51100000000E-03 0.  1.
         11    1    3    3    0    0 -0.96849666931E+01  0.24905701481E+01  0.32680569407E+02  0.34176324210E+02  0.51100000000E-03 0. -1.
<mgrwt>
<rscale>  0 0.20000366E+02</rscale>
<asrwt>0</asrwt>
<pdfrwt beam="1">  1        2 0.10333501E-01 0.20000366E+02</pdfrwt>
<pdfrwt beam="2">  1       -2 0.22905602E-03 0.20000366E+02</pdfrwt>
<totfact> 0.48647877E+06</totfact>
</mgrwt>
</event>
<event>
 5    1  0.4046313E-006  0.2000003E+02  0.7818608E-02  0.1745327E+00
          2   -1    0    0  501    0  0.00000000000E+00  0.00000000000E+00  0.65089836271E+01  0.65089841464E+01  0.26000000000E-02 0.  1.
         -2   -1    0    0    0  501 -0.00000000000E+00 -0.00000000000E+00 -0.15363430496E+02  0.15363430716E+02  0.26000000000E-02 0. -1.
       1023    2    1    2    0    0  0.00000000000E+00  0.00000000000E+00 -0.88544468692E+01  0.21872414863E+02  0.20000032564E+02 0.  0.
        -11    1    3    3    0    0 -0.66522584703E+01  0.74664328773E+01 -0.44411735654E+01  0.10941854759E+02  0.51100000000E-03 0. -1.
         11    1    3    3    0    0  0.66522584703E+01 -0.74664328773E+01 -0.44132733038E+01  0.10930560104E+02  0.51100000000E-03 0.  1.
<mgrwt>
<rscale>  0 0.20000033E+02</rscale>
<asrwt>0</asrwt>
<pdfrwt beam="1">  1        2 0.10013822E-02 0.20000033E+02</pdfrwt>
<pdfrwt beam="2">  1       -2 0.23636047E-02 0.20000033E+02</pdfrwt>
<totfact> 0.38227680E+06</totfact>
</mgrwt>
</event>
<event>
 5    1  0.4046313E-006  0.2000217E+02  0.7818608E-02  0.1745285E+00
          2   -1    0    0  501    0  0.00000000000E+00  0.00000000000E+00  0.28107331177E+01  0.28107343202E+01  0.26000000000E-02 0. -1.
         -2   -1    0    0    0  501 -0.00000000000E+00 -0.00000000000E+00 -0.35585620024E+02  0.35585620119E+02  0.26000000000E-02 0.  1.
       1023    2    1    2    0    0  0.00000000000E+00  0.00000000000E+00 -0.32774886906E+02  0.38396354439E+02  0.20002170445E+02 0.  0.
        -11    1    3    3    0    0  0.34375007970E+01  0.93914577303E+01 -0.16241057229E+02  0.19073222858E+02  0.51100000000E-03 0.  1.
         11    1    3    3    0    0 -0.34375007970E+01 -0.93914577303E+01 -0.16533829678E+02  0.19323131581E+02  0.51100000000E-03 0. -1.
<mgrwt>
<rscale>  0 0.20002170E+02</rscale>
<asrwt>0</asrwt>
<pdfrwt beam="1">  1        2 0.43242060E-03 0.20002170E+02</pdfrwt>
<pdfrwt beam="2">  1       -2 0.54747106E-02 0.20002170E+02</pdfrwt>
<totfact> 0.35398039E+06</totfact>
</mgrwt>
</event>
<event>
 5    1  0.4046313E-006  0.2000066E+02  0.7818608E-02  0.1745315E+00
         -2   -1    0    0    0  501 -0.00000000000E+00  0.00000000000E+00  0.33364287543E+02  0.33364287644E+02  0.26000000000E-02 0. -1.
          2   -1    0    0  501    0  0.00000000000E+00 -0.00000000000E+00 -0.29974146648E+01  0.29974157925E+01  0.26000000000E-02 0.  1.
       1023    2    1    2    0    0  0.00000000000E+00  0.00000000000E+00  0.30366872878E+02  0.36361703437E+02  0.20000662700E+02 0.  0.
        -11    1    3    3    0    0 -0.12753995319E+01 -0.99184985181E+01  0.15288976270E+02  0.18268991556E+02  0.51100000000E-03 0.  1.
         11    1    3    3    0    0  0.12753995319E+01  0.99184985181E+01  0.15077896608E+02  0.18092711880E+02  0.51100000000E-03 0. -1.
<mgrwt>
<rscale>  0 0.20000663E+02</rscale>
<asrwt>0</asrwt>
<pdfrwt beam="2">  1        2 0.46114080E-03 0.20000663E+02</pdfrwt>
<pdfrwt beam="1">  1       -2 0.51329675E-02 0.20000663E+02</pdfrwt>
<totfact> 0.35658956E+06</totfact>
</mgrwt>
</event>
<event>
 5    1  0.4046313E-006  0.2000027E+02  0.7818608E-02  0.1745323E+00
          2   -1    0    0  501    0  0.00000000000E+00  0.00000000000E+00  0.60768079848E+01  0.60768085410E+01  0.26000000000E-02 0.  1.
         -2   -1    0    0    0  501 -0.00000000000E+00 -0.00000000000E+00 -0.16456458416E+02  0.16456458621E+02  0.26000000000E-02 0. -1.
       1023    2    1    2    0    0  0.00000000000E+00  0.00000000000E+00 -0.10379650431E+02  0.22533267162E+02  0.20000274646E+02 0.  0.
        -11    1    3    3    0    0 -0.48761101102E+01 -0.87307122486E+01 -0.52247339463E+01  0.11282713825E+02  0.51100000000E-03 0. -1.
         11    1    3    3    0    0  0.48761101102E+01  0.87307122486E+01 -0.51549164844E+01  0.11250553337E+02  0.51100000000E-03 0.  1.
<mgrwt>
<rscale>  0 0.20000275E+02</rscale>
<asrwt>0</asrwt>
<pdfrwt beam="1">  1        2 0.93489360E-03 0.20000275E+02</pdfrwt>
<pdfrwt beam="2">  1       -2 0.25317629E-02 0.20000275E+02</pdfrwt>
<totfact> 0.38024576E+06</totfact>
</mgrwt>
</event>
<event>
 5    1  0.4046313E-006  0.2000055E+02  0.7818608E-02  0.1745317E+00
         -2   -1    0    0    0  501 -0.00000000000E+00  0.00000000000E+00  0.83936764539E+01  0.83936768566E+01  0.26000000000E-02 0. -1.
          2   -1    0    0  501    0  0.00000000000E+00 -0.00000000000E+00 -0.11914388639E+02  0.11914388923E+02  0.26000000000E-02 0.  1.
       1023    2    1    2    0    0  0.00000000000E+00  0.00000000000E+00 -0.35207121855E+01  0.20308065780E+02  0.20000553028E+02 0.  0.
        -11    1    3    3    0    0 -0.66113069295E+00 -0.99781900756E+01 -0.18258388676E+01  0.10165385325E+02  0.51100000000E-03 0.  1.
         11    1    3    3    0    0  0.66113069295E+00  0.99781900756E+01 -0.16948733180E+01  0.10142680455E+02  0.51100000000E-03 0. -1.
<mgrwt>
<rscale>  0 0.20000553E+02</rscale>
<asrwt>0</asrwt>
<pdfrwt beam="2">  1        2 0.18329829E-02 0.20000553E+02</pdfrwt>
<pdfrwt beam="1">  1       -2 0.12913349E-02 0.20000553E+02</pdfrwt>
<totfact> 0.39974793E+06</totfact>
</mgrwt>
</event>
<event>
 5    1  0.4046313E-006  0.2000038E+02  0.7818608E-02  0.1745320E+00
         -2   -1    0    0    0  501 -0.00000000000E+00  0.00000000000E+00  0.13822259243E+02  0.13822259488E+02  0.26000000000E-02 0. -1.
          2   -1    0    0  501    0  0.00000000000E+00 -0.00000000000E+00 -0.72349844215E+01  0.72349848887E+01  0.26000000000E-02 0.  1.
       1023    2    1    2    0    0  0.00000000000E+00  0.00000000000E+00  0.65872748214E+01  0.21057244376E+02  0.20000383775E+02 0.  0.
        -11    1    3    3    0    0  0.95745091599E+01  0.28860625616E+01  0.32335722144E+01  0.10509832172E+02  0.51100000000E-03 0. -1.
         11    1    3    3    0    0 -0.95745091599E+01 -0.28860625616E+01  0.33537026070E+01  0.10547412204E+02  0.51100000000E-03 0.  1.
<mgrwt>
<rscale>  0 0.20000384E+02</rscale>
<asrwt>0</asrwt>
<pdfrwt beam="2">  1        2 0.11130746E-02 0.20000384E+02</pdfrwt>
<pdfrwt beam="1">  1       -2 0.21265015E-02 0.20000384E+02</pdfrwt>
<totfact> 0.38532826E+06</totfact>
</mgrwt>
</event>
<event>
 5    1  0.4046313E-006  0.2000701E+02  0.7818608E-02  0.1745189E+00
         -2   -1    0    0    0  501 -0.00000000000E+00  0.00000000000E+00  0.10424199492E+01  0.10424231916E+01  0.26000000000E-02 0. -1.
          2   -1    0    0  501    0  0.00000000000E+00 -0.00000000000E+00 -0.95997688300E+02  0.95997688336E+02  0.26000000000E-02 0.  1.
       1023    2    1    2    0    0  0.00000000000E+00  0.00000000000E+00 -0.94955268351E+02  0.97040111527E+02  0.20007005212E+02 0.  0.
        -11    1    3    3    0    0 -0.99222424099E+01  0.12664754922E+01 -0.48075807303E+02  0.49105377533E+02  0.51100000000E-03 0. -1.
         11    1    3    3    0    0  0.99222424099E+01 -0.12664754922E+01 -0.46879461049E+02  0.47934733994E+02  0.51100000000E-03 0.  1.
<mgrwt>
<rscale>  0 0.20007005E+02</rscale>
<asrwt>0</asrwt>
<pdfrwt beam="2">  1        2 0.14768868E-01 0.20007005E+02</pdfrwt>
<pdfrwt beam="1">  1       -2 0.16037263E-03 0.20007005E+02</pdfrwt>
<totfact> 0.52235781E+06</totfact>
</mgrwt>
</event>
<event>
 4    1  0.4046313E-006  0.2003882E+02  0.7818608E-02  0.1744557E+00
          2   -1    0    0  501    0  0.00000000000E+00  0.00000000000E+00  0.10423819379E+02  0.10423819703E+02  0.26000000000E-02 0. -1.
         -2   -1    0    0    0  501 -0.00000000000E+00 -0.00000000000E+00 -0.96306853420E+01  0.96306856930E+01  0.26000000000E-02 0.  1.
        -11    1    1    2    0    0 -0.94658145442E+01  0.32262016106E+01 -0.21914570210E+00  0.10002901925E+02  0.51100000000E-03 0. -1.
         11    1    1    2    0    0  0.94658145442E+01 -0.32262016106E+01  0.10122797391E+01  0.10051603472E+02  0.51100000000E-03 0.  1.
<mgrwt>
<rscale>  0 0.20038815E+02</rscale>
<asrwt>0</asrwt>
<pdfrwt beam="1">  1        2 0.16036646E-02 0.20038815E+02</pdfrwt>
<pdfrwt beam="2">  1       -2 0.14816440E-02 0.20038815E+02</pdfrwt>
<totfact> 0.39408788E+06</totfact>
</mgrwt>
</event>
<event>
 5    1  0.4046313E-006  0.2000017E+02  0.7818608E-02  0.1745325E+00
          2   -1    0    0  501    0  0.00000000000E+00  0.00000000000E+00  0.52289990599E+02  0.52289990663E+02  0.26000000000E-02 0.  1.
         -2   -1    0    0    0  501 -0.00000000000E+00 -0.00000000000E+00 -0.19124444073E+01  0.19124461746E+01  0.26000000000E-02 0. -1.
       1023    2    1    2    0    0  0.00000000000E+00  0.00000000000E+00  0.50377546191E+02  0.54202436838E+02  0.20000174972E+02 0.  0.
        -11    1    3    3    0    0 -0.75737723954E+01 -0.65299096279E+01  0.25185543879E+02  0.27098217078E+02  0.51100000000E-03 0. -1.
         11    1    3    3    0    0  0.75737723954E+01  0.65299096279E+01  0.25192002312E+02  0.27104219760E+02  0.51100000000E-03 0.  1.
<mgrwt>
<rscale>  0 0.20000175E+02</rscale>
<asrwt>0</asrwt>
<pdfrwt beam="1">  1        2 0.80446126E-02 0.20000175E+02</pdfrwt>
<pdfrwt beam="2">  1       -2 0.29422241E-03 0.20000175E+02</pdfrwt>
<totfact> 0.46645627E+06</totfact>
</mgrwt>
</event>
<event>
 5    1  0.4046313E-006  0.2000106E+02  0.7818608E-02  0.1745307E+00
         -2   -1    0    0    0  501 -0.00000000000E+00  0.00000000000E+00  0.45855757082E+01  0.45855764453E+01  0.26000000000E-02 0. -1.
          2   -1    0    0  501    0  0.00000000000E+00 -0.00000000000E+00 -0.21809822332E+02  0.21809822487E+02  0.26000000000E-02 0.  1.
       1023    2    1    2    0    0  0.00000000000E+00  0.00000000000E+00 -0.17224246624E+02  0.26395398933E+02  0.20001060298E+02 0.  0.
        -11    1    3    3    0    0  0.61822981521E+01  0.78604129550E+01 -0.85318411327E+01  0.13145311546E+02  0.51100000000E-03 0. -1.
         11    1    3    3    0    0 -0.61822981521E+01 -0.78604129550E+01 -0.86924054913E+01  0.13250087387E+02  0.51100000000E-03 0.  1.
<mgrwt>
<rscale>  0 0.20001060E+02</rscale>
<asrwt>0</asrwt>
<pdfrwt beam="2">  1        2 0.33553573E-02 0.20001060E+02</pdfrwt>
<pdfrwt beam="1">  1       -2 0.70547327E-03 0.20001060E+02</pdfrwt>
<totfact> 0.42000199E+06</totfact>
</mgrwt>
</event>
<event>
 5    1  0.4046313E-006  0.2000135E+02  0.7818608E-02  0.1745301E+00
          2   -1    0    0  501    0  0.00000000000E+00  0.00000000000E+00  0.17333403585E+01  0.17333423084E+01  0.26000000000E-02 0. -1.
         -2   -1    0    0    0  501 -0.00000000000E+00 -0.00000000000E+00 -0.57699854909E+02  0.57699854968E+02  0.26000000000E-02 0.  1.
       1023    2    1    2    0    0  0.00000000000E+00  0.00000000000E+00 -0.55966514551E+02  0.59433197276E+02  0.20001354642E+02 0.  0.
        -11    1    3    3    0    0  0.94973414793E+01  0.31306167857E+01 -0.28325813544E+02  0.30039173921E+02  0.51100000000E-03 0.  1.
         11    1    3    3    0    0 -0.94973414793E+01 -0.31306167857E+01 -0.27640701007E+02  0.29394023356E+02  0.51100000000E-03 0. -1.
<mgrwt>
<rscale>  0 0.20001355E+02</rscale>
<asrwt>0</asrwt>
<pdfrwt beam="1">  1        2 0.26666795E-03 0.20001355E+02</pdfrwt>
<pdfrwt beam="2">  1       -2 0.88768994E-02 0.20001355E+02</pdfrwt>
<totfact> 0.33165144E+06</totfact>
</mgrwt>
</event>
<event>
 5    1  0.4046313E-006  0.2000161E+02  0.7818608E-02  0.1745296E+00
         -2   -1    0    0    0  501 -0.00000000000E+00  0.00000000000E+00  0.34399218465E+01  0.34399228291E+01  0.26000000000E-02 0. -1.
          2   -1    0    0  501    0  0.00000000000E+00 -0.00000000000E+00 -0.29075096178E+02  0.29075096294E+02  0.26000000000E-02 0.  1.
       1023    2    1    2    0    0  0.00000000000E+00  0.00000000000E+00 -0.25635174331E+02  0.32515019123E+02  0.20001607575E+02 0.  0.
        -11    1    3    3    0    0 -0.76837182620E+01  0.64011780967E+01 -0.12879888488E+02  0.16306628562E+02  0.51100000000E-03 0. -1.
         11    1    3    3    0    0  0.76837182620E+01 -0.64011780967E+01 -0.12755285843E+02  0.16208390561E+02  0.51100000000E-03 0.  1.
<mgrwt>
<rscale>  0 0.20001608E+02</rscale>
<asrwt>0</asrwt>
<pdfrwt beam="2">  1        2 0.44730916E-02 0.20001608E+02</pdfrwt>
<pdfrwt beam="1">  1       -2 0.52921885E-03 0.20001608E+02</pdfrwt>
<totfact> 0.43217978E+06</totfact>
</mgrwt>
</event>
<event>
 5    1  0.4046313E-006  0.2000056E+02  0.7818608E-02  0.1745317E+00
          2   -1    0    0  501    0  0.00000000000E+00  0.00000000000E+00  0.17710428017E+02  0.17710428207E+02  0.26000000000E-02 0. -1.
         -2   -1    0    0    0  501 -0.00000000000E+00 -0.00000000000E+00 -0.56467087238E+01  0.56467093224E+01  0.26000000000E-02 0.  1.
       1023    2    1    2    0    0  0.00000000000E+00  0.00000000000E+00  0.12063719293E+02  0.23357137530E+02  0.20000563752E+02 0.  0.
        -11    1    3    3    0    0 -0.99587629978E+01  0.90919530046E+00  0.59791029314E+01  0.11651320469E+02  0.51100000000E-03 0.  1.
         11    1    3    3    0    0  0.99587629978E+01 -0.90919530046E+00  0.60846163614E+01  0.11705817061E+02  0.51100000000E-03 0. -1.
<mgrwt>
<rscale>  0 0.20000564E+02</rscale>
<asrwt>0</asrwt>
<pdfrwt beam="1">  1        2 0.27246813E-02 0.20000564E+02</pdfrwt>
<pdfrwt beam="2">  1       -2 0.86872447E-03 0.20000564E+02</pdfrwt>
<totfact> 0.41241027E+06</totfact>
</mgrwt>
</event>
<event>
 5    1  0.4046313E-006  0.2000082E+02  0.7818608E-02  0.1745312E+00
         -2   -1    0    0    0  501 -0.00000000000E+00  0.00000000000E+00  0.21695356827E+01  0.21695372407E+01  0.26000000000E-02 0.  1.
          2   -1    0    0  501    0  0.00000000000E+00 -0.00000000000E+00 -0.46096551753E+02  0.46096551827E+02  0.26000000000E-02 0. -1.
       1023    2    1    2    0    0  0.00000000000E+00  0.00000000000E+00 -0.43927016071E+02  0.48266089067E+02  0.20000815308E+02 0.  0.
        -11    1    3    3    0    0 -0.83468734694E+01 -0.55075141926E+01 -0.21790434029E+02  0.23975529707E+02  0.51100000000E-03 0.  1.
         11    1    3    3    0    0  0.83468734694E+01  0.55075141926E+01 -0.22136582042E+02  0.24290559360E+02  0.51100000000E-03 0. -1.
<mgrwt>
<rscale>  0 0.20000815E+02</rscale>
<asrwt>0</asrwt>
<pdfrwt beam="2">  1        2 0.70917766E-02 0.20000815E+02</pdfrwt>
<pdfrwt beam="1">  1       -2 0.33377488E-03 0.20000815E+02</pdfrwt>
<totfact> 0.45773609E+06</totfact>
</mgrwt>
</event>
<event>
 5    1  0.4046313E-006  0.2000089E+02  0.7818608E-02  0.1745310E+00
         -2   -1    0    0    0  501 -0.00000000000E+00  0.00000000000E+00  0.11170711769E+03  0.11170711772E+03  0.26000000000E-02 0.  1.
          2   -1    0    0  501    0  0.00000000000E+00 -0.00000000000E+00 -0.89527597782E+00  0.89527975319E+00  0.26000000000E-02 0. -1.
       1023    2    1    2    0    0  0.00000000000E+00  0.00000000000E+00  0.11081184171E+03  0.11260239748E+03  0.20000891308E+02 0.  0.
        -11    1    3    3    0    0 -0.99989908751E+01  0.16637060911E+00  0.55617720706E+02  0.56509630634E+02  0.51100000000E-03 0. -1.
         11    1    3    3    0    0  0.99989908751E+01 -0.16637060911E+00  0.55194121008E+02  0.56092766841E+02  0.51100000000E-03 0.  1.
<mgrwt>
<rscale>  0 0.20000891E+02</rscale>
<asrwt>0</asrwt>
<pdfrwt beam="2">  1        2 0.13773512E-03 0.20000891E+02</pdfrwt>
<pdfrwt beam="1">  1       -2 0.17185703E-01 0.20000891E+02</pdfrwt>
<totfact> 0.28899463E+06</totfact>
</mgrwt>
</event>
<event>
 5    1  0.4046313E-006  0.2000366E+02  0.7818608E-02  0.1745255E+00
          2   -1    0    0  501    0  0.00000000000E+00  0.00000000000E+00  0.42257866432E+02  0.42257866512E+02  0.26000000000E-02 0. -1.
         -2   -1    0    0    0  501 -0.00000000000E+00 -0.00000000000E+00 -0.23672876809E+01  0.23672891086E+01  0.26000000000E-02 0.  1.
       1023    2    1    2    0    0  0.00000000000E+00  0.00000000000E+00  0.39890578751E+02  0.44625155620E+02  0.20003655692E+02 0.  0.
        -11    1    3    3    0    0 -0.97420040437E+01 -0.22627838601E+01  0.19725277132E+02  0.22115908115E+02  0.51100000000E-03 0.  1.
         11    1    3    3    0    0  0.97420040437E+01  0.22627838601E+01  0.20165301619E+02  0.22509247505E+02  0.51100000000E-03 0. -1.
<mgrwt>
<rscale>  0 0.20003656E+02</rscale>
<asrwt>0</asrwt>
<pdfrwt beam="1">  1        2 0.65012109E-02 0.20003656E+02</pdfrwt>
<pdfrwt beam="2">  1       -2 0.36419819E-03 0.20003656E+02</pdfrwt>
<totfact> 0.45207737E+06</totfact>
</mgrwt>
</event>
<event>
 5    1  0.4046313E-006  0.2000972E+02  0.7818608E-02  0.1745135E+00
          2   -1    0    0  501    0  0.00000000000E+00  0.00000000000E+00  0.10786826328E+02  0.10786826641E+02  0.26000000000E-02 0.  1.
         -2   -1    0    0    0  501 -0.00000000000E+00 -0.00000000000E+00 -0.92795813681E+01  0.92795817323E+01  0.26000000000E-02 0. -1.
       1023    2    1    2    0    0  0.00000000000E+00  0.00000000000E+00  0.15072449595E+01  0.20066408373E+02  0.20009721578E+02 0.  0.
        -11    1    3    3    0    0 -0.57218487796E+01 -0.82026372960E+01  0.10272086233E+01  0.10053754019E+02  0.51100000000E-03 0.  1.
         11    1    3    3    0    0  0.57218487796E+01  0.82026372960E+01  0.48003633629E+00  0.10012654354E+02  0.51100000000E-03 0. -1.
<mgrwt>
<rscale>  0 0.20009722E+02</rscale>
<asrwt>0</asrwt>
<pdfrwt beam="1">  1        2 0.16595118E-02 0.20009722E+02</pdfrwt>
<pdfrwt beam="2">  1       -2 0.14276280E-02 0.20009722E+02</pdfrwt>
<totfact> 0.39639501E+06</totfact>
</mgrwt>
</event>
<event>
 4    1  0.5189674E-006  0.2084437E+02  0.7818608E-02  0.1729040E+00
          2   -1    0    0  501    0  0.00000000000E+00  0.00000000000E+00  0.21765943339E+02  0.21765943495E+02  0.26000000000E-02 0.  1.
         -2   -1    0    0    0  501 -0.00000000000E+00 -0.00000000000E+00 -0.49904526519E+01  0.49904533292E+01  0.26000000000E-02 0. -1.
        -11    1    1    2    0    0  0.41097019238E+01  0.93646701469E+01  0.58092123075E+01  0.11761532415E+02  0.51100000000E-03 0. -1.
         11    1    1    2    0    0 -0.41097019238E+01 -0.93646701469E+01  0.10966278380E+02  0.14994864409E+02  0.51100000000E-03 0.  1.
<mgrwt>
<rscale>  0 0.20844368E+02</rscale>
<asrwt>0</asrwt>
<pdfrwt beam="1">  1        2 0.33486066E-02 0.20844368E+02</pdfrwt>
<pdfrwt beam="2">  1       -2 0.76776203E-03 0.20844368E+02</pdfrwt>
<totfact> 0.38246177E+06</totfact>
</mgrwt>
</event>
<event>
 5    1  0.4046313E-006  0.2000031E+02  0.7818608E-02  0.1745322E+00
          2   -1    0    0  501    0  0.00000000000E+00  0.00000000000E+00  0.15406888241E+01  0.15406910179E+01  0.26000000000E-02 0. -1.
         -2   -1    0    0    0  501 -0.00000000000E+00 -0.00000000000E+00 -0.64907980945E+02  0.64907980997E+02  0.26000000000E-02 0.  1.
       1023    2    1    2    0    0  0.00000000000E+00  0.00000000000E+00 -0.63367292121E+02  0.66448672015E+02  0.20000307543E+02 0.  0.
        -11    1    3    3    0    0  0.49658586649E+01  0.86799157135E+01 -0.31845937584E+02  0.33379101694E+02  0.51100000000E-03 0.  1.
         11    1    3    3    0    0 -0.49658586649E+01 -0.86799157135E+01 -0.31521354537E+02  0.33069570321E+02  0.51100000000E-03 0. -1.
<mgrwt>
<rscale>  0 0.20000308E+02</rscale>
<asrwt>0</asrwt>
<pdfrwt beam="1">  1        2 0.23702927E-03 0.20000308E+02</pdfrwt>
<pdfrwt beam="2">  1       -2 0.99858413E-02 0.20000308E+02</pdfrwt>
<totfact> 0.32521482E+06</totfact>
</mgrwt>
</event>
<event>
 5    1  0.4046313E-006  0.2000454E+02  0.7818608E-02  0.1745238E+00
          2   -1    0    0  501    0  0.00000000000E+00  0.00000000000E+00  0.17488335586E+01  0.17488354913E+01  0.26000000000E-02 0.  1.
         -2   -1    0    0    0  501 -0.00000000000E+00 -0.00000000000E+00 -0.57206915686E+02  0.57206915746E+02  0.26000000000E-02 0. -1.
       1023    2    1    2    0    0  0.00000000000E+00  0.00000000000E+00 -0.55458082128E+02  0.58955751237E+02  0.20004542749E+02 0.  0.
        -11    1    3    3    0    0  0.42116855823E+01  0.90715542947E+01 -0.28078241911E+02  0.29806359420E+02  0.51100000000E-03 0. -1.
         11    1    3    3    0    0 -0.42116855823E+01 -0.90715542947E+01 -0.27379840217E+02  0.29149391817E+02  0.51100000000E-03 0.  1.
<mgrwt>
<rscale>  0 0.20004543E+02</rscale>
<asrwt>0</asrwt>
<pdfrwt beam="1">  1        2 0.26905151E-03 0.20004543E+02</pdfrwt>
<pdfrwt beam="2">  1       -2 0.88010627E-02 0.20004543E+02</pdfrwt>
<totfact> 0.33198956E+06</totfact>
</mgrwt>
</event>
<event>
 5    1  0.4046313E-006  0.2000026E+02  0.7818608E-02  0.1745323E+00
         -2   -1    0    0    0  501 -0.00000000000E+00  0.00000000000E+00  0.10767651383E+02  0.10767651697E+02  0.26000000000E-02 0. -1.
          2   -1    0    0  501    0  0.00000000000E+00 -0.00000000000E+00 -0.92873205829E+01  0.92873209468E+01  0.26000000000E-02 0.  1.
       1023    2    1    2    0    0  0.00000000000E+00  0.00000000000E+00  0.14803308001E+01  0.20054972644E+02  0.20000263710E+02 0.  0.
        -11    1    3    3    0    0  0.44417853606E+01 -0.89594196270E+01  0.69555086442E+00  0.10024193160E+02  0.51100000000E-03 0. -1.
         11    1    3    3    0    0 -0.44417853606E+01  0.89594196270E+01  0.78477993565E+00  0.10030779484E+02  0.51100000000E-03 0.  1.
<mgrwt>
<rscale>  0 0.20000264E+02</rscale>
<asrwt>0</asrwt>
<pdfrwt beam="2">  1        2 0.14288186E-02 0.20000264E+02</pdfrwt>
<pdfrwt beam="1">  1       -2 0.16565618E-02 0.20000264E+02</pdfrwt>
<totfact> 0.39249055E+06</totfact>
</mgrwt>
</event>
<event>
 5    1  0.4046313E-006  0.2000042E+02  0.7818608E-02  0.1745320E+00
         -2   -1    0    0    0  501 -0.00000000000E+00  0.00000000000E+00  0.48117708476E+02  0.48117708546E+02  0.26000000000E-02 0. -1.
          2   -1    0    0  501    0  0.00000000000E+00 -0.00000000000E+00 -0.20783233621E+01  0.20783249884E+01  0.26000000000E-02 0.  1.
       1023    2    1    2    0    0  0.00000000000E+00  0.00000000000E+00  0.46039385114E+02  0.50196033534E+02  0.20000420019E+02 0.  0.
        -11    1    3    3    0    0 -0.50942250918E+01  0.86054085994E+01  0.23028922108E+02  0.25106482035E+02  0.51100000000E-03 0.  1.
         11    1    3    3    0    0  0.50942250918E+01 -0.86054085994E+01  0.23010463006E+02  0.25089551500E+02  0.51100000000E-03 0. -1.
<mgrwt>
<rscale>  0 0.20000420E+02</rscale>
<asrwt>0</asrwt>
<pdfrwt beam="2">  1        2 0.31974220E-03 0.20000420E+02</pdfrwt>
<pdfrwt beam="1">  1       -2 0.74027242E-02 0.20000420E+02</pdfrwt>
<totfact> 0.34082235E+06</totfact>
</mgrwt>
</event>
<event>
 5    1  0.4374446E-006  0.2000094E+02  0.7818608E-02  0.1745309E+00
          2   -1    0    0  501    0  0.00000000000E+00  0.00000000000E+00  0.11058160494E+03  0.11058160497E+03  0.26000000000E-02 0.  1.
         -2   -1    0    0    0  501 -0.00000000000E+00 -0.00000000000E+00 -0.90439252147E+00  0.90439625878E+00  0.26000000000E-02 0. -1.
       1023    2    1    2    0    0  0.00000000000E+00  0.00000000000E+00  0.10967721241E+03  0.11148600122E+03  0.20000938633E+02 0.  0.
        -11    1    3    3    0    0 -0.22362823169E+01 -0.97472264398E+01  0.54826890255E+02  0.55731474744E+02  0.51100000000E-03 0. -1.
         11    1    3    3    0    0  0.22362823169E+01  0.97472264398E+01  0.54850322159E+02  0.55754526481E+02  0.51100000000E-03 0.  1.
<mgrwt>
<rscale>  0 0.20000939E+02</rscale>
<asrwt>0</asrwt>
<pdfrwt beam="1">  1        2 0.17012554E-01 0.20000939E+02</pdfrwt>
<pdfrwt beam="2">  1       -2 0.13913761E-03 0.20000939E+02</pdfrwt>
<totfact> 0.54001789E+06</totfact>
</mgrwt>
</event>
<event>
 4    1  0.4046313E-006  0.2003036E+02  0.7818608E-02  0.1744725E+00
          2   -1    0    0  501    0  0.00000000000E+00  0.00000000000E+00  0.60640517024E+02  0.60640517080E+02  0.26000000000E-02 0. -1.
         -2   -1    0    0    0  501 -0.00000000000E+00 -0.00000000000E+00 -0.16540721074E+01  0.16540741508E+01  0.26000000000E-02 0.  1.
        -11    1    1    2    0    0  0.89808689879E+01  0.44298584940E+01  0.29977014753E+02  0.31605396182E+02  0.51100000000E-03 0. -1.
         11    1    1    2    0    0 -0.89808689879E+01 -0.44298584940E+01  0.29009430163E+02  0.30689195048E+02  0.51100000000E-03 0.  1.
<mgrwt>
<rscale>  0 0.20030362E+02</rscale>
<asrwt>0</asrwt>
<pdfrwt beam="1">  1        2 0.93293127E-02 0.20030362E+02</pdfrwt>
<pdfrwt beam="2">  1       -2 0.25447273E-03 0.20030362E+02</pdfrwt>
<totfact> 0.47622995E+06</totfact>
</mgrwt>
</event>
<event>
 5    1  0.4192964E-006  0.2000041E+02  0.7818608E-02  0.1745320E+00
         -2   -1    0    0    0  501 -0.00000000000E+00  0.00000000000E+00  0.96567525974E+00  0.96567875988E+00  0.26000000000E-02 0.  1.
          2   -1    0    0  501    0  0.00000000000E+00 -0.00000000000E+00 -0.10355855304E+03  0.10355855307E+03  0.26000000000E-02 0. -1.
       1023    2    1    2    0    0  0.00000000000E+00  0.00000000000E+00 -0.10259287778E+03  0.10452423183E+03  0.20000411719E+02 0.  0.
        -11    1    3    3    0    0  0.75337560009E+01 -0.65762122802E+01 -0.51252859384E+02  0.52219341654E+02  0.51100000000E-03 0.  1.
         11    1    3    3    0    0 -0.75337560009E+01  0.65762122802E+01 -0.51340018392E+02  0.52304890174E+02  0.51100000000E-03 0. -1.
<mgrwt>
<rscale>  0 0.20000412E+02</rscale>
<asrwt>0</asrwt>
<pdfrwt beam="2">  1        2 0.15932077E-01 0.20000412E+02</pdfrwt>
<pdfrwt beam="1">  1       -2 0.14856578E-03 0.20000412E+02</pdfrwt>
<totfact> 0.53179741E+06</totfact>
</mgrwt>
</event>
<event>
 5    1  0.4046313E-006  0.2000031E+02  0.7818608E-02  0.1745322E+00
         -2   -1    0    0    0  501 -0.00000000000E+00  0.00000000000E+00  0.10895940641E+02  0.10895940952E+02  0.26000000000E-02 0. -1.
          2   -1    0    0  501    0  0.00000000000E+00 -0.00000000000E+00 -0.91780162282E+01  0.91780165965E+01  0.26000000000E-02 0.  1.
       1023    2    1    2    0    0  0.00000000000E+00  0.00000000000E+00  0.17179244133E+01  0.20073957548E+02  0.20000312681E+02 0.  0.
        -11    1    3    3    0    0 -0.22860343916E+01 -0.97353062697E+01  0.89046526434E+00  0.10039674798E+02  0.51100000000E-03 0.  1.
         11    1    3    3    0    0  0.22860343916E+01  0.97353062697E+01  0.82745914892E+00  0.10034282750E+02  0.51100000000E-03 0. -1.
<mgrwt>
<rscale>  0 0.20000313E+02</rscale>
<asrwt>0</asrwt>
<pdfrwt beam="2">  1        2 0.14120026E-02 0.20000313E+02</pdfrwt>
<pdfrwt beam="1">  1       -2 0.16762986E-02 0.20000313E+02</pdfrwt>
<totfact> 0.39214877E+06</totfact>
</mgrwt>
</event>
<event>
 5    1  0.4136471E-006  0.2000216E+02  0.7818608E-02  0.1745285E+00
          2   -1    0    0  501    0  0.00000000000E+00  0.00000000000E+00  0.81856704989E+02  0.81856705030E+02  0.26000000000E-02 0.  1.
         -2   -1    0    0    0  501 -0.00000000000E+00 -0.00000000000E+00 -0.12219095590E+01  0.12219123252E+01  0.26000000000E-02 0. -1.
       1023    2    1    2    0    0  0.00000000000E+00  0.00000000000E+00  0.80634795430E+02  0.83078617356E+02  0.20002160575E+02 0.  0.
        -11    1    3    3    0    0  0.20497743350E+01 -0.97884654330E+01  0.40638488963E+02  0.41850954778E+02  0.51100000000E-03 0.  1.
         11    1    3    3    0    0 -0.20497743350E+01  0.97884654330E+01  0.39996306467E+02  0.41227662578E+02  0.51100000000E-03 0. -1.
<mgrwt>
<rscale>  0 0.20002161E+02</rscale>
<asrwt>0</asrwt>
<pdfrwt beam="1">  1        2 0.12593342E-01 0.20002161E+02</pdfrwt>
<pdfrwt beam="2">  1       -2 0.18798626E-03 0.20002161E+02</pdfrwt>
<totfact> 0.50521005E+06</totfact>
</mgrwt>
</event>
<event>
 5    1  0.4046313E-006  0.2000156E+02  0.7818608E-02  0.1745297E+00
         -2   -1    0    0    0  501 -0.00000000000E+00  0.00000000000E+00  0.52381833097E+01  0.52381839550E+01  0.26000000000E-02 0. -1.
          2   -1    0    0  501    0  0.00000000000E+00 -0.00000000000E+00 -0.19093565598E+02  0.19093565775E+02  0.26000000000E-02 0.  1.
       1023    2    1    2    0    0  0.00000000000E+00  0.00000000000E+00 -0.13855382288E+02  0.24331749730E+02  0.20001560603E+02 0.  0.
        -11    1    3    3    0    0 -0.80622330594E+01 -0.59163552249E+01 -0.67903549597E+01  0.12087670652E+02  0.51100000000E-03 0. -1.
         11    1    3    3    0    0  0.80622330594E+01  0.59163552249E+01 -0.70650273285E+01  0.12244079078E+02  0.51100000000E-03 0.  1.
<mgrwt>
<rscale>  0 0.20001561E+02</rscale>
<asrwt>0</asrwt>
<pdfrwt beam="2">  1        2 0.29374717E-02 0.20001561E+02</pdfrwt>
<pdfrwt beam="1">  1       -2 0.80587442E-03 0.20001561E+02</pdfrwt>
<totfact> 0.41501882E+06</totfact>
</mgrwt>
</event>
<event>
 4    1  0.4046313E-006  0.2006645E+02  0.7818608E-02  0.1744010E+00
          2   -1    0    0  501    0  0.00000000000E+00  0.00000000000E+00  0.86309108465E+01  0.86309112381E+01  0.26000000000E-02 0.  1.
         -2   -1    0    0    0  501 -0.00000000000E+00 -0.00000000000E+00 -0.11663382997E+02  0.11663383287E+02  0.26000000000E-02 0. -1.
        -11    1    1    2    0    0 -0.75437053609E+01  0.65902123436E+01 -0.20947768989E+01  0.10233595645E+02  0.51100000000E-03 0.  1.
         11    1    1    2    0    0  0.75437053609E+01 -0.65902123436E+01 -0.93769525143E+00  0.10060698880E+02  0.51100000000E-03 0. -1.
<mgrwt>
<rscale>  0 0.20066452E+02</rscale>
<asrwt>0</asrwt>
<pdfrwt beam="1">  1        2 0.13278325E-02 0.20066452E+02</pdfrwt>
<pdfrwt beam="2">  1       -2 0.17943667E-02 0.20066452E+02</pdfrwt>
<totfact> 0.38744335E+06</totfact>
</mgrwt>
</event>
<event>
 5    1  0.4046313E-006  0.2000267E+02  0.7818608E-02  0.1745275E+00
         -2   -1    0    0    0  501 -0.00000000000E+00  0.00000000000E+00  0.46069158550E+01  0.46069165886E+01  0.26000000000E-02 0.  1.
          2   -1    0    0  501    0  0.00000000000E+00 -0.00000000000E+00 -0.21712293792E+02  0.21712293948E+02  0.26000000000E-02 0. -1.
       1023    2    1    2    0    0  0.00000000000E+00  0.00000000000E+00 -0.17105377937E+02  0.26319210536E+02  0.20002672044E+02 0.  0.
        -11    1    3    3    0    0 -0.84313003189E+01  0.53777087282E+01 -0.83659322170E+01  0.13038228344E+02  0.51100000000E-03 0.  1.
         11    1    3    3    0    0  0.84313003189E+01 -0.53777087282E+01 -0.87394457199E+01  0.13280982192E+02  0.51100000000E-03 0. -1.
<mgrwt>
<rscale>  0 0.20002672E+02</rscale>
<asrwt>0</asrwt>
<pdfrwt beam="2">  1        2 0.33403529E-02 0.20002672E+02</pdfrwt>
<pdfrwt beam="1">  1       -2 0.70875637E-03 0.20002672E+02</pdfrwt>
<totfact> 0.41975251E+06</totfact>
</mgrwt>
</event>
<event>
 5    1  0.4046313E-006  0.2000196E+02  0.7818608E-02  0.1745289E+00
         -2   -1    0    0    0  501 -0.00000000000E+00  0.00000000000E+00  0.18651896370E+01  0.18651914492E+01  0.26000000000E-02 0. -1.
          2   -1    0    0  501    0  0.00000000000E+00 -0.00000000000E+00 -0.53624357310E+02  0.53624357373E+02  0.26000000000E-02 0.  1.
       1023    2    1    2    0    0  0.00000000000E+00  0.00000000000E+00 -0.51759167673E+02  0.55489548822E+02  0.20001964661E+02 0.  0.
        -11    1    3    3    0    0 -0.48158860996E+01 -0.87649583899E+01 -0.26015287890E+02  0.27871355525E+02  0.51100000000E-03 0.  1.
         11    1    3    3    0    0  0.48158860996E+01  0.87649583899E+01 -0.25743879783E+02  0.27618193298E+02  0.51100000000E-03 0. -1.
<mgrwt>
<rscale>  0 0.20001965E+02</rscale>
<asrwt>0</asrwt>
<pdfrwt beam="2">  1        2 0.82499001E-02 0.20001965E+02</pdfrwt>
<pdfrwt beam="1">  1       -2 0.28695244E-03 0.20001965E+02</pdfrwt>
<totfact> 0.46820439E+06</totfact>
</mgrwt>
</event>
<event>
 5    1  0.4046313E-006  0.2000027E+02  0.7818608E-02  0.1745323E+00
         -2   -1    0    0    0  501 -0.00000000000E+00  0.00000000000E+00  0.77652822237E+01  0.77652826590E+01  0.26000000000E-02 0.  1.
          2   -1    0    0  501    0  0.00000000000E+00 -0.00000000000E+00 -0.12878180346E+02  0.12878180609E+02  0.26000000000E-02 0. -1.
       1023    2    1    2    0    0  0.00000000000E+00  0.00000000000E+00 -0.51128981226E+01  0.20643463268E+02  0.20000271210E+02 0.  0.
        -11    1    3    3    0    0 -0.95669514568E+01  0.29112158194E+01 -0.25886639144E+01  0.10329710492E+02  0.51100000000E-03 0.  1.
         11    1    3    3    0    0  0.95669514568E+01 -0.29112158194E+01 -0.25242342082E+01  0.10313752776E+02  0.51100000000E-03 0. -1.
<mgrwt>
<rscale>  0 0.20000271E+02</rscale>
<asrwt>0</asrwt>
<pdfrwt beam="2">  1        2 0.19812586E-02 0.20000271E+02</pdfrwt>
<pdfrwt beam="1">  1       -2 0.11946589E-02 0.20000271E+02</pdfrwt>
<totfact> 0.40211035E+06</totfact>
</mgrwt>
</event>
<event>
 5    1  0.4046313E-006  0.2000242E+02  0.7818608E-02  0.1745280E+00
          2   -1    0    0  501    0  0.00000000000E+00  0.00000000000E+00  0.62464915166E+01  0.62464920577E+01  0.26000000000E-02 0.  1.
         -2   -1    0    0    0  501 -0.00000000000E+00 -0.00000000000E+00 -0.16012860868E+02  0.16012861079E+02  0.26000000000E-02 0. -1.
       1023    2    1    2    0    0  0.00000000000E+00  0.00000000000E+00 -0.97663693516E+01  0.22259353137E+02  0.20002420648E+02 0.  0.
        -11    1    3    3    0    0 -0.87872628557E+01  0.47757691676E+01 -0.48656582768E+01  0.11121986799E+02  0.51100000000E-03 0. -1.
         11    1    3    3    0    0  0.87872628557E+01 -0.47757691676E+01 -0.49007110748E+01  0.11137366338E+02  0.51100000000E-03 0.  1.
<mgrwt>
<rscale>  0 0.20002421E+02</rscale>
<asrwt>0</asrwt>
<pdfrwt beam="1">  1        2 0.96099876E-03 0.20002421E+02</pdfrwt>
<pdfrwt beam="2">  1       -2 0.24635171E-02 0.20002421E+02</pdfrwt>
<totfact> 0.38096427E+06</totfact>
</mgrwt>
</event>
<event>
 5    1  0.4046313E-006  0.2000214E+02  0.7818608E-02  0.1745286E+00
         -2   -1    0    0    0  501 -0.00000000000E+00  0.00000000000E+00  0.43485834158E+01  0.43485841930E+01  0.26000000000E-02 0. -1.
          2   -1    0    0  501    0  0.00000000000E+00 -0.00000000000E+00 -0.23000902897E+02  0.23000903044E+02  0.26000000000E-02 0.  1.
       1023    2    1    2    0    0  0.00000000000E+00  0.00000000000E+00 -0.18652319481E+02  0.27349487237E+02  0.20002135638E+02 0.  0.
        -11    1    3    3    0    0  0.57530822262E+01  0.81802971440E+01 -0.92190114611E+01  0.13601668613E+02  0.51100000000E-03 0.  1.
         11    1    3    3    0    0 -0.57530822262E+01 -0.81802971440E+01 -0.94333080202E+01  0.13747818624E+02  0.51100000000E-03 0. -1.
<mgrwt>
<rscale>  0 0.20002136E+02</rscale>
<asrwt>0</asrwt>
<pdfrwt beam="2">  1        2 0.35386005E-02 0.20002136E+02</pdfrwt>
<pdfrwt beam="1">  1       -2 0.66901292E-03 0.20002136E+02</pdfrwt>
<totfact> 0.42204327E+06</totfact>
</mgrwt>
</event>
<event>
 5    1  0.4151893E-006  0.2000045E+02  0.7818608E-02  0.1745319E+00
         -2   -1    0    0    0  501 -0.00000000000E+00  0.00000000000E+00  0.11304045631E+01  0.11304075531E+01  0.26000000000E-02 0. -1.
          2   -1    0    0  501    0  0.00000000000E+00 -0.00000000000E+00 -0.88467743249E+02  0.88467743287E+02  0.26000000000E-02 0.  1.
       1023    2    1    2    0    0  0.00000000000E+00  0.00000000000E+00 -0.87337338686E+02  0.89598150841E+02  0.20000447627E+02 0.  0.
        -11    1    3    3    0    0  0.96874804199E+01 -0.24812567866E+01 -0.43775052127E+02  0.44902773869E+02  0.51100000000E-03 0. -1.
         11    1    3    3    0    0 -0.96874804199E+01  0.24812567866E+01 -0.43562286559E+02  0.44695376972E+02  0.51100000000E-03 0.  1.
<mgrwt>
<rscale>  0 0.20000448E+02</rscale>
<asrwt>0</asrwt>
<pdfrwt beam="2">  1        2 0.13610417E-01 0.20000448E+02</pdfrwt>
<pdfrwt beam="1">  1       -2 0.17390870E-03 0.20000448E+02</pdfrwt>
<totfact> 0.51353424E+06</totfact>
</mgrwt>
</event>
<event>
 5    1  0.4046313E-006  0.2000165E+02  0.7818608E-02  0.1745295E+00
          2   -1    0    0  501    0  0.00000000000E+00  0.00000000000E+00  0.91917704999E+01  0.91917708676E+01  0.26000000000E-02 0. -1.
         -2   -1    0    0    0  501 -0.00000000000E+00 -0.00000000000E+00 -0.10881096460E+02  0.10881096771E+02  0.26000000000E-02 0.  1.
       1023    2    1    2    0    0  0.00000000000E+00  0.00000000000E+00 -0.16893259603E+01  0.20072867639E+02  0.20001654757E+02 0.  0.
        -11    1    3    3    0    0  0.89480125691E+00  0.99601317296E+01 -0.73632197583E+00  0.10027315876E+02  0.51100000000E-03 0. -1.
         11    1    3    3    0    0 -0.89480125691E+00 -0.99601317296E+01 -0.95300398452E+00  0.10045551763E+02  0.51100000000E-03 0.  1.
<mgrwt>
<rscale>  0 0.20001655E+02</rscale>
<asrwt>0</asrwt>
<pdfrwt beam="1">  1        2 0.14141186E-02 0.20001655E+02</pdfrwt>
<pdfrwt beam="2">  1       -2 0.16740149E-02 0.20001655E+02</pdfrwt>
<totfact> 0.39213147E+06</totfact>
</mgrwt>
</event>
<event>
 5    1  0.4051551E-006  0.2000159E+02  0.7818608E-02  0.1745297E+00
          2   -1    0    0  501    0  0.00000000000E+00  0.00000000000E+00  0.24867121575E+02  0.24867121711E+02  0.26000000000E-02 0. -1.
         -2   -1    0    0    0  501 -0.00000000000E+00 -0.00000000000E+00 -0.40220116022E+01  0.40220124426E+01  0.26000000000E-02 0.  1.
       1023    2    1    2    0    0  0.00000000000E+00  0.00000000000E+00  0.20845109972E+02  0.28889134153E+02  0.20001586496E+02 0.  0.
        -11    1    3    3    0    0 -0.61176652815E+01  0.79104915426E+01  0.10594427969E+02  0.14568582950E+02  0.51100000000E-03 0.  1.
         11    1    3    3    0    0  0.61176652815E+01 -0.79104915426E+01  0.10250682004E+02  0.14320551203E+02  0.51100000000E-03 0. -1.
<mgrwt>
<rscale>  0 0.20001586E+02</rscale>
<asrwt>0</asrwt>
<pdfrwt beam="1">  1        2 0.38257110E-02 0.20001586E+02</pdfrwt>
<pdfrwt beam="2">  1       -2 0.61877110E-03 0.20001586E+02</pdfrwt>
<totfact> 0.42526644E+06</totfact>
</mgrwt>
</event>
<event>
 5    1  0.4046313E-006  0.2000067E+02  0.7818608E-02  0.1745315E+00
          2   -1    0    0  501    0  0.00000000000E+00  0.00000000000E+00  0.20714517121E+01  0.20714533438E+01  0.26000000000E-02 0.  1.
         -2   -1    0    0    0  501 -0.00000000000E+00 -0.00000000000E+00 -0.48278527408E+02  0.48278527478E+02  0.26000000000E-02 0. -1.
       1023    2    1    2    0    0  0.00000000000E+00  0.00000000000E+00 -0.46207075696E+02  0.50349980822E+02  0.20000668099E+02 0.  0.
        -11    1    3    3    0    0  0.10000192581E+02 -0.33683867591E-01 -0.22999908050E+02  0.25079887497E+02  0.51100000000E-03 0.  1.
         11    1    3    3    0    0 -0.10000192581E+02  0.33683867591E-01 -0.23207167645E+02  0.25270093325E+02  0.51100000000E-03 0. -1.
<mgrwt>
<rscale>  0 0.20000668E+02</rscale>
<asrwt>0</asrwt>
<pdfrwt beam="1">  1        2 0.31868505E-03 0.20000668E+02</pdfrwt>
<pdfrwt beam="2">  1       -2 0.74274650E-02 0.20000668E+02</pdfrwt>
<totfact> 0.34065379E+06</totfact>
</mgrwt>
</event>
<event>
 5    1  0.4046313E-006  0.2000175E+02  0.7818608E-02  0.1745293E+00
         -2   -1    0    0    0  501 -0.00000000000E+00  0.00000000000E+00  0.13649818091E+02  0.13649818338E+02  0.26000000000E-02 0.  1.
          2   -1    0    0  501    0  0.00000000000E+00 -0.00000000000E+00 -0.73273831657E+01  0.73273836270E+01  0.26000000000E-02 0. -1.
       1023    2    1    2    0    0  0.00000000000E+00  0.00000000000E+00  0.63224349249E+01  0.20977201965E+02  0.20001745397E+02 0.  0.
        -11    1    3    3    0    0 -0.95875163891E+00  0.99548103737E+01  0.31616690680E+01  0.10488737094E+02  0.51100000000E-03 0.  1.
         11    1    3    3    0    0  0.95875163891E+00 -0.99548103737E+01  0.31607658569E+01  0.10488464871E+02  0.51100000000E-03 0. -1.
<mgrwt>
<rscale>  0 0.20001745E+02</rscale>
<asrwt>0</asrwt>
<pdfrwt beam="2">  1        2 0.11272898E-02 0.20001745E+02</pdfrwt>
<pdfrwt beam="1">  1       -2 0.20999721E-02 0.20001745E+02</pdfrwt>
<totfact> 0.38563332E+06</totfact>
</mgrwt>
</event>
<event>
 5    1  0.4046313E-006  0.2000042E+02  0.7818608E-02  0.1745320E+00
         -2   -1    0    0    0  501 -0.00000000000E+00  0.00000000000E+00  0.48883219469E+01  0.48883226383E+01  0.26000000000E-02 0.  1.
          2   -1    0    0  501    0  0.00000000000E+00 -0.00000000000E+00 -0.20457784752E+02  0.20457784917E+02  0.26000000000E-02 0. -1.
       1023    2    1    2    0    0  0.00000000000E+00  0.00000000000E+00 -0.15569462805E+02  0.25346107556E+02  0.20000424900E+02 0.  0.
        -11    1    3    3    0    0  0.71391500280E+01  0.70026060849E+01 -0.78064489247E+01  0.12686394294E+02  0.51100000000E-03 0.  1.
         11    1    3    3    0    0 -0.71391500280E+01 -0.70026060849E+01 -0.77630138804E+01  0.12659713262E+02  0.51100000000E-03 0. -1.
<mgrwt>
<rscale>  0 0.20000425E+02</rscale>
<asrwt>0</asrwt>
<pdfrwt beam="2">  1        2 0.31473515E-02 0.20000425E+02</pdfrwt>
<pdfrwt beam="1">  1       -2 0.75204961E-03 0.20000425E+02</pdfrwt>
<totfact> 0.41759922E+06</totfact>
</mgrwt>
</event>
<event>
 5    1  0.4046313E-006  0.2000021E+02  0.7818608E-02  0.1745324E+00
         -2   -1    0    0    0  501 -0.00000000000E+00  0.00000000000E+00  0.11535715791E+02  0.11535716084E+02  0.26000000000E-02 0. -1.
          2   -1    0    0  501    0  0.00000000000E+00 -0.00000000000E+00 -0.86689146506E+01  0.86689150405E+01  0.26000000000E-02 0.  1.
       1023    2    1    2    0    0  0.00000000000E+00  0.00000000000E+00  0.28668011408E+01  0.20204631125E+02  0.20000214252E+02 0.  0.
        -11    1    3    3    0    0  0.15947488093E+01 -0.98721183178E+01  0.14476308347E+01  0.10104334671E+02  0.51100000000E-03 0.  1.
         11    1    3    3    0    0 -0.15947488093E+01  0.98721183178E+01  0.14191703061E+01  0.10100296454E+02  0.51100000000E-03 0. -1.
<mgrwt>
<rscale>  0 0.20000214E+02</rscale>
<asrwt>0</asrwt>
<pdfrwt beam="2">  1        2 0.13336792E-02 0.20000214E+02</pdfrwt>
<pdfrwt beam="1">  1       -2 0.17747256E-02 0.20000214E+02</pdfrwt>
<totfact> 0.39051841E+06</totfact>
</mgrwt>
</event>
<event>
 5    1  0.4046313E-006  0.2000059E+02  0.7818608E-02  0.1745316E+00
         -2   -1    0    0    0  501 -0.00000000000E+00  0.00000000000E+00  0.36979515477E+02  0.36979515568E+02  0.26000000000E-02 0.  1.
          2   -1    0    0  501    0  0.00000000000E+00 -0.00000000000E+00 -0.27043593970E+01  0.27043606468E+01  0.26000000000E-02 0. -1.
       1023    2    1    2    0    0  0.00000000000E+00  0.00000000000E+00  0.34275156080E+02  0.39683876215E+02  0.20000592670E+02 0.  0.
        -11    1    3    3    0    0 -0.49042841368E+01 -0.87151109306E+01  0.17082695948E+02  0.19794536179E+02  0.51100000000E-03 0.  1.
         11    1    3    3    0    0  0.49042841368E+01  0.87151109306E+01  0.17192460132E+02  0.19889340036E+02  0.51100000000E-03 0. -1.
<mgrwt>
<rscale>  0 0.20000593E+02</rscale>
<asrwt>0</asrwt>
<pdfrwt beam="2">  1        2 0.41605541E-03 0.20000593E+02</pdfrwt>
<pdfrwt beam="1">  1       -2 0.56891561E-02 0.20000593E+02</pdfrwt>
<totfact> 0.35247886E+06</totfact>
</mgrwt>
</event>
<event>
 4    1  0.4046313E-006  0.2066449E+02  0.7818608E-02  0.1732428E+00
         -2   -1    0    0    0  501 -0.00000000000E+00  0.00000000000E+00  0.10424391511E+02  0.10424391835E+02  0.26000000000E-02 0.  1.
          2   -1    0    0  501    0  0.00000000000E+00 -0.00000000000E+00 -0.10240915500E+02  0.10240915830E+02  0.26000000000E-02 0. -1.
        -11    1    1    2    0    0  0.69257694679E+01  0.76305554297E+01 -0.65906466327E+00  0.10325987865E+02  0.51100000000E-03 0. -1.
         11    1    1    2    0    0 -0.69257694679E+01 -0.76305554297E+01  0.84254067484E+00  0.10339319801E+02  0.51100000000E-03 0.  1.
<mgrwt>
<rscale>  0 0.20664493E+02</rscale>
<asrwt>0</asrwt>
<pdfrwt beam="2">  1        2 0.15755255E-02 0.20664493E+02</pdfrwt>
<pdfrwt beam="1">  1       -2 0.16037526E-02 0.20664493E+02</pdfrwt>
<totfact> 0.36677115E+06</totfact>
</mgrwt>
</event>
<event>
 5    1  0.4046313E-006  0.2000140E+02  0.7818608E-02  0.1745300E+00
         -2   -1    0    0    0  501 -0.00000000000E+00  0.00000000000E+00  0.21611075512E+01  0.21611091152E+01  0.26000000000E-02 0. -1.
          2   -1    0    0  501    0  0.00000000000E+00 -0.00000000000E+00 -0.46279035436E+02  0.46279035509E+02  0.26000000000E-02 0.  1.
       1023    2    1    2    0    0  0.00000000000E+00  0.00000000000E+00 -0.44117927885E+02  0.48440144625E+02  0.20001401210E+02 0.  0.
        -11    1    3    3    0    0 -0.59012783875E+01 -0.80737358873E+01 -0.21911359960E+02  0.24085638737E+02  0.51100000000E-03 0.  1.
         11    1    3    3    0    0  0.59012783875E+01  0.80737358873E+01 -0.22206567925E+02  0.24354505888E+02  0.51100000000E-03 0. -1.
<mgrwt>
<rscale>  0 0.20001401E+02</rscale>
<asrwt>0</asrwt>
<pdfrwt beam="2">  1        2 0.71198510E-02 0.20001401E+02</pdfrwt>
<pdfrwt beam="1">  1       -2 0.33247824E-03 0.20001401E+02</pdfrwt>
<totfact> 0.45796570E+06</totfact>
</mgrwt>
</event>
<event>
 5    1  0.4046313E-006  0.2000018E+02  0.7818608E-02  0.1745325E+00
         -2   -1    0    0    0  501 -0.00000000000E+00  0.00000000000E+00  0.17270109924E+02  0.17270110120E+02  0.26000000000E-02 0.  1.
          2   -1    0    0  501    0  0.00000000000E+00 -0.00000000000E+00 -0.57904544811E+01  0.57904550648E+01  0.26000000000E-02 0. -1.
       1023    2    1    2    0    0  0.00000000000E+00  0.00000000000E+00  0.11479655443E+02  0.23060565185E+02  0.20000179438E+02 0.  0.
        -11    1    3    3    0    0  0.61066534148E+01  0.79189939437E+01  0.57275646976E+01  0.11524178003E+02  0.51100000000E-03 0. -1.
         11    1    3    3    0    0 -0.61066534148E+01 -0.79189939437E+01  0.57520907453E+01  0.11536387182E+02  0.51100000000E-03 0.  1.
<mgrwt>
<rscale>  0 0.20000179E+02</rscale>
<asrwt>0</asrwt>
<pdfrwt beam="2">  1        2 0.89083922E-03 0.20000179E+02</pdfrwt>
<pdfrwt beam="1">  1       -2 0.26569400E-02 0.20000179E+02</pdfrwt>
<totfact> 0.37881302E+06</totfact>
</mgrwt>
</event>
<event>
 5    1  0.4046313E-006  0.2000746E+02  0.7818608E-02  0.1745180E+00
         -2   -1    0    0    0  501 -0.00000000000E+00  0.00000000000E+00  0.14594742340E+02  0.14594742571E+02  0.26000000000E-02 0.  1.
          2   -1    0    0  501    0  0.00000000000E+00 -0.00000000000E+00 -0.68568942165E+01  0.68568947095E+01  0.26000000000E-02 0. -1.
       1023    2    1    2    0    0  0.00000000000E+00  0.00000000000E+00  0.77378481230E+01  0.21451637281E+02  0.20007459820E+02 0.  0.
        -11    1    3    3    0    0 -0.99720383077E+01  0.79560145041E+00  0.38786432064E+01  0.10729324446E+02  0.51100000000E-03 0.  1.
         11    1    3    3    0    0  0.99720383077E+01 -0.79560145041E+00  0.38592049167E+01  0.10722312835E+02  0.51100000000E-03 0. -1.
<mgrwt>
<rscale>  0 0.20007460E+02</rscale>
<asrwt>0</asrwt>
<pdfrwt beam="2">  1        2 0.10549069E-02 0.20007460E+02</pdfrwt>
<pdfrwt beam="1">  1       -2 0.22453450E-02 0.20007460E+02</pdfrwt>
<totfact> 0.38346347E+06</totfact>
</mgrwt>
</event>
<event>
 5    1  0.4046313E-006  0.2000702E+02  0.7818608E-02  0.1745188E+00
          2   -1    0    0  501    0  0.00000000000E+00  0.00000000000E+00  0.34874214481E+02  0.34874214578E+02  0.26000000000E-02 0.  1.
         -2   -1    0    0    0  501 -0.00000000000E+00 -0.00000000000E+00 -0.28694613884E+01  0.28694625663E+01  0.26000000000E-02 0. -1.
       1023    2    1    2    0    0  0.00000000000E+00  0.00000000000E+00  0.32004753092E+02  0.37743677144E+02  0.20007022363E+02 0.  0.
        -11    1    3    3    0    0 -0.95336075311E+01 -0.30224506566E+01  0.16404144369E+02  0.19212517619E+02  0.51100000000E-03 0.  1.
         11    1    3    3    0    0  0.95336075311E+01  0.30224506566E+01  0.15600608724E+02  0.18531159525E+02  0.51100000000E-03 0. -1.
<mgrwt>
<rscale>  0 0.20007022E+02</rscale>
<asrwt>0</asrwt>
<pdfrwt beam="1">  1        2 0.53652636E-02 0.20007022E+02</pdfrwt>
<pdfrwt beam="2">  1       -2 0.44145572E-03 0.20007022E+02</pdfrwt>
<totfact> 0.44095305E+06</totfact>
</mgrwt>
</event>
<event>
 5    1  0.4046313E-006  0.2000187E+02  0.7818608E-02  0.1745291E+00
         -2   -1    0    0    0  501 -0.00000000000E+00  0.00000000000E+00  0.51337846286E+01  0.51337852870E+01  0.26000000000E-02 0.  1.
          2   -1    0    0  501    0  0.00000000000E+00 -0.00000000000E+00 -0.19482453398E+02  0.19482453572E+02  0.26000000000E-02 0. -1.
       1023    2    1    2    0    0  0.00000000000E+00  0.00000000000E+00 -0.14348668770E+02  0.24616238859E+02  0.20001872915E+02 0.  0.
        -11    1    3    3    0    0  0.77736190674E+01 -0.62913447908E+01 -0.70604894262E+01  0.12241759836E+02  0.51100000000E-03 0. -1.
         11    1    3    3    0    0 -0.77736190674E+01  0.62913447908E+01 -0.72881793435E+01  0.12374479023E+02  0.51100000000E-03 0.  1.
<mgrwt>
<rscale>  0 0.20001873E+02</rscale>
<asrwt>0</asrwt>
<pdfrwt beam="2">  1        2 0.29973005E-02 0.20001873E+02</pdfrwt>
<pdfrwt beam="1">  1       -2 0.78981310E-03 0.20001873E+02</pdfrwt>
<totfact> 0.41573270E+06</totfact>
</mgrwt>
</event>
<event>
 5    1  0.4046313E-006  0.2000319E+02  0.7818608E-02  0.1745265E+00
         -2   -1    0    0    0  501 -0.00000000000E+00  0.00000000000E+00  0.36579579877E+02  0.36579579969E+02  0.26000000000E-02 0. -1.
          2   -1    0    0  501    0  0.00000000000E+00 -0.00000000000E+00 -0.27346369135E+01  0.27346381495E+01  0.26000000000E-02 0.  1.
       1023    2    1    2    0    0  0.00000000000E+00  0.00000000000E+00  0.33844942963E+02  0.39314218119E+02  0.20003189298E+02 0.  0.
        -11    1    3    3    0    0 -0.10140871445E+01  0.99488207111E+01  0.17230035682E+02  0.19921885858E+02  0.51100000000E-03 0.  1.
         11    1    3    3    0    0  0.10140871445E+01 -0.99488207111E+01  0.16614907281E+02  0.19392332261E+02  0.51100000000E-03 0. -1.
<mgrwt>
<rscale>  0 0.20003189E+02</rscale>
<asrwt>0</asrwt>
<pdfrwt beam="2">  1        2 0.42071347E-03 0.20003189E+02</pdfrwt>
<pdfrwt beam="1">  1       -2 0.56276278E-02 0.20003189E+02</pdfrwt>
<totfact> 0.35282434E+06</totfact>
</mgrwt>
</event>
<event>
 5    1  0.4046313E-006  0.2000047E+02  0.7818608E-02  0.1745319E+00
         -2   -1    0    0    0  501 -0.00000000000E+00  0.00000000000E+00  0.93761951734E+01  0.93761955339E+01  0.26000000000E-02 0. -1.
          2   -1    0    0  501    0  0.00000000000E+00 -0.00000000000E+00 -0.10665803027E+02  0.10665803344E+02  0.26000000000E-02 0.  1.
       1023    2    1    2    0    0  0.00000000000E+00  0.00000000000E+00 -0.12896078533E+01  0.20041998877E+02  0.20000465759E+02 0.  0.
        -11    1    3    3    0    0 -0.74877496478E+01  0.66284189085E+01 -0.59648167706E+00  0.10017890130E+02  0.51100000000E-03 0.  1.
         11    1    3    3    0    0  0.74877496478E+01 -0.66284189085E+01 -0.69312617626E+00  0.10024108747E+02  0.51100000000E-03 0. -1.
<mgrwt>
<rscale>  0 0.20000466E+02</rscale>
<asrwt>0</asrwt>
<pdfrwt beam="2">  1        2 0.16408928E-02 0.20000466E+02</pdfrwt>
<pdfrwt beam="1">  1       -2 0.14424916E-02 0.20000466E+02</pdfrwt>
<totfact> 0.39648352E+06</totfact>
</mgrwt>
</event>
<event>
 5    1  0.4046313E-006  0.2000096E+02  0.7818608E-02  0.1745309E+00
         -2   -1    0    0    0  501 -0.00000000000E+00  0.00000000000E+00  0.14877941393E+02  0.14877941620E+02  0.26000000000E-02 0. -1.
          2   -1    0    0  501    0  0.00000000000E+00 -0.00000000000E+00 -0.67220048924E+01  0.67220053952E+01  0.26000000000E-02 0.  1.
       1023    2    1    2    0    0  0.00000000000E+00  0.00000000000E+00  0.81559365005E+01  0.21599947015E+02  0.20000960248E+02 0.  0.
        -11    1    3    3    0    0 -0.43679159726E+01 -0.89961598396E+01  0.40730605810E+01  0.10798120418E+02  0.51100000000E-03 0. -1.
         11    1    3    3    0    0  0.43679159726E+01  0.89961598396E+01  0.40828759194E+01  0.10801826597E+02  0.51100000000E-03 0.  1.
<mgrwt>
<rscale>  0 0.20000960E+02</rscale>
<asrwt>0</asrwt>
<pdfrwt beam="2">  1        2 0.10341547E-02 0.20000960E+02</pdfrwt>
<pdfrwt beam="1">  1       -2 0.22889141E-02 0.20000960E+02</pdfrwt>
<totfact> 0.38317438E+06</totfact>
</mgrwt>
</event>
<event>
 5    1  0.4104573E-006  0.2000465E+02  0.7818608E-02  0.1745236E+00
          2   -1    0    0  501    0  0.00000000000E+00  0.00000000000E+00  0.96005184961E+02  0.96005184996E+02  0.26000000000E-02 0. -1.
         -2   -1    0    0    0  501 -0.00000000000E+00 -0.00000000000E+00 -0.10420927305E+01  0.10420959739E+01  0.26000000000E-02 0.  1.
       1023    2    1    2    0    0  0.00000000000E+00  0.00000000000E+00  0.94963092230E+02  0.97047280970E+02  0.20004645903E+02 0.  0.
        -11    1    3    3    0    0  0.67407686288E+01  0.73868160574E+01  0.48492781761E+02  0.49513158820E+02  0.51100000000E-03 0.  1.
         11    1    3    3    0    0 -0.67407686288E+01 -0.73868160574E+01  0.46470310469E+02  0.47534122150E+02  0.51100000000E-03 0. -1.
<mgrwt>
<rscale>  0 0.20004646E+02</rscale>
<asrwt>0</asrwt>
<pdfrwt beam="1">  1        2 0.14770029E-01 0.20004646E+02</pdfrwt>
<pdfrwt beam="2">  1       -2 0.16032221E-03 0.20004646E+02</pdfrwt>
<totfact> 0.52250297E+06</totfact>
</mgrwt>
</event>
<event>
 5    1  0.4046313E-006  0.2000034E+02  0.7818608E-02  0.1745321E+00
          2   -1    0    0  501    0  0.00000000000E+00  0.00000000000E+00  0.12483406367E+01  0.12483433443E+01  0.26000000000E-02 0. -1.
         -2   -1    0    0    0  501 -0.00000000000E+00 -0.00000000000E+00 -0.80109011183E+02  0.80109011226E+02  0.26000000000E-02 0.  1.
       1023    2    1    2    0    0  0.00000000000E+00  0.00000000000E+00 -0.78860670547E+02  0.81357354570E+02  0.20000344586E+02 0.  0.
        -11    1    3    3    0    0  0.56646377464E+01 -0.82410404099E+01 -0.39332556546E+02  0.40583899178E+02  0.51100000000E-03 0. -1.
         11    1    3    3    0    0 -0.56646377464E+01  0.82410404099E+01 -0.39528114001E+02  0.40773455392E+02  0.51100000000E-03 0.  1.
<mgrwt>
<rscale>  0 0.20000345E+02</rscale>
<asrwt>0</asrwt>
<pdfrwt beam="1">  1        2 0.19205268E-03 0.20000345E+02</pdfrwt>
<pdfrwt beam="2">  1       -2 0.12324459E-01 0.20000345E+02</pdfrwt>
<totfact> 0.31247914E+06</totfact>
</mgrwt>
</event>
<event>
 5    1  0.4046313E-006  0.2000330E+02  0.7818608E-02  0.1745262E+00
          2   -1    0    0  501    0  0.00000000000E+00  0.00000000000E+00  0.11290481646E+02  0.11290481945E+02  0.26000000000E-02 0. -1.
         -2   -1    0    0    0  501 -0.00000000000E+00 -0.00000000000E+00 -0.88599442687E+01  0.88599446502E+01  0.26000000000E-02 0.  1.
       1023    2    1    2    0    0  0.00000000000E+00  0.00000000000E+00  0.24305373772E+01  0.20150426595E+02  0.20003304228E+02 0.  0.
        -11    1    3    3    0    0 -0.41338395572E+01 -0.91073811919E+01  0.12104284086E+01  0.10074629465E+02  0.51100000000E-03 0. -1.
         11    1    3    3    0    0  0.41338395572E+01  0.91073811919E+01  0.12201089686E+01  0.10075797131E+02  0.51100000000E-03 0.  1.
<mgrwt>
<rscale>  0 0.20003304E+02</rscale>
<asrwt>0</asrwt>
<pdfrwt beam="1">  1        2 0.17369972E-02 0.20003304E+02</pdfrwt>
<pdfrwt beam="2">  1       -2 0.13630684E-02 0.20003304E+02</pdfrwt>
<totfact> 0.39802593E+06</totfact>
</mgrwt>
</event>
<event>
 5    1  0.4046313E-006  0.2000092E+02  0.7818608E-02  0.1745310E+00
         -2   -1    0    0    0  501 -0.00000000000E+00  0.00000000000E+00  0.65139588861E+01  0.65139594050E+01  0.26000000000E-02 0.  1.
          2   -1    0    0  501    0  0.00000000000E+00 -0.00000000000E+00 -0.15353057066E+02  0.15353057286E+02  0.26000000000E-02 0. -1.
       1023    2    1    2    0    0  0.00000000000E+00  0.00000000000E+00 -0.88390981796E+01  0.21867016691E+02  0.20000919037E+02 0.  0.
        -11    1    3    3    0    0 -0.53131538366E+01 -0.84720414518E+01 -0.43495413889E+01  0.10905209792E+02  0.51100000000E-03 0. -1.
         11    1    3    3    0    0  0.53131538366E+01  0.84720414518E+01 -0.44895567907E+01  0.10961806899E+02  0.51100000000E-03 0.  1.
<mgrwt>
<rscale>  0 0.20000919E+02</rscale>
<asrwt>0</asrwt>
<pdfrwt beam="2">  1        2 0.23620088E-02 0.20000919E+02</pdfrwt>
<pdfrwt beam="1">  1       -2 0.10021476E-02 0.20000919E+02</pdfrwt>
<totfact> 0.40760554E+06</totfact>
</mgrwt>
</event>
<event>
 4    1  0.4046313E-006  0.2013061E+02  0.7818608E-02  0.1742743E+00
         -2   -1    0    0    0  501 -0.00000000000E+00  0.00000000000E+00  0.25691575621E+02  0.25691575752E+02  0.26000000000E-02 0.  1.
          2   -1    0    0  501    0  0.00000000000E+00 -0.00000000000E+00 -0.39433307456E+01  0.39433316027E+01  0.26000000000E-02 0. -1.
        -11    1    1    2    0    0 -0.58364526172E+01  0.81730384089E+01  0.11859085554E+02  0.15540291066E+02  0.51100000000E-03 0. -1.
         11    1    1    2    0    0  0.58364526172E+01 -0.81730384089E+01  0.98891593213E+01  0.14094616289E+02  0.51100000000E-03 0.  1.
<mgrwt>
<rscale>  0 0.20130613E+02</rscale>
<asrwt>0</asrwt>
<pdfrwt beam="2">  1        2 0.60666635E-03 0.20130613E+02</pdfrwt>
<pdfrwt beam="1">  1       -2 0.39525501E-02 0.20130613E+02</pdfrwt>
<totfact> 0.36100512E+06</totfact>
</mgrwt>
</event>
<event>
 5    1  0.4046313E-006  0.2001054E+02  0.7818608E-02  0.1745119E+00
         -2   -1    0    0    0  501 -0.00000000000E+00  0.00000000000E+00  0.10373895971E+03  0.10373895974E+03  0.26000000000E-02 0. -1.
          2   -1    0    0  501    0  0.00000000000E+00 -0.00000000000E+00 -0.96497268514E+00  0.96497618782E+00  0.26000000000E-02 0.  1.
       1023    2    1    2    0    0  0.00000000000E+00  0.00000000000E+00  0.10277398702E+03  0.10470393593E+03  0.20010541980E+02 0.  0.
        -11    1    3    3    0    0  0.89675582766E+01  0.44272395845E+01  0.49835722894E+02  0.50829291048E+02  0.51100000000E-03 0. -1.
         11    1    3    3    0    0 -0.89675582766E+01 -0.44272395845E+01  0.52938264127E+02  0.53874644879E+02  0.51100000000E-03 0.  1.
<mgrwt>
<rscale>  0 0.20010542E+02</rscale>
<asrwt>0</asrwt>
<pdfrwt beam="2">  1        2 0.14845766E-03 0.20010542E+02</pdfrwt>
<pdfrwt beam="1">  1       -2 0.15959835E-01 0.20010542E+02</pdfrwt>
<totfact> 0.29427611E+06</totfact>
</mgrwt>
</event>
<event>
 5    1  0.4046313E-006  0.2000086E+02  0.7818608E-02  0.1745311E+00
          2   -1    0    0  501    0  0.00000000000E+00  0.00000000000E+00  0.25691453046E+02  0.25691453178E+02  0.26000000000E-02 0. -1.
         -2   -1    0    0    0  501 -0.00000000000E+00 -0.00000000000E+00 -0.38926775015E+01  0.38926783698E+01  0.26000000000E-02 0.  1.
       1023    2    1    2    0    0  0.00000000000E+00  0.00000000000E+00  0.21798775545E+02  0.29584131547E+02  0.20000855586E+02 0.  0.
        -11    1    3    3    0    0 -0.43458674462E+01 -0.90067020242E+01  0.10845840181E+02  0.14752609759E+02  0.51100000000E-03 0. -1.
         11    1    3    3    0    0  0.43458674462E+01  0.90067020242E+01  0.10952935363E+02  0.14831521788E+02  0.51100000000E-03 0.  1.
<mgrwt>
<rscale>  0 0.20000856E+02</rscale>
<asrwt>0</asrwt>
<pdfrwt beam="1">  1        2 0.39525315E-02 0.20000856E+02</pdfrwt>
<pdfrwt beam="2">  1       -2 0.59887352E-03 0.20000856E+02</pdfrwt>
<totfact> 0.42668585E+06</totfact>
</mgrwt>
</event>
<event>
 5    1  0.4060002E-006  0.2000151E+02  0.7818608E-02  0.1745298E+00
         -2   -1    0    0    0  501 -0.00000000000E+00  0.00000000000E+00  0.23757414204E+01  0.23757428431E+01  0.26000000000E-02 0. -1.
          2   -1    0    0  501    0  0.00000000000E+00 -0.00000000000E+00 -0.42098480128E+02  0.42098480208E+02  0.26000000000E-02 0.  1.
       1023    2    1    2    0    0  0.00000000000E+00  0.00000000000E+00 -0.39722738707E+02  0.44474223051E+02  0.20001513582E+02 0.  0.
        -11    1    3    3    0    0 -0.31720535375E+01 -0.94837053575E+01 -0.20110417891E+02  0.22459552510E+02  0.51100000000E-03 0.  1.
         11    1    3    3    0    0  0.31720535375E+01  0.94837053575E+01 -0.19612320817E+02  0.22014670541E+02  0.51100000000E-03 0. -1.
<mgrwt>
<rscale>  0 0.20001514E+02</rscale>
<asrwt>0</asrwt>
<pdfrwt beam="2">  1        2 0.64766888E-02 0.20001514E+02</pdfrwt>
<pdfrwt beam="1">  1       -2 0.36549883E-03 0.20001514E+02</pdfrwt>
<totfact> 0.45195400E+06</totfact>
</mgrwt>
</event>
<event>
 5    1  0.4046313E-006  0.2000786E+02  0.7818608E-02  0.1745172E+00
         -2   -1    0    0    0  501 -0.00000000000E+00  0.00000000000E+00  0.50289260601E+02  0.50289260668E+02  0.26000000000E-02 0. -1.
          2   -1    0    0  501    0  0.00000000000E+00 -0.00000000000E+00 -0.19900580257E+01  0.19900597241E+01  0.26000000000E-02 0.  1.
       1023    2    1    2    0    0  0.00000000000E+00  0.00000000000E+00  0.48299202576E+02  0.52279320392E+02  0.20007857738E+02 0.  0.
        -11    1    3    3    0    0 -0.59766266219E+01 -0.80222843917E+01  0.24250120267E+02  0.26232526486E+02  0.51100000000E-03 0. -1.
         11    1    3    3    0    0  0.59766266219E+01  0.80222843917E+01  0.24049082309E+02  0.26046793906E+02  0.51100000000E-03 0.  1.
<mgrwt>
<rscale>  0 0.20007858E+02</rscale>
<asrwt>0</asrwt>
<pdfrwt beam="2">  1        2 0.30616296E-03 0.20007858E+02</pdfrwt>
<pdfrwt beam="1">  1       -2 0.77368081E-02 0.20007858E+02</pdfrwt>
<totfact> 0.33841431E+06</totfact>
</mgrwt>
</event>
<event>
 5    1  0.4046313E-006  0.2000007E+02  0.7818608E-02  0.1745327E+00
         -2   -1    0    0    0  501 -0.00000000000E+00  0.00000000000E+00  0.25264232558E+01  0.25264245937E+01  0.26000000000E-02 0. -1.
          2   -1    0    0  501    0  0.00000000000E+00 -0.00000000000E+00 -0.39581920170E+02  0.39581920256E+02  0.26000000000E-02 0.  1.
       1023    2    1    2    0    0  0.00000000000E+00  0.00000000000E+00 -0.37055496914E+02  0.42108344849E+02  0.20000071359E+02 0.  0.
        -11    1    3    3    0    0  0.99912417164E+01 -0.41928138968E+00 -0.18532646453E+02  0.21058482678E+02  0.51100000000E-03 0. -1.
         11    1    3    3    0    0 -0.99912417164E+01  0.41928138968E+00 -0.18522850462E+02  0.21049862171E+02  0.51100000000E-03 0.  1.
<mgrwt>
<rscale>  0 0.20000071E+02</rscale>
<asrwt>0</asrwt>
<pdfrwt beam="2">  1        2 0.60895259E-02 0.20000071E+02</pdfrwt>
<pdfrwt beam="1">  1       -2 0.38868064E-03 0.20000071E+02</pdfrwt>
<totfact> 0.44834399E+06</totfact>
</mgrwt>
</event>
<event>
 4    1  0.4046313E-006  0.2002428E+02  0.7818608E-02  0.1744846E+00
          2   -1    0    0  501    0  0.00000000000E+00  0.00000000000E+00  0.11436040434E+02  0.11436040729E+02  0.26000000000E-02 0. -1.
         -2   -1    0    0    0  501 -0.00000000000E+00 -0.00000000000E+00 -0.87655329231E+01  0.87655333087E+01  0.26000000000E-02 0.  1.
        -11    1    1    2    0    0  0.88494405520E+01  0.46662245755E+01  0.17346702388E+01  0.10153587099E+02  0.51100000000E-03 0.  1.
         11    1    1    2    0    0 -0.88494405520E+01 -0.46662245755E+01  0.93583727174E+00  0.10047986939E+02  0.51100000000E-03 0. -1.
<mgrwt>
<rscale>  0 0.20024285E+02</rscale>
<asrwt>0</asrwt>
<pdfrwt beam="1">  1        2 0.17593909E-02 0.20024285E+02</pdfrwt>
<pdfrwt beam="2">  1       -2 0.13485436E-02 0.20024285E+02</pdfrwt>
<totfact> 0.39745453E+06</totfact>
</mgrwt>
</event>
<event>
 5    1  0.4344375E-006  0.2000093E+02  0.7818608E-02  0.1745310E+00
          2   -1    0    0  501    0  0.00000000000E+00  0.00000000000E+00  0.94183917763E+02  0.94183917799E+02  0.26000000000E-02 0.  1.
         -2   -1    0    0    0  501 -0.00000000000E+00 -0.00000000000E+00 -0.10618498290E+01  0.10618530121E+01  0.26000000000E-02 0. -1.
       1023    2    1    2    0    0  0.00000000000E+00  0.00000000000E+00  0.93122067934E+02  0.95245770811E+02  0.20000933005E+02 0.  0.
        -11    1    3    3    0    0  0.86971085776E+01  0.49362289349E+01  0.46833609582E+02  0.47889383380E+02  0.51100000000E-03 0.  1.
         11    1    3    3    0    0 -0.86971085776E+01 -0.49362289349E+01  0.46288458351E+02  0.47356387431E+02  0.51100000000E-03 0. -1.
<mgrwt>
<rscale>  0 0.20000933E+02</rscale>
<asrwt>0</asrwt>
<pdfrwt beam="1">  1        2 0.14489832E-01 0.20000933E+02</pdfrwt>
<pdfrwt beam="2">  1       -2 0.16336177E-03 0.20000933E+02</pdfrwt>
<totfact> 0.52050844E+06</totfact>
</mgrwt>
</event>
<event>
 5    1  0.4046313E-006  0.2000133E+02  0.7818608E-02  0.1745302E+00
          2   -1    0    0  501    0  0.00000000000E+00  0.00000000000E+00  0.32329982390E+01  0.32329992844E+01  0.26000000000E-02 0. -1.
         -2   -1    0    0    0  501 -0.00000000000E+00 -0.00000000000E+00 -0.30935158911E+02  0.30935159020E+02  0.26000000000E-02 0.  1.
       1023    2    1    2    0    0  0.00000000000E+00  0.00000000000E+00 -0.27702160672E+02  0.34168158304E+02  0.20001333356E+02 0.  0.
        -11    1    3    3    0    0 -0.77426332739E+00  0.99700144314E+01 -0.14043309215E+02  0.17239930552E+02  0.51100000000E-03 0. -1.
         11    1    3    3    0    0  0.77426332739E+00 -0.99700144314E+01 -0.13658851456E+02  0.16928227752E+02  0.51100000000E-03 0.  1.
<mgrwt>
<rscale>  0 0.20001333E+02</rscale>
<asrwt>0</asrwt>
<pdfrwt beam="1">  1        2 0.49738445E-03 0.20001333E+02</pdfrwt>
<pdfrwt beam="2">  1       -2 0.47592551E-02 0.20001333E+02</pdfrwt>
<totfact> 0.35944972E+06</totfact>
</mgrwt>
</event>
<event>
 5    1  0.4151812E-006  0.2000143E+02  0.7818608E-02  0.1745300E+00
         -2   -1    0    0    0  501 -0.00000000000E+00  0.00000000000E+00  0.16770249245E+01  0.16770269399E+01  0.26000000000E-02 0. -1.
          2   -1    0    0  501    0  0.00000000000E+00 -0.00000000000E+00 -0.59637889808E+02  0.59637889865E+02  0.26000000000E-02 0.  1.
       1023    2    1    2    0    0  0.00000000000E+00  0.00000000000E+00 -0.57960864883E+02  0.61314916804E+02  0.20001429067E+02 0.  0.
        -11    1    3    3    0    0  0.97435231347E+01  0.22533374507E+01 -0.29050214280E+02  0.30723423031E+02  0.51100000000E-03 0.  1.
         11    1    3    3    0    0 -0.97435231347E+01 -0.22533374507E+01 -0.28910650603E+02  0.30591493773E+02  0.51100000000E-03 0. -1.
<mgrwt>
<rscale>  0 0.20001429E+02</rscale>
<asrwt>0</asrwt>
<pdfrwt beam="2">  1        2 0.91750585E-02 0.20001429E+02</pdfrwt>
<pdfrwt beam="1">  1       -2 0.25800404E-03 0.20001429E+02</pdfrwt>
<totfact> 0.47641429E+06</totfact>
</mgrwt>
</event>
<event>
 5    1  0.4046313E-006  0.2000068E+02  0.7818608E-02  0.1745315E+00
          2   -1    0    0  501    0  0.00000000000E+00  0.00000000000E+00  0.44185858113E+02  0.44185858189E+02  0.26000000000E-02 0. -1.
         -2   -1    0    0    0  501 -0.00000000000E+00 -0.00000000000E+00 -0.22633200402E+01  0.22633215335E+01  0.26000000000E-02 0.  1.
       1023    2    1    2    0    0  0.00000000000E+00  0.00000000000E+00  0.41922538072E+02  0.46449179723E+02  0.20000677450E+02 0.  0.
        -11    1    3    3    0    0 -0.38634655691E+01 -0.92238925388E+01  0.20927249042E+02  0.23193885239E+02  0.51100000000E-03 0.  1.
         11    1    3    3    0    0  0.38634655691E+01  0.92238925388E+01  0.20995289030E+02  0.23255294483E+02  0.51100000000E-03 0. -1.
<mgrwt>
<rscale>  0 0.20000677E+02</rscale>
<asrwt>0</asrwt>
<pdfrwt beam="1">  1        2 0.67978242E-02 0.20000677E+02</pdfrwt>
<pdfrwt beam="2">  1       -2 0.34820321E-03 0.20000677E+02</pdfrwt>
<totfact> 0.45501156E+06</totfact>
</mgrwt>
</event>
<event>
 5    1  0.4046313E-006  0.2000006E+02  0.7818608E-02  0.1745327E+00
         -2   -1    0    0    0  501 -0.00000000000E+00  0.00000000000E+00  0.11059036669E+01  0.11059067232E+01  0.26000000000E-02 0. -1.
          2   -1    0    0  501    0  0.00000000000E+00 -0.00000000000E+00 -0.90424216979E+02  0.90424217016E+02  0.26000000000E-02 0.  1.
       1023    2    1    2    0    0  0.00000000000E+00  0.00000000000E+00 -0.89318313312E+02  0.91530123740E+02  0.20000061472E+02 0.  0.
        -11    1    3    3    0    0  0.90097935243E+01  0.43386607458E+01 -0.44585641671E+02  0.45693323362E+02  0.51100000000E-03 0. -1.
         11    1    3    3    0    0 -0.90097935243E+01 -0.43386607458E+01 -0.44732671641E+02  0.45836800377E+02  0.51100000000E-03 0.  1.
<mgrwt>
<rscale>  0 0.20000061E+02</rscale>
<asrwt>0</asrwt>
<pdfrwt beam="2">  1        2 0.13911412E-01 0.20000061E+02</pdfrwt>
<pdfrwt beam="1">  1       -2 0.17013933E-03 0.20000061E+02</pdfrwt>
<totfact> 0.51596487E+06</totfact>
</mgrwt>
</event>
<event>
 5    1  0.4046313E-006  0.2000075E+02  0.7818608E-02  0.1745313E+00
          2   -1    0    0  501    0  0.00000000000E+00  0.00000000000E+00  0.87615808951E+00  0.87616194725E+00  0.26000000000E-02 0.  1.
         -2   -1    0    0    0  501 -0.00000000000E+00 -0.00000000000E+00 -0.11414298304E+03  0.11414298307E+03  0.26000000000E-02 0. -1.
       1023    2    1    2    0    0  0.00000000000E+00  0.00000000000E+00 -0.11326682495E+03  0.11501914502E+03  0.20000752137E+02 0.  0.
        -11    1    3    3    0    0 -0.60677624199E+01  0.79491208265E+01 -0.56837426412E+02  0.57710478287E+02  0.51100000000E-03 0.  1.
         11    1    3    3    0    0  0.60677624199E+01 -0.79491208265E+01 -0.56429398542E+02  0.57308666733E+02  0.51100000000E-03 0. -1.
<mgrwt>
<rscale>  0 0.20000752E+02</rscale>
<asrwt>0</asrwt>
<pdfrwt beam="1">  1        2 0.13479394E-03 0.20000752E+02</pdfrwt>
<pdfrwt beam="2">  1       -2 0.17560447E-01 0.20000752E+02</pdfrwt>
<totfact> 0.28732961E+06</totfact>
</mgrwt>
</event>
<event>
 5    1  0.4183624E-006  0.2000052E+02  0.7818608E-02  0.1745318E+00
         -2   -1    0    0    0  501 -0.00000000000E+00  0.00000000000E+00  0.11857629265E+01  0.11857657770E+01  0.26000000000E-02 0. -1.
          2   -1    0    0  501    0  0.00000000000E+00 -0.00000000000E+00 -0.84338201266E+02  0.84338201306E+02  0.26000000000E-02 0.  1.
       1023    2    1    2    0    0  0.00000000000E+00  0.00000000000E+00 -0.83152438339E+02  0.85523967083E+02  0.20000523589E+02 0.  0.
        -11    1    3    3    0    0 -0.11016166264E+01 -0.99393942051E+01 -0.41622932588E+02  0.42807401625E+02  0.51100000000E-03 0.  1.
         11    1    3    3    0    0  0.11016166264E+01  0.99393942051E+01 -0.41529505751E+02  0.42716565458E+02  0.51100000000E-03 0. -1.
<mgrwt>
<rscale>  0 0.20000524E+02</rscale>
<asrwt>0</asrwt>
<pdfrwt beam="2">  1        2 0.12975103E-01 0.20000524E+02</pdfrwt>
<pdfrwt beam="1">  1       -2 0.18242535E-03 0.20000524E+02</pdfrwt>
<totfact> 0.50840408E+06</totfact>
</mgrwt>
</event>
<event>
 5    1  0.4304520E-006  0.2000070E+02  0.7818608E-02  0.1745314E+00
         -2   -1    0    0    0  501 -0.00000000000E+00  0.00000000000E+00  0.11436229986E+01  0.11436259541E+01  0.26000000000E-02 0. -1.
          2   -1    0    0  501    0  0.00000000000E+00 -0.00000000000E+00 -0.87447388493E+02  0.87447388532E+02  0.26000000000E-02 0.  1.
       1023    2    1    2    0    0  0.00000000000E+00  0.00000000000E+00 -0.86303765494E+02  0.88591014486E+02  0.20000697716E+02 0.  0.
        -11    1    3    3    0    0  0.12967784576E+01  0.99155951712E+01 -0.43503874862E+02  0.44638411601E+02  0.51100000000E-03 0. -1.
         11    1    3    3    0    0 -0.12967784576E+01 -0.99155951712E+01 -0.42799890632E+02  0.43952602885E+02  0.51100000000E-03 0.  1.
<mgrwt>
<rscale>  0 0.20000698E+02</rscale>
<asrwt>0</asrwt>
<pdfrwt beam="2">  1        2 0.13453439E-01 0.20000698E+02</pdfrwt>
<pdfrwt beam="1">  1       -2 0.17594230E-03 0.20000698E+02</pdfrwt>
<totfact> 0.51225888E+06</totfact>
</mgrwt>
</event>
<event>
 5    1  0.4046313E-006  0.2000048E+02  0.7818608E-02  0.1745319E+00
         -2   -1    0    0    0  501 -0.00000000000E+00  0.00000000000E+00  0.19361374624E+01  0.19361392081E+01  0.26000000000E-02 0. -1.
          2   -1    0    0  501    0  0.00000000000E+00 -0.00000000000E+00 -0.51651665842E+02  0.51651665908E+02  0.26000000000E-02 0.  1.
       1023    2    1    2    0    0  0.00000000000E+00  0.00000000000E+00 -0.49715528380E+02  0.53587805116E+02  0.20000477370E+02 0.  0.
        -11    1    3    3    0    0  0.99008205447E+01 -0.14065763304E+01 -0.24880030997E+02  0.26814560356E+02  0.51100000000E-03 0.  1.
         11    1    3    3    0    0 -0.99008205447E+01  0.14065763304E+01 -0.24835497383E+02  0.26773244760E+02  0.51100000000E-03 0. -1.
<mgrwt>
<rscale>  0 0.20000477E+02</rscale>
<asrwt>0</asrwt>
<pdfrwt beam="2">  1        2 0.79464092E-02 0.20000477E+02</pdfrwt>
<pdfrwt beam="1">  1       -2 0.29786748E-03 0.20000477E+02</pdfrwt>
<totfact> 0.46555614E+06</totfact>
</mgrwt>
</event>
<event>
 5    1  0.4046313E-006  0.2000122E+02  0.7818608E-02  0.1745304E+00
          2   -1    0    0  501    0  0.00000000000E+00  0.00000000000E+00  0.35076201346E+01  0.35076210982E+01  0.26000000000E-02 0. -1.
         -2   -1    0    0    0  501 -0.00000000000E+00 -0.00000000000E+00 -0.28512844168E+02  0.28512844287E+02  0.26000000000E-02 0.  1.
       1023    2    1    2    0    0  0.00000000000E+00  0.00000000000E+00 -0.25005224033E+02  0.32020465385E+02  0.20001224325E+02 0.  0.
        -11    1    3    3    0    0 -0.90492911364E+01 -0.42566363942E+01 -0.12598932638E+02  0.16085450797E+02  0.51100000000E-03 0.  1.
         11    1    3    3    0    0  0.90492911364E+01  0.42566363942E+01 -0.12406291396E+02  0.15935014588E+02  0.51100000000E-03 0. -1.
<mgrwt>
<rscale>  0 0.20001224E+02</rscale>
<asrwt>0</asrwt>
<pdfrwt beam="1">  1        2 0.53963397E-03 0.20001224E+02</pdfrwt>
<pdfrwt beam="2">  1       -2 0.43865913E-02 0.20001224E+02</pdfrwt>
<totfact> 0.36244872E+06</totfact>
</mgrwt>
</event>
<event>
 5    1  0.4046313E-006  0.2000117E+02  0.7818608E-02  0.1745305E+00
          2   -1    0    0  501    0  0.00000000000E+00  0.00000000000E+00  0.14949576736E+02  0.14949576962E+02  0.26000000000E-02 0. -1.
         -2   -1    0    0    0  501 -0.00000000000E+00 -0.00000000000E+00 -0.66899362208E+01  0.66899367260E+01  0.26000000000E-02 0.  1.
       1023    2    1    2    0    0  0.00000000000E+00  0.00000000000E+00  0.82596405151E+01  0.21639513688E+02  0.20001172246E+02 0.  0.
        -11    1    3    3    0    0  0.97170397231E+01  0.23637217649E+01  0.40641794677E+01  0.10794702246E+02  0.51100000000E-03 0. -1.
         11    1    3    3    0    0 -0.97170397231E+01 -0.23637217649E+01  0.41954610474E+01  0.10844811442E+02  0.51100000000E-03 0.  1.
<mgrwt>
<rscale>  0 0.20001172E+02</rscale>
<asrwt>0</asrwt>
<pdfrwt beam="1">  1        2 0.22999349E-02 0.20001172E+02</pdfrwt>
<pdfrwt beam="2">  1       -2 0.10292210E-02 0.20001172E+02</pdfrwt>
<totfact> 0.40673352E+06</totfact>
</mgrwt>
</event>
<event>
 5    1  0.4046313E-006  0.2000198E+02  0.7818608E-02  0.1745289E+00
          2   -1    0    0  501    0  0.00000000000E+00  0.00000000000E+00  0.27240993345E+01  0.27241005752E+01  0.26000000000E-02 0.  1.
         -2   -1    0    0    0  501 -0.00000000000E+00 -0.00000000000E+00 -0.36716652105E+02  0.36716652197E+02  0.26000000000E-02 0. -1.
       1023    2    1    2    0    0  0.00000000000E+00  0.00000000000E+00 -0.33992552770E+02  0.39440752772E+02  0.20001983286E+02 0.  0.
        -11    1    3    3    0    0  0.99927276355E+01  0.39820012152E+00 -0.16835300482E+02  0.19581637100E+02  0.51100000000E-03 0.  1.
         11    1    3    3    0    0 -0.99927276355E+01 -0.39820012152E+00 -0.17157252288E+02  0.19859115672E+02  0.51100000000E-03 0. -1.
<mgrwt>
<rscale>  0 0.20001983E+02</rscale>
<asrwt>0</asrwt>
<pdfrwt beam="1">  1        2 0.41909233E-03 0.20001983E+02</pdfrwt>
<pdfrwt beam="2">  1       -2 0.56487155E-02 0.20001983E+02</pdfrwt>
<totfact> 0.35271787E+06</totfact>
</mgrwt>
</event>
<event>
 5    1  0.4046313E-006  0.2000090E+02  0.7818608E-02  0.1745310E+00
          2   -1    0    0  501    0  0.00000000000E+00  0.00000000000E+00  0.12004678652E+01  0.12004706808E+01  0.26000000000E-02 0. -1.
         -2   -1    0    0    0  501 -0.00000000000E+00 -0.00000000000E+00 -0.83308280036E+02  0.83308280077E+02  0.26000000000E-02 0.  1.
       1023    2    1    2    0    0  0.00000000000E+00  0.00000000000E+00 -0.82107812171E+02  0.84508750757E+02  0.20000903357E+02 0.  0.
        -11    1    3    3    0    0  0.70876294589E+01  0.70550477252E+01 -0.40931173058E+02  0.42135129262E+02  0.51100000000E-03 0. -1.
         11    1    3    3    0    0 -0.70876294589E+01 -0.70550477252E+01 -0.41176639113E+02  0.42373621496E+02  0.51100000000E-03 0.  1.
<mgrwt>
<rscale>  0 0.20000903E+02</rscale>
<asrwt>0</asrwt>
<pdfrwt beam="1">  1        2 0.18468765E-03 0.20000903E+02</pdfrwt>
<pdfrwt beam="2">  1       -2 0.12816654E-01 0.20000903E+02</pdfrwt>
<totfact> 0.30991718E+06</totfact>
</mgrwt>
</event>
<event>
 5    1  0.4046313E-006  0.2000061E+02  0.7818608E-02  0.1745316E+00
          2   -1    0    0  501    0  0.00000000000E+00  0.00000000000E+00  0.23062701333E+02  0.23062701479E+02  0.26000000000E-02 0.  1.
         -2   -1    0    0    0  501 -0.00000000000E+00 -0.00000000000E+00 -0.43362679159E+01  0.43362686954E+01  0.26000000000E-02 0. -1.
       1023    2    1    2    0    0  0.00000000000E+00  0.00000000000E+00  0.18726433417E+02  0.27398970175E+02  0.20000606444E+02 0.  0.
        -11    1    3    3    0    0 -0.70416677615E+01  0.71007697474E+01  0.93536863949E+01  0.13692971383E+02  0.51100000000E-03 0. -1.
         11    1    3    3    0    0  0.70416677615E+01 -0.71007697474E+01  0.93727470217E+01  0.13705998791E+02  0.51100000000E-03 0.  1.
<mgrwt>
<rscale>  0 0.20000606E+02</rscale>
<asrwt>0</asrwt>
<pdfrwt beam="1">  1        2 0.35481079E-02 0.20000606E+02</pdfrwt>
<pdfrwt beam="2">  1       -2 0.66711822E-03 0.20000606E+02</pdfrwt>
<totfact> 0.42222325E+06</totfact>
</mgrwt>
</event>
<event>
 5    1  0.4046313E-006  0.2000021E+02  0.7818608E-02  0.1745324E+00
         -2   -1    0    0    0  501 -0.00000000000E+00  0.00000000000E+00  0.21237501444E+02  0.21237501603E+02  0.26000000000E-02 0.  1.
          2   -1    0    0  501    0  0.00000000000E+00 -0.00000000000E+00 -0.47087494039E+01  0.47087501217E+01  0.26000000000E-02 0. -1.
       1023    2    1    2    0    0  0.00000000000E+00  0.00000000000E+00  0.16528752040E+02  0.25946251725E+02  0.20000208363E+02 0.  0.
        -11    1    3    3    0    0  0.78163977265E+01 -0.62373045018E+01  0.83230063715E+01  0.13010475633E+02  0.51100000000E-03 0. -1.
         11    1    3    3    0    0 -0.78163977265E+01  0.62373045018E+01  0.82057456683E+01  0.12935776092E+02  0.51100000000E-03 0.  1.
<mgrwt>
<rscale>  0 0.20000208E+02</rscale>
<asrwt>0</asrwt>
<pdfrwt beam="2">  1        2 0.72442305E-03 0.20000208E+02</pdfrwt>
<pdfrwt beam="1">  1       -2 0.32673080E-02 0.20000208E+02</pdfrwt>
<totfact> 0.37243771E+06</totfact>
</mgrwt>
</event>
<event>
 5    1  0.4046313E-006  0.2000012E+02  0.7818608E-02  0.1745326E+00
          2   -1    0    0  501    0  0.00000000000E+00  0.00000000000E+00  0.58826109111E+02  0.58826109168E+02  0.26000000000E-02 0.  1.
         -2   -1    0    0    0  501 -0.00000000000E+00 -0.00000000000E+00 -0.16999452846E+01  0.16999472729E+01  0.26000000000E-02 0. -1.
       1023    2    1    2    0    0  0.00000000000E+00  0.00000000000E+00  0.57126163826E+02  0.60526056441E+02  0.20000122870E+02 0.  0.
        -11    1    3    3    0    0  0.21846999181E+01  0.97584717976E+01  0.28492569565E+02  0.30196476719E+02  0.51100000000E-03 0.  1.
         11    1    3    3    0    0 -0.21846999181E+01 -0.97584717976E+01  0.28633594261E+02  0.30329579722E+02  0.51100000000E-03 0. -1.
<mgrwt>
<rscale>  0 0.20000123E+02</rscale>
<asrwt>0</asrwt>
<pdfrwt beam="1">  1        2 0.90501692E-02 0.20000123E+02</pdfrwt>
<pdfrwt beam="2">  1       -2 0.26153025E-03 0.20000123E+02</pdfrwt>
<totfact> 0.47538857E+06</totfact>
</mgrwt>
</event>
<event>
 4    1  0.4046313E-006  0.2003412E+02  0.7818608E-02  0.1744650E+00
          2   -1    0    0  501    0  0.00000000000E+00  0.00000000000E+00  0.11113674679E+02  0.11113674983E+02  0.26000000000E-02 0.  1.
         -2   -1    0    0    0  501 -0.00000000000E+00 -0.00000000000E+00 -0.90286534551E+01  0.90286538294E+01  0.26000000000E-02 0. -1.
        -11    1    1    2    0    0 -0.30801421814E+01 -0.95243734328E+01  0.14194471379E+01  0.10110182767E+02  0.51100000000E-03 0. -1.
         11    1    1    2    0    0  0.30801421814E+01  0.95243734328E+01  0.66557408571E+00  0.10032146045E+02  0.51100000000E-03 0.  1.
<mgrwt>
<rscale>  0 0.20034123E+02</rscale>
<asrwt>0</asrwt>
<pdfrwt beam="1">  1        2 0.17097961E-02 0.20034123E+02</pdfrwt>
<pdfrwt beam="2">  1       -2 0.13890237E-02 0.20034123E+02</pdfrwt>
<totfact> 0.39616865E+06</totfact>
</mgrwt>
</event>
<event>
 5    1  0.4046313E-006  0.2000099E+02  0.7818608E-02  0.1745308E+00
          2   -1    0    0  501    0  0.00000000000E+00  0.00000000000E+00  0.24939820069E+01  0.24939833622E+01  0.26000000000E-02 0. -1.
         -2   -1    0    0    0  501 -0.00000000000E+00 -0.00000000000E+00 -0.40100495072E+02  0.40100495156E+02  0.26000000000E-02 0.  1.
       1023    2    1    2    0    0  0.00000000000E+00  0.00000000000E+00 -0.37606513065E+02  0.42594478518E+02  0.20000994359E+02 0.  0.
        -11    1    3    3    0    0 -0.99452590008E+01 -0.10458303515E+01 -0.18612707982E+02  0.21129004624E+02  0.51100000000E-03 0. -1.
         11    1    3    3    0    0  0.99452590008E+01  0.10458303515E+01 -0.18993805083E+02  0.21465473894E+02  0.51100000000E-03 0.  1.
<mgrwt>
<rscale>  0 0.20000994E+02</rscale>
<asrwt>0</asrwt>
<pdfrwt beam="1">  1        2 0.38368968E-03 0.20000994E+02</pdfrwt>
<pdfrwt beam="2">  1       -2 0.61693065E-02 0.20000994E+02</pdfrwt>
<totfact> 0.34905940E+06</totfact>
</mgrwt>
</event>
<event>
 5    1  0.4046313E-006  0.2000107E+02  0.7818608E-02  0.1745307E+00
          2   -1    0    0  501    0  0.00000000000E+00  0.00000000000E+00  0.13443896919E+01  0.13443922060E+01  0.26000000000E-02 0.  1.
         -2   -1    0    0    0  501 -0.00000000000E+00 -0.00000000000E+00 -0.74391099238E+02  0.74391099284E+02  0.26000000000E-02 0. -1.
       1023    2    1    2    0    0  0.00000000000E+00  0.00000000000E+00 -0.73046709546E+02  0.75735491490E+02  0.20001072362E+02 0.  0.
        -11    1    3    3    0    0  0.21886148550E+01  0.97578787861E+01 -0.36777090666E+02  0.38112473438E+02  0.51100000000E-03 0.  1.
         11    1    3    3    0    0 -0.21886148550E+01 -0.97578787861E+01 -0.36269618880E+02  0.37623018052E+02  0.51100000000E-03 0. -1.
<mgrwt>
<rscale>  0 0.20001072E+02</rscale>
<asrwt>0</asrwt>
<pdfrwt beam="1">  1        2 0.20682944E-03 0.20001072E+02</pdfrwt>
<pdfrwt beam="2">  1       -2 0.11444781E-01 0.20001072E+02</pdfrwt>
<totfact> 0.31711249E+06</totfact>
</mgrwt>
</event>
<event>
 5    1  0.4046313E-006  0.2000099E+02  0.7818608E-02  0.1745308E+00
         -2   -1    0    0    0  501 -0.00000000000E+00  0.00000000000E+00  0.27061540096E+02  0.27061540221E+02  0.26000000000E-02 0.  1.
          2   -1    0    0  501    0  0.00000000000E+00 -0.00000000000E+00 -0.36956461491E+01  0.36956470637E+01  0.26000000000E-02 0. -1.
       1023    2    1    2    0    0  0.00000000000E+00  0.00000000000E+00  0.23365893947E+02  0.30757187285E+02  0.20000989219E+02 0.  0.
        -11    1    3    3    0    0  0.91025410945E+01  0.41414120107E+01  0.11757404103E+02  0.15435157898E+02  0.51100000000E-03 0.  1.
         11    1    3    3    0    0 -0.91025410945E+01 -0.41414120107E+01  0.11608489844E+02  0.15322029387E+02  0.51100000000E-03 0. -1.
<mgrwt>
<rscale>  0 0.20000989E+02</rscale>
<asrwt>0</asrwt>
<pdfrwt beam="2">  1        2 0.56856100E-03 0.20000989E+02</pdfrwt>
<pdfrwt beam="1">  1       -2 0.41633141E-02 0.20000989E+02</pdfrwt>
<totfact> 0.36431610E+06</totfact>
</mgrwt>
</event>
<event>
 5    1  0.4046313E-006  0.2000046E+02  0.7818608E-02  0.1745319E+00
          2   -1    0    0  501    0  0.00000000000E+00  0.00000000000E+00  0.31536939737E+02  0.31536939844E+02  0.26000000000E-02 0. -1.
         -2   -1    0    0    0  501 -0.00000000000E+00 -0.00000000000E+00 -0.31710311711E+01  0.31710322370E+01  0.26000000000E-02 0.  1.
       1023    2    1    2    0    0  0.00000000000E+00  0.00000000000E+00  0.28365908566E+02  0.34707972081E+02  0.20000463925E+02 0.  0.
        -11    1    3    3    0    0 -0.98879208346E+01  0.14935141378E+01  0.14086706257E+02  0.17275325072E+02  0.51100000000E-03 0. -1.
         11    1    3    3    0    0  0.98879208346E+01 -0.14935141378E+01  0.14279202310E+02  0.17432647010E+02  0.51100000000E-03 0.  1.
<mgrwt>
<rscale>  0 0.20000464E+02</rscale>
<asrwt>0</asrwt>
<pdfrwt beam="1">  1        2 0.48518370E-02 0.20000464E+02</pdfrwt>
<pdfrwt beam="2">  1       -2 0.48785104E-03 0.20000464E+02</pdfrwt>
<totfact> 0.43613055E+06</totfact>
</mgrwt>
</event>
<event>
 5    1  0.4046313E-006  0.2000194E+02  0.7818608E-02  0.1745289E+00
          2   -1    0    0  501    0  0.00000000000E+00  0.00000000000E+00  0.25668490735E+02  0.25668490867E+02  0.26000000000E-02 0.  1.
         -2   -1    0    0    0  501 -0.00000000000E+00 -0.00000000000E+00 -0.38965835996E+01  0.38965844670E+01  0.26000000000E-02 0. -1.
       1023    2    1    2    0    0  0.00000000000E+00  0.00000000000E+00  0.21771907136E+02  0.29565075334E+02  0.20001943385E+02 0.  0.
        -11    1    3    3    0    0 -0.52904339924E+01  0.84867467857E+01  0.10999216759E+02  0.14865945392E+02  0.51100000000E-03 0. -1.
         11    1    3    3    0    0  0.52904339924E+01 -0.84867467857E+01  0.10772690377E+02  0.14699129942E+02  0.51100000000E-03 0.  1.
<mgrwt>
<rscale>  0 0.20001943E+02</rscale>
<asrwt>0</asrwt>
<pdfrwt beam="1">  1        2 0.39489985E-02 0.20001943E+02</pdfrwt>
<pdfrwt beam="2">  1       -2 0.59947450E-03 0.20001943E+02</pdfrwt>
<totfact> 0.42659538E+06</totfact>
</mgrwt>
</event>
<event>
 5    1  0.4046313E-006  0.2000035E+02  0.7818608E-02  0.1745321E+00
          2   -1    0    0  501    0  0.00000000000E+00  0.00000000000E+00  0.67325470161E+01  0.67325475181E+01  0.26000000000E-02 0. -1.
         -2   -1    0    0    0  501 -0.00000000000E+00 -0.00000000000E+00 -0.14853742478E+02  0.14853742705E+02  0.26000000000E-02 0.  1.
       1023    2    1    2    0    0  0.00000000000E+00  0.00000000000E+00 -0.81211954618E+01  0.21586290224E+02  0.20000352744E+02 0.  0.
        -11    1    3    3    0    0 -0.24499441801E+01 -0.96953377415E+01 -0.41054476547E+01  0.10810018553E+02  0.51100000000E-03 0.  1.
         11    1    3    3    0    0  0.24499441801E+01  0.96953377415E+01 -0.40157478071E+01  0.10776271671E+02  0.51100000000E-03 0. -1.
<mgrwt>
<rscale>  0 0.20000353E+02</rscale>
<asrwt>0</asrwt>
<pdfrwt beam="1">  1        2 0.10357765E-02 0.20000353E+02</pdfrwt>
<pdfrwt beam="2">  1       -2 0.22851912E-02 0.20000353E+02</pdfrwt>
<totfact> 0.38324683E+06</totfact>
</mgrwt>
</event>
<event>
 4    1  0.4046313E-006  0.2029863E+02  0.7818608E-02  0.1739454E+00
         -2   -1    0    0    0  501 -0.00000000000E+00  0.00000000000E+00  0.56084975092E+01  0.56084981118E+01  0.26000000000E-02 0.  1.
          2   -1    0    0  501    0  0.00000000000E+00 -0.00000000000E+00 -0.18366523900E+02  0.18366524084E+02  0.26000000000E-02 0. -1.
        -11    1    1    2    0    0  0.69519218489E+01 -0.73908986487E+01 -0.61045151054E+01  0.11841440164E+02  0.51100000000E-03 0. -1.
         11    1    1    2    0    0 -0.69519218489E+01  0.73908986487E+01 -0.66535112850E+01  0.12133582031E+02  0.51100000000E-03 0.  1.
<mgrwt>
<rscale>  0 0.20298632E+02</rscale>
<asrwt>0</asrwt>
<pdfrwt beam="2">  1        2 0.28256191E-02 0.20298632E+02</pdfrwt>
<pdfrwt beam="1">  1       -2 0.86284584E-03 0.20298632E+02</pdfrwt>
<totfact> 0.40007555E+06</totfact>
</mgrwt>
</event>
<event>
 5    1  0.4046313E-006  0.2000026E+02  0.7818608E-02  0.1745323E+00
          2   -1    0    0  501    0  0.00000000000E+00  0.00000000000E+00  0.50185761502E+01  0.50185768237E+01  0.26000000000E-02 0. -1.
         -2   -1    0    0    0  501 -0.00000000000E+00 -0.00000000000E+00 -0.19926483209E+02  0.19926483379E+02  0.26000000000E-02 0.  1.
       1023    2    1    2    0    0  0.00000000000E+00  0.00000000000E+00 -0.14907907059E+02  0.24945060202E+02  0.20000258389E+02 0.  0.
        -11    1    3    3    0    0 -0.19596242169E+01 -0.98062457542E+01 -0.74528512218E+01  0.12471871330E+02  0.51100000000E-03 0.  1.
         11    1    3    3    0    0  0.19596242169E+01  0.98062457542E+01 -0.74550558372E+01  0.12473188873E+02  0.51100000000E-03 0. -1.
<mgrwt>
<rscale>  0 0.20000258E+02</rscale>
<asrwt>0</asrwt>
<pdfrwt beam="1">  1        2 0.77208871E-03 0.20000258E+02</pdfrwt>
<pdfrwt beam="2">  1       -2 0.30656128E-02 0.20000258E+02</pdfrwt>
<totfact> 0.37444346E+06</totfact>
</mgrwt>
</event>
<event>
 5    1  0.4046313E-006  0.2000394E+02  0.7818608E-02  0.1745250E+00
         -2   -1    0    0    0  501 -0.00000000000E+00  0.00000000000E+00  0.32276730230E+01  0.32276740702E+01  0.26000000000E-02 0.  1.
          2   -1    0    0  501    0  0.00000000000E+00 -0.00000000000E+00 -0.30994265359E+02  0.30994265468E+02  0.26000000000E-02 0. -1.
       1023    2    1    2    0    0  0.00000000000E+00  0.00000000000E+00 -0.27766592336E+02  0.34221939538E+02  0.20003937007E+02 0.  0.
        -11    1    3    3    0    0  0.30732917960E+01 -0.95175011332E+01 -0.14066142775E+02  0.17259325685E+02  0.51100000000E-03 0.  1.
         11    1    3    3    0    0 -0.30732917960E+01  0.95175011332E+01 -0.13700449561E+02  0.16962613852E+02  0.51100000000E-03 0. -1.
<mgrwt>
<rscale>  0 0.20003937E+02</rscale>
<asrwt>0</asrwt>
<pdfrwt beam="2">  1        2 0.47683484E-02 0.20003937E+02</pdfrwt>
<pdfrwt beam="1">  1       -2 0.49656519E-03 0.20003937E+02</pdfrwt>
<totfact> 0.43511049E+06</totfact>
</mgrwt>
</event>
<event>
 5    1  0.4194524E-006  0.2000089E+02  0.7818608E-02  0.1745310E+00
          2   -1    0    0  501    0  0.00000000000E+00  0.00000000000E+00  0.86017087001E+02  0.86017087040E+02  0.26000000000E-02 0.  1.
         -2   -1    0    0    0  501 -0.00000000000E+00 -0.00000000000E+00 -0.11626621652E+01  0.11626650723E+01  0.26000000000E-02 0. -1.
       1023    2    1    2    0    0  0.00000000000E+00  0.00000000000E+00  0.84854424836E+02  0.87179752112E+02  0.20000894085E+02 0.  0.
        -11    1    3    3    0    0  0.83907038187E+01  0.54404837797E+01  0.42769494380E+02  0.43923028404E+02  0.51100000000E-03 0.  1.
         11    1    3    3    0    0 -0.83907038187E+01 -0.54404837797E+01  0.42084930455E+02  0.43256723709E+02  0.51100000000E-03 0. -1.
<mgrwt>
<rscale>  0 0.20000894E+02</rscale>
<asrwt>0</asrwt>
<pdfrwt beam="1">  1        2 0.13233400E-01 0.20000894E+02</pdfrwt>
<pdfrwt beam="2">  1       -2 0.17887131E-03 0.20000894E+02</pdfrwt>
<totfact> 0.51047411E+06</totfact>
</mgrwt>
</event>
<event>
 4    1  0.4046313E-006  0.2002500E+02  0.7818608E-02  0.1744831E+00
         -2   -1    0    0    0  501 -0.00000000000E+00  0.00000000000E+00  0.15237960106E+01  0.15237982288E+01  0.26000000000E-02 0.  1.
          2   -1    0    0  501    0  0.00000000000E+00 -0.00000000000E+00 -0.65789702811E+02  0.65789702862E+02  0.26000000000E-02 0. -1.
        -11    1    1    2    0    0 -0.95425444027E+01 -0.29911082994E+01 -0.30474958904E+02  0.32073821148E+02  0.51100000000E-03 0.  1.
         11    1    1    2    0    0  0.95425444027E+01  0.29911082994E+01 -0.33790947896E+02  0.35239679943E+02  0.51100000000E-03 0. -1.
<mgrwt>
<rscale>  0 0.20025001E+02</rscale>
<asrwt>0</asrwt>
<pdfrwt beam="2">  1        2 0.10121491E-01 0.20025001E+02</pdfrwt>
<pdfrwt beam="1">  1       -2 0.23443038E-03 0.20025001E+02</pdfrwt>
<totfact> 0.48334394E+06</totfact>
</mgrwt>
</event>
<event>
 5    1  0.4046313E-006  0.2000041E+02  0.7818608E-02  0.1745320E+00
         -2   -1    0    0    0  501 -0.00000000000E+00  0.00000000000E+00  0.44880166126E+01  0.44880173657E+01  0.26000000000E-02 0. -1.
          2   -1    0    0  501    0  0.00000000000E+00 -0.00000000000E+00 -0.22282458798E+02  0.22282458950E+02  0.26000000000E-02 0.  1.
       1023    2    1    2    0    0  0.00000000000E+00  0.00000000000E+00 -0.17794442186E+02  0.26770476316E+02  0.20000405733E+02 0.  0.
        -11    1    3    3    0    0 -0.93229669340E+00 -0.99565830424E+01 -0.89461101470E+01  0.13417734907E+02  0.51100000000E-03 0. -1.
         11    1    3    3    0    0  0.93229669340E+00  0.99565830424E+01 -0.88483320389E+01  0.13352741409E+02  0.51100000000E-03 0.  1.
<mgrwt>
<rscale>  0 0.20000406E+02</rscale>
<asrwt>0</asrwt>
<pdfrwt beam="2">  1        2 0.34280706E-02 0.20000406E+02</pdfrwt>
<pdfrwt beam="1">  1       -2 0.69046418E-03 0.20000406E+02</pdfrwt>
<totfact> 0.42086855E+06</totfact>
</mgrwt>
</event>
<event>
 5    1  0.4116032E-006  0.2000094E+02  0.7818608E-02  0.1745309E+00
         -2   -1    0    0    0  501 -0.00000000000E+00  0.00000000000E+00  0.16951229442E+01  0.16951249381E+01  0.26000000000E-02 0.  1.
          2   -1    0    0  501    0  0.00000000000E+00 -0.00000000000E+00 -0.58998269711E+02  0.58998269769E+02  0.26000000000E-02 0. -1.
       1023    2    1    2    0    0  0.00000000000E+00  0.00000000000E+00 -0.57303146767E+02  0.60693394707E+02  0.20000938268E+02 0.  0.
        -11    1    3    3    0    0 -0.96493101528E+01  0.26261645386E+01 -0.28829967281E+02  0.30515126418E+02  0.51100000000E-03 0. -1.
         11    1    3    3    0    0  0.96493101528E+01 -0.26261645386E+01 -0.28473179486E+02  0.30178268289E+02  0.51100000000E-03 0.  1.
<mgrwt>
<rscale>  0 0.20000938E+02</rscale>
<asrwt>0</asrwt>
<pdfrwt beam="2">  1        2 0.90766555E-02 0.20000938E+02</pdfrwt>
<pdfrwt beam="1">  1       -2 0.26078835E-03 0.20000938E+02</pdfrwt>
<totfact> 0.47557794E+06</totfact>
</mgrwt>
</event>
<event>
 5    1  0.4046313E-006  0.2000317E+02  0.7818608E-02  0.1745265E+00
         -2   -1    0    0    0  501 -0.00000000000E+00  0.00000000000E+00  0.68290958245E+02  0.68290958295E+02  0.26000000000E-02 0.  1.
          2   -1    0    0  501    0  0.00000000000E+00 -0.00000000000E+00 -0.14647859403E+01  0.14647882478E+01  0.26000000000E-02 0. -1.
       1023    2    1    2    0    0  0.00000000000E+00  0.00000000000E+00  0.66826172305E+02  0.69755746543E+02  0.20003171518E+02 0.  0.
        -11    1    3    3    0    0 -0.71616306864E+01 -0.69815814100E+01  0.33471891566E+02  0.34934208998E+02  0.51100000000E-03 0.  1.
         11    1    3    3    0    0  0.71616306864E+01  0.69815814100E+01  0.33354280739E+02  0.34821537545E+02  0.51100000000E-03 0. -1.
<mgrwt>
<rscale>  0 0.20003172E+02</rscale>
<asrwt>0</asrwt>
<pdfrwt beam="2">  1        2 0.22535189E-03 0.20003172E+02</pdfrwt>
<pdfrwt beam="1">  1       -2 0.10506300E-01 0.20003172E+02</pdfrwt>
<totfact> 0.32217971E+06</totfact>
</mgrwt>
</event>
<event>
 5    1  0.4046313E-006  0.2000046E+02  0.7818608E-02  0.1745319E+00
          2   -1    0    0  501    0  0.00000000000E+00  0.00000000000E+00  0.15192864255E+02  0.15192864477E+02  0.26000000000E-02 0. -1.
         -2   -1    0    0    0  501 -0.00000000000E+00 -0.00000000000E+00 -0.65823378534E+01  0.65823383669E+01  0.26000000000E-02 0.  1.
       1023    2    1    2    0    0  0.00000000000E+00  0.00000000000E+00  0.86105264011E+01  0.21775202844E+02  0.20000457345E+02 0.  0.
        -11    1    3    3    0    0  0.99402864346E+01 -0.10923180191E+01  0.43553944579E+01  0.10907424728E+02  0.51100000000E-03 0.  1.
         11    1    3    3    0    0 -0.99402864346E+01  0.10923180191E+01  0.42551319432E+01  0.10867778116E+02  0.51100000000E-03 0. -1.
<mgrwt>
<rscale>  0 0.20000457E+02</rscale>
<asrwt>0</asrwt>
<pdfrwt beam="1">  1        2 0.23373638E-02 0.20000457E+02</pdfrwt>
<pdfrwt beam="2">  1       -2 0.10126674E-02 0.20000457E+02</pdfrwt>
<totfact> 0.40728687E+06</totfact>
</mgrwt>
</event>
<event>
 5    1  0.4046313E-006  0.2000060E+02  0.7818608E-02  0.1745316E+00
          2   -1    0    0  501    0  0.00000000000E+00  0.00000000000E+00  0.50801639066E+01  0.50801645720E+01  0.26000000000E-02 0. -1.
         -2   -1    0    0    0  501 -0.00000000000E+00 -0.00000000000E+00 -0.19685581430E+02  0.19685581601E+02  0.26000000000E-02 0.  1.
       1023    2    1    2    0    0  0.00000000000E+00  0.00000000000E+00 -0.14605417523E+02  0.24765746173E+02  0.20000599054E+02 0.  0.
        -11    1    3    3    0    0 -0.25642029814E+01 -0.96659469447E+01 -0.72804513588E+01  0.12369746946E+02  0.51100000000E-03 0.  1.
         11    1    3    3    0    0  0.25642029814E+01  0.96659469447E+01 -0.73249661642E+01  0.12395999227E+02  0.51100000000E-03 0. -1.
<mgrwt>
<rscale>  0 0.20000599E+02</rscale>
<asrwt>0</asrwt>
<pdfrwt beam="1">  1        2 0.78156375E-03 0.20000599E+02</pdfrwt>
<pdfrwt beam="2">  1       -2 0.30285510E-02 0.20000599E+02</pdfrwt>
<totfact> 0.37480816E+06</totfact>
</mgrwt>
</event>
<event>
 5    1  0.4046313E-006  0.2000132E+02  0.7818608E-02  0.1745302E+00
          2   -1    0    0  501    0  0.00000000000E+00  0.00000000000E+00  0.24130548357E+02  0.24130548497E+02  0.26000000000E-02 0. -1.
         -2   -1    0    0    0  501 -0.00000000000E+00 -0.00000000000E+00 -0.41446702857E+01  0.41446711012E+01  0.26000000000E-02 0.  1.
       1023    2    1    2    0    0  0.00000000000E+00  0.00000000000E+00  0.19985878071E+02  0.28275219598E+02  0.20001317983E+02 0.  0.
        -11    1    3    3    0    0 -0.90359655550E+01 -0.42845469382E+01  0.98732853933E+01  0.14053034572E+02  0.51100000000E-03 0.  1.
         11    1    3    3    0    0  0.90359655550E+01  0.42845469382E+01  0.10112592678E+02  0.14222185026E+02  0.51100000000E-03 0. -1.
<mgrwt>
<rscale>  0 0.20001318E+02</rscale>
<asrwt>0</asrwt>
<pdfrwt beam="1">  1        2 0.37123921E-02 0.20001318E+02</pdfrwt>
<pdfrwt beam="2">  1       -2 0.63764167E-03 0.20001318E+02</pdfrwt>
<totfact> 0.42402831E+06</totfact>
</mgrwt>
</event>
<event>
 5    1  0.4046313E-006  0.2000258E+02  0.7818608E-02  0.1745277E+00
          2   -1    0    0  501    0  0.00000000000E+00  0.00000000000E+00  0.50117293970E+02  0.50117294037E+02  0.26000000000E-02 0.  1.
         -2   -1    0    0    0  501 -0.00000000000E+00 -0.00000000000E+00 -0.19958334690E+01  0.19958351625E+01  0.26000000000E-02 0. -1.
       1023    2    1    2    0    0  0.00000000000E+00  0.00000000000E+00  0.48121460501E+02  0.52113129199E+02  0.20002581690E+02 0.  0.
        -11    1    3    3    0    0  0.97922248960E+01 -0.20322948047E+01  0.24292702027E+02  0.26270768215E+02  0.51100000000E-03 0. -1.
         11    1    3    3    0    0 -0.97922248960E+01  0.20322948047E+01  0.23828758473E+02  0.25842360984E+02  0.51100000000E-03 0.  1.
<mgrwt>
<rscale>  0 0.20002582E+02</rscale>
<asrwt>0</asrwt>
<pdfrwt beam="1">  1        2 0.77103523E-02 0.20002582E+02</pdfrwt>
<pdfrwt beam="2">  1       -2 0.30705147E-03 0.20002582E+02</pdfrwt>
<totfact> 0.46331176E+06</totfact>
</mgrwt>
</event>
<event>
 4    1  0.4046313E-006  0.2002128E+02  0.7818608E-02  0.1744905E+00
         -2   -1    0    0    0  501 -0.00000000000E+00  0.00000000000E+00  0.10678115425E+02  0.10678115741E+02  0.26000000000E-02 0. -1.
          2   -1    0    0  501    0  0.00000000000E+00 -0.00000000000E+00 -0.93848852833E+01  0.93848856435E+01  0.26000000000E-02 0.  1.
        -11    1    1    2    0    0  0.76670306834E+01 -0.64266640888E+01  0.28876582955E+00  0.10008434282E+02  0.51100000000E-03 0. -1.
         11    1    1    2    0    0 -0.76670306834E+01  0.64266640888E+01  0.10044643118E+01  0.10054567103E+02  0.51100000000E-03 0.  1.
<mgrwt>
<rscale>  0 0.20021278E+02</rscale>
<asrwt>0</asrwt>
<pdfrwt beam="2">  1        2 0.14438285E-02 0.20021278E+02</pdfrwt>
<pdfrwt beam="1">  1       -2 0.16427871E-02 0.20021278E+02</pdfrwt>
<totfact> 0.39184792E+06</totfact>
</mgrwt>
</event>
<event>
 5    1  0.4046313E-006  0.2000150E+02  0.7818608E-02  0.1745298E+00
         -2   -1    0    0    0  501 -0.00000000000E+00  0.00000000000E+00  0.52836728919E+02  0.52836728983E+02  0.26000000000E-02 0.  1.
          2   -1    0    0  501    0  0.00000000000E+00 -0.00000000000E+00 -0.18929058586E+01  0.18929076442E+01  0.26000000000E-02 0. -1.
       1023    2    1    2    0    0  0.00000000000E+00  0.00000000000E+00  0.50943823060E+02  0.54729636627E+02  0.20001500377E+02 0.  0.
        -11    1    3    3    0    0  0.97148251585E+01  0.23728415249E+01  0.25246283832E+02  0.27154797962E+02  0.51100000000E-03 0.  1.
         11    1    3    3    0    0 -0.97148251585E+01 -0.23728415249E+01  0.25697539228E+02  0.27574838665E+02  0.51100000000E-03 0. -1.
<mgrwt>
<rscale>  0 0.20001500E+02</rscale>
<asrwt>0</asrwt>
<pdfrwt beam="2">  1        2 0.29121644E-03 0.20001500E+02</pdfrwt>
<pdfrwt beam="1">  1       -2 0.81287273E-02 0.20001500E+02</pdfrwt>
<totfact> 0.33619612E+06</totfact>
</mgrwt>
</event>
<event>
 4    1  0.4046313E-006  0.2061064E+02  0.7818608E-02  0.1733450E+00
          2   -1    0    0  501    0  0.00000000000E+00  0.00000000000E+00  0.14124459468E+01  0.14124483398E+01  0.26000000000E-02 0.  1.
         -2   -1    0    0    0  501 -0.00000000000E+00 -0.00000000000E+00 -0.75188367196E+02  0.75188367241E+02  0.26000000000E-02 0. -1.
        -11    1    1    2    0    0 -0.73541053313E+01 -0.71550617956E+01 -0.40456296710E+02  0.41737150338E+02  0.51100000000E-03 0.  1.
         11    1    1    2    0    0  0.73541053313E+01  0.71550617956E+01 -0.33319624539E+02  0.34863665243E+02  0.51100000000E-03 0. -1.
<mgrwt>
<rscale>  0 0.20610638E+02</rscale>
<asrwt>0</asrwt>
<pdfrwt beam="1">  1        2 0.21729962E-03 0.20610638E+02</pdfrwt>
<pdfrwt beam="2">  1       -2 0.11567438E-01 0.20610638E+02</pdfrwt>
<totfact> 0.29631834E+06</totfact>
</mgrwt>
</event>
<event>
 5    1  0.4046313E-006  0.2000201E+02  0.7818608E-02  0.1745288E+00
          2   -1    0    0  501    0  0.00000000000E+00  0.00000000000E+00  0.12911043967E+01  0.12911070146E+01  0.26000000000E-02 0.  1.
         -2   -1    0    0    0  501 -0.00000000000E+00 -0.00000000000E+00 -0.77468549178E+02  0.77468549222E+02  0.26000000000E-02 0. -1.
       1023    2    1    2    0    0  0.00000000000E+00  0.00000000000E+00 -0.76177444781E+02  0.78759656236E+02  0.20002008825E+02 0.  0.
        -11    1    3    3    0    0 -0.38511024747E+01  0.92288580644E+01 -0.37571149755E+02  0.38879224601E+02  0.51100000000E-03 0.  1.
         11    1    3    3    0    0  0.38511024747E+01 -0.92288580644E+01 -0.38606295027E+02  0.39880431635E+02  0.51100000000E-03 0. -1.
<mgrwt>
<rscale>  0 0.20002009E+02</rscale>
<asrwt>0</asrwt>
<pdfrwt beam="1">  1        2 0.19863171E-03 0.20002009E+02</pdfrwt>
<pdfrwt beam="2">  1       -2 0.11918235E-01 0.20002009E+02</pdfrwt>
<totfact> 0.31455462E+06</totfact>
</mgrwt>
</event>
<event>
 5    1  0.4046313E-006  0.2000035E+02  0.7818608E-02  0.1745321E+00
          2   -1    0    0  501    0  0.00000000000E+00  0.00000000000E+00  0.10747955844E+02  0.10747956158E+02  0.26000000000E-02 0.  1.
         -2   -1    0    0    0  501 -0.00000000000E+00 -0.00000000000E+00 -0.93044160756E+01  0.93044164389E+01  0.26000000000E-02 0. -1.
       1023    2    1    2    0    0  0.00000000000E+00  0.00000000000E+00  0.14435397680E+01  0.20052372597E+02  0.20000345990E+02 0.  0.
        -11    1    3    3    0    0  0.99955160885E+01 -0.30079608873E+00  0.77327962542E+00  0.10029894406E+02  0.51100000000E-03 0. -1.
         11    1    3    3    0    0 -0.99955160885E+01  0.30079608873E+00  0.67026014256E+00  0.10022478191E+02  0.51100000000E-03 0.  1.
<mgrwt>
<rscale>  0 0.20000346E+02</rscale>
<asrwt>0</asrwt>
<pdfrwt beam="1">  1        2 0.16535317E-02 0.20000346E+02</pdfrwt>
<pdfrwt beam="2">  1       -2 0.14314487E-02 0.20000346E+02</pdfrwt>
<totfact> 0.39671320E+06</totfact>
</mgrwt>
</event>
<event>
 5    1  0.4046313E-006  0.2000300E+02  0.7818608E-02  0.1745269E+00
          2   -1    0    0  501    0  0.00000000000E+00  0.00000000000E+00  0.21902593235E+02  0.21902593389E+02  0.26000000000E-02 0. -1.
         -2   -1    0    0    0  501 -0.00000000000E+00 -0.00000000000E+00 -0.45670368381E+01  0.45670375782E+01  0.26000000000E-02 0.  1.
       1023    2    1    2    0    0  0.00000000000E+00  0.00000000000E+00  0.17335556397E+02  0.26469630967E+02  0.20002995975E+02 0.  0.
        -11    1    3    3    0    0 -0.51673671289E+01  0.85623228309E+01  0.85062160686E+01  0.13129004813E+02  0.51100000000E-03 0.  1.
         11    1    3    3    0    0  0.51673671289E+01 -0.85623228309E+01  0.88293403279E+01  0.13340626154E+02  0.51100000000E-03 0. -1.
<mgrwt>
<rscale>  0 0.20002996E+02</rscale>
<asrwt>0</asrwt>
<pdfrwt beam="1">  1        2 0.33696298E-02 0.20002996E+02</pdfrwt>
<pdfrwt beam="2">  1       -2 0.70262113E-03 0.20002996E+02</pdfrwt>
<totfact> 0.42007505E+06</totfact>
</mgrwt>
</event>
<event>
 5    1  0.4046313E-006  0.2000145E+02  0.7818608E-02  0.1745299E+00
         -2   -1    0    0    0  501 -0.00000000000E+00  0.00000000000E+00  0.74568084695E+01  0.74568089228E+01  0.26000000000E-02 0.  1.
          2   -1    0    0  501    0  0.00000000000E+00 -0.00000000000E+00 -0.13412510984E+02  0.13412511236E+02  0.26000000000E-02 0. -1.
       1023    2    1    2    0    0  0.00000000000E+00  0.00000000000E+00 -0.59557025142E+01  0.20869320158E+02  0.20001453233E+02 0.  0.
        -11    1    3    3    0    0 -0.86701431339E+01 -0.49842822325E+01 -0.29872570662E+01  0.10437344316E+02  0.51100000000E-03 0. -1.
         11    1    3    3    0    0  0.86701431339E+01  0.49842822325E+01 -0.29684454480E+01  0.10431975842E+02  0.51100000000E-03 0.  1.
<mgrwt>
<rscale>  0 0.20001453E+02</rscale>
<asrwt>0</asrwt>
<pdfrwt beam="2">  1        2 0.20634633E-02 0.20001453E+02</pdfrwt>
<pdfrwt beam="1">  1       -2 0.11472014E-02 0.20001453E+02</pdfrwt>
<totfact> 0.40330457E+06</totfact>
</mgrwt>
</event>
<event>
 4    1  0.4046313E-006  0.2001425E+02  0.7818608E-02  0.1745045E+00
          2   -1    0    0  501    0  0.00000000000E+00  0.00000000000E+00  0.55635816325E+02  0.55635816386E+02  0.26000000000E-02 0.  1.
         -2   -1    0    0    0  501 -0.00000000000E+00 -0.00000000000E+00 -0.17999653100E+01  0.17999671878E+01  0.26000000000E-02 0. -1.
        -11    1    1    2    0    0 -0.83518163051E+01  0.55001881622E+01  0.25853063456E+02  0.27719772649E+02  0.51100000000E-03 0.  1.
         11    1    1    2    0    0  0.83518163051E+01 -0.55001881622E+01  0.27982787559E+02  0.29716010925E+02  0.51100000000E-03 0. -1.
<mgrwt>
<rscale>  0 0.20014254E+02</rscale>
<asrwt>0</asrwt>
<pdfrwt beam="1">  1        2 0.85593571E-02 0.20014254E+02</pdfrwt>
<pdfrwt beam="2">  1       -2 0.27691787E-03 0.20014254E+02</pdfrwt>
<totfact> 0.47031800E+06</totfact>
</mgrwt>
</event>
<event>
 5    1  0.4535713E-006  0.2000051E+02  0.7818608E-02  0.1745318E+00
         -2   -1    0    0    0  501 -0.00000000000E+00  0.00000000000E+00  0.39890147975E+01  0.39890156448E+01  0.26000000000E-02 0. -1.
          2   -1    0    0  501    0  0.00000000000E+00 -0.00000000000E+00 -0.25070120970E+02  0.25070121105E+02  0.26000000000E-02 0.  1.
       1023    2    1    2    0    0  0.00000000000E+00  0.00000000000E+00 -0.21081106172E+02  0.29059136749E+02  0.20000509773E+02 0.  0.
        -11    1    3    3    0    0 -0.99896903384E+01  0.45574085022E+00 -0.10454784638E+02  0.14467347196E+02  0.51100000000E-03 0.  1.
         11    1    3    3    0    0  0.99896903384E+01 -0.45574085022E+00 -0.10626321534E+02  0.14591789554E+02  0.51100000000E-03 0. -1.
<mgrwt>
<rscale>  0 0.20000510E+02</rscale>
<asrwt>0</asrwt>
<pdfrwt beam="2">  1        2 0.38569417E-02 0.20000510E+02</pdfrwt>
<pdfrwt beam="1">  1       -2 0.61369467E-03 0.20000510E+02</pdfrwt>
<totfact> 0.42566032E+06</totfact>
</mgrwt>
</event>
<event>
 5    1  0.4130341E-006  0.2000152E+02  0.7818608E-02  0.1745298E+00
          2   -1    0    0  501    0  0.00000000000E+00  0.00000000000E+00  0.94133356689E+02  0.94133356725E+02  0.26000000000E-02 0.  1.
         -2   -1    0    0    0  501 -0.00000000000E+00 -0.00000000000E+00 -0.10624830427E+01  0.10624862239E+01  0.26000000000E-02 0. -1.
       1023    2    1    2    0    0  0.00000000000E+00  0.00000000000E+00  0.93070873646E+02  0.95195842949E+02  0.20001524778E+02 0.  0.
        -11    1    3    3    0    0  0.55408500803E+01  0.83251117026E+01  0.46144594445E+02  0.47215803511E+02  0.51100000000E-03 0. -1.
         11    1    3    3    0    0 -0.55408500803E+01 -0.83251117026E+01  0.46926279201E+02  0.47980039437E+02  0.51100000000E-03 0.  1.
<mgrwt>
<rscale>  0 0.20001525E+02</rscale>
<asrwt>0</asrwt>
<pdfrwt beam="1">  1        2 0.14482061E-01 0.20001525E+02</pdfrwt>
<pdfrwt beam="2">  1       -2 0.16345912E-03 0.20001525E+02</pdfrwt>
<totfact> 0.52041302E+06</totfact>
</mgrwt>
</event>
<event>
 5    1  0.4046313E-006  0.2000972E+02  0.7818608E-02  0.1745135E+00
          2   -1    0    0  501    0  0.00000000000E+00  0.00000000000E+00  0.12101539013E+01  0.12101566944E+01  0.26000000000E-02 0. -1.
         -2   -1    0    0    0  501 -0.00000000000E+00 -0.00000000000E+00 -0.82714354487E+02  0.82714354528E+02  0.26000000000E-02 0.  1.
       1023    2    1    2    0    0  0.00000000000E+00  0.00000000000E+00 -0.81504200585E+02  0.83924511222E+02  0.20009719408E+02 0.  0.
        -11    1    3    3    0    0 -0.19509792695E+01 -0.98126740265E+01 -0.40954370315E+02  0.42158692340E+02  0.51100000000E-03 0. -1.
         11    1    3    3    0    0  0.19509792695E+01  0.98126740265E+01 -0.40549830270E+02  0.41765818882E+02  0.51100000000E-03 0.  1.
<mgrwt>
<rscale>  0 0.20009719E+02</rscale>
<asrwt>0</asrwt>
<pdfrwt beam="1">  1        2 0.18617781E-03 0.20009719E+02</pdfrwt>
<pdfrwt beam="2">  1       -2 0.12725281E-01 0.20009719E+02</pdfrwt>
<totfact> 0.31008752E+06</totfact>
</mgrwt>
</event>
<event>
 5    1  0.4046313E-006  0.2000334E+02  0.7818608E-02  0.1745262E+00
          2   -1    0    0  501    0  0.00000000000E+00  0.00000000000E+00  0.30502138952E+02  0.30502139063E+02  0.26000000000E-02 0. -1.
         -2   -1    0    0    0  501 -0.00000000000E+00 -0.00000000000E+00 -0.32795526100E+01  0.32795536406E+01  0.26000000000E-02 0.  1.
       1023    2    1    2    0    0  0.00000000000E+00  0.00000000000E+00  0.27222586342E+02  0.33781692703E+02  0.20003338590E+02 0.  0.
        -11    1    3    3    0    0  0.91739797306E+01  0.39826078228E+01  0.13782848117E+02  0.17029091921E+02  0.51100000000E-03 0. -1.
         11    1    3    3    0    0 -0.91739797306E+01 -0.39826078228E+01  0.13439738225E+02  0.16752600783E+02  0.51100000000E-03 0.  1.
<mgrwt>
<rscale>  0 0.20003339E+02</rscale>
<asrwt>0</asrwt>
<pdfrwt beam="1">  1        2 0.46926369E-02 0.20003339E+02</pdfrwt>
<pdfrwt beam="2">  1       -2 0.50454664E-03 0.20003339E+02</pdfrwt>
<totfact> 0.43436464E+06</totfact>
</mgrwt>
</event>
<event>
 5    1  0.4046313E-006  0.2000047E+02  0.7818608E-02  0.1745319E+00
          2   -1    0    0  501    0  0.00000000000E+00  0.00000000000E+00  0.80706248066E+02  0.80706248108E+02  0.26000000000E-02 0.  1.
         -2   -1    0    0    0  501 -0.00000000000E+00 -0.00000000000E+00 -0.12391180674E+01  0.12391207951E+01  0.26000000000E-02 0. -1.
       1023    2    1    2    0    0  0.00000000000E+00  0.00000000000E+00  0.79467129999E+02  0.81945368903E+02  0.20000468356E+02 0.  0.
        -11    1    3    3    0    0  0.96631745269E+01 -0.25743257304E+01  0.39832953799E+02  0.41069067478E+02  0.51100000000E-03 0.  1.
         11    1    3    3    0    0 -0.96631745269E+01  0.25743257304E+01  0.39634176200E+02  0.40876301426E+02  0.51100000000E-03 0. -1.
<mgrwt>
<rscale>  0 0.20000468E+02</rscale>
<asrwt>0</asrwt>
<pdfrwt beam="1">  1        2 0.12416342E-01 0.20000468E+02</pdfrwt>
<pdfrwt beam="2">  1       -2 0.19063383E-03 0.20000468E+02</pdfrwt>
<totfact> 0.50385935E+06</totfact>
</mgrwt>
</event>
<event>
 4    1  0.4046313E-006  0.2003242E+02  0.7818608E-02  0.1744684E+00
          2   -1    0    0  501    0  0.00000000000E+00  0.00000000000E+00  0.28494017497E+01  0.28494029359E+01  0.26000000000E-02 0. -1.
         -2   -1    0    0    0  501 -0.00000000000E+00 -0.00000000000E+00 -0.35208937175E+02  0.35208937271E+02  0.26000000000E-02 0.  1.
        -11    1    1    2    0    0  0.95455954075E+01 -0.29807840021E+01 -0.17256099743E+02  0.19944333620E+02  0.51100000000E-03 0. -1.
         11    1    1    2    0    0 -0.95455954075E+01  0.29807840021E+01 -0.15103435682E+02  0.18114006586E+02  0.51100000000E-03 0.  1.
<mgrwt>
<rscale>  0 0.20032417E+02</rscale>
<asrwt>0</asrwt>
<pdfrwt beam="1">  1        2 0.43836962E-03 0.20032417E+02</pdfrwt>
<pdfrwt beam="2">  1       -2 0.54167593E-02 0.20032417E+02</pdfrwt>
<totfact> 0.35324061E+06</totfact>
</mgrwt>
</event>
<event>
 5    1  0.4046313E-006  0.2000247E+02  0.7818608E-02  0.1745279E+00
         -2   -1    0    0    0  501 -0.00000000000E+00  0.00000000000E+00  0.16317065121E+02  0.16317065328E+02  0.26000000000E-02 0. -1.
          2   -1    0    0  501    0  0.00000000000E+00 -0.00000000000E+00 -0.61300647370E+01  0.61300652884E+01  0.26000000000E-02 0.  1.
       1023    2    1    2    0    0  0.00000000000E+00  0.00000000000E+00  0.10187000384E+02  0.22447130616E+02  0.20002467250E+02 0.  0.
        -11    1    3    3    0    0  0.40369283812E+01 -0.91499359475E+01  0.51843594024E+01  0.11264799211E+02  0.51100000000E-03 0.  1.
         11    1    3    3    0    0 -0.40369283812E+01  0.91499359475E+01  0.50026409814E+01  0.11182331405E+02  0.51100000000E-03 0. -1.
<mgrwt>
<rscale>  0 0.20002467E+02</rscale>
<asrwt>0</asrwt>
<pdfrwt beam="2">  1        2 0.94308695E-03 0.20002467E+02</pdfrwt>
<pdfrwt beam="1">  1       -2 0.25103177E-02 0.20002467E+02</pdfrwt>
<totfact> 0.38040726E+06</totfact>
</mgrwt>
</event>
<event>
 5    1  0.4046313E-006  0.2000142E+02  0.7818608E-02  0.1745300E+00
         -2   -1    0    0    0  501 -0.00000000000E+00  0.00000000000E+00  0.23000644544E+01  0.23000659239E+01  0.26000000000E-02 0.  1.
          2   -1    0    0  501    0  0.00000000000E+00 -0.00000000000E+00 -0.43483193963E+02  0.43483194041E+02  0.26000000000E-02 0. -1.
       1023    2    1    2    0    0  0.00000000000E+00  0.00000000000E+00 -0.41183129509E+02  0.45783259965E+02  0.20001418371E+02 0.  0.
        -11    1    3    3    0    0 -0.42910772216E+01 -0.90327828614E+01 -0.20816702995E+02  0.23094147176E+02  0.51100000000E-03 0. -1.
         11    1    3    3    0    0  0.42910772216E+01  0.90327828614E+01 -0.20366426514E+02  0.22689112789E+02  0.51100000000E-03 0.  1.
<mgrwt>
<rscale>  0 0.20001418E+02</rscale>
<asrwt>0</asrwt>
<pdfrwt beam="2">  1        2 0.66897217E-02 0.20001418E+02</pdfrwt>
<pdfrwt beam="1">  1       -2 0.35385622E-03 0.20001418E+02</pdfrwt>
<totfact> 0.45396274E+06</totfact>
</mgrwt>
</event>
<event>
 5    1  0.4046313E-006  0.2000719E+02  0.7818608E-02  0.1745185E+00
          2   -1    0    0  501    0  0.00000000000E+00  0.00000000000E+00  0.20511232954E+02  0.20511233119E+02  0.26000000000E-02 0. -1.
         -2   -1    0    0    0  501 -0.00000000000E+00 -0.00000000000E+00 -0.48788850979E+01  0.48788857907E+01  0.26000000000E-02 0.  1.
       1023    2    1    2    0    0  0.00000000000E+00  0.00000000000E+00  0.15632347857E+02  0.25390118910E+02  0.20007194675E+02 0.  0.
        -11    1    3    3    0    0 -0.41801621714E+01 -0.90876539646E+01  0.76728833208E+01  0.12606837394E+02  0.51100000000E-03 0.  1.
         11    1    3    3    0    0  0.41801621714E+01  0.90876539646E+01  0.79594645357E+01  0.12783281516E+02  0.51100000000E-03 0. -1.
<mgrwt>
<rscale>  0 0.20007195E+02</rscale>
<asrwt>0</asrwt>
<pdfrwt beam="1">  1        2 0.31555743E-02 0.20007195E+02</pdfrwt>
<pdfrwt beam="2">  1       -2 0.75059778E-03 0.20007195E+02</pdfrwt>
<totfact> 0.41737829E+06</totfact>
</mgrwt>
</event>
<event>
 5    1  0.4046313E-006  0.2000068E+02  0.7818608E-02  0.1745314E+00
          2   -1    0    0  501    0  0.00000000000E+00  0.00000000000E+00  0.17678361738E+02  0.17678361929E+02  0.26000000000E-02 0.  1.
         -2   -1    0    0    0  501 -0.00000000000E+00 -0.00000000000E+00 -0.56570194884E+01  0.56570200859E+01  0.26000000000E-02 0. -1.
       1023    2    1    2    0    0  0.00000000000E+00  0.00000000000E+00  0.12021342249E+02  0.23335382015E+02  0.20000684596E+02 0.  0.
        -11    1    3    3    0    0 -0.83327506688E+01  0.55289682273E+01  0.60704191344E+01  0.11698470502E+02  0.51100000000E-03 0. -1.
         11    1    3    3    0    0  0.83327506688E+01 -0.55289682273E+01  0.59509231150E+01  0.11636911512E+02  0.51100000000E-03 0.  1.
<mgrwt>
<rscale>  0 0.20000685E+02</rscale>
<asrwt>0</asrwt>
<pdfrwt beam="1">  1        2 0.27197480E-02 0.20000685E+02</pdfrwt>
<pdfrwt beam="2">  1       -2 0.87031077E-03 0.20000685E+02</pdfrwt>
<totfact> 0.41234187E+06</totfact>
</mgrwt>
</event>
<event>
 5    1  0.4070043E-006  0.2000107E+02  0.7818608E-02  0.1745307E+00
         -2   -1    0    0    0  501 -0.00000000000E+00  0.00000000000E+00  0.18244509745E+01  0.18244528271E+01  0.26000000000E-02 0. -1.
          2   -1    0    0  501    0  0.00000000000E+00 -0.00000000000E+00 -0.54816848265E+02  0.54816848326E+02  0.26000000000E-02 0.  1.
       1023    2    1    2    0    0  0.00000000000E+00  0.00000000000E+00 -0.52992397290E+02  0.56641301154E+02  0.20001070616E+02 0.  0.
        -11    1    3    3    0    0 -0.10424072244E+01 -0.99458545536E+01 -0.26315519763E+02  0.28151611256E+02  0.51100000000E-03 0.  1.
         11    1    3    3    0    0  0.10424072244E+01  0.99458545536E+01 -0.26676877527E+02  0.28489689898E+02  0.51100000000E-03 0. -1.
<mgrwt>
<rscale>  0 0.20001071E+02</rscale>
<asrwt>0</asrwt>
<pdfrwt beam="2">  1        2 0.84333601E-02 0.20001071E+02</pdfrwt>
<pdfrwt beam="1">  1       -2 0.28068495E-03 0.20001071E+02</pdfrwt>
<totfact> 0.46988801E+06</totfact>
</mgrwt>
</event>
<event>
 5    1  0.4046313E-006  0.2001193E+02  0.7818608E-02  0.1745091E+00
          2   -1    0    0  501    0  0.00000000000E+00  0.00000000000E+00  0.46604466364E+01  0.46604473617E+01  0.26000000000E-02 0. -1.
         -2   -1    0    0    0  501 -0.00000000000E+00 -0.00000000000E+00 -0.21482784276E+02  0.21482784433E+02  0.26000000000E-02 0.  1.
       1023    2    1    2    0    0  0.00000000000E+00  0.00000000000E+00 -0.16822337639E+02  0.26143231795E+02  0.20011934565E+02 0.  0.
        -11    1    3    3    0    0  0.23823165221E+01  0.97182233907E+01 -0.83992591324E+01  0.13063952393E+02  0.51100000000E-03 0. -1.
         11    1    3    3    0    0 -0.23823165221E+01 -0.97182233907E+01 -0.84230785069E+01  0.13079279402E+02  0.51100000000E-03 0.  1.
<mgrwt>
<rscale>  0 0.20011935E+02</rscale>
<asrwt>0</asrwt>
<pdfrwt beam="1">  1        2 0.71699187E-03 0.20011935E+02</pdfrwt>
<pdfrwt beam="2">  1       -2 0.33050438E-02 0.20011935E+02</pdfrwt>
<totfact> 0.37159784E+06</totfact>
</mgrwt>
</event>
<event>
 5    1  0.4046313E-006  0.2000059E+02  0.7818608E-02  0.1745316E+00
          2   -1    0    0  501    0  0.00000000000E+00  0.00000000000E+00  0.49909034113E+01  0.49909040886E+01  0.26000000000E-02 0.  1.
         -2   -1    0    0    0  501 -0.00000000000E+00 -0.00000000000E+00 -0.20037636038E+02  0.20037636207E+02  0.26000000000E-02 0. -1.
       1023    2    1    2    0    0  0.00000000000E+00  0.00000000000E+00 -0.15046732627E+02  0.25028540296E+02  0.20000591656E+02 0.  0.
        -11    1    3    3    0    0  0.78948707038E+01 -0.61379785737E+01 -0.74653150024E+01  0.12479370687E+02  0.51100000000E-03 0.  1.
         11    1    3    3    0    0 -0.78948707038E+01  0.61379785737E+01 -0.75814176246E+01  0.12549169608E+02  0.51100000000E-03 0. -1.
<mgrwt>
<rscale>  0 0.20000592E+02</rscale>
<asrwt>0</asrwt>
<pdfrwt beam="1">  1        2 0.76783137E-03 0.20000592E+02</pdfrwt>
<pdfrwt beam="2">  1       -2 0.30827133E-02 0.20000592E+02</pdfrwt>
<totfact> 0.37425632E+06</totfact>
</mgrwt>
</event>
<event>
 5    1  0.4072993E-006  0.2000118E+02  0.7818608E-02  0.1745305E+00
          2   -1    0    0  501    0  0.00000000000E+00  0.00000000000E+00  0.37634931181E+02  0.37634931271E+02  0.26000000000E-02 0.  1.
         -2   -1    0    0    0  501 -0.00000000000E+00 -0.00000000000E+00 -0.26574177495E+01  0.26574190214E+01  0.26000000000E-02 0. -1.
       1023    2    1    2    0    0  0.00000000000E+00  0.00000000000E+00  0.34977513431E+02  0.40292350292E+02  0.20001176121E+02 0.  0.
        -11    1    3    3    0    0  0.92624037974E+01 -0.37706141026E+01  0.17581214865E+02  0.20226437433E+02  0.51100000000E-03 0. -1.
         11    1    3    3    0    0 -0.92624037974E+01  0.37706141026E+01  0.17396298566E+02  0.20065912859E+02  0.51100000000E-03 0.  1.
<mgrwt>
<rscale>  0 0.20001176E+02</rscale>
<asrwt>0</asrwt>
<pdfrwt beam="1">  1        2 0.57899893E-02 0.20001176E+02</pdfrwt>
<pdfrwt beam="2">  1       -2 0.40883362E-03 0.20001176E+02</pdfrwt>
<totfact> 0.44540116E+06</totfact>
</mgrwt>
</event>
<event>
 4    1  0.4046313E-006  0.2108747E+02  0.7818608E-02  0.1724529E+00
         -2   -1    0    0    0  501 -0.00000000000E+00  0.00000000000E+00  0.14572511534E+02  0.14572511766E+02  0.26000000000E-02 0.  1.
          2   -1    0    0  501    0  0.00000000000E+00 -0.00000000000E+00 -0.76287724418E+01  0.76287728849E+01  0.26000000000E-02 0. -1.
        -11    1    1    2    0    0 -0.71996442437E+01  0.76805747778E+01  0.40896107970E+01  0.11293848896E+02  0.51100000000E-03 0.  1.
         11    1    1    2    0    0  0.71996442437E+01 -0.76805747778E+01  0.28541282947E+01  0.10907435754E+02  0.51100000000E-03 0. -1.
<mgrwt>
<rscale>  0 0.21087473E+02</rscale>
<asrwt>0</asrwt>
<pdfrwt beam="2">  1        2 0.11736574E-02 0.21087473E+02</pdfrwt>
<pdfrwt beam="1">  1       -2 0.22419249E-02 0.21087473E+02</pdfrwt>
<totfact> 0.34219094E+06</totfact>
</mgrwt>
</event>
<event>
 5    1  0.4046313E-006  0.2000496E+02  0.7818608E-02  0.1745229E+00
          2   -1    0    0  501    0  0.00000000000E+00  0.00000000000E+00  0.28740597811E+01  0.28740609571E+01  0.26000000000E-02 0.  1.
         -2   -1    0    0    0  501 -0.00000000000E+00 -0.00000000000E+00 -0.34811254909E+02  0.34811255006E+02  0.26000000000E-02 0. -1.
       1023    2    1    2    0    0  0.00000000000E+00  0.00000000000E+00 -0.31937195128E+02  0.37685315964E+02  0.20004964549E+02 0.  0.
        -11    1    3    3    0    0  0.76381353163E+01  0.64556664667E+01 -0.15626851695E+02  0.18553038425E+02  0.51100000000E-03 0.  1.
         11    1    3    3    0    0 -0.76381353163E+01 -0.64556664667E+01 -0.16310343433E+02  0.19132277539E+02  0.51100000000E-03 0. -1.
<mgrwt>
<rscale>  0 0.20004965E+02</rscale>
<asrwt>0</asrwt>
<pdfrwt beam="1">  1        2 0.44216317E-03 0.20004965E+02</pdfrwt>
<pdfrwt beam="2">  1       -2 0.53555775E-02 0.20004965E+02</pdfrwt>
<totfact> 0.35475248E+06</totfact>
</mgrwt>
</event>
<event>
 5    1  0.4435421E-006  0.2000192E+02  0.7818608E-02  0.1745290E+00
         -2   -1    0    0    0  501 -0.00000000000E+00  0.00000000000E+00  0.95400782169E+00  0.95401136463E+00  0.26000000000E-02 0.  1.
          2   -1    0    0  501    0  0.00000000000E+00 -0.00000000000E+00 -0.10484089952E+03  0.10484089955E+03  0.26000000000E-02 0. -1.
       1023    2    1    2    0    0  0.00000000000E+00  0.00000000000E+00 -0.10388689169E+03  0.10579491091E+03  0.20001922636E+02 0.  0.
        -11    1    3    3    0    0  0.99568609108E+01 -0.93529501174E+00 -0.52331081348E+02  0.53278099922E+02  0.51100000000E-03 0. -1.
         11    1    3    3    0    0 -0.99568609108E+01  0.93529501174E+00 -0.51555810346E+02  0.52516810991E+02  0.51100000000E-03 0.  1.
<mgrwt>
<rscale>  0 0.20001923E+02</rscale>
<asrwt>0</asrwt>
<pdfrwt beam="2">  1        2 0.16129360E-01 0.20001923E+02</pdfrwt>
<pdfrwt beam="1">  1       -2 0.14677079E-03 0.20001923E+02</pdfrwt>
<totfact> 0.53322609E+06</totfact>
</mgrwt>
</event>
<event>
 5    1  0.4046313E-006  0.2000021E+02  0.7818608E-02  0.1745324E+00
          2   -1    0    0  501    0  0.00000000000E+00  0.00000000000E+00  0.10315483275E+03  0.10315483279E+03  0.26000000000E-02 0.  1.
         -2   -1    0    0    0  501 -0.00000000000E+00 -0.00000000000E+00 -0.96943517575E+00  0.96943866231E+00  0.26000000000E-02 0. -1.
       1023    2    1    2    0    0  0.00000000000E+00  0.00000000000E+00  0.10218539758E+03  0.10412427145E+03  0.20000210663E+02 0.  0.
        -11    1    3    3    0    0  0.23539383451E+01  0.97190960900E+01  0.51175318111E+02  0.52143216611E+02  0.51100000000E-03 0.  1.
         11    1    3    3    0    0 -0.23539383451E+01 -0.97190960900E+01  0.51010079466E+02  0.51981054837E+02  0.51100000000E-03 0. -1.
<mgrwt>
<rscale>  0 0.20000211E+02</rscale>
<asrwt>0</asrwt>
<pdfrwt beam="1">  1        2 0.15869974E-01 0.20000211E+02</pdfrwt>
<pdfrwt beam="2">  1       -2 0.14914415E-03 0.20000211E+02</pdfrwt>
<totfact> 0.53132994E+06</totfact>
</mgrwt>
</event>
<event>
 4    1  0.6081472E-006  0.2137610E+02  0.7818608E-02  0.1719271E+00
         -2   -1    0    0    0  501 -0.00000000000E+00  0.00000000000E+00  0.15465915444E+02  0.15465915663E+02  0.26000000000E-02 0. -1.
          2   -1    0    0  501    0  0.00000000000E+00 -0.00000000000E+00 -0.73862044881E+01  0.73862049457E+01  0.26000000000E-02 0.  1.
        -11    1    1    2    0    0  0.97667519771E+01 -0.27496045669E+01  0.76310762526E+01  0.12695790424E+02  0.51100000000E-03 0. -1.
         11    1    1    2    0    0 -0.97667519771E+01  0.27496045669E+01  0.44863470363E+00  0.10156330184E+02  0.51100000000E-03 0.  1.
<mgrwt>
<rscale>  0 0.21376101E+02</rscale>
<asrwt>0</asrwt>
<pdfrwt beam="2">  1        2 0.11363392E-02 0.21376101E+02</pdfrwt>
<pdfrwt beam="1">  1       -2 0.23793717E-02 0.21376101E+02</pdfrwt>
<totfact> 0.33065328E+06</totfact>
</mgrwt>
</event>
<event>
 5    1  0.4046313E-006  0.2000924E+02  0.7818608E-02  0.1745144E+00
          2   -1    0    0  501    0  0.00000000000E+00  0.00000000000E+00  0.98706653722E+02  0.98706653757E+02  0.26000000000E-02 0.  1.
         -2   -1    0    0    0  501 -0.00000000000E+00 -0.00000000000E+00 -0.10140379480E+01  0.10140412812E+01  0.26000000000E-02 0. -1.
       1023    2    1    2    0    0  0.00000000000E+00  0.00000000000E+00  0.97692615774E+02  0.99720695038E+02  0.20009243913E+02 0.  0.
        -11    1    3    3    0    0  0.90632116059E+01  0.42363729191E+01  0.49153530153E+02  0.50161321622E+02  0.51100000000E-03 0. -1.
         11    1    3    3    0    0 -0.90632116059E+01 -0.42363729191E+01  0.48539085621E+02  0.49559373415E+02  0.51100000000E-03 0.  1.
<mgrwt>
<rscale>  0 0.20009244E+02</rscale>
<asrwt>0</asrwt>
<pdfrwt beam="1">  1        2 0.15185638E-01 0.20009244E+02</pdfrwt>
<pdfrwt beam="2">  1       -2 0.15600611E-03 0.20009244E+02</pdfrwt>
<totfact> 0.52549196E+06</totfact>
</mgrwt>
</event>
<event>
 5    1  0.4277882E-006  0.2000073E+02  0.7818608E-02  0.1745313E+00
          2   -1    0    0  501    0  0.00000000000E+00  0.00000000000E+00  0.96051818973E+02  0.96051819008E+02  0.26000000000E-02 0.  1.
         -2   -1    0    0    0  501 -0.00000000000E+00 -0.00000000000E+00 -0.10411794166E+01  0.10411826629E+01  0.26000000000E-02 0. -1.
       1023    2    1    2    0    0  0.00000000000E+00  0.00000000000E+00  0.95010639556E+02  0.97093001671E+02  0.20000733602E+02 0.  0.
        -11    1    3    3    0    0 -0.68022326087E+01 -0.73305343724E+01  0.47579458166E+02  0.48619049171E+02  0.51100000000E-03 0.  1.
         11    1    3    3    0    0  0.68022326087E+01  0.73305343724E+01  0.47431181391E+02  0.48473952500E+02  0.51100000000E-03 0. -1.
<mgrwt>
<rscale>  0 0.20000734E+02</rscale>
<asrwt>0</asrwt>
<pdfrwt beam="1">  1        2 0.14777206E-01 0.20000734E+02</pdfrwt>
<pdfrwt beam="2">  1       -2 0.16018167E-03 0.20000734E+02</pdfrwt>
<totfact> 0.52278511E+06</totfact>
</mgrwt>
</event>
<event>
 5    1  0.4046313E-006  0.2000048E+02  0.7818608E-02  0.1745318E+00
          2   -1    0    0  501    0  0.00000000000E+00  0.00000000000E+00  0.94708696957E+00  0.94709053840E+00  0.26000000000E-02 0. -1.
         -2   -1    0    0    0  501 -0.00000000000E+00 -0.00000000000E+00 -0.10559183888E+03  0.10559183891E+03  0.26000000000E-02 0.  1.
       1023    2    1    2    0    0  0.00000000000E+00  0.00000000000E+00 -0.10464475191E+03  0.10653892945E+03  0.20000484645E+02 0.  0.
        -11    1    3    3    0    0 -0.76404351707E+01 -0.64519511006E+01 -0.52160485594E+02  0.53110452647E+02  0.51100000000E-03 0. -1.
         11    1    3    3    0    0  0.76404351707E+01  0.64519511006E+01 -0.52484266315E+02  0.53428476803E+02  0.51100000000E-03 0.  1.
<mgrwt>
<rscale>  0 0.20000485E+02</rscale>
<asrwt>0</asrwt>
<pdfrwt beam="1">  1        2 0.14570605E-03 0.20000485E+02</pdfrwt>
<pdfrwt beam="2">  1       -2 0.16244889E-01 0.20000485E+02</pdfrwt>
<totfact> 0.29328038E+06</totfact>
</mgrwt>
</event>
<event>
 5    1  0.4046313E-006  0.2000103E+02  0.7818608E-02  0.1745308E+00
         -2   -1    0    0    0  501 -0.00000000000E+00  0.00000000000E+00  0.58103664293E+02  0.58103664352E+02  0.26000000000E-02 0. -1.
          2   -1    0    0  501    0  0.00000000000E+00 -0.00000000000E+00 -0.17212386090E+01  0.17212405727E+01  0.26000000000E-02 0.  1.
       1023    2    1    2    0    0  0.00000000000E+00  0.00000000000E+00  0.56382425684E+02  0.59824904924E+02  0.20001033052E+02 0.  0.
        -11    1    3    3    0    0 -0.83778404817E+01 -0.54608889726E+01  0.28276394014E+02  0.29992732090E+02  0.51100000000E-03 0.  1.
         11    1    3    3    0    0  0.83778404817E+01  0.54608889726E+01  0.28106031670E+02  0.29832172834E+02  0.51100000000E-03 0. -1.
<mgrwt>
<rscale>  0 0.20001033E+02</rscale>
<asrwt>0</asrwt>
<pdfrwt beam="2">  1        2 0.26480608E-03 0.20001033E+02</pdfrwt>
<pdfrwt beam="1">  1       -2 0.89390259E-02 0.20001033E+02</pdfrwt>
<totfact> 0.33129210E+06</totfact>
</mgrwt>
</event>
<event>
 4    1  0.4046313E-006  0.2004813E+02  0.7818608E-02  0.1744373E+00
          2   -1    0    0  501    0  0.00000000000E+00  0.00000000000E+00  0.44693110632E+01  0.44693118195E+01  0.26000000000E-02 0.  1.
         -2   -1    0    0    0  501 -0.00000000000E+00 -0.00000000000E+00 -0.22482630099E+02  0.22482630249E+02  0.26000000000E-02 0. -1.
        -11    1    1    2    0    0  0.69849513471E+01 -0.71800044888E+01 -0.85038796597E+01  0.13139938330E+02  0.51100000000E-03 0. -1.
         11    1    1    2    0    0 -0.69849513471E+01  0.71800044888E+01 -0.95094393757E+01  0.13812003739E+02  0.51100000000E-03 0.  1.
<mgrwt>
<rscale>  0 0.20048130E+02</rscale>
<asrwt>0</asrwt>
<pdfrwt beam="1">  1        2 0.68758640E-03 0.20048130E+02</pdfrwt>
<pdfrwt beam="2">  1       -2 0.34588662E-02 0.20048130E+02</pdfrwt>
<totfact> 0.36868166E+06</totfact>
</mgrwt>
</event>
<event>
 5    1  0.4046313E-006  0.2001166E+02  0.7818608E-02  0.1745096E+00
          2   -1    0    0  501    0  0.00000000000E+00  0.00000000000E+00  0.98237249598E+01  0.98237253039E+01  0.26000000000E-02 0. -1.
         -2   -1    0    0    0  501 -0.00000000000E+00 -0.00000000000E+00 -0.10191307331E+02  0.10191307663E+02  0.26000000000E-02 0.  1.
       1023    2    1    2    0    0  0.00000000000E+00  0.00000000000E+00 -0.36758237162E+00  0.20015032967E+02  0.20011657299E+02 0.  0.
        -11    1    3    3    0    0  0.57477250610E+01  0.81863609875E+01  0.68753114090E-01  0.10002878428E+02  0.51100000000E-03 0. -1.
         11    1    3    3    0    0 -0.57477250610E+01 -0.81863609875E+01 -0.43633548571E+00  0.10012154539E+02  0.51100000000E-03 0.  1.
<mgrwt>
<rscale>  0 0.20011657E+02</rscale>
<asrwt>0</asrwt>
<pdfrwt beam="1">  1        2 0.15113424E-02 0.20011657E+02</pdfrwt>
<pdfrwt beam="2">  1       -2 0.15678935E-02 0.20011657E+02</pdfrwt>
<totfact> 0.39359343E+06</totfact>
</mgrwt>
</event>
<event>
 5    1  0.4046313E-006  0.2000126E+02  0.7818608E-02  0.1745303E+00
         -2   -1    0    0    0  501 -0.00000000000E+00  0.00000000000E+00  0.69849609947E+02  0.69849609995E+02  0.26000000000E-02 0. -1.
          2   -1    0    0  501    0  0.00000000000E+00 -0.00000000000E+00 -0.14318263994E+01  0.14318287600E+01  0.26000000000E-02 0.  1.
       1023    2    1    2    0    0  0.00000000000E+00  0.00000000000E+00  0.68417783547E+02  0.71281438755E+02  0.20001260097E+02 0.  0.
        -11    1    3    3    0    0 -0.77202635340E+01 -0.63568951778E+01  0.34194739988E+02  0.35627136125E+02  0.51100000000E-03 0. -1.
         11    1    3    3    0    0  0.77202635340E+01  0.63568951778E+01  0.34223043559E+02  0.35654302630E+02  0.51100000000E-03 0.  1.
<mgrwt>
<rscale>  0 0.20001260E+02</rscale>
<asrwt>0</asrwt>
<pdfrwt beam="2">  1        2 0.22028120E-03 0.20001260E+02</pdfrwt>
<pdfrwt beam="1">  1       -2 0.10746093E-01 0.20001260E+02</pdfrwt>
<totfact> 0.32091591E+06</totfact>
</mgrwt>
</event>
<event>
 5    1  0.4046313E-006  0.2000688E+02  0.7818608E-02  0.1745191E+00
          2   -1    0    0  501    0  0.00000000000E+00  0.00000000000E+00  0.19558817303E+02  0.19558817476E+02  0.26000000000E-02 0. -1.
         -2   -1    0    0    0  501 -0.00000000000E+00 -0.00000000000E+00 -0.51163011996E+01  0.51163018602E+01  0.26000000000E-02 0.  1.
       1023    2    1    2    0    0  0.00000000000E+00  0.00000000000E+00  0.14442516103E+02  0.24675119336E+02  0.20006879888E+02 0.  0.
        -11    1    3    3    0    0  0.19791991088E+01  0.98046886249E+01  0.73941987261E+01  0.12438783027E+02  0.51100000000E-03 0.  1.
         11    1    3    3    0    0 -0.19791991088E+01 -0.98046886249E+01  0.70483173773E+01  0.12236336309E+02  0.51100000000E-03 0. -1.
<mgrwt>
<rscale>  0 0.20006880E+02</rscale>
<asrwt>0</asrwt>
<pdfrwt beam="1">  1        2 0.30090489E-02 0.20006880E+02</pdfrwt>
<pdfrwt beam="2">  1       -2 0.78712333E-03 0.20006880E+02</pdfrwt>
<totfact> 0.41564032E+06</totfact>
</mgrwt>
</event>
<event>
 5    1  0.4046313E-006  0.2000020E+02  0.7818608E-02  0.1745324E+00
          2   -1    0    0  501    0  0.00000000000E+00  0.00000000000E+00  0.35001836531E+02  0.35001836628E+02  0.26000000000E-02 0.  1.
         -2   -1    0    0    0  501 -0.00000000000E+00 -0.00000000000E+00 -0.28570485842E+01  0.28570497672E+01  0.26000000000E-02 0. -1.
       1023    2    1    2    0    0  0.00000000000E+00  0.00000000000E+00  0.32144787947E+02  0.37858886395E+02  0.20000197172E+02 0.  0.
        -11    1    3    3    0    0  0.36640910103E-01  0.99999992785E+01  0.16024381477E+02  0.18888677299E+02  0.51100000000E-03 0.  1.
         11    1    3    3    0    0 -0.36640910103E-01 -0.99999992785E+01  0.16120406470E+02  0.18970209096E+02  0.51100000000E-03 0. -1.
<mgrwt>
<rscale>  0 0.20000197E+02</rscale>
<asrwt>0</asrwt>
<pdfrwt beam="1">  1        2 0.53848982E-02 0.20000197E+02</pdfrwt>
<pdfrwt beam="2">  1       -2 0.43954602E-03 0.20000197E+02</pdfrwt>
<totfact> 0.44148394E+06</totfact>
</mgrwt>
</event>
<event>
 5    1  0.4046313E-006  0.2000043E+02  0.7818608E-02  0.1745319E+00
         -2   -1    0    0    0  501 -0.00000000000E+00  0.00000000000E+00  0.41754000990E+01  0.41754009085E+01  0.26000000000E-02 0. -1.
          2   -1    0    0  501    0  0.00000000000E+00 -0.00000000000E+00 -0.23950831681E+02  0.23950831822E+02  0.26000000000E-02 0.  1.
       1023    2    1    2    0    0  0.00000000000E+00  0.00000000000E+00 -0.19775431582E+02  0.28126232730E+02  0.20000431829E+02 0.  0.
        -11    1    3    3    0    0  0.34675744586E+01 -0.93797515214E+01 -0.99193758428E+01  0.14085376410E+02  0.51100000000E-03 0. -1.
         11    1    3    3    0    0 -0.34675744586E+01  0.93797515214E+01 -0.98560557388E+01  0.14040856321E+02  0.51100000000E-03 0.  1.
<mgrwt>
<rscale>  0 0.20000432E+02</rscale>
<asrwt>0</asrwt>
<pdfrwt beam="2">  1        2 0.36847433E-02 0.20000432E+02</pdfrwt>
<pdfrwt beam="1">  1       -2 0.64236933E-03 0.20000432E+02</pdfrwt>
<totfact> 0.42376319E+06</totfact>
</mgrwt>
</event>
<event>
 5    1  0.4046313E-006  0.2000010E+02  0.7818608E-02  0.1745326E+00
         -2   -1    0    0    0  501 -0.00000000000E+00  0.00000000000E+00  0.12533286033E+02  0.12533286303E+02  0.26000000000E-02 0. -1.
          2   -1    0    0  501    0  0.00000000000E+00 -0.00000000000E+00 -0.79788314207E+01  0.79788318444E+01  0.26000000000E-02 0.  1.
       1023    2    1    2    0    0  0.00000000000E+00  0.00000000000E+00  0.45544546126E+01  0.20512118147E+02  0.20000098352E+02 0.  0.
        -11    1    3    3    0    0  0.75352144179E+01  0.65742510707E+01  0.22491439438E+01  0.10249823521E+02  0.51100000000E-03 0. -1.
         11    1    3    3    0    0 -0.75352144179E+01 -0.65742510707E+01  0.23053106688E+01  0.10262294627E+02  0.51100000000E-03 0.  1.
<mgrwt>
<rscale>  0 0.20000098E+02</rscale>
<asrwt>0</asrwt>
<pdfrwt beam="2">  1        2 0.12275126E-02 0.20000098E+02</pdfrwt>
<pdfrwt beam="1">  1       -2 0.19281979E-02 0.20000098E+02</pdfrwt>
<totfact> 0.38815040E+06</totfact>
</mgrwt>
</event>
<event>
 5    1  0.4046313E-006  0.2000178E+02  0.7818608E-02  0.1745293E+00
          2   -1    0    0  501    0  0.00000000000E+00  0.00000000000E+00  0.41942241040E+01  0.41942249099E+01  0.26000000000E-02 0. -1.
         -2   -1    0    0    0  501 -0.00000000000E+00 -0.00000000000E+00 -0.23846555373E+02  0.23846555515E+02  0.26000000000E-02 0.  1.
       1023    2    1    2    0    0  0.00000000000E+00  0.00000000000E+00 -0.19652331269E+02  0.28040780425E+02  0.20001780984E+02 0.  0.
        -11    1    3    3    0    0  0.92522886431E+01 -0.37964347692E+01 -0.98359064401E+01  0.14027217039E+02  0.51100000000E-03 0.  1.
         11    1    3    3    0    0 -0.92522886431E+01  0.37964347692E+01 -0.98164248293E+01  0.14013563386E+02  0.51100000000E-03 0. -1.
<mgrwt>
<rscale>  0 0.20001781E+02</rscale>
<asrwt>0</asrwt>
<pdfrwt beam="1">  1        2 0.64526533E-03 0.20001781E+02</pdfrwt>
<pdfrwt beam="2">  1       -2 0.36687008E-02 0.20001781E+02</pdfrwt>
<totfact> 0.36860471E+06</totfact>
</mgrwt>
</event>
<event>
 5    1  0.4419190E-006  0.2000150E+02  0.7818608E-02  0.1745298E+00
          2   -1    0    0  501    0  0.00000000000E+00  0.00000000000E+00  0.10126746046E+03  0.10126746050E+03  0.26000000000E-02 0. -1.
         -2   -1    0    0    0  501 -0.00000000000E+00 -0.00000000000E+00 -0.98763038934E+00  0.98763381167E+00  0.26000000000E-02 0.  1.
       1023    2    1    2    0    0  0.00000000000E+00  0.00000000000E+00  0.10027983007E+03  0.10225509431E+03  0.20001499752E+02 0.  0.
        -11    1    3    3    0    0 -0.38769215435E+01  0.92183053069E+01  0.50577446749E+02  0.51556627055E+02  0.51100000000E-03 0.  1.
         11    1    3    3    0    0  0.38769215435E+01 -0.92183053069E+01  0.49702383323E+02  0.50698467252E+02  0.51100000000E-03 0. -1.
<mgrwt>
<rscale>  0 0.20001500E+02</rscale>
<asrwt>0</asrwt>
<pdfrwt beam="1">  1        2 0.15579617E-01 0.20001500E+02</pdfrwt>
<pdfrwt beam="2">  1       -2 0.15194333E-03 0.20001500E+02</pdfrwt>
<totfact> 0.52900742E+06</totfact>
</mgrwt>
</event>
<event>
 5    1  0.4046313E-006  0.2000033E+02  0.7818608E-02  0.1745321E+00
          2   -1    0    0  501    0  0.00000000000E+00  0.00000000000E+00  0.88875498287E+00  0.88875878594E+00  0.26000000000E-02 0.  1.
         -2   -1    0    0    0  501 -0.00000000000E+00 -0.00000000000E+00 -0.11252042960E+03  0.11252042963E+03  0.26000000000E-02 0. -1.
       1023    2    1    2    0    0  0.00000000000E+00  0.00000000000E+00 -0.11163167462E+03  0.11340918842E+03  0.20000330981E+02 0.  0.
        -11    1    3    3    0    0 -0.88918477255E+01  0.45758158342E+01 -0.55907804878E+02  0.56795120328E+02  0.51100000000E-03 0. -1.
         11    1    3    3    0    0  0.88918477255E+01 -0.45758158342E+01 -0.55723869742E+02  0.56614068091E+02  0.51100000000E-03 0.  1.
<mgrwt>
<rscale>  0 0.20000331E+02</rscale>
<asrwt>0</asrwt>
<pdfrwt beam="1">  1        2 0.13673192E-03 0.20000331E+02</pdfrwt>
<pdfrwt beam="2">  1       -2 0.17310824E-01 0.20000331E+02</pdfrwt>
<totfact> 0.28845285E+06</totfact>
</mgrwt>
</event>
<event>
 5    1  0.4046313E-006  0.2000348E+02  0.7818608E-02  0.1745259E+00
         -2   -1    0    0    0  501 -0.00000000000E+00  0.00000000000E+00  0.23505389374E+02  0.23505389518E+02  0.26000000000E-02 0. -1.
          2   -1    0    0  501    0  0.00000000000E+00 -0.00000000000E+00 -0.42558237036E+01  0.42558244979E+01  0.26000000000E-02 0.  1.
       1023    2    1    2    0    0  0.00000000000E+00  0.00000000000E+00  0.19249565671E+02  0.27761214016E+02  0.20003480325E+02 0.  0.
        -11    1    3    3    0    0 -0.47701110389E+01  0.87908918600E+01  0.95794496773E+01  0.13849173094E+02  0.51100000000E-03 0.  1.
         11    1    3    3    0    0  0.47701110389E+01 -0.87908918600E+01  0.96701159934E+01  0.13912040922E+02  0.51100000000E-03 0. -1.
<mgrwt>
<rscale>  0 0.20003480E+02</rscale>
<asrwt>0</asrwt>
<pdfrwt beam="2">  1        2 0.65474218E-03 0.20003480E+02</pdfrwt>
<pdfrwt beam="1">  1       -2 0.36162138E-02 0.20003480E+02</pdfrwt>
<totfact> 0.36901443E+06</totfact>
</mgrwt>
</event>
<event>
 5    1  0.4046313E-006  0.2000675E+02  0.7818608E-02  0.1745194E+00
          2   -1    0    0  501    0  0.00000000000E+00  0.00000000000E+00  0.25568860962E+02  0.25568861094E+02  0.26000000000E-02 0.  1.
         -2   -1    0    0    0  501 -0.00000000000E+00 -0.00000000000E+00 -0.39136475798E+01  0.39136484434E+01  0.26000000000E-02 0. -1.
       1023    2    1    2    0    0  0.00000000000E+00  0.00000000000E+00  0.21655213382E+02  0.29482509537E+02  0.20006751410E+02 0.  0.
        -11    1    3    3    0    0 -0.54256561805E+01  0.84005851413E+01  0.11188418527E+02  0.15006274858E+02  0.51100000000E-03 0. -1.
         11    1    3    3    0    0  0.54256561805E+01 -0.84005851413E+01  0.10466794855E+02  0.14476234679E+02  0.51100000000E-03 0.  1.
<mgrwt>
<rscale>  0 0.20006751E+02</rscale>
<asrwt>0</asrwt>
<pdfrwt beam="1">  1        2 0.39336710E-02 0.20006751E+02</pdfrwt>
<pdfrwt beam="2">  1       -2 0.60209970E-03 0.20006751E+02</pdfrwt>
<totfact> 0.42619869E+06</totfact>
</mgrwt>
</event>
<event>
 5    1  0.4144000E-006  0.2000077E+02  0.7818608E-02  0.1745313E+00
         -2   -1    0    0    0  501 -0.00000000000E+00  0.00000000000E+00  0.12892840538E+01  0.12892866754E+01  0.26000000000E-02 0.  1.
          2   -1    0    0  501    0  0.00000000000E+00 -0.00000000000E+00 -0.77568344858E+02  0.77568344901E+02  0.26000000000E-02 0. -1.
       1023    2    1    2    0    0  0.00000000000E+00  0.00000000000E+00 -0.76279060804E+02  0.78857631577E+02  0.20000773504E+02 0.  0.
        -11    1    3    3    0    0  0.69387718365E+00 -0.99758996782E+01 -0.37793669797E+02  0.39094264501E+02  0.51100000000E-03 0. -1.
         11    1    3    3    0    0 -0.69387718365E+00  0.99758996782E+01 -0.38485391007E+02  0.39763367075E+02  0.51100000000E-03 0.  1.
<mgrwt>
<rscale>  0 0.20000774E+02</rscale>
<asrwt>0</asrwt>
<pdfrwt beam="2">  1        2 0.11933588E-01 0.20000774E+02</pdfrwt>
<pdfrwt beam="1">  1       -2 0.19835166E-03 0.20000774E+02</pdfrwt>
<totfact> 0.49987642E+06</totfact>
</mgrwt>
</event>
<event>
 5    1  0.4046313E-006  0.2000092E+02  0.7818608E-02  0.1745310E+00
         -2   -1    0    0    0  501 -0.00000000000E+00  0.00000000000E+00  0.42991102090E+02  0.42991102169E+02  0.26000000000E-02 0.  1.
          2   -1    0    0  501    0  0.00000000000E+00 -0.00000000000E+00 -0.23262763665E+01  0.23262778195E+01  0.26000000000E-02 0. -1.
       1023    2    1    2    0    0  0.00000000000E+00  0.00000000000E+00  0.40664825723E+02  0.45317379988E+02  0.20000921925E+02 0.  0.
        -11    1    3    3    0    0 -0.76045291338E+01  0.64944207191E+01  0.20453485705E+02  0.22767332772E+02  0.51100000000E-03 0. -1.
         11    1    3    3    0    0  0.76045291338E+01 -0.64944207191E+01  0.20211340019E+02  0.22550047216E+02  0.51100000000E-03 0.  1.
<mgrwt>
<rscale>  0 0.20000922E+02</rscale>
<asrwt>0</asrwt>
<pdfrwt beam="2">  1        2 0.35788878E-03 0.20000922E+02</pdfrwt>
<pdfrwt beam="1">  1       -2 0.66140161E-02 0.20000922E+02</pdfrwt>
<totfact> 0.34600848E+06</totfact>
</mgrwt>
</event>
<event>
 4    1  0.4046313E-006  0.2003355E+02  0.7818608E-02  0.1744662E+00
         -2   -1    0    0    0  501 -0.00000000000E+00  0.00000000000E+00  0.21430563825E+01  0.21430579597E+01  0.26000000000E-02 0.  1.
          2   -1    0    0  501    0  0.00000000000E+00 -0.00000000000E+00 -0.46819015425E+02  0.46819015497E+02  0.26000000000E-02 0. -1.
        -11    1    1    2    0    0  0.31995369829E+01  0.94760327507E+01 -0.20991344040E+02  0.23252285016E+02  0.51100000000E-03 0.  1.
         11    1    1    2    0    0 -0.31995369829E+01 -0.94760327507E+01 -0.23684615002E+02  0.25709788440E+02  0.51100000000E-03 0. -1.
<mgrwt>
<rscale>  0 0.20033555E+02</rscale>
<asrwt>0</asrwt>
<pdfrwt beam="2">  1        2 0.72029248E-02 0.20033555E+02</pdfrwt>
<pdfrwt beam="1">  1       -2 0.32970114E-03 0.20033555E+02</pdfrwt>
<totfact> 0.45709245E+06</totfact>
</mgrwt>
</event>
<event>
 5    1  0.4046313E-006  0.2000762E+02  0.7818608E-02  0.1745177E+00
         -2   -1    0    0    0  501 -0.00000000000E+00  0.00000000000E+00  0.26293347186E+02  0.26293347314E+02  0.26000000000E-02 0. -1.
          2   -1    0    0  501    0  0.00000000000E+00 -0.00000000000E+00 -0.38061426136E+01  0.38061435017E+01  0.26000000000E-02 0.  1.
       1023    2    1    2    0    0  0.00000000000E+00  0.00000000000E+00  0.22487204572E+02  0.30099490816E+02  0.20007622995E+02 0.  0.
        -11    1    3    3    0    0  0.50292198486E+01 -0.86474203838E+01  0.11133949730E+02  0.14967824439E+02  0.51100000000E-03 0. -1.
         11    1    3    3    0    0 -0.50292198486E+01  0.86474203838E+01  0.11353254842E+02  0.15131666377E+02  0.51100000000E-03 0.  1.
<mgrwt>
<rscale>  0 0.20007623E+02</rscale>
<asrwt>0</asrwt>
<pdfrwt beam="2">  1        2 0.58556048E-03 0.20007623E+02</pdfrwt>
<pdfrwt beam="1">  1       -2 0.40451304E-02 0.20007623E+02</pdfrwt>
<totfact> 0.36505705E+06</totfact>
</mgrwt>
</event>
<event>
 5    1  0.4046313E-006  0.2000042E+02  0.7818608E-02  0.1745320E+00
         -2   -1    0    0    0  501 -0.00000000000E+00  0.00000000000E+00  0.50621055938E+01  0.50621062615E+01  0.26000000000E-02 0.  1.
          2   -1    0    0  501    0  0.00000000000E+00 -0.00000000000E+00 -0.19755444315E+02  0.19755444486E+02  0.26000000000E-02 0. -1.
       1023    2    1    2    0    0  0.00000000000E+00  0.00000000000E+00 -0.14693338721E+02  0.24817550748E+02  0.20000415554E+02 0.  0.
        -11    1    3    3    0    0  0.94539800628E+01 -0.32594958239E+01 -0.72897621698E+01  0.12375083224E+02  0.51100000000E-03 0. -1.
         11    1    3    3    0    0 -0.94539800628E+01  0.32594958239E+01 -0.74035765513E+01  0.12442467523E+02  0.51100000000E-03 0.  1.
<mgrwt>
<rscale>  0 0.20000416E+02</rscale>
<asrwt>0</asrwt>
<pdfrwt beam="2">  1        2 0.30392991E-02 0.20000416E+02</pdfrwt>
<pdfrwt beam="1">  1       -2 0.77878555E-03 0.20000416E+02</pdfrwt>
<totfact> 0.41630845E+06</totfact>
</mgrwt>
</event>
<event>
 5    1  0.4046313E-006  0.2000922E+02  0.7818608E-02  0.1745145E+00
          2   -1    0    0  501    0  0.00000000000E+00  0.00000000000E+00  0.37135447929E+01  0.37135457031E+01  0.26000000000E-02 0. -1.
         -2   -1    0    0    0  501 -0.00000000000E+00 -0.00000000000E+00 -0.26953288600E+02  0.26953288726E+02  0.26000000000E-02 0.  1.
       1023    2    1    2    0    0  0.00000000000E+00  0.00000000000E+00 -0.23239743808E+02  0.30666834429E+02  0.20009223914E+02 0.  0.
        -11    1    3    3    0    0  0.39691138578E+01 -0.91799741547E+01 -0.12015011971E+02  0.15632859726E+02  0.51100000000E-03 0. -1.
         11    1    3    3    0    0 -0.39691138578E+01  0.91799741547E+01 -0.11224731836E+02  0.15033974702E+02  0.51100000000E-03 0.  1.
<mgrwt>
<rscale>  0 0.20009224E+02</rscale>
<asrwt>0</asrwt>
<pdfrwt beam="1">  1        2 0.57131468E-03 0.20009224E+02</pdfrwt>
<pdfrwt beam="2">  1       -2 0.41466597E-02 0.20009224E+02</pdfrwt>
<totfact> 0.36413015E+06</totfact>
</mgrwt>
</event>
<event>
 5    1  0.4046313E-006  0.2000082E+02  0.7818608E-02  0.1745312E+00
          2   -1    0    0  501    0  0.00000000000E+00  0.00000000000E+00  0.18901659824E+02  0.18901660003E+02  0.26000000000E-02 0. -1.
         -2   -1    0    0    0  501 -0.00000000000E+00 -0.00000000000E+00 -0.52909731344E+01  0.52909737732E+01  0.26000000000E-02 0.  1.
       1023    2    1    2    0    0  0.00000000000E+00  0.00000000000E+00  0.13610686690E+02  0.24192633776E+02  0.20000818405E+02 0.  0.
        -11    1    3    3    0    0  0.32283597692E+01 -0.94648875134E+01  0.67542893362E+01  0.12067594091E+02  0.51100000000E-03 0.  1.
         11    1    3    3    0    0 -0.32283597692E+01  0.94648875134E+01  0.68563973535E+01  0.12125039685E+02  0.51100000000E-03 0. -1.
<mgrwt>
<rscale>  0 0.20000818E+02</rscale>
<asrwt>0</asrwt>
<pdfrwt beam="1">  1        2 0.29079478E-02 0.20000818E+02</pdfrwt>
<pdfrwt beam="2">  1       -2 0.81399592E-03 0.20000818E+02</pdfrwt>
<totfact> 0.41469131E+06</totfact>
</mgrwt>
</event>
<event>
 4    1  0.4046313E-006  0.2001747E+02  0.7818608E-02  0.1744981E+00
          2   -1    0    0  501    0  0.00000000000E+00  0.00000000000E+00  0.24750552299E+01  0.24750565955E+01  0.26000000000E-02 0. -1.
         -2   -1    0    0    0  501 -0.00000000000E+00 -0.00000000000E+00 -0.40473739508E+02  0.40473739592E+02  0.26000000000E-02 0.  1.
        -11    1    1    2    0    0 -0.98402922670E+01  0.18246150851E+01 -0.19255010343E+02  0.21700598971E+02  0.51100000000E-03 0.  1.
         11    1    1    2    0    0  0.98402922670E+01 -0.18246150851E+01 -0.18743673935E+02  0.21248197217E+02  0.51100000000E-03 0. -1.
<mgrwt>
<rscale>  0 0.20017470E+02</rscale>
<asrwt>0</asrwt>
<pdfrwt beam="1">  1        2 0.38077787E-03 0.20017470E+02</pdfrwt>
<pdfrwt beam="2">  1       -2 0.62267288E-02 0.20017470E+02</pdfrwt>
<totfact> 0.34803342E+06</totfact>
</mgrwt>
</event>
<event>
 5    1  0.4046313E-006  0.2000047E+02  0.7818608E-02  0.1745319E+00
          2   -1    0    0  501    0  0.00000000000E+00  0.00000000000E+00  0.98532182074E+00  0.98532525109E+00  0.26000000000E-02 0.  1.
         -2   -1    0    0    0  501 -0.00000000000E+00 -0.00000000000E+00 -0.10149431453E+03  0.10149431456E+03  0.26000000000E-02 0. -1.
       1023    2    1    2    0    0  0.00000000000E+00  0.00000000000E+00 -0.10050899271E+03  0.10247963982E+03  0.20000474021E+02 0.  0.
        -11    1    3    3    0    0 -0.84772146787E+01  0.53044468226E+01 -0.49914031259E+02  0.50905901834E+02  0.51100000000E-03 0. -1.
         11    1    3    3    0    0  0.84772146787E+01 -0.53044468226E+01 -0.50594961452E+02  0.51573737981E+02  0.51100000000E-03 0.  1.
<mgrwt>
<rscale>  0 0.20000474E+02</rscale>
<asrwt>0</asrwt>
<pdfrwt beam="1">  1        2 0.15158832E-03 0.20000474E+02</pdfrwt>
<pdfrwt beam="2">  1       -2 0.15614502E-01 0.20000474E+02</pdfrwt>
<totfact> 0.29621022E+06</totfact>
</mgrwt>
</event>
<event>
 4    1  0.4046313E-006  0.2002256E+02  0.7818608E-02  0.1744880E+00
          2   -1    0    0  501    0  0.00000000000E+00  0.00000000000E+00  0.60484256212E+01  0.60484261800E+01  0.26000000000E-02 0. -1.
         -2   -1    0    0    0  501 -0.00000000000E+00 -0.00000000000E+00 -0.16570553511E+02  0.16570553715E+02  0.26000000000E-02 0.  1.
        -11    1    1    2    0    0  0.86801250266E+01  0.49697016749E+01 -0.47774582781E+01  0.11084521328E+02  0.51100000000E-03 0.  1.
         11    1    1    2    0    0 -0.86801250266E+01 -0.49697016749E+01 -0.57446696113E+01  0.11534458566E+02  0.51100000000E-03 0. -1.
<mgrwt>
<rscale>  0 0.20022564E+02</rscale>
<asrwt>0</asrwt>
<pdfrwt beam="1">  1        2 0.93052708E-03 0.20022564E+02</pdfrwt>
<pdfrwt beam="2">  1       -2 0.25493160E-02 0.20022564E+02</pdfrwt>
<totfact> 0.37912639E+06</totfact>
</mgrwt>
</event>
<event>
 5    1  0.4046313E-006  0.2000014E+02  0.7818608E-02  0.1745325E+00
          2   -1    0    0  501    0  0.00000000000E+00  0.00000000000E+00  0.11725260324E+02  0.11725260612E+02  0.26000000000E-02 0.  1.
         -2   -1    0    0    0  501 -0.00000000000E+00 -0.00000000000E+00 -0.85287129726E+01  0.85287133689E+01  0.26000000000E-02 0. -1.
       1023    2    1    2    0    0  0.00000000000E+00  0.00000000000E+00  0.31965473515E+01  0.20253973981E+02  0.20000138676E+02 0.  0.
        -11    1    3    3    0    0 -0.76328040167E+01  0.64607788836E+01  0.15931533304E+01  0.10126178881E+02  0.51100000000E-03 0.  1.
         11    1    3    3    0    0  0.76328040167E+01 -0.64607788836E+01  0.16033940212E+01  0.10127795100E+02  0.51100000000E-03 0. -1.
<mgrwt>
<rscale>  0 0.20000139E+02</rscale>
<asrwt>0</asrwt>
<pdfrwt beam="1">  1        2 0.18038863E-02 0.20000139E+02</pdfrwt>
<pdfrwt beam="2">  1       -2 0.13121097E-02 0.20000139E+02</pdfrwt>
<totfact> 0.39928944E+06</totfact>
</mgrwt>
</event>
<event>
 5    1  0.4046313E-006  0.2000087E+02  0.7818608E-02  0.1745311E+00
         -2   -1    0    0    0  501 -0.00000000000E+00  0.00000000000E+00  0.89627770089E+02  0.89627770127E+02  0.26000000000E-02 0.  1.
          2   -1    0    0  501    0  0.00000000000E+00 -0.00000000000E+00 -0.11158210628E+01  0.11158240920E+01  0.26000000000E-02 0. -1.
       1023    2    1    2    0    0  0.00000000000E+00  0.00000000000E+00  0.88511949026E+02  0.90743594219E+02  0.20000869264E+02 0.  0.
        -11    1    3    3    0    0 -0.25018024709E-01  0.10000177460E+02  0.43951035510E+02  0.45074357431E+02  0.51100000000E-03 0.  1.
         11    1    3    3    0    0  0.25018024709E-01 -0.10000177460E+02  0.44560913516E+02  0.45669236788E+02  0.51100000000E-03 0. -1.
<mgrwt>
<rscale>  0 0.20000869E+02</rscale>
<asrwt>0</asrwt>
<pdfrwt beam="2">  1        2 0.17166494E-03 0.20000869E+02</pdfrwt>
<pdfrwt beam="1">  1       -2 0.13788894E-01 0.20000869E+02</pdfrwt>
<totfact> 0.30500840E+06</totfact>
</mgrwt>
</event>
<event>
 5    1  0.4046313E-006  0.2000017E+02  0.7818608E-02  0.1745325E+00
         -2   -1    0    0    0  501 -0.00000000000E+00  0.00000000000E+00  0.11137304601E+01  0.11137334950E+01  0.26000000000E-02 0.  1.
          2   -1    0    0  501    0  0.00000000000E+00 -0.00000000000E+00 -0.89789714176E+02  0.89789714213E+02  0.26000000000E-02 0. -1.
       1023    2    1    2    0    0  0.00000000000E+00  0.00000000000E+00 -0.88675983716E+02  0.90903447708E+02  0.20000167933E+02 0.  0.
        -11    1    3    3    0    0  0.90398825661E+01  0.42756550066E+01 -0.44195959030E+02  0.45313171345E+02  0.51100000000E-03 0. -1.
         11    1    3    3    0    0 -0.90398825661E+01 -0.42756550066E+01 -0.44480024686E+02  0.45590276363E+02  0.51100000000E-03 0.  1.
<mgrwt>
<rscale>  0 0.20000168E+02</rscale>
<asrwt>0</asrwt>
<pdfrwt beam="2">  1        2 0.13813797E-01 0.20000168E+02</pdfrwt>
<pdfrwt beam="1">  1       -2 0.17134346E-03 0.20000168E+02</pdfrwt>
<totfact> 0.51517903E+06</totfact>
</mgrwt>
</event>
<event>
 4    1  0.4046313E-006  0.2003690E+02  0.7818608E-02  0.1744595E+00
          2   -1    0    0  501    0  0.00000000000E+00  0.00000000000E+00  0.44000372232E+02  0.44000372309E+02  0.26000000000E-02 0. -1.
         -2   -1    0    0    0  501 -0.00000000000E+00 -0.00000000000E+00 -0.22811009857E+01  0.22811024674E+01  0.26000000000E-02 0.  1.
        -11    1    1    2    0    0  0.96562691269E+01  0.26547037204E+01  0.21506147832E+02  0.23723519556E+02  0.51100000000E-03 0. -1.
         11    1    1    2    0    0 -0.96562691269E+01 -0.26547037204E+01  0.20213123414E+02  0.22557955220E+02  0.51100000000E-03 0.  1.
<mgrwt>
<rscale>  0 0.20036899E+02</rscale>
<asrwt>0</asrwt>
<pdfrwt beam="1">  1        2 0.67692883E-02 0.20036899E+02</pdfrwt>
<pdfrwt beam="2">  1       -2 0.35093872E-03 0.20036899E+02</pdfrwt>
<totfact> 0.45291286E+06</totfact>
</mgrwt>
</event>
<event>
 5    1  0.4101556E-006  0.2000110E+02  0.7818608E-02  0.1745306E+00
          2   -1    0    0  501    0  0.00000000000E+00  0.00000000000E+00  0.73417110907E+02  0.73417110953E+02  0.26000000000E-02 0.  1.
         -2   -1    0    0    0  501 -0.00000000000E+00 -0.00000000000E+00 -0.13622290382E+01  0.13622315195E+01  0.26000000000E-02 0. -1.
       1023    2    1    2    0    0  0.00000000000E+00  0.00000000000E+00  0.72054881868E+02  0.74779342472E+02  0.20001101457E+02 0.  0.
        -11    1    3    3    0    0  0.91331836387E+01 -0.40735013836E+01  0.35838357468E+02  0.37207476710E+02  0.51100000000E-03 0. -1.
         11    1    3    3    0    0 -0.91331836387E+01  0.40735013836E+01  0.36216524401E+02  0.37571865762E+02  0.51100000000E-03 0.  1.
<mgrwt>
<rscale>  0 0.20001101E+02</rscale>
<asrwt>0</asrwt>
<pdfrwt beam="1">  1        2 0.11294947E-01 0.20001101E+02</pdfrwt>
<pdfrwt beam="2">  1       -2 0.20957376E-03 0.20001101E+02</pdfrwt>
<totfact> 0.49455552E+06</totfact>
</mgrwt>
</event>
<event>
 5    1  0.4046313E-006  0.2000039E+02  0.7818608E-02  0.1745320E+00
         -2   -1    0    0    0  501 -0.00000000000E+00  0.00000000000E+00  0.65552951051E+01  0.65552956207E+01  0.26000000000E-02 0. -1.
          2   -1    0    0  501    0  0.00000000000E+00 -0.00000000000E+00 -0.15255434978E+02  0.15255435200E+02  0.26000000000E-02 0.  1.
       1023    2    1    2    0    0  0.00000000000E+00  0.00000000000E+00 -0.87001398732E+01  0.21810730821E+02  0.20000388624E+02 0.  0.
        -11    1    3    3    0    0  0.79271977878E+01 -0.60960246503E+01 -0.43024765557E+01  0.10886380761E+02  0.51100000000E-03 0.  1.
         11    1    3    3    0    0 -0.79271977878E+01  0.60960246503E+01 -0.43976633175E+01  0.10924350059E+02  0.51100000000E-03 0. -1.
<mgrwt>
<rscale>  0 0.20000389E+02</rscale>
<asrwt>0</asrwt>
<pdfrwt beam="2">  1        2 0.23469900E-02 0.20000389E+02</pdfrwt>
<pdfrwt beam="1">  1       -2 0.10085070E-02 0.20000389E+02</pdfrwt>
<totfact> 0.40742308E+06</totfact>
</mgrwt>
</event>
<event>
 5    1  0.4046313E-006  0.2000066E+02  0.7818608E-02  0.1745315E+00
          2   -1    0    0  501    0  0.00000000000E+00  0.00000000000E+00  0.81416216445E+01  0.81416220596E+01  0.26000000000E-02 0. -1.
         -2   -1    0    0    0  501 -0.00000000000E+00 -0.00000000000E+00 -0.12283369063E+02  0.12283369339E+02  0.26000000000E-02 0.  1.
       1023    2    1    2    0    0  0.00000000000E+00  0.00000000000E+00 -0.41417474189E+01  0.20424991398E+02  0.20000655038E+02 0.  0.
        -11    1    3    3    0    0  0.55379174521E+01  0.83265936272E+01 -0.19927050841E+01  0.10196644789E+02  0.51100000000E-03 0.  1.
         11    1    3    3    0    0 -0.55379174521E+01 -0.83265936272E+01 -0.21490423348E+01  0.10228346609E+02  0.51100000000E-03 0. -1.
<mgrwt>
<rscale>  0 0.20000655E+02</rscale>
<asrwt>0</asrwt>
<pdfrwt beam="1">  1        2 0.12525572E-02 0.20000655E+02</pdfrwt>
<pdfrwt beam="2">  1       -2 0.18897491E-02 0.20000655E+02</pdfrwt>
<totfact> 0.38870345E+06</totfact>
</mgrwt>
</event>
<event>
 5    1  0.4046313E-006  0.2000281E+02  0.7818608E-02  0.1745272E+00
          2   -1    0    0  501    0  0.00000000000E+00  0.00000000000E+00  0.12531554365E+02  0.12531554635E+02  0.26000000000E-02 0.  1.
         -2   -1    0    0    0  501 -0.00000000000E+00 -0.00000000000E+00 -0.79820983152E+01  0.79820987387E+01  0.26000000000E-02 0. -1.
       1023    2    1    2    0    0  0.00000000000E+00  0.00000000000E+00  0.45494560499E+01  0.20513653374E+02  0.20002810412E+02 0.  0.
        -11    1    3    3    0    0  0.96703958832E+01  0.25472630154E+01  0.24302600902E+01  0.10291320118E+02  0.51100000000E-03 0.  1.
         11    1    3    3    0    0 -0.96703958832E+01 -0.25472630154E+01  0.21191959598E+01  0.10222333255E+02  0.51100000000E-03 0. -1.
<mgrwt>
<rscale>  0 0.20002810E+02</rscale>
<asrwt>0</asrwt>
<pdfrwt beam="1">  1        2 0.19279315E-02 0.20002810E+02</pdfrwt>
<pdfrwt beam="2">  1       -2 0.12280152E-02 0.20002810E+02</pdfrwt>
<totfact> 0.40116462E+06</totfact>
</mgrwt>
</event>
<event>
 5    1  0.4046313E-006  0.2000081E+02  0.7818608E-02  0.1745312E+00
         -2   -1    0    0    0  501 -0.00000000000E+00  0.00000000000E+00  0.57640602847E+02  0.57640602906E+02  0.26000000000E-02 0.  1.
          2   -1    0    0  501    0  0.00000000000E+00 -0.00000000000E+00 -0.17350279752E+01  0.17350299233E+01  0.26000000000E-02 0. -1.
       1023    2    1    2    0    0  0.00000000000E+00  0.00000000000E+00  0.55905574872E+02  0.59375632829E+02  0.20000811786E+02 0.  0.
        -11    1    3    3    0    0  0.41642570103E+01 -0.90921367850E+01  0.27918939898E+02  0.29655947010E+02  0.51100000000E-03 0.  1.
         11    1    3    3    0    0 -0.41642570103E+01  0.90921367850E+01  0.27986634974E+02  0.29719685819E+02  0.51100000000E-03 0. -1.
<mgrwt>
<rscale>  0 0.20000812E+02</rscale>
<asrwt>0</asrwt>
<pdfrwt beam="2">  1        2 0.26692754E-03 0.20000812E+02</pdfrwt>
<pdfrwt beam="1">  1       -2 0.88677849E-02 0.20000812E+02</pdfrwt>
<totfact> 0.33172556E+06</totfact>
</mgrwt>
</event>
<event>
 4    1  0.4046313E-006  0.2001336E+02  0.7818608E-02  0.1745063E+00
         -2   -1    0    0    0  501 -0.00000000000E+00  0.00000000000E+00  0.35994824635E+01  0.35994834026E+01  0.26000000000E-02 0.  1.
          2   -1    0    0  501    0  0.00000000000E+00 -0.00000000000E+00 -0.27818888580E+02  0.27818888702E+02  0.26000000000E-02 0. -1.
        -11    1    1    2    0    0 -0.78952115389E+01 -0.61394112397E+01 -0.12622938683E+02  0.16104822783E+02  0.51100000000E-03 0.  1.
         11    1    1    2    0    0  0.78952115389E+01  0.61394112397E+01 -0.11596467433E+02  0.15313549321E+02  0.51100000000E-03 0. -1.
<mgrwt>
<rscale>  0 0.20013357E+02</rscale>
<asrwt>0</asrwt>
<pdfrwt beam="2">  1        2 0.42798290E-02 0.20013357E+02</pdfrwt>
<pdfrwt beam="1">  1       -2 0.55376663E-03 0.20013357E+02</pdfrwt>
<totfact> 0.42958737E+06</totfact>
</mgrwt>
</event>
<event>
 5    1  0.4046313E-006  0.2000873E+02  0.7818608E-02  0.1745155E+00
         -2   -1    0    0    0  501 -0.00000000000E+00  0.00000000000E+00  0.95973224755E+00  0.95973576936E+00  0.26000000000E-02 0.  1.
          2   -1    0    0  501    0  0.00000000000E+00 -0.00000000000E+00 -0.10428646735E+03  0.10428646738E+03  0.26000000000E-02 0. -1.
       1023    2    1    2    0    0  0.00000000000E+00  0.00000000000E+00 -0.10332673510E+03  0.10524620315E+03  0.20008725370E+02 0.  0.
        -11    1    3    3    0    0  0.92081901898E+01  0.39029718208E+01 -0.52986936982E+02  0.53922531901E+02  0.51100000000E-03 0. -1.
         11    1    3    3    0    0 -0.92081901898E+01 -0.39029718208E+01 -0.50339798123E+02  0.51323671253E+02  0.51100000000E-03 0.  1.
<mgrwt>
<rscale>  0 0.20008725E+02</rscale>
<asrwt>0</asrwt>
<pdfrwt beam="2">  1        2 0.16044063E-01 0.20008725E+02</pdfrwt>
<pdfrwt beam="1">  1       -2 0.14765147E-03 0.20008725E+02</pdfrwt>
<totfact> 0.53217152E+06</totfact>
</mgrwt>
</event>
<event>
 5    1  0.4046313E-006  0.2000194E+02  0.7818608E-02  0.1745290E+00
          2   -1    0    0  501    0  0.00000000000E+00  0.00000000000E+00  0.55882810663E+02  0.55882810724E+02  0.26000000000E-02 0.  1.
         -2   -1    0    0    0  501 -0.00000000000E+00 -0.00000000000E+00 -0.17898046045E+01  0.17898064929E+01  0.26000000000E-02 0. -1.
       1023    2    1    2    0    0  0.00000000000E+00  0.00000000000E+00  0.54093006059E+02  0.57672617217E+02  0.20001936710E+02 0.  0.
        -11    1    3    3    0    0 -0.31904618537E+01  0.94783032960E+01  0.26914763083E+02  0.28712745468E+02  0.51100000000E-03 0.  1.
         11    1    3    3    0    0  0.31904618537E+01 -0.94783032960E+01  0.27178242975E+02  0.28959871749E+02  0.51100000000E-03 0. -1.
<mgrwt>
<rscale>  0 0.20001937E+02</rscale>
<asrwt>0</asrwt>
<pdfrwt beam="1">  1        2 0.85973547E-02 0.20001937E+02</pdfrwt>
<pdfrwt beam="2">  1       -2 0.27535474E-03 0.20001937E+02</pdfrwt>
<totfact> 0.47129946E+06</totfact>
</mgrwt>
</event>
<event>
 4    1  0.4046313E-006  0.2002154E+02  0.7818608E-02  0.1744900E+00
         -2   -1    0    0    0  501 -0.00000000000E+00  0.00000000000E+00  0.20992191887E+02  0.20992192048E+02  0.26000000000E-02 0. -1.
          2   -1    0    0  501    0  0.00000000000E+00 -0.00000000000E+00 -0.47739433734E+01  0.47739440814E+01  0.26000000000E-02 0.  1.
        -11    1    1    2    0    0 -0.94343297013E+00  0.99622618334E+01  0.77478233234E+01  0.12655650640E+02  0.51100000000E-03 0. -1.
         11    1    1    2    0    0  0.94343297013E+00 -0.99622618334E+01  0.84704251904E+01  0.13110485490E+02  0.51100000000E-03 0.  1.
<mgrwt>
<rscale>  0 0.20021543E+02</rscale>
<asrwt>0</asrwt>
<pdfrwt beam="2">  1        2 0.73445291E-03 0.20021543E+02</pdfrwt>
<pdfrwt beam="1">  1       -2 0.32295680E-02 0.20021543E+02</pdfrwt>
<totfact> 0.37194492E+06</totfact>
</mgrwt>
</event>
<event>
 5    1  0.4123176E-006  0.2000078E+02  0.7818608E-02  0.1745313E+00
         -2   -1    0    0    0  501 -0.00000000000E+00  0.00000000000E+00  0.15815860814E+01  0.15815882185E+01  0.26000000000E-02 0.  1.
          2   -1    0    0  501    0  0.00000000000E+00 -0.00000000000E+00 -0.63232567638E+02  0.63232567691E+02  0.26000000000E-02 0. -1.
       1023    2    1    2    0    0  0.00000000000E+00  0.00000000000E+00 -0.61650981557E+02  0.64814155910E+02  0.20000781970E+02 0.  0.
        -11    1    3    3    0    0  0.94036001448E+01 -0.34026935496E+01 -0.30687984753E+02  0.32276282741E+02  0.51100000000E-03 0.  1.
         11    1    3    3    0    0 -0.94036001448E+01  0.34026935496E+01 -0.30962996804E+02  0.32537873169E+02  0.51100000000E-03 0. -1.
<mgrwt>
<rscale>  0 0.20000782E+02</rscale>
<asrwt>0</asrwt>
<pdfrwt beam="2">  1        2 0.97280856E-02 0.20000782E+02</pdfrwt>
<pdfrwt beam="1">  1       -2 0.24332115E-03 0.20000782E+02</pdfrwt>
<totfact> 0.48125851E+06</totfact>
</mgrwt>
</event>
<event>
 5    1  0.4046313E-006  0.2000073E+02  0.7818608E-02  0.1745314E+00
         -2   -1    0    0    0  501 -0.00000000000E+00  0.00000000000E+00  0.56172361780E+01  0.56172367797E+01  0.26000000000E-02 0.  1.
          2   -1    0    0  501    0  0.00000000000E+00 -0.00000000000E+00 -0.17803641008E+02  0.17803641198E+02  0.26000000000E-02 0. -1.
       1023    2    1    2    0    0  0.00000000000E+00  0.00000000000E+00 -0.12186404830E+02  0.23420877977E+02  0.20000726551E+02 0.  0.
        -11    1    3    3    0    0 -0.94140069323E+01  0.33733130767E+01 -0.60146689657E+01  0.11669576285E+02  0.51100000000E-03 0. -1.
         11    1    3    3    0    0  0.94140069323E+01 -0.33733130767E+01 -0.61717358641E+01  0.11751301693E+02  0.51100000000E-03 0.  1.
<mgrwt>
<rscale>  0 0.20000727E+02</rscale>
<asrwt>0</asrwt>
<pdfrwt beam="2">  1        2 0.27390217E-02 0.20000727E+02</pdfrwt>
<pdfrwt beam="1">  1       -2 0.86419025E-03 0.20000727E+02</pdfrwt>
<totfact> 0.41258481E+06</totfact>
</mgrwt>
</event>
<event>
 5    1  0.4046313E-006  0.2000020E+02  0.7818608E-02  0.1745324E+00
         -2   -1    0    0    0  501 -0.00000000000E+00  0.00000000000E+00  0.11660473377E+03  0.11660473380E+03  0.26000000000E-02 0. -1.
          2   -1    0    0  501    0  0.00000000000E+00 -0.00000000000E+00 -0.85761289357E+00  0.85761683473E+00  0.26000000000E-02 0.  1.
       1023    2    1    2    0    0  0.00000000000E+00  0.00000000000E+00  0.11574712087E+03  0.11746235063E+03  0.20000195629E+02 0.  0.
        -11    1    3    3    0    0  0.40436597723E+01  0.91460553603E+01  0.57997178564E+02  0.58852988324E+02  0.51100000000E-03 0.  1.
         11    1    3    3    0    0 -0.40436597723E+01 -0.91460553603E+01  0.57749942309E+02  0.58609362306E+02  0.51100000000E-03 0. -1.
<mgrwt>
<rscale>  0 0.20000196E+02</rscale>
<asrwt>0</asrwt>
<pdfrwt beam="2">  1        2 0.13194070E-03 0.20000196E+02</pdfrwt>
<pdfrwt beam="1">  1       -2 0.17939197E-01 0.20000196E+02</pdfrwt>
<totfact> 0.28567787E+06</totfact>
</mgrwt>
</event>
<event>
 5    1  0.4046313E-006  0.2000035E+02  0.7818608E-02  0.1745321E+00
          2   -1    0    0  501    0  0.00000000000E+00  0.00000000000E+00  0.88280067351E+01  0.88280071180E+01  0.26000000000E-02 0. -1.
         -2   -1    0    0    0  501 -0.00000000000E+00 -0.00000000000E+00 -0.11327978009E+02  0.11327978308E+02  0.26000000000E-02 0.  1.
       1023    2    1    2    0    0  0.00000000000E+00  0.00000000000E+00 -0.24999712743E+01  0.20155985426E+02  0.20000347300E+02 0.  0.
        -11    1    3    3    0    0  0.44498771568E+00  0.99901931885E+01 -0.12109705974E+01  0.10073153630E+02  0.51100000000E-03 0.  1.
         11    1    3    3    0    0 -0.44498771568E+00 -0.99901931885E+01 -0.12890006769E+01  0.10082831796E+02  0.51100000000E-03 0. -1.
<mgrwt>
<rscale>  0 0.20000347E+02</rscale>
<asrwt>0</asrwt>
<pdfrwt beam="1">  1        2 0.13581549E-02 0.20000347E+02</pdfrwt>
<pdfrwt beam="2">  1       -2 0.17427659E-02 0.20000347E+02</pdfrwt>
<totfact> 0.39103312E+06</totfact>
</mgrwt>
</event>
<event>
 5    1  0.4046313E-006  0.2000563E+02  0.7818608E-02  0.1745216E+00
         -2   -1    0    0    0  501 -0.00000000000E+00  0.00000000000E+00  0.11596258097E+02  0.11596258389E+02  0.26000000000E-02 0.  1.
          2   -1    0    0  501    0  0.00000000000E+00 -0.00000000000E+00 -0.86283268966E+01  0.86283272884E+01  0.26000000000E-02 0. -1.
       1023    2    1    2    0    0  0.00000000000E+00  0.00000000000E+00  0.29679312006E+01  0.20224585677E+02  0.20005630462E+02 0.  0.
        -11    1    3    3    0    0 -0.97804891614E+01 -0.20911969083E+01  0.13233572476E+01  0.10088723775E+02  0.51100000000E-03 0. -1.
         11    1    3    3    0    0  0.97804891614E+01  0.20911969083E+01  0.16445739529E+01  0.10135861902E+02  0.51100000000E-03 0.  1.
<mgrwt>
<rscale>  0 0.20005630E+02</rscale>
<asrwt>0</asrwt>
<pdfrwt beam="2">  1        2 0.13274350E-02 0.20005630E+02</pdfrwt>
<pdfrwt beam="1">  1       -2 0.17840397E-02 0.20005630E+02</pdfrwt>
<totfact> 0.39014180E+06</totfact>
</mgrwt>
</event>
<event>
 5    1  0.4046313E-006  0.2000597E+02  0.7818608E-02  0.1745209E+00
         -2   -1    0    0    0  501 -0.00000000000E+00  0.00000000000E+00  0.14336619409E+01  0.14336642985E+01  0.26000000000E-02 0. -1.
          2   -1    0    0  501    0  0.00000000000E+00 -0.00000000000E+00 -0.69793045733E+02  0.69793045782E+02  0.26000000000E-02 0.  1.
       1023    2    1    2    0    0  0.00000000000E+00  0.00000000000E+00 -0.68359383792E+02  0.71226710080E+02  0.20005971018E+02 0.  0.
        -11    1    3    3    0    0  0.78186217201E-01  0.10001790426E+02 -0.34654611771E+02  0.36069156381E+02  0.51100000000E-03 0. -1.
         11    1    3    3    0    0 -0.78186217201E-01 -0.10001790426E+02 -0.33704772021E+02  0.35157553699E+02  0.51100000000E-03 0.  1.
<mgrwt>
<rscale>  0 0.20005971E+02</rscale>
<asrwt>0</asrwt>
<pdfrwt beam="2">  1        2 0.10737389E-01 0.20005971E+02</pdfrwt>
<pdfrwt beam="1">  1       -2 0.22056361E-03 0.20005971E+02</pdfrwt>
<totfact> 0.48960479E+06</totfact>
</mgrwt>
</event>
<event>
 5    1  0.4046313E-006  0.2000042E+02  0.7818608E-02  0.1745320E+00
         -2   -1    0    0    0  501 -0.00000000000E+00  0.00000000000E+00  0.94869988579E+01  0.94869992142E+01  0.26000000000E-02 0. -1.
          2   -1    0    0  501    0  0.00000000000E+00 -0.00000000000E+00 -0.10541186461E+02  0.10541186782E+02  0.26000000000E-02 0.  1.
       1023    2    1    2    0    0  0.00000000000E+00  0.00000000000E+00 -0.10541876030E+01  0.20028185996E+02  0.20000423065E+02 0.  0.
        -11    1    3    3    0    0  0.76195066598E+01 -0.64765646630E+01 -0.48884575547E+00  0.10012079804E+02  0.51100000000E-03 0. -1.
         11    1    3    3    0    0 -0.76195066598E+01  0.64765646630E+01 -0.56534184755E+00  0.10016106192E+02  0.51100000000E-03 0.  1.
<mgrwt>
<rscale>  0 0.20000423E+02</rscale>
<asrwt>0</asrwt>
<pdfrwt beam="2">  1        2 0.16217210E-02 0.20000423E+02</pdfrwt>
<pdfrwt beam="1">  1       -2 0.14595383E-02 0.20000423E+02</pdfrwt>
<totfact> 0.39614254E+06</totfact>
</mgrwt>
</event>
<event>
 5    1  0.4046313E-006  0.2000280E+02  0.7818608E-02  0.1745272E+00
         -2   -1    0    0    0  501 -0.00000000000E+00  0.00000000000E+00  0.36654906181E+02  0.36654906273E+02  0.26000000000E-02 0. -1.
          2   -1    0    0  501    0  0.00000000000E+00 -0.00000000000E+00 -0.27289104346E+01  0.27289116732E+01  0.26000000000E-02 0.  1.
       1023    2    1    2    0    0  0.00000000000E+00  0.00000000000E+00  0.33925995746E+02  0.39383817946E+02  0.20002798020E+02 0.  0.
        -11    1    3    3    0    0 -0.89094905467E+01 -0.45423243665E+01  0.17213982064E+02  0.19908111694E+02  0.51100000000E-03 0.  1.
         11    1    3    3    0    0  0.89094905467E+01  0.45423243665E+01  0.16712013682E+02  0.19475706253E+02  0.51100000000E-03 0. -1.
<mgrwt>
<rscale>  0 0.20002798E+02</rscale>
<asrwt>0</asrwt>
<pdfrwt beam="2">  1        2 0.41983248E-03 0.20002798E+02</pdfrwt>
<pdfrwt beam="1">  1       -2 0.56392164E-02 0.20002798E+02</pdfrwt>
<totfact> 0.35275535E+06</totfact>
</mgrwt>
</event>
<event>
 5    1  0.4046313E-006  0.2000749E+02  0.7818608E-02  0.1745179E+00
         -2   -1    0    0    0  501 -0.00000000000E+00  0.00000000000E+00  0.32536959356E+01  0.32536969744E+01  0.26000000000E-02 0.  1.
          2   -1    0    0  501    0  0.00000000000E+00 -0.00000000000E+00 -0.30757284310E+02  0.30757284420E+02  0.26000000000E-02 0. -1.
       1023    2    1    2    0    0  0.00000000000E+00  0.00000000000E+00 -0.27503588374E+02  0.34010981394E+02  0.20007485647E+02 0.  0.
        -11    1    3    3    0    0  0.11768109716E+01 -0.99339209162E+01 -0.13896050487E+02  0.17122146134E+02  0.51100000000E-03 0. -1.
         11    1    3    3    0    0 -0.11768109716E+01  0.99339209162E+01 -0.13607537887E+02  0.16888835260E+02  0.51100000000E-03 0.  1.
<mgrwt>
<rscale>  0 0.20007486E+02</rscale>
<asrwt>0</asrwt>
<pdfrwt beam="2">  1        2 0.47318898E-02 0.20007486E+02</pdfrwt>
<pdfrwt beam="1">  1       -2 0.50056872E-03 0.20007486E+02</pdfrwt>
<totfact> 0.43456499E+06</totfact>
</mgrwt>
</event>
<event>
 5    1  0.4046313E-006  0.2000038E+02  0.7818608E-02  0.1745321E+00
         -2   -1    0    0    0  501 -0.00000000000E+00  0.00000000000E+00  0.16415195578E+01  0.16415216169E+01  0.26000000000E-02 0.  1.
          2   -1    0    0  501    0  0.00000000000E+00 -0.00000000000E+00 -0.60921426601E+02  0.60921426657E+02  0.26000000000E-02 0. -1.
       1023    2    1    2    0    0  0.00000000000E+00  0.00000000000E+00 -0.59279907043E+02  0.62562948273E+02  0.20000377937E+02 0.  0.
        -11    1    3    3    0    0  0.47203907498E+01  0.88159486134E+01 -0.29554839706E+02  0.31200826738E+02  0.51100000000E-03 0. -1.
         11    1    3    3    0    0 -0.47203907498E+01 -0.88159486134E+01 -0.29725067337E+02  0.31362121536E+02  0.51100000000E-03 0.  1.
<mgrwt>
<rscale>  0 0.20000378E+02</rscale>
<asrwt>0</asrwt>
<pdfrwt beam="2">  1        2 0.93725256E-02 0.20000378E+02</pdfrwt>
<pdfrwt beam="1">  1       -2 0.25254168E-03 0.20000378E+02</pdfrwt>
<totfact> 0.47819450E+06</totfact>
</mgrwt>
</event>
<event>
 5    1  0.4046313E-006  0.2000093E+02  0.7818608E-02  0.1745310E+00
          2   -1    0    0  501    0  0.00000000000E+00  0.00000000000E+00  0.27912351838E+01  0.27912363948E+01  0.26000000000E-02 0.  1.
         -2   -1    0    0    0  501 -0.00000000000E+00 -0.00000000000E+00 -0.35829770791E+02  0.35829770886E+02  0.26000000000E-02 0. -1.
       1023    2    1    2    0    0  0.00000000000E+00  0.00000000000E+00 -0.33038535608E+02  0.38621007281E+02  0.20000934185E+02 0.  0.
        -11    1    3    3    0    0 -0.98986068567E+01 -0.14233519208E+01 -0.16458406946E+02  0.19258439913E+02  0.51100000000E-03 0.  1.
         11    1    3    3    0    0  0.98986068567E+01  0.14233519208E+01 -0.16580128661E+02  0.19362567368E+02  0.51100000000E-03 0. -1.
<mgrwt>
<rscale>  0 0.20000934E+02</rscale>
<asrwt>0</asrwt>
<pdfrwt beam="1">  1        2 0.42942092E-03 0.20000934E+02</pdfrwt>
<pdfrwt beam="2">  1       -2 0.55122722E-02 0.20000934E+02</pdfrwt>
<totfact> 0.35375244E+06</totfact>
</mgrwt>
</event>
<event>
 5    1  0.4046313E-006  0.2000191E+02  0.7818608E-02  0.1745290E+00
          2   -1    0    0  501    0  0.00000000000E+00  0.00000000000E+00  0.49312955748E+02  0.49312955817E+02  0.26000000000E-02 0.  1.
         -2   -1    0    0    0  501 -0.00000000000E+00 -0.00000000000E+00 -0.20282503557E+01  0.20282520222E+01  0.26000000000E-02 0. -1.
       1023    2    1    2    0    0  0.00000000000E+00  0.00000000000E+00  0.47284705393E+02  0.51341207839E+02  0.20001906367E+02 0.  0.
        -11    1    3    3    0    0 -0.83740795039E+01  0.54661469564E+01  0.23326997391E+02  0.25380165043E+02  0.51100000000E-03 0. -1.
         11    1    3    3    0    0  0.83740795039E+01 -0.54661469564E+01  0.23957708002E+02  0.25961042796E+02  0.51100000000E-03 0.  1.
<mgrwt>
<rscale>  0 0.20001906E+02</rscale>
<asrwt>0</asrwt>
<pdfrwt beam="1">  1        2 0.75866092E-02 0.20001906E+02</pdfrwt>
<pdfrwt beam="2">  1       -2 0.31203863E-03 0.20001906E+02</pdfrwt>
<totfact> 0.46222144E+06</totfact>
</mgrwt>
</event>
<event>
 5    1  0.4046313E-006  0.2000210E+02  0.7818608E-02  0.1745286E+00
         -2   -1    0    0    0  501 -0.00000000000E+00  0.00000000000E+00  0.13074343327E+01  0.13074369179E+01  0.26000000000E-02 0.  1.
          2   -1    0    0  501    0  0.00000000000E+00 -0.00000000000E+00 -0.76501641726E+02  0.76501641771E+02  0.26000000000E-02 0. -1.
       1023    2    1    2    0    0  0.00000000000E+00  0.00000000000E+00 -0.75194207394E+02  0.77809078688E+02  0.20002097410E+02 0.  0.
        -11    1    3    3    0    0  0.99521584879E+01  0.98704060823E+00 -0.37735580922E+02  0.39038362870E+02  0.51100000000E-03 0. -1.
         11    1    3    3    0    0 -0.99521584879E+01 -0.98704060823E+00 -0.37458626471E+02  0.38770715819E+02  0.51100000000E-03 0.  1.
<mgrwt>
<rscale>  0 0.20002097E+02</rscale>
<asrwt>0</asrwt>
<pdfrwt beam="2">  1        2 0.11769480E-01 0.20002097E+02</pdfrwt>
<pdfrwt beam="1">  1       -2 0.20114401E-03 0.20002097E+02</pdfrwt>
<totfact> 0.49844693E+06</totfact>
</mgrwt>
</event>
<event>
 5    1  0.4046313E-006  0.2000069E+02  0.7818608E-02  0.1745314E+00
         -2   -1    0    0    0  501 -0.00000000000E+00  0.00000000000E+00  0.30145607128E+02  0.30145607240E+02  0.26000000000E-02 0. -1.
          2   -1    0    0  501    0  0.00000000000E+00 -0.00000000000E+00 -0.33174607970E+01  0.33174618159E+01  0.26000000000E-02 0.  1.
       1023    2    1    2    0    0  0.00000000000E+00  0.00000000000E+00  0.26828146331E+02  0.33463069056E+02  0.20000688865E+02 0.  0.
        -11    1    3    3    0    0  0.10241957227E+00 -0.99997190296E+01  0.13489233586E+02  0.16791792443E+02  0.51100000000E-03 0.  1.
         11    1    3    3    0    0 -0.10241957227E+00  0.99997190296E+01  0.13338912745E+02  0.16671276614E+02  0.51100000000E-03 0. -1.
<mgrwt>
<rscale>  0 0.20000689E+02</rscale>
<asrwt>0</asrwt>
<pdfrwt beam="2">  1        2 0.51037867E-03 0.20000689E+02</pdfrwt>
<pdfrwt beam="1">  1       -2 0.46377858E-02 0.20000689E+02</pdfrwt>
<totfact> 0.36043744E+06</totfact>
</mgrwt>
</event>
<event>
 5    1  0.4053846E-006  0.2000074E+02  0.7818608E-02  0.1745313E+00
          2   -1    0    0  501    0  0.00000000000E+00  0.00000000000E+00  0.77852583995E+02  0.77852584039E+02  0.26000000000E-02 0.  1.
         -2   -1    0    0    0  501 -0.00000000000E+00 -0.00000000000E+00 -0.12845726577E+01  0.12845752890E+01  0.26000000000E-02 0. -1.
       1023    2    1    2    0    0  0.00000000000E+00  0.00000000000E+00  0.76568011338E+02  0.79137159328E+02  0.20000740643E+02 0.  0.
        -11    1    3    3    0    0 -0.99958945931E+01  0.28994938365E+00  0.38575487836E+02  0.39850599010E+02  0.51100000000E-03 0. -1.
         11    1    3    3    0    0  0.99958945931E+01 -0.28994938365E+00  0.37992523501E+02  0.39286560318E+02  0.51100000000E-03 0.  1.
<mgrwt>
<rscale>  0 0.20000741E+02</rscale>
<asrwt>0</asrwt>
<pdfrwt beam="1">  1        2 0.11977319E-01 0.20000741E+02</pdfrwt>
<pdfrwt beam="2">  1       -2 0.19762679E-03 0.20000741E+02</pdfrwt>
<totfact> 0.50023898E+06</totfact>
</mgrwt>
</event>
<event>
 5    1  0.4046313E-006  0.2000064E+02  0.7818608E-02  0.1745315E+00
         -2   -1    0    0    0  501 -0.00000000000E+00  0.00000000000E+00  0.16566519626E+01  0.16566540029E+01  0.26000000000E-02 0.  1.
          2   -1    0    0  501    0  0.00000000000E+00 -0.00000000000E+00 -0.60366505812E+02  0.60366505868E+02  0.26000000000E-02 0. -1.
       1023    2    1    2    0    0  0.00000000000E+00  0.00000000000E+00 -0.58709853850E+02  0.62023159871E+02  0.20000635524E+02 0.  0.
        -11    1    3    3    0    0 -0.45969695253E+01  0.88811151598E+01 -0.29341134621E+02  0.30998524423E+02  0.51100000000E-03 0. -1.
         11    1    3    3    0    0  0.45969695253E+01 -0.88811151598E+01 -0.29368719229E+02  0.31024635448E+02  0.51100000000E-03 0.  1.
<mgrwt>
<rscale>  0 0.20000636E+02</rscale>
<asrwt>0</asrwt>
<pdfrwt beam="2">  1        2 0.92871532E-02 0.20000636E+02</pdfrwt>
<pdfrwt beam="1">  1       -2 0.25486974E-03 0.20000636E+02</pdfrwt>
<totfact> 0.47743621E+06</totfact>
</mgrwt>
</event>
<event>
 4    1  0.4046313E-006  0.2002028E+02  0.7818608E-02  0.1744925E+00
         -2   -1    0    0    0  501 -0.00000000000E+00  0.00000000000E+00  0.19659670286E+02  0.19659670458E+02  0.26000000000E-02 0. -1.
          2   -1    0    0  501    0  0.00000000000E+00 -0.00000000000E+00 -0.50968740021E+01  0.50968746653E+01  0.26000000000E-02 0.  1.
        -11    1    1    2    0    0  0.43117731403E+01 -0.90323604538E+01  0.70746666097E+01  0.12256664753E+02  0.51100000000E-03 0.  1.
         11    1    1    2    0    0 -0.43117731403E+01  0.90323604538E+01  0.74881296745E+01  0.12499880370E+02  0.51100000000E-03 0. -1.
<mgrwt>
<rscale>  0 0.20020277E+02</rscale>
<asrwt>0</asrwt>
<pdfrwt beam="2">  1        2 0.78413452E-03 0.20020277E+02</pdfrwt>
<pdfrwt beam="1">  1       -2 0.30245648E-02 0.20020277E+02</pdfrwt>
<totfact> 0.37405024E+06</totfact>
</mgrwt>
</event>
<event>
 5    1  0.4046313E-006  0.2000020E+02  0.7818608E-02  0.1745324E+00
         -2   -1    0    0    0  501 -0.00000000000E+00  0.00000000000E+00  0.82510806379E+02  0.82510806420E+02  0.26000000000E-02 0.  1.
          2   -1    0    0  501    0  0.00000000000E+00 -0.00000000000E+00 -0.12119851114E+01  0.12119879002E+01  0.26000000000E-02 0. -1.
       1023    2    1    2    0    0  0.00000000000E+00  0.00000000000E+00  0.81298821267E+02  0.83722794320E+02  0.20000198731E+02 0.  0.
        -11    1    3    3    0    0 -0.16700418247E+01 -0.98596616782E+01  0.40631187380E+02  0.41843701513E+02  0.51100000000E-03 0.  1.
         11    1    3    3    0    0  0.16700418247E+01  0.98596616782E+01  0.40667633887E+02  0.41879092807E+02  0.51100000000E-03 0. -1.
<mgrwt>
<rscale>  0 0.20000199E+02</rscale>
<asrwt>0</asrwt>
<pdfrwt beam="2">  1        2 0.18645945E-03 0.20000199E+02</pdfrwt>
<pdfrwt beam="1">  1       -2 0.12693971E-01 0.20000199E+02</pdfrwt>
<totfact> 0.31057081E+06</totfact>
</mgrwt>
</event>
<event>
 5    1  0.4046313E-006  0.2000079E+02  0.7818608E-02  0.1745312E+00
          2   -1    0    0  501    0  0.00000000000E+00  0.00000000000E+00  0.21082015371E+01  0.21082031403E+01  0.26000000000E-02 0.  1.
         -2   -1    0    0    0  501 -0.00000000000E+00 -0.00000000000E+00 -0.47437509572E+02  0.47437509643E+02  0.26000000000E-02 0. -1.
       1023    2    1    2    0    0  0.00000000000E+00  0.00000000000E+00 -0.45329308035E+02  0.49545712784E+02  0.20000787192E+02 0.  0.
        -11    1    3    3    0    0 -0.17099455382E+01  0.98531116594E+01 -0.22694861516E+02  0.24800493193E+02  0.51100000000E-03 0. -1.
         11    1    3    3    0    0  0.17099455382E+01 -0.98531116594E+01 -0.22634446519E+02  0.24745219591E+02  0.51100000000E-03 0.  1.
<mgrwt>
<rscale>  0 0.20000787E+02</rscale>
<asrwt>0</asrwt>
<pdfrwt beam="1">  1        2 0.32433886E-03 0.20000787E+02</pdfrwt>
<pdfrwt beam="2">  1       -2 0.72980777E-02 0.20000787E+02</pdfrwt>
<totfact> 0.34148511E+06</totfact>
</mgrwt>
</event>
<event>
 5    1  0.4046313E-006  0.2000069E+02  0.7818608E-02  0.1745314E+00
          2   -1    0    0  501    0  0.00000000000E+00  0.00000000000E+00  0.25579271266E+01  0.25579284480E+01  0.26000000000E-02 0.  1.
         -2   -1    0    0    0  501 -0.00000000000E+00 -0.00000000000E+00 -0.39096830857E+02  0.39096830944E+02  0.26000000000E-02 0. -1.
       1023    2    1    2    0    0  0.00000000000E+00  0.00000000000E+00 -0.36538903731E+02  0.41654759392E+02  0.20000687342E+02 0.  0.
        -11    1    3    3    0    0 -0.63425528178E+01  0.77316340283E+01 -0.18325810228E+02  0.20876816371E+02  0.51100000000E-03 0. -1.
         11    1    3    3    0    0  0.63425528178E+01 -0.77316340283E+01 -0.18213093502E+02  0.20777943021E+02  0.51100000000E-03 0.  1.
<mgrwt>
<rscale>  0 0.20000687E+02</rscale>
<asrwt>0</asrwt>
<pdfrwt beam="1">  1        2 0.39352739E-03 0.20000687E+02</pdfrwt>
<pdfrwt beam="2">  1       -2 0.60148967E-02 0.20000687E+02</pdfrwt>
<totfact> 0.35015263E+06</totfact>
</mgrwt>
</event>
<event>
 5    1  0.4046313E-006  0.2000090E+02  0.7818608E-02  0.1745310E+00
         -2   -1    0    0    0  501 -0.00000000000E+00  0.00000000000E+00  0.78567016135E+02  0.78567016178E+02  0.26000000000E-02 0.  1.
          2   -1    0    0  501    0  0.00000000000E+00 -0.00000000000E+00 -0.12729115998E+01  0.12729142551E+01  0.26000000000E-02 0. -1.
       1023    2    1    2    0    0  0.00000000000E+00  0.00000000000E+00  0.77294104535E+02  0.79839930433E+02  0.20000897371E+02 0.  0.
        -11    1    3    3    0    0  0.95639367515E+01 -0.29223130850E+01  0.38699662519E+02  0.39970897904E+02  0.51100000000E-03 0. -1.
         11    1    3    3    0    0 -0.95639367515E+01  0.29223130850E+01  0.38594442016E+02  0.39869032528E+02  0.51100000000E-03 0.  1.
<mgrwt>
<rscale>  0 0.20000897E+02</rscale>
<asrwt>0</asrwt>
<pdfrwt beam="2">  1        2 0.19583265E-03 0.20000897E+02</pdfrwt>
<pdfrwt beam="1">  1       -2 0.12087241E-01 0.20000897E+02</pdfrwt>
<totfact> 0.31370178E+06</totfact>
</mgrwt>
</event>
<event>
 5    1  0.4046313E-006  0.2000090E+02  0.7818608E-02  0.1745310E+00
         -2   -1    0    0    0  501 -0.00000000000E+00  0.00000000000E+00  0.27297043232E+02  0.27297043356E+02  0.26000000000E-02 0. -1.
          2   -1    0    0  501    0  0.00000000000E+00 -0.00000000000E+00 -0.36637281749E+01  0.36637290974E+01  0.26000000000E-02 0.  1.
       1023    2    1    2    0    0  0.00000000000E+00  0.00000000000E+00  0.23633315057E+02  0.30960772453E+02  0.20000896238E+02 0.  0.
        -11    1    3    3    0    0 -0.68626381951E+00  0.99766532424E+01  0.11714042621E+02  0.15402057094E+02  0.51100000000E-03 0.  1.
         11    1    3    3    0    0  0.68626381951E+00 -0.99766532424E+01  0.11919272436E+02  0.15558715359E+02  0.51100000000E-03 0. -1.
<mgrwt>
<rscale>  0 0.20000896E+02</rscale>
<asrwt>0</asrwt>
<pdfrwt beam="2">  1        2 0.56365058E-03 0.20000896E+02</pdfrwt>
<pdfrwt beam="1">  1       -2 0.41995451E-02 0.20000896E+02</pdfrwt>
<totfact> 0.36401495E+06</totfact>
</mgrwt>
</event>
<event>
 5    1  0.4046313E-006  0.2000195E+02  0.7818608E-02  0.1745289E+00
         -2   -1    0    0    0  501 -0.00000000000E+00  0.00000000000E+00  0.84619575055E+00  0.84619974489E+00  0.26000000000E-02 0.  1.
          2   -1    0    0  501    0  0.00000000000E+00 -0.00000000000E+00 -0.11819876367E+03  0.11819876370E+03  0.26000000000E-02 0. -1.
       1023    2    1    2    0    0  0.00000000000E+00  0.00000000000E+00 -0.11735256792E+03  0.11904496344E+03  0.20001953004E+02 0.  0.
        -11    1    3    3    0    0  0.99935021860E+01  0.38274553809E+00 -0.58999577313E+02  0.59841178995E+02  0.51100000000E-03 0.  1.
         11    1    3    3    0    0 -0.99935021860E+01 -0.38274553809E+00 -0.58352990603E+02  0.59203784446E+02  0.51100000000E-03 0. -1.
<mgrwt>
<rscale>  0 0.20001953E+02</rscale>
<asrwt>0</asrwt>
<pdfrwt beam="2">  1        2 0.18184412E-01 0.20001953E+02</pdfrwt>
<pdfrwt beam="1">  1       -2 0.13018436E-03 0.20001953E+02</pdfrwt>
<totfact> 0.54874843E+06</totfact>
</mgrwt>
</event>
<event>
 4    1  0.4046313E-006  0.2002808E+02  0.7818608E-02  0.1744770E+00
         -2   -1    0    0    0  501 -0.00000000000E+00  0.00000000000E+00  0.55683470182E+01  0.55683476252E+01  0.26000000000E-02 0.  1.
          2   -1    0    0  501    0  0.00000000000E+00 -0.00000000000E+00 -0.18009119483E+02  0.18009119670E+02  0.26000000000E-02 0. -1.
        -11    1    1    2    0    0  0.99478153862E+01  0.10709817489E+01 -0.67128570626E+01  0.12048588426E+02  0.51100000000E-03 0.  1.
         11    1    1    2    0    0 -0.99478153862E+01 -0.10709817489E+01 -0.57279154018E+01  0.11528878869E+02  0.51100000000E-03 0. -1.
<mgrwt>
<rscale>  0 0.20028084E+02</rscale>
<asrwt>0</asrwt>
<pdfrwt beam="2">  1        2 0.27706338E-02 0.20028084E+02</pdfrwt>
<pdfrwt beam="1">  1       -2 0.85666884E-03 0.20028084E+02</pdfrwt>
<totfact> 0.41171202E+06</totfact>
</mgrwt>
</event>
<event>
 5    1  0.4046313E-006  0.2000184E+02  0.7818608E-02  0.1745292E+00
          2   -1    0    0  501    0  0.00000000000E+00  0.00000000000E+00  0.17271791421E+01  0.17271810990E+01  0.26000000000E-02 0.  1.
         -2   -1    0    0    0  501 -0.00000000000E+00 -0.00000000000E+00 -0.57908490242E+02  0.57908490300E+02  0.26000000000E-02 0. -1.
       1023    2    1    2    0    0  0.00000000000E+00  0.00000000000E+00 -0.56181311100E+02  0.59635671399E+02  0.20001839574E+02 0.  0.
        -11    1    3    3    0    0 -0.14229484615E-01  0.10000275658E+02 -0.28426397990E+02  0.30134130462E+02  0.51100000000E-03 0. -1.
         11    1    3    3    0    0  0.14229484615E-01 -0.10000275658E+02 -0.27754913110E+02  0.29501540938E+02  0.51100000000E-03 0.  1.
<mgrwt>
<rscale>  0 0.20001840E+02</rscale>
<asrwt>0</asrwt>
<pdfrwt beam="1">  1        2 0.26572007E-03 0.20001840E+02</pdfrwt>
<pdfrwt beam="2">  1       -2 0.89089972E-02 0.20001840E+02</pdfrwt>
<totfact> 0.33144224E+06</totfact>
</mgrwt>
</event>
<event>
 5    1  0.4046313E-006  0.2000391E+02  0.7818608E-02  0.1745250E+00
          2   -1    0    0  501    0  0.00000000000E+00  0.00000000000E+00  0.64287701515E+02  0.64287701568E+02  0.26000000000E-02 0. -1.
         -2   -1    0    0    0  501 -0.00000000000E+00 -0.00000000000E+00 -0.15561142878E+01  0.15561164599E+01  0.26000000000E-02 0.  1.
       1023    2    1    2    0    0  0.00000000000E+00  0.00000000000E+00  0.62731587227E+02  0.65843818028E+02  0.20003908028E+02 0.  0.
        -11    1    3    3    0    0 -0.59825009195E+01 -0.80141722250E+01  0.30879689453E+02  0.32458781472E+02  0.51100000000E-03 0. -1.
         11    1    3    3    0    0  0.59825009195E+01  0.80141722250E+01  0.31851897774E+02  0.33385036555E+02  0.51100000000E-03 0.  1.
<mgrwt>
<rscale>  0 0.20003908E+02</rscale>
<asrwt>0</asrwt>
<pdfrwt beam="1">  1        2 0.98904158E-02 0.20003908E+02</pdfrwt>
<pdfrwt beam="2">  1       -2 0.23940237E-03 0.20003908E+02</pdfrwt>
<totfact> 0.48249156E+06</totfact>
</mgrwt>
</event>
<event>
 5    1  0.4046313E-006  0.2000210E+02  0.7818608E-02  0.1745286E+00
          2   -1    0    0  501    0  0.00000000000E+00  0.00000000000E+00  0.58065042521E+01  0.58065048343E+01  0.26000000000E-02 0.  1.
         -2   -1    0    0    0  501 -0.00000000000E+00 -0.00000000000E+00 -0.17225675691E+02  0.17225675887E+02  0.26000000000E-02 0. -1.
       1023    2    1    2    0    0  0.00000000000E+00  0.00000000000E+00 -0.11419171439E+02  0.23032180721E+02  0.20002096701E+02 0.  0.
        -11    1    3    3    0    0 -0.93381925401E+01  0.35800362943E+01 -0.56523802314E+01  0.11487728336E+02  0.51100000000E-03 0. -1.
         11    1    3    3    0    0  0.93381925401E+01 -0.35800362943E+01 -0.57667912074E+01  0.11544452385E+02  0.51100000000E-03 0.  1.
<mgrwt>
<rscale>  0 0.20002097E+02</rscale>
<asrwt>0</asrwt>
<pdfrwt beam="1">  1        2 0.89330841E-03 0.20002097E+02</pdfrwt>
<pdfrwt beam="2">  1       -2 0.26501040E-02 0.20002097E+02</pdfrwt>
<totfact> 0.37881150E+06</totfact>
</mgrwt>
</event>
<event>
 5    1  0.4046313E-006  0.2000021E+02  0.7818608E-02  0.1745324E+00
          2   -1    0    0  501    0  0.00000000000E+00  0.00000000000E+00  0.78505447247E+02  0.78505447290E+02  0.26000000000E-02 0. -1.
         -2   -1    0    0    0  501 -0.00000000000E+00 -0.00000000000E+00 -0.12738223086E+01  0.12738249620E+01  0.26000000000E-02 0.  1.
       1023    2    1    2    0    0  0.00000000000E+00  0.00000000000E+00  0.77231624939E+02  0.79779272252E+02  0.20000209760E+02 0.  0.
        -11    1    3    3    0    0 -0.90602527135E+01 -0.42323793561E+01  0.38734351700E+02  0.40004389960E+02  0.51100000000E-03 0. -1.
         11    1    3    3    0    0  0.90602527135E+01  0.42323793561E+01  0.38497273239E+02  0.39774882292E+02  0.51100000000E-03 0.  1.
<mgrwt>
<rscale>  0 0.20000210E+02</rscale>
<asrwt>0</asrwt>
<pdfrwt beam="1">  1        2 0.12077763E-01 0.20000210E+02</pdfrwt>
<pdfrwt beam="2">  1       -2 0.19597285E-03 0.20000210E+02</pdfrwt>
<totfact> 0.50109586E+06</totfact>
</mgrwt>
</event>
<event>
 5    1  0.4046313E-006  0.2000049E+02  0.7818608E-02  0.1745318E+00
          2   -1    0    0  501    0  0.00000000000E+00  0.00000000000E+00  0.44020323333E+02  0.44020323410E+02  0.26000000000E-02 0.  1.
         -2   -1    0    0    0  501 -0.00000000000E+00 -0.00000000000E+00 -0.22717890969E+01  0.22717905847E+01  0.26000000000E-02 0. -1.
       1023    2    1    2    0    0  0.00000000000E+00  0.00000000000E+00  0.41748534236E+02  0.46292113994E+02  0.20000492674E+02 0.  0.
        -11    1    3    3    0    0  0.34068192586E+01  0.94019902929E+01  0.20797935637E+02  0.23077217465E+02  0.51100000000E-03 0. -1.
         11    1    3    3    0    0 -0.34068192586E+01 -0.94019902929E+01  0.20950598599E+02  0.23214896529E+02  0.51100000000E-03 0.  1.
<mgrwt>
<rscale>  0 0.20000493E+02</rscale>
<asrwt>0</asrwt>
<pdfrwt beam="1">  1        2 0.67723573E-02 0.20000493E+02</pdfrwt>
<pdfrwt beam="2">  1       -2 0.34950615E-03 0.20000493E+02</pdfrwt>
<totfact> 0.45478302E+06</totfact>
</mgrwt>
</event>
<event>
 5    1  0.4046313E-006  0.2000022E+02  0.7818608E-02  0.1745324E+00
         -2   -1    0    0    0  501 -0.00000000000E+00  0.00000000000E+00  0.22217704290E+01  0.22217719503E+01  0.26000000000E-02 0.  1.
          2   -1    0    0  501    0  0.00000000000E+00 -0.00000000000E+00 -0.45010120037E+02  0.45010120113E+02  0.26000000000E-02 0. -1.
       1023    2    1    2    0    0  0.00000000000E+00  0.00000000000E+00 -0.42788349608E+02  0.47231892063E+02  0.20000219139E+02 0.  0.
        -11    1    3    3    0    0 -0.12218682120E+01  0.99251247990E+01 -0.21473452505E+02  0.23687765343E+02  0.51100000000E-03 0. -1.
         11    1    3    3    0    0  0.12218682120E+01 -0.99251247990E+01 -0.21314897103E+02  0.23544126720E+02  0.51100000000E-03 0.  1.
<mgrwt>
<rscale>  0 0.20000219E+02</rscale>
<asrwt>0</asrwt>
<pdfrwt beam="2">  1        2 0.69246333E-02 0.20000219E+02</pdfrwt>
<pdfrwt beam="1">  1       -2 0.34181099E-03 0.20000219E+02</pdfrwt>
<totfact> 0.45621648E+06</totfact>
</mgrwt>
</event>
<event>
 5    1  0.4046313E-006  0.2000276E+02  0.7818608E-02  0.1745273E+00
         -2   -1    0    0    0  501 -0.00000000000E+00  0.00000000000E+00  0.42821438493E+02  0.42821438572E+02  0.26000000000E-02 0.  1.
          2   -1    0    0  501    0  0.00000000000E+00 -0.00000000000E+00 -0.23359232681E+01  0.23359247150E+01  0.26000000000E-02 0. -1.
       1023    2    1    2    0    0  0.00000000000E+00  0.00000000000E+00  0.40485515225E+02  0.45157363287E+02  0.20002762709E+02 0.  0.
        -11    1    3    3    0    0 -0.88962592538E+01 -0.45670444308E+01  0.19876607326E+02  0.22250412189E+02  0.51100000000E-03 0. -1.
         11    1    3    3    0    0  0.88962592538E+01  0.45670444308E+01  0.20608907899E+02  0.22906951098E+02  0.51100000000E-03 0.  1.
<mgrwt>
<rscale>  0 0.20002763E+02</rscale>
<asrwt>0</asrwt>
<pdfrwt beam="2">  1        2 0.35937293E-03 0.20002763E+02</pdfrwt>
<pdfrwt beam="1">  1       -2 0.65879138E-02 0.20002763E+02</pdfrwt>
<totfact> 0.34611560E+06</totfact>
</mgrwt>
</event>
<event>
 5    1  0.4046313E-006  0.2000180E+02  0.7818608E-02  0.1745292E+00
         -2   -1    0    0    0  501 -0.00000000000E+00  0.00000000000E+00  0.24396915519E+02  0.24396915657E+02  0.26000000000E-02 0.  1.
          2   -1    0    0  501    0  0.00000000000E+00 -0.00000000000E+00 -0.40996180813E+01  0.40996189057E+01  0.26000000000E-02 0. -1.
       1023    2    1    2    0    0  0.00000000000E+00  0.00000000000E+00  0.20297297438E+02  0.28496534563E+02  0.20001804890E+02 0.  0.
        -11    1    3    3    0    0  0.64673427228E+00  0.99799292091E+01  0.10108422465E+02  0.14219615228E+02  0.51100000000E-03 0.  1.
         11    1    3    3    0    0 -0.64673427228E+00 -0.99799292091E+01  0.10188874973E+02  0.14276919335E+02  0.51100000000E-03 0. -1.
<mgrwt>
<rscale>  0 0.20001805E+02</rscale>
<asrwt>0</asrwt>
<pdfrwt beam="2">  1        2 0.63071054E-03 0.20001805E+02</pdfrwt>
<pdfrwt beam="1">  1       -2 0.37533718E-02 0.20001805E+02</pdfrwt>
<totfact> 0.36784134E+06</totfact>
</mgrwt>
</event>
<event>
 5    1  0.4046313E-006  0.2000038E+02  0.7818608E-02  0.1745321E+00
         -2   -1    0    0    0  501 -0.00000000000E+00  0.00000000000E+00  0.19003505722E+01  0.19003523508E+01  0.26000000000E-02 0. -1.
          2   -1    0    0  501    0  0.00000000000E+00 -0.00000000000E+00 -0.52623831636E+02  0.52623831700E+02  0.26000000000E-02 0.  1.
       1023    2    1    2    0    0  0.00000000000E+00  0.00000000000E+00 -0.50723481064E+02  0.54524184051E+02  0.20000377877E+02 0.  0.
        -11    1    3    3    0    0  0.56875734768E+01  0.82252367721E+01 -0.25437217659E+02  0.27332307888E+02  0.51100000000E-03 0. -1.
         11    1    3    3    0    0 -0.56875734768E+01 -0.82252367721E+01 -0.25286263405E+02  0.27191876163E+02  0.51100000000E-03 0.  1.
<mgrwt>
<rscale>  0 0.20000378E+02</rscale>
<asrwt>0</asrwt>
<pdfrwt beam="2">  1        2 0.80959731E-02 0.20000378E+02</pdfrwt>
<pdfrwt beam="1">  1       -2 0.29236181E-03 0.20000378E+02</pdfrwt>
<totfact> 0.46690736E+06</totfact>
</mgrwt>
</event>
<event>
 5    1  0.4046313E-006  0.2000072E+02  0.7818608E-02  0.1745314E+00
         -2   -1    0    0    0  501 -0.00000000000E+00  0.00000000000E+00  0.27643204690E+02  0.27643204813E+02  0.26000000000E-02 0.  1.
          2   -1    0    0  501    0  0.00000000000E+00 -0.00000000000E+00 -0.36177867459E+01  0.36177876801E+01  0.26000000000E-02 0. -1.
       1023    2    1    2    0    0  0.00000000000E+00  0.00000000000E+00  0.24025417944E+02  0.31260992493E+02  0.20000723593E+02 0.  0.
        -11    1    3    3    0    0 -0.92790592405E+01  0.37291139436E+01  0.12016062453E+02  0.15633073541E+02  0.51100000000E-03 0.  1.
         11    1    3    3    0    0  0.92790592405E+01 -0.37291139436E+01  0.12009355492E+02  0.15627918952E+02  0.51100000000E-03 0. -1.
<mgrwt>
<rscale>  0 0.20000724E+02</rscale>
<asrwt>0</asrwt>
<pdfrwt beam="2">  1        2 0.55658266E-03 0.20000724E+02</pdfrwt>
<pdfrwt beam="1">  1       -2 0.42528008E-02 0.20000724E+02</pdfrwt>
<totfact> 0.36357604E+06</totfact>
</mgrwt>
</event>
<event>
 5    1  0.4274445E-006  0.2000089E+02  0.7818608E-02  0.1745310E+00
          2   -1    0    0  501    0  0.00000000000E+00  0.00000000000E+00  0.10135946657E+03  0.10135946661E+03  0.26000000000E-02 0. -1.
         -2   -1    0    0    0  501 -0.00000000000E+00 -0.00000000000E+00 -0.98667422145E+00  0.98667764709E+00  0.26000000000E-02 0.  1.
       1023    2    1    2    0    0  0.00000000000E+00  0.00000000000E+00  0.10037279235E+03  0.10234614425E+03  0.20000894958E+02 0.  0.
        -11    1    3    3    0    0 -0.96581616752E+01  0.25927683278E+01  0.49776551479E+02  0.50771129709E+02  0.51100000000E-03 0.  1.
         11    1    3    3    0    0  0.96581616752E+01 -0.25927683278E+01  0.50596240874E+02  0.51575014545E+02  0.51100000000E-03 0. -1.
<mgrwt>
<rscale>  0 0.20000895E+02</rscale>
<asrwt>0</asrwt>
<pdfrwt beam="1">  1        2 0.15593753E-01 0.20000895E+02</pdfrwt>
<pdfrwt beam="2">  1       -2 0.15179641E-03 0.20000895E+02</pdfrwt>
<totfact> 0.52915237E+06</totfact>
</mgrwt>
</event>
<event>
 5    1  0.4046313E-006  0.2000033E+02  0.7818608E-02  0.1745322E+00
         -2   -1    0    0    0  501 -0.00000000000E+00  0.00000000000E+00  0.20000986833E+01  0.20001003732E+01  0.26000000000E-02 0.  1.
          2   -1    0    0  501    0  0.00000000000E+00 -0.00000000000E+00 -0.49999150385E+02  0.49999150453E+02  0.26000000000E-02 0. -1.
       1023    2    1    2    0    0  0.00000000000E+00  0.00000000000E+00 -0.47999051702E+02  0.51999250826E+02  0.20000328052E+02 0.  0.
        -11    1    3    3    0    0 -0.99938240905E+01 -0.35469852328E+00 -0.23919420848E+02  0.25925682728E+02  0.51100000000E-03 0.  1.
         11    1    3    3    0    0  0.99938240905E+01  0.35469852328E+00 -0.24079630855E+02  0.26073568098E+02  0.51100000000E-03 0. -1.
<mgrwt>
<rscale>  0 0.20000328E+02</rscale>
<asrwt>0</asrwt>
<pdfrwt beam="2">  1        2 0.76921762E-02 0.20000328E+02</pdfrwt>
<pdfrwt beam="1">  1       -2 0.30770766E-03 0.20000328E+02</pdfrwt>
<totfact> 0.46326299E+06</totfact>
</mgrwt>
</event>
<event>
 5    1  0.4046313E-006  0.2000037E+02  0.7818608E-02  0.1745321E+00
          2   -1    0    0  501    0  0.00000000000E+00  0.00000000000E+00  0.43539322690E+02  0.43539322767E+02  0.26000000000E-02 0.  1.
         -2   -1    0    0    0  501 -0.00000000000E+00 -0.00000000000E+00 -0.22968579019E+01  0.22968593734E+01  0.26000000000E-02 0. -1.
       1023    2    1    2    0    0  0.00000000000E+00  0.00000000000E+00  0.41242464788E+02  0.45836182141E+02  0.20000367283E+02 0.  0.
        -11    1    3    3    0    0 -0.99855420272E+01  0.54056574836E+00  0.20574731565E+02  0.22876250570E+02  0.51100000000E-03 0.  1.
         11    1    3    3    0    0  0.99855420272E+01 -0.54056574836E+00  0.20667733223E+02  0.22959931571E+02  0.51100000000E-03 0. -1.
<mgrwt>
<rscale>  0 0.20000367E+02</rscale>
<asrwt>0</asrwt>
<pdfrwt beam="1">  1        2 0.66983568E-02 0.20000367E+02</pdfrwt>
<pdfrwt beam="2">  1       -2 0.35336291E-03 0.20000367E+02</pdfrwt>
<totfact> 0.45409689E+06</totfact>
</mgrwt>
</event>
<event>
 5    1  0.4046313E-006  0.2000064E+02  0.7818608E-02  0.1745315E+00
         -2   -1    0    0    0  501 -0.00000000000E+00  0.00000000000E+00  0.31787274793E+01  0.31787285426E+01  0.26000000000E-02 0.  1.
          2   -1    0    0  501    0  0.00000000000E+00 -0.00000000000E+00 -0.31461141404E+02  0.31461141511E+02  0.26000000000E-02 0. -1.
       1023    2    1    2    0    0  0.00000000000E+00  0.00000000000E+00 -0.28282413924E+02  0.34639870054E+02  0.20000641488E+02 0.  0.
        -11    1    3    3    0    0 -0.86766027096E+00  0.99626074167E+01 -0.14131132074E+02  0.17311709183E+02  0.51100000000E-03 0. -1.
         11    1    3    3    0    0  0.86766027096E+00 -0.99626074167E+01 -0.14151281850E+02  0.17328160871E+02  0.51100000000E-03 0.  1.
<mgrwt>
<rscale>  0 0.20000641E+02</rscale>
<asrwt>0</asrwt>
<pdfrwt beam="2">  1        2 0.48401755E-02 0.20000641E+02</pdfrwt>
<pdfrwt beam="1">  1       -2 0.48903511E-03 0.20000641E+02</pdfrwt>
<totfact> 0.43600330E+06</totfact>
</mgrwt>
</event>
<event>
 5    1  0.4046313E-006  0.2000096E+02  0.7818608E-02  0.1745309E+00
          2   -1    0    0  501    0  0.00000000000E+00  0.00000000000E+00  0.86208942585E+01  0.86208946506E+01  0.26000000000E-02 0.  1.
         -2   -1    0    0    0  501 -0.00000000000E+00 -0.00000000000E+00 -0.11600833380E+02  0.11600833672E+02  0.26000000000E-02 0. -1.
       1023    2    1    2    0    0  0.00000000000E+00  0.00000000000E+00 -0.29799391220E+01  0.20221728322E+02  0.20000956456E+02 0.  0.
        -11    1    3    3    0    0  0.78107627650E+01  0.62450669275E+01 -0.14634380789E+01  0.10106954396E+02  0.51100000000E-03 0. -1.
         11    1    3    3    0    0 -0.78107627650E+01 -0.62450669275E+01 -0.15165010430E+01  0.10114773926E+02  0.51100000000E-03 0.  1.
<mgrwt>
<rscale>  0 0.20000956E+02</rscale>
<asrwt>0</asrwt>
<pdfrwt beam="1">  1        2 0.13262915E-02 0.20000956E+02</pdfrwt>
<pdfrwt beam="2">  1       -2 0.17847437E-02 0.20000956E+02</pdfrwt>
<totfact> 0.39032622E+06</totfact>
</mgrwt>
</event>
<event>
 5    1  0.4236611E-006  0.2000094E+02  0.7818608E-02  0.1745309E+00
         -2   -1    0    0    0  501 -0.00000000000E+00  0.00000000000E+00  0.23120516524E+01  0.23120531143E+01  0.26000000000E-02 0. -1.
          2   -1    0    0  501    0  0.00000000000E+00 -0.00000000000E+00 -0.43255678256E+02  0.43255678334E+02  0.26000000000E-02 0.  1.
       1023    2    1    2    0    0  0.00000000000E+00  0.00000000000E+00 -0.40943626604E+02  0.45567731448E+02  0.20000939725E+02 0.  0.
        -11    1    3    3    0    0 -0.76977211729E+01 -0.63832774585E+01 -0.20678809099E+02  0.22969856081E+02  0.51100000000E-03 0.  1.
         11    1    3    3    0    0  0.76977211729E+01  0.63832774585E+01 -0.20264817505E+02  0.22597875368E+02  0.51100000000E-03 0. -1.
<mgrwt>
<rscale>  0 0.20000940E+02</rscale>
<asrwt>0</asrwt>
<pdfrwt beam="2">  1        2 0.66547192E-02 0.20000940E+02</pdfrwt>
<pdfrwt beam="1">  1       -2 0.35570040E-03 0.20000940E+02</pdfrwt>
<totfact> 0.45365873E+06</totfact>
</mgrwt>
</event>
<event>
 5    1  0.4046313E-006  0.2000072E+02  0.7818608E-02  0.1745314E+00
          2   -1    0    0  501    0  0.00000000000E+00  0.00000000000E+00  0.14246030851E+01  0.14246054577E+01  0.26000000000E-02 0. -1.
         -2   -1    0    0    0  501 -0.00000000000E+00 -0.00000000000E+00 -0.70199992623E+02  0.70199992671E+02  0.26000000000E-02 0.  1.
       1023    2    1    2    0    0  0.00000000000E+00  0.00000000000E+00 -0.68775389538E+02  0.71624598129E+02  0.20000721263E+02 0.  0.
        -11    1    3    3    0    0 -0.72731746725E+01  0.68633787972E+01 -0.34554674071E+02  0.35972635972E+02  0.51100000000E-03 0. -1.
         11    1    3    3    0    0  0.72731746725E+01 -0.68633787972E+01 -0.34220715467E+02  0.35651962157E+02  0.51100000000E-03 0.  1.
<mgrwt>
<rscale>  0 0.20000721E+02</rscale>
<asrwt>0</asrwt>
<pdfrwt beam="1">  1        2 0.21916995E-03 0.20000721E+02</pdfrwt>
<pdfrwt beam="2">  1       -2 0.10799996E-01 0.20000721E+02</pdfrwt>
<totfact> 0.32063730E+06</totfact>
</mgrwt>
</event>
<event>
 5    1  0.4046313E-006  0.2000132E+02  0.7818608E-02  0.1745302E+00
         -2   -1    0    0    0  501 -0.00000000000E+00  0.00000000000E+00  0.23058438476E+01  0.23058453135E+01  0.26000000000E-02 0.  1.
          2   -1    0    0  501    0  0.00000000000E+00 -0.00000000000E+00 -0.43373759293E+02  0.43373759371E+02  0.26000000000E-02 0. -1.
       1023    2    1    2    0    0  0.00000000000E+00  0.00000000000E+00 -0.41067915446E+02  0.45679604685E+02  0.20001315084E+02 0.  0.
        -11    1    3    3    0    0  0.98054189699E+01  0.19657505072E+01 -0.20414524511E+02  0.22732426784E+02  0.51100000000E-03 0. -1.
         11    1    3    3    0    0 -0.98054189699E+01 -0.19657505072E+01 -0.20653390935E+02  0.22947177900E+02  0.51100000000E-03 0.  1.
<mgrwt>
<rscale>  0 0.20001315E+02</rscale>
<asrwt>0</asrwt>
<pdfrwt beam="2">  1        2 0.66728856E-02 0.20001315E+02</pdfrwt>
<pdfrwt beam="1">  1       -2 0.35474536E-03 0.20001315E+02</pdfrwt>
<totfact> 0.45381014E+06</totfact>
</mgrwt>
</event>
<event>
 4    1  0.4046313E-006  0.2003221E+02  0.7818608E-02  0.1744688E+00
         -2   -1    0    0    0  501 -0.00000000000E+00  0.00000000000E+00  0.10592257896E+01  0.10592289806E+01  0.26000000000E-02 0. -1.
          2   -1    0    0  501    0  0.00000000000E+00 -0.00000000000E+00 -0.94712761144E+02  0.94712761180E+02  0.26000000000E-02 0.  1.
        -11    1    1    2    0    0 -0.90625830262E+01 -0.42560374922E+01 -0.48162746681E+02  0.49192422530E+02  0.51100000000E-03 0. -1.
         11    1    1    2    0    0  0.90625830262E+01  0.42560374922E+01 -0.45490788673E+02  0.46579567630E+02  0.51100000000E-03 0.  1.
<mgrwt>
<rscale>  0 0.20032209E+02</rscale>
<asrwt>0</asrwt>
<pdfrwt beam="2">  1        2 0.14571188E-01 0.20032209E+02</pdfrwt>
<pdfrwt beam="1">  1       -2 0.16295814E-03 0.20032209E+02</pdfrwt>
<totfact> 0.51935543E+06</totfact>
</mgrwt>
</event>
<event>
 5    1  0.4046313E-006  0.2000098E+02  0.7818608E-02  0.1745309E+00
         -2   -1    0    0    0  501 -0.00000000000E+00  0.00000000000E+00  0.20607537983E+02  0.20607538147E+02  0.26000000000E-02 0. -1.
          2   -1    0    0  501    0  0.00000000000E+00 -0.00000000000E+00 -0.48530665387E+01  0.48530672352E+01  0.26000000000E-02 0.  1.
       1023    2    1    2    0    0  0.00000000000E+00  0.00000000000E+00  0.15754471444E+02  0.25460605382E+02  0.20000976375E+02 0.  0.
        -11    1    3    3    0    0 -0.10740717827E+01  0.99426046771E+01  0.78424725961E+01  0.12708792021E+02  0.51100000000E-03 0. -1.
         11    1    3    3    0    0  0.10740717827E+01 -0.99426046771E+01  0.79119988484E+01  0.12751813361E+02  0.51100000000E-03 0.  1.
<mgrwt>
<rscale>  0 0.20000976E+02</rscale>
<asrwt>0</asrwt>
<pdfrwt beam="2">  1        2 0.74662569E-03 0.20000976E+02</pdfrwt>
<pdfrwt beam="1">  1       -2 0.31703905E-02 0.20000976E+02</pdfrwt>
<totfact> 0.37336071E+06</totfact>
</mgrwt>
</event>
<event>
 5    1  0.4046313E-006  0.2000126E+02  0.7818608E-02  0.1745303E+00
          2   -1    0    0  501    0  0.00000000000E+00  0.00000000000E+00  0.66903303372E+01  0.66903308424E+01  0.26000000000E-02 0. -1.
         -2   -1    0    0    0  501 -0.00000000000E+00 -0.00000000000E+00 -0.14948819826E+02  0.14948820052E+02  0.26000000000E-02 0.  1.
       1023    2    1    2    0    0  0.00000000000E+00  0.00000000000E+00 -0.82584894892E+01  0.21639150895E+02  0.20001255031E+02 0.  0.
        -11    1    3    3    0    0  0.40422042337E+01 -0.91466170063E+01 -0.42503618615E+01  0.10865799278E+02  0.51100000000E-03 0.  1.
         11    1    3    3    0    0 -0.40422042337E+01  0.91466170063E+01 -0.40081276276E+01  0.10773351617E+02  0.51100000000E-03 0. -1.
<mgrwt>
<rscale>  0 0.20001255E+02</rscale>
<asrwt>0</asrwt>
<pdfrwt beam="1">  1        2 0.10292817E-02 0.20001255E+02</pdfrwt>
<pdfrwt beam="2">  1       -2 0.22998185E-02 0.20001255E+02</pdfrwt>
<totfact> 0.38302396E+06</totfact>
</mgrwt>
</event>
<event>
 5    1  0.4046313E-006  0.2000445E+02  0.7818608E-02  0.1745240E+00
          2   -1    0    0  501    0  0.00000000000E+00  0.00000000000E+00  0.30597291625E+01  0.30597302672E+01  0.26000000000E-02 0.  1.
         -2   -1    0    0    0  501 -0.00000000000E+00 -0.00000000000E+00 -0.32697181886E+02  0.32697181990E+02  0.26000000000E-02 0. -1.
       1023    2    1    2    0    0  0.00000000000E+00  0.00000000000E+00 -0.29637452724E+02  0.35756912257E+02  0.20004453759E+02 0.  0.
        -11    1    3    3    0    0 -0.78116644711E+01  0.62465960995E+01 -0.14729754411E+02  0.17804710891E+02  0.51100000000E-03 0. -1.
         11    1    3    3    0    0  0.78116644711E+01 -0.62465960995E+01 -0.14907698312E+02  0.17952201366E+02  0.51100000000E-03 0.  1.
<mgrwt>
<rscale>  0 0.20004454E+02</rscale>
<asrwt>0</asrwt>
<pdfrwt beam="1">  1        2 0.47072768E-03 0.20004454E+02</pdfrwt>
<pdfrwt beam="2">  1       -2 0.50303355E-02 0.20004454E+02</pdfrwt>
<totfact> 0.35722393E+06</totfact>
</mgrwt>
</event>
<event>
 5    1  0.4046313E-006  0.2000032E+02  0.7818608E-02  0.1745322E+00
          2   -1    0    0  501    0  0.00000000000E+00  0.00000000000E+00  0.69685132023E+01  0.69685136874E+01  0.26000000000E-02 0. -1.
         -2   -1    0    0    0  501 -0.00000000000E+00 -0.00000000000E+00 -0.14350716739E+02  0.14350716975E+02  0.26000000000E-02 0.  1.
       1023    2    1    2    0    0  0.00000000000E+00  0.00000000000E+00 -0.73822035369E+01  0.21319230662E+02  0.20000316672E+02 0.  0.
        -11    1    3    3    0    0  0.19630405561E+01 -0.98055335078E+01 -0.37272635977E+01  0.10672137077E+02  0.51100000000E-03 0.  1.
         11    1    3    3    0    0 -0.19630405561E+01  0.98055335078E+01 -0.36549399392E+01  0.10647093585E+02  0.51100000000E-03 0. -1.
<mgrwt>
<rscale>  0 0.20000317E+02</rscale>
<asrwt>0</asrwt>
<pdfrwt beam="1">  1        2 0.10720790E-02 0.20000317E+02</pdfrwt>
<pdfrwt beam="2">  1       -2 0.22078026E-02 0.20000317E+02</pdfrwt>
<totfact> 0.38424753E+06</totfact>
</mgrwt>
</event>
<event>
 5    1  0.4046313E-006  0.2000052E+02  0.7818608E-02  0.1745318E+00
          2   -1    0    0  501    0  0.00000000000E+00  0.00000000000E+00  0.23780952974E+02  0.23780953116E+02  0.26000000000E-02 0. -1.
         -2   -1    0    0    0  501 -0.00000000000E+00 -0.00000000000E+00 -0.42052629145E+01  0.42052637182E+01  0.26000000000E-02 0.  1.
       1023    2    1    2    0    0  0.00000000000E+00  0.00000000000E+00  0.19575690059E+02  0.27986216834E+02  0.20000517278E+02 0.  0.
        -11    1    3    3    0    0 -0.91002480668E+01 -0.41456836481E+01  0.96997373774E+01  0.13931479219E+02  0.51100000000E-03 0. -1.
         11    1    3    3    0    0  0.91002480668E+01  0.41456836481E+01  0.98759526820E+01  0.14054737615E+02  0.51100000000E-03 0.  1.
<mgrwt>
<rscale>  0 0.20000517E+02</rscale>
<asrwt>0</asrwt>
<pdfrwt beam="1">  1        2 0.36586082E-02 0.20000517E+02</pdfrwt>
<pdfrwt beam="2">  1       -2 0.64696360E-03 0.20000517E+02</pdfrwt>
<totfact> 0.42346781E+06</totfact>
</mgrwt>
</event>
<event>
 5    1  0.4046313E-006  0.2000064E+02  0.7818608E-02  0.1745315E+00
          2   -1    0    0  501    0  0.00000000000E+00  0.00000000000E+00  0.16509989957E+02  0.16509990161E+02  0.26000000000E-02 0. -1.
         -2   -1    0    0    0  501 -0.00000000000E+00 -0.00000000000E+00 -0.60573280105E+01  0.60573285685E+01  0.26000000000E-02 0.  1.
       1023    2    1    2    0    0  0.00000000000E+00  0.00000000000E+00  0.10452661946E+02  0.22567318730E+02  0.20000643312E+02 0.  0.
        -11    1    3    3    0    0  0.78379994994E+01 -0.62103831992E+01  0.52915141302E+01  0.11313850701E+02  0.51100000000E-03 0. -1.
         11    1    3    3    0    0 -0.78379994994E+01  0.62103831992E+01  0.51611478159E+01  0.11253468029E+02  0.51100000000E-03 0.  1.
<mgrwt>
<rscale>  0 0.20000643E+02</rscale>
<asrwt>0</asrwt>
<pdfrwt beam="1">  1        2 0.25399985E-02 0.20000643E+02</pdfrwt>
<pdfrwt beam="2">  1       -2 0.93189668E-03 0.20000643E+02</pdfrwt>
<totfact> 0.41001505E+06</totfact>
</mgrwt>
</event>
<event>
 5    1  0.4046313E-006  0.2000061E+02  0.7818608E-02  0.1745316E+00
         -2   -1    0    0    0  501 -0.00000000000E+00  0.00000000000E+00  0.23887555234E+01  0.23887569383E+01  0.26000000000E-02 0.  1.
          2   -1    0    0  501    0  0.00000000000E+00 -0.00000000000E+00 -0.41865321967E+02  0.41865322048E+02  0.26000000000E-02 0. -1.
       1023    2    1    2    0    0  0.00000000000E+00  0.00000000000E+00 -0.39476566444E+02  0.44254078986E+02  0.20000605209E+02 0.  0.
        -11    1    3    3    0    0 -0.71025383293E+01  0.70397228547E+01 -0.19632092092E+02  0.22032312379E+02  0.51100000000E-03 0. -1.
         11    1    3    3    0    0  0.71025383293E+01 -0.70397228547E+01 -0.19844474352E+02  0.22221766608E+02  0.51100000000E-03 0.  1.
<mgrwt>
<rscale>  0 0.20000605E+02</rscale>
<asrwt>0</asrwt>
<pdfrwt beam="2">  1        2 0.64408183E-02 0.20000605E+02</pdfrwt>
<pdfrwt beam="1">  1       -2 0.36750100E-03 0.20000605E+02</pdfrwt>
<totfact> 0.45166086E+06</totfact>
</mgrwt>
</event>
<event>
 5    1  0.4093850E-006  0.2000077E+02  0.7818608E-02  0.1745313E+00
          2   -1    0    0  501    0  0.00000000000E+00  0.00000000000E+00  0.90198315230E+02  0.90198315268E+02  0.26000000000E-02 0. -1.
         -2   -1    0    0    0  501 -0.00000000000E+00 -0.00000000000E+00 -0.11087520061E+01  0.11087550546E+01  0.26000000000E-02 0.  1.
       1023    2    1    2    0    0  0.00000000000E+00  0.00000000000E+00  0.89089563224E+02  0.91307070322E+02  0.20000770370E+02 0.  0.
        -11    1    3    3    0    0  0.27787550350E+01 -0.96062901541E+01  0.44208891380E+02  0.45325802446E+02  0.51100000000E-03 0.  1.
         11    1    3    3    0    0 -0.27787550350E+01  0.96062901541E+01  0.44880671844E+02  0.45981267876E+02  0.51100000000E-03 0. -1.
<mgrwt>
<rscale>  0 0.20000770E+02</rscale>
<asrwt>0</asrwt>
<pdfrwt beam="1">  1        2 0.13876664E-01 0.20000770E+02</pdfrwt>
<pdfrwt beam="2">  1       -2 0.17057747E-03 0.20000770E+02</pdfrwt>
<totfact> 0.51564705E+06</totfact>
</mgrwt>
</event>
<event>
 5    1  0.4046313E-006  0.2000039E+02  0.7818608E-02  0.1745320E+00
         -2   -1    0    0    0  501 -0.00000000000E+00  0.00000000000E+00  0.61968500573E+02  0.61968500627E+02  0.26000000000E-02 0.  1.
          2   -1    0    0  501    0  0.00000000000E+00 -0.00000000000E+00 -0.16137852028E+01  0.16137872972E+01  0.26000000000E-02 0. -1.
       1023    2    1    2    0    0  0.00000000000E+00  0.00000000000E+00  0.60354715370E+02  0.63582287924E+02  0.20000391754E+02 0.  0.
        -11    1    3    3    0    0  0.92233240462E+01  0.38643663395E+01  0.30082856149E+02  0.31701439526E+02  0.51100000000E-03 0. -1.
         11    1    3    3    0    0 -0.92233240462E+01 -0.38643663395E+01  0.30271859221E+02  0.31880848398E+02  0.51100000000E-03 0.  1.
<mgrwt>
<rscale>  0 0.20000392E+02</rscale>
<asrwt>0</asrwt>
<pdfrwt beam="2">  1        2 0.24827481E-03 0.20000392E+02</pdfrwt>
<pdfrwt beam="1">  1       -2 0.95336157E-02 0.20000392E+02</pdfrwt>
<totfact> 0.32781407E+06</totfact>
</mgrwt>
</event>
<event>
 5    1  0.4046313E-006  0.2000052E+02  0.7818608E-02  0.1745318E+00
          2   -1    0    0  501    0  0.00000000000E+00  0.00000000000E+00  0.16678153265E+02  0.16678153468E+02  0.26000000000E-02 0.  1.
         -2   -1    0    0    0  501 -0.00000000000E+00 -0.00000000000E+00 -0.59961786805E+01  0.59961792441E+01  0.26000000000E-02 0. -1.
       1023    2    1    2    0    0  0.00000000000E+00  0.00000000000E+00  0.10681974585E+02  0.22674332712E+02  0.20000519566E+02 0.  0.
        -11    1    3    3    0    0  0.81021031680E+01 -0.58616532576E+01  0.53934417241E+01  0.11361877862E+02  0.51100000000E-03 0.  1.
         11    1    3    3    0    0 -0.81021031680E+01  0.58616532576E+01  0.52885328607E+01  0.11312454850E+02  0.51100000000E-03 0. -1.
<mgrwt>
<rscale>  0 0.20000520E+02</rscale>
<asrwt>0</asrwt>
<pdfrwt beam="1">  1        2 0.25658698E-02 0.20000520E+02</pdfrwt>
<pdfrwt beam="2">  1       -2 0.92248909E-03 0.20000520E+02</pdfrwt>
<totfact> 0.41036123E+06</totfact>
</mgrwt>
</event>
<event>
 5    1  0.4046313E-006  0.2000419E+02  0.7818608E-02  0.1745245E+00
         -2   -1    0    0    0  501 -0.00000000000E+00  0.00000000000E+00  0.50077402163E+01  0.50077408913E+01  0.26000000000E-02 0.  1.
          2   -1    0    0  501    0  0.00000000000E+00 -0.00000000000E+00 -0.19977448858E+02  0.19977449027E+02  0.26000000000E-02 0. -1.
       1023    2    1    2    0    0  0.00000000000E+00  0.00000000000E+00 -0.14969708641E+02  0.24985189918E+02  0.20004188022E+02 0.  0.
        -11    1    3    3    0    0 -0.58065899086E+01 -0.81437515682E+01 -0.73991510583E+01  0.12441246425E+02  0.51100000000E-03 0.  1.
         11    1    3    3    0    0  0.58065899086E+01  0.81437515682E+01 -0.75705575829E+01  0.12543943493E+02  0.51100000000E-03 0. -1.
<mgrwt>
<rscale>  0 0.20004188E+02</rscale>
<asrwt>0</asrwt>
<pdfrwt beam="2">  1        2 0.30734537E-02 0.20004188E+02</pdfrwt>
<pdfrwt beam="1">  1       -2 0.77042165E-03 0.20004188E+02</pdfrwt>
<totfact> 0.41654167E+06</totfact>
</mgrwt>
</event>
<event>
 5    1  0.4046313E-006  0.2000024E+02  0.7818608E-02  0.1745323E+00
         -2   -1    0    0    0  501 -0.00000000000E+00  0.00000000000E+00  0.89070868978E+00  0.89071248450E+00  0.26000000000E-02 0. -1.
          2   -1    0    0  501    0  0.00000000000E+00 -0.00000000000E+00 -0.11227265793E+03  0.11227265796E+03  0.26000000000E-02 0.  1.
       1023    2    1    2    0    0  0.00000000000E+00  0.00000000000E+00 -0.11138194924E+03  0.11316337044E+03  0.20000244844E+02 0.  0.
        -11    1    3    3    0    0  0.65544008486E+01 -0.75526274990E+01 -0.55746287939E+02  0.56636127797E+02  0.51100000000E-03 0.  1.
         11    1    3    3    0    0 -0.65544008486E+01  0.75526274990E+01 -0.55635661297E+02  0.56527242644E+02  0.51100000000E-03 0. -1.
<mgrwt>
<rscale>  0 0.20000245E+02</rscale>
<asrwt>0</asrwt>
<pdfrwt beam="2">  1        2 0.17272706E-01 0.20000245E+02</pdfrwt>
<pdfrwt beam="1">  1       -2 0.13703249E-03 0.20000245E+02</pdfrwt>
<totfact> 0.54202491E+06</totfact>
</mgrwt>
</event>
<event>
 4    1  0.4046313E-006  0.2001949E+02  0.7818608E-02  0.1744941E+00
         -2   -1    0    0    0  501 -0.00000000000E+00  0.00000000000E+00  0.47437065076E+02  0.47437065147E+02  0.26000000000E-02 0. -1.
          2   -1    0    0  501    0  0.00000000000E+00 -0.00000000000E+00 -0.21121660133E+01  0.21121676135E+01  0.26000000000E-02 0.  1.
        -11    1    1    2    0    0 -0.55136680684E+01  0.83542878632E+01  0.22707851850E+02  0.24816147911E+02  0.51100000000E-03 0. -1.
         11    1    1    2    0    0  0.55136680684E+01 -0.83542878632E+01  0.22617047213E+02  0.24733084849E+02  0.51100000000E-03 0.  1.
<mgrwt>
<rscale>  0 0.20019490E+02</rscale>
<asrwt>0</asrwt>
<pdfrwt beam="2">  1        2 0.32494874E-03 0.20019490E+02</pdfrwt>
<pdfrwt beam="1">  1       -2 0.72980103E-02 0.20019490E+02</pdfrwt>
<totfact> 0.34078892E+06</totfact>
</mgrwt>
</event>
<event>
 5    1  0.4046313E-006  0.2000613E+02  0.7818608E-02  0.1745206E+00
          2   -1    0    0  501    0  0.00000000000E+00  0.00000000000E+00  0.55810911432E+02  0.55810911493E+02  0.26000000000E-02 0.  1.
         -2   -1    0    0    0  501 -0.00000000000E+00 -0.00000000000E+00 -0.17928621629E+01  0.17928640482E+01  0.26000000000E-02 0. -1.
       1023    2    1    2    0    0  0.00000000000E+00  0.00000000000E+00  0.54018049269E+02  0.57603775541E+02  0.20006131803E+02 0.  0.
        -11    1    3    3    0    0  0.46687561412E+01 -0.88442255996E+01  0.26407003090E+02  0.28237340930E+02  0.51100000000E-03 0. -1.
         11    1    3    3    0    0 -0.46687561412E+01  0.88442255996E+01  0.27611046179E+02  0.29366434610E+02  0.51100000000E-03 0.  1.
<mgrwt>
<rscale>  0 0.20006132E+02</rscale>
<asrwt>0</asrwt>
<pdfrwt beam="1">  1        2 0.85862948E-02 0.20006132E+02</pdfrwt>
<pdfrwt beam="2">  1       -2 0.27582508E-03 0.20006132E+02</pdfrwt>
<totfact> 0.47098168E+06</totfact>
</mgrwt>
</event>
<event>
 5    1  0.4046313E-006  0.2000059E+02  0.7818608E-02  0.1745316E+00
         -2   -1    0    0    0  501 -0.00000000000E+00  0.00000000000E+00  0.42170074069E+01  0.42170082085E+01  0.26000000000E-02 0.  1.
          2   -1    0    0  501    0  0.00000000000E+00 -0.00000000000E+00 -0.23714901868E+02  0.23714902010E+02  0.26000000000E-02 0. -1.
       1023    2    1    2    0    0  0.00000000000E+00  0.00000000000E+00 -0.19497894461E+02  0.27931910218E+02  0.20000592993E+02 0.  0.
        -11    1    3    3    0    0 -0.98178183369E+01  0.19013383088E+01 -0.96988755091E+01  0.13931002500E+02  0.51100000000E-03 0. -1.
         11    1    3    3    0    0  0.98178183369E+01 -0.19013383088E+01 -0.97990189514E+01  0.14000907718E+02  0.51100000000E-03 0.  1.
<mgrwt>
<rscale>  0 0.20000593E+02</rscale>
<asrwt>0</asrwt>
<pdfrwt beam="2">  1        2 0.36484464E-02 0.20000593E+02</pdfrwt>
<pdfrwt beam="1">  1       -2 0.64877046E-03 0.20000593E+02</pdfrwt>
<totfact> 0.42335073E+06</totfact>
</mgrwt>
</event>
<event>
 5    1  0.4174742E-006  0.2000134E+02  0.7818608E-02  0.1745301E+00
          2   -1    0    0  501    0  0.00000000000E+00  0.00000000000E+00  0.67121293845E+02  0.67121293896E+02  0.26000000000E-02 0.  1.
         -2   -1    0    0    0  501 -0.00000000000E+00 -0.00000000000E+00 -0.14900386452E+01  0.14900409136E+01  0.26000000000E-02 0. -1.
       1023    2    1    2    0    0  0.00000000000E+00  0.00000000000E+00  0.65631255200E+02  0.68611334809E+02  0.20001340084E+02 0.  0.
        -11    1    3    3    0    0  0.99402849346E+01 -0.10971337271E+01  0.32887093246E+02  0.34374028996E+02  0.51100000000E-03 0. -1.
         11    1    3    3    0    0 -0.99402849346E+01  0.10971337271E+01  0.32744161954E+02  0.34237305813E+02  0.51100000000E-03 0.  1.
<mgrwt>
<rscale>  0 0.20001340E+02</rscale>
<asrwt>0</asrwt>
<pdfrwt beam="1">  1        2 0.10326353E-01 0.20001340E+02</pdfrwt>
<pdfrwt beam="2">  1       -2 0.22923689E-03 0.20001340E+02</pdfrwt>
<totfact> 0.48636525E+06</totfact>
</mgrwt>
</event>
<event>
 5    1  0.4046313E-006  0.2000052E+02  0.7818608E-02  0.1745318E+00
         -2   -1    0    0    0  501 -0.00000000000E+00  0.00000000000E+00  0.43925184467E+02  0.43925184544E+02  0.26000000000E-02 0. -1.
          2   -1    0    0  501    0  0.00000000000E+00 -0.00000000000E+00 -0.22767161885E+01  0.22767176731E+01  0.26000000000E-02 0.  1.
       1023    2    1    2    0    0  0.00000000000E+00  0.00000000000E+00  0.41648468278E+02  0.46201902217E+02  0.20000521456E+02 0.  0.
        -11    1    3    3    0    0  0.99935543371E+01  0.36567281448E+00  0.20868636999E+02  0.23140977839E+02  0.51100000000E-03 0.  1.
         11    1    3    3    0    0 -0.99935543371E+01 -0.36567281448E+00  0.20779831279E+02  0.23060924377E+02  0.51100000000E-03 0. -1.
<mgrwt>
<rscale>  0 0.20000521E+02</rscale>
<asrwt>0</asrwt>
<pdfrwt beam="2">  1        2 0.35026416E-03 0.20000521E+02</pdfrwt>
<pdfrwt beam="1">  1       -2 0.67577206E-02 0.20000521E+02</pdfrwt>
<totfact> 0.34505611E+06</totfact>
</mgrwt>
</event>
<event>
 5    1  0.4046313E-006  0.2000074E+02  0.7818608E-02  0.1745313E+00
         -2   -1    0    0    0  501 -0.00000000000E+00  0.00000000000E+00  0.91676784695E+02  0.91676784731E+02  0.26000000000E-02 0. -1.
          2   -1    0    0  501    0  0.00000000000E+00 -0.00000000000E+00 -0.10908672867E+01  0.10908703852E+01  0.26000000000E-02 0.  1.
       1023    2    1    2    0    0  0.00000000000E+00  0.00000000000E+00  0.90585917408E+02  0.92767655117E+02  0.20000735067E+02 0.  0.
        -11    1    3    3    0    0 -0.55249025708E-01 -0.99999522619E+01  0.45629120168E+02  0.46712083076E+02  0.51100000000E-03 0. -1.
         11    1    3    3    0    0  0.55249025708E-01  0.99999522619E+01  0.44956797240E+02  0.46055572041E+02  0.51100000000E-03 0.  1.
<mgrwt>
<rscale>  0 0.20000735E+02</rscale>
<asrwt>0</asrwt>
<pdfrwt beam="2">  1        2 0.16782584E-03 0.20000735E+02</pdfrwt>
<pdfrwt beam="1">  1       -2 0.14104133E-01 0.20000735E+02</pdfrwt>
<totfact> 0.30345430E+06</totfact>
</mgrwt>
</event>
<event>
 5    1  0.4346013E-006  0.2000121E+02  0.7818608E-02  0.1745304E+00
         -2   -1    0    0    0  501 -0.00000000000E+00  0.00000000000E+00  0.92427251449E+00  0.92427617142E+00  0.26000000000E-02 0.  1.
          2   -1    0    0  501    0  0.00000000000E+00 -0.00000000000E+00 -0.10820604085E+03  0.10820604088E+03  0.26000000000E-02 0. -1.
       1023    2    1    2    0    0  0.00000000000E+00  0.00000000000E+00 -0.10728176834E+03  0.10913031706E+03  0.20001207034E+02 0.  0.
        -11    1    3    3    0    0  0.40598133235E+01  0.91392055381E+01 -0.53258625561E+02  0.54189374964E+02  0.51100000000E-03 0.  1.
         11    1    3    3    0    0 -0.40598133235E+01 -0.91392055381E+01 -0.54023142778E+02  0.54940942092E+02  0.51100000000E-03 0. -1.
<mgrwt>
<rscale>  0 0.20001207E+02</rscale>
<asrwt>0</asrwt>
<pdfrwt beam="2">  1        2 0.16647073E-01 0.20001207E+02</pdfrwt>
<pdfrwt beam="1">  1       -2 0.14219614E-03 0.20001207E+02</pdfrwt>
<totfact> 0.53722691E+06</totfact>
</mgrwt>
</event>
<event>
 5    1  0.4046313E-006  0.2000814E+02  0.7818608E-02  0.1745166E+00
          2   -1    0    0  501    0  0.00000000000E+00  0.00000000000E+00  0.42873033255E+01  0.42873041139E+01  0.26000000000E-02 0. -1.
         -2   -1    0    0    0  501 -0.00000000000E+00 -0.00000000000E+00 -0.23343674588E+02  0.23343674733E+02  0.26000000000E-02 0.  1.
       1023    2    1    2    0    0  0.00000000000E+00  0.00000000000E+00 -0.19056371263E+02  0.27630978847E+02  0.20008141002E+02 0.  0.
        -11    1    3    3    0    0  0.97311385882E+01 -0.23147409616E+01 -0.97606774655E+01  0.13975833027E+02  0.51100000000E-03 0. -1.
         11    1    3    3    0    0 -0.97311385882E+01  0.23147409616E+01 -0.92956937975E+01  0.13655145821E+02  0.51100000000E-03 0.  1.
<mgrwt>
<rscale>  0 0.20008141E+02</rscale>
<asrwt>0</asrwt>
<pdfrwt beam="1">  1        2 0.65958521E-03 0.20008141E+02</pdfrwt>
<pdfrwt beam="2">  1       -2 0.35913346E-02 0.20008141E+02</pdfrwt>
<totfact> 0.36905540E+06</totfact>
</mgrwt>
</event>
<event>
 5    1  0.4046313E-006  0.2000493E+02  0.7818608E-02  0.1745230E+00
          2   -1    0    0  501    0  0.00000000000E+00  0.00000000000E+00  0.84143513450E+02  0.84143513490E+02  0.26000000000E-02 0. -1.
         -2   -1    0    0    0  501 -0.00000000000E+00 -0.00000000000E+00 -0.11890305618E+01  0.11890334044E+01  0.26000000000E-02 0.  1.
       1023    2    1    2    0    0  0.00000000000E+00  0.00000000000E+00  0.82954482888E+02  0.85332546894E+02  0.20004932598E+02 0.  0.
        -11    1    3    3    0    0 -0.63079043490E+01 -0.77625926877E+01  0.41294801743E+02  0.42488918012E+02  0.51100000000E-03 0. -1.
         11    1    3    3    0    0  0.63079043490E+01  0.77625926877E+01  0.41659681144E+02  0.42843628883E+02  0.51100000000E-03 0.  1.
<mgrwt>
<rscale>  0 0.20004933E+02</rscale>
<asrwt>0</asrwt>
<pdfrwt beam="1">  1        2 0.12945164E-01 0.20004933E+02</pdfrwt>
<pdfrwt beam="2">  1       -2 0.18292789E-03 0.20004933E+02</pdfrwt>
<totfact> 0.50791342E+06</totfact>
</mgrwt>
</event>
<event>
 5    1  0.4046313E-006  0.2000162E+02  0.7818608E-02  0.1745296E+00
         -2   -1    0    0    0  501 -0.00000000000E+00  0.00000000000E+00  0.12515460485E+02  0.12515460755E+02  0.26000000000E-02 0. -1.
          2   -1    0    0  501    0  0.00000000000E+00 -0.00000000000E+00 -0.79914137823E+01  0.79914142053E+01  0.26000000000E-02 0.  1.
       1023    2    1    2    0    0  0.00000000000E+00  0.00000000000E+00  0.45240467025E+01  0.20506874960E+02  0.20001622986E+02 0.  0.
        -11    1    3    3    0    0  0.87080492400E+01  0.49179107025E+01  0.22453960339E+01  0.10249769307E+02  0.51100000000E-03 0.  1.
         11    1    3    3    0    0 -0.87080492400E+01 -0.49179107025E+01  0.22786506686E+01  0.10257105653E+02  0.51100000000E-03 0. -1.
<mgrwt>
<rscale>  0 0.20001623E+02</rscale>
<asrwt>0</asrwt>
<pdfrwt beam="2">  1        2 0.12294483E-02 0.20001623E+02</pdfrwt>
<pdfrwt beam="1">  1       -2 0.19254555E-02 0.20001623E+02</pdfrwt>
<totfact> 0.38812750E+06</totfact>
</mgrwt>
</event>
<event>
 5    1  0.4046313E-006  0.2000339E+02  0.7818608E-02  0.1745261E+00
          2   -1    0    0  501    0  0.00000000000E+00  0.00000000000E+00  0.88183121766E+02  0.88183121805E+02  0.26000000000E-02 0. -1.
         -2   -1    0    0    0  501 -0.00000000000E+00 -0.00000000000E+00 -0.11343865086E+01  0.11343894882E+01  0.26000000000E-02 0.  1.
       1023    2    1    2    0    0  0.00000000000E+00  0.00000000000E+00  0.87048735258E+02  0.89317511293E+02  0.20003387553E+02 0.  0.
        -11    1    3    3    0    0 -0.98628519784E+01 -0.16590468464E+01  0.43190451049E+02  0.44333320964E+02  0.51100000000E-03 0. -1.
         11    1    3    3    0    0  0.98628519784E+01  0.16590468464E+01  0.43858284209E+02  0.44984190329E+02  0.51100000000E-03 0.  1.
<mgrwt>
<rscale>  0 0.20003388E+02</rscale>
<asrwt>0</asrwt>
<pdfrwt beam="1">  1        2 0.13566640E-01 0.20003388E+02</pdfrwt>
<pdfrwt beam="2">  1       -2 0.17452117E-03 0.20003388E+02</pdfrwt>
<totfact> 0.51301618E+06</totfact>
</mgrwt>
</event>
<event>
 5    1  0.4046313E-006  0.2000055E+02  0.7818608E-02  0.1745317E+00
         -2   -1    0    0    0  501 -0.00000000000E+00  0.00000000000E+00  0.32331136243E+01  0.32331146698E+01  0.26000000000E-02 0.  1.
          2   -1    0    0  501    0  0.00000000000E+00 -0.00000000000E+00 -0.30931625872E+02  0.30931625981E+02  0.26000000000E-02 0. -1.
       1023    2    1    2    0    0  0.00000000000E+00  0.00000000000E+00 -0.27698512248E+02  0.34164740651E+02  0.20000548068E+02 0.  0.
        -11    1    3    3    0    0  0.95760584980E+01  0.28817409966E+01 -0.13870382891E+02  0.17099498511E+02  0.51100000000E-03 0. -1.
         11    1    3    3    0    0 -0.95760584980E+01 -0.28817409966E+01 -0.13828129357E+02  0.17065242140E+02  0.51100000000E-03 0.  1.
<mgrwt>
<rscale>  0 0.20000548E+02</rscale>
<asrwt>0</asrwt>
<pdfrwt beam="2">  1        2 0.47587116E-02 0.20000548E+02</pdfrwt>
<pdfrwt beam="1">  1       -2 0.49740221E-03 0.20000548E+02</pdfrwt>
<totfact> 0.43517723E+06</totfact>
</mgrwt>
</event>
<event>
 5    1  0.4046313E-006  0.2000033E+02  0.7818608E-02  0.1745321E+00
         -2   -1    0    0    0  501 -0.00000000000E+00  0.00000000000E+00  0.13539585684E+01  0.13539610648E+01  0.26000000000E-02 0. -1.
          2   -1    0    0  501    0  0.00000000000E+00 -0.00000000000E+00 -0.73859879169E+02  0.73859879215E+02  0.26000000000E-02 0.  1.
       1023    2    1    2    0    0  0.00000000000E+00  0.00000000000E+00 -0.72505920600E+02  0.75213840279E+02  0.20000331184E+02 0.  0.
        -11    1    3    3    0    0 -0.96636193081E+01 -0.25721393096E+01 -0.36090213986E+02  0.37450033171E+02  0.51100000000E-03 0. -1.
         11    1    3    3    0    0  0.96636193081E+01  0.25721393096E+01 -0.36415706615E+02  0.37763807108E+02  0.51100000000E-03 0.  1.
<mgrwt>
<rscale>  0 0.20000331E+02</rscale>
<asrwt>0</asrwt>
<pdfrwt beam="2">  1        2 0.11363055E-01 0.20000331E+02</pdfrwt>
<pdfrwt beam="1">  1       -2 0.20830157E-03 0.20000331E+02</pdfrwt>
<totfact> 0.49516644E+06</totfact>
</mgrwt>
</event>
<event>
 5    1  0.4046313E-006  0.2000167E+02  0.7818608E-02  0.1745295E+00
         -2   -1    0    0    0  501 -0.00000000000E+00  0.00000000000E+00  0.64106460193E+02  0.64106460246E+02  0.26000000000E-02 0.  1.
          2   -1    0    0  501    0  0.00000000000E+00 -0.00000000000E+00 -0.15601644381E+01  0.15601666045E+01  0.26000000000E-02 0. -1.
       1023    2    1    2    0    0  0.00000000000E+00  0.00000000000E+00  0.62546295755E+02  0.65666626850E+02  0.20001669161E+02 0.  0.
        -11    1    3    3    0    0  0.97013374570E+01  0.24286391774E+01  0.31110467899E+02  0.32678363635E+02  0.51100000000E-03 0. -1.
         11    1    3    3    0    0 -0.97013374570E+01 -0.24286391774E+01  0.31435827856E+02  0.32988263215E+02  0.51100000000E-03 0.  1.
<mgrwt>
<rscale>  0 0.20001669E+02</rscale>
<asrwt>0</asrwt>
<pdfrwt beam="2">  1        2 0.24002548E-03 0.20001669E+02</pdfrwt>
<pdfrwt beam="1">  1       -2 0.98625321E-02 0.20001669E+02</pdfrwt>
<totfact> 0.32587093E+06</totfact>
</mgrwt>
</event>
<event>
 5    1  0.4046313E-006  0.2000032E+02  0.7818608E-02  0.1745322E+00
         -2   -1    0    0    0  501 -0.00000000000E+00  0.00000000000E+00  0.60961982227E+01  0.60961987771E+01  0.26000000000E-02 0.  1.
          2   -1    0    0  501    0  0.00000000000E+00 -0.00000000000E+00 -0.16404189226E+02  0.16404189432E+02  0.26000000000E-02 0. -1.
       1023    2    1    2    0    0  0.00000000000E+00  0.00000000000E+00 -0.10307991003E+02  0.22500388209E+02  0.20000319773E+02 0.  0.
        -11    1    3    3    0    0 -0.37843300830E+01  0.92563417803E+01 -0.51014666419E+01  0.11226129319E+02  0.51100000000E-03 0. -1.
         11    1    3    3    0    0  0.37843300830E+01 -0.92563417803E+01 -0.52065243614E+01  0.11274258890E+02  0.51100000000E-03 0.  1.
<mgrwt>
<rscale>  0 0.20000320E+02</rscale>
<asrwt>0</asrwt>
<pdfrwt beam="2">  1        2 0.25237215E-02 0.20000320E+02</pdfrwt>
<pdfrwt beam="1">  1       -2 0.93787672E-03 0.20000320E+02</pdfrwt>
<totfact> 0.40981487E+06</totfact>
</mgrwt>
</event>
<event>
 5    1  0.4046313E-006  0.2000920E+02  0.7818608E-02  0.1745145E+00
          2   -1    0    0  501    0  0.00000000000E+00  0.00000000000E+00  0.21148230783E+01  0.21148246765E+01  0.26000000000E-02 0.  1.
         -2   -1    0    0    0  501 -0.00000000000E+00 -0.00000000000E+00 -0.47328758047E+02  0.47328758118E+02  0.26000000000E-02 0. -1.
       1023    2    1    2    0    0  0.00000000000E+00  0.00000000000E+00 -0.45213934968E+02  0.49443582795E+02  0.20009196992E+02 0.  0.
        -11    1    3    3    0    0  0.64160174619E+00 -0.99820246083E+01 -0.23098218742E+02  0.25171018601E+02  0.51100000000E-03 0. -1.
         11    1    3    3    0    0 -0.64160174619E+00  0.99820246083E+01 -0.22115716226E+02  0.24272564193E+02  0.51100000000E-03 0.  1.
<mgrwt>
<rscale>  0 0.20009197E+02</rscale>
<asrwt>0</asrwt>
<pdfrwt beam="1">  1        2 0.32535756E-03 0.20009197E+02</pdfrwt>
<pdfrwt beam="2">  1       -2 0.72813467E-02 0.20009197E+02</pdfrwt>
<totfact> 0.34128006E+06</totfact>
</mgrwt>
</event>
<event>
 5    1  0.4046313E-006  0.2000613E+02  0.7818608E-02  0.1745206E+00
          2   -1    0    0  501    0  0.00000000000E+00  0.00000000000E+00  0.12547042915E+02  0.12547043184E+02  0.26000000000E-02 0.  1.
         -2   -1    0    0    0  501 -0.00000000000E+00 -0.00000000000E+00 -0.79748929654E+01  0.79748933892E+01  0.26000000000E-02 0. -1.
       1023    2    1    2    0    0  0.00000000000E+00  0.00000000000E+00  0.45721499496E+01  0.20521936574E+02  0.20006132199E+02 0.  0.
        -11    1    3    3    0    0 -0.67645717407E+01 -0.73654780594E+01  0.20529869563E+01  0.10209037838E+02  0.51100000000E-03 0. -1.
         11    1    3    3    0    0  0.67645717407E+01  0.73654780594E+01  0.25191629934E+01  0.10312898735E+02  0.51100000000E-03 0.  1.
<mgrwt>
<rscale>  0 0.20006132E+02</rscale>
<asrwt>0</asrwt>
<pdfrwt beam="1">  1        2 0.19303143E-02 0.20006132E+02</pdfrwt>
<pdfrwt beam="2">  1       -2 0.12269067E-02 0.20006132E+02</pdfrwt>
<totfact> 0.40105067E+06</totfact>
</mgrwt>
</event>
<event>
 4    1  0.4333292E-006  0.2046214E+02  0.7818608E-02  0.1736291E+00
          2   -1    0    0  501    0  0.00000000000E+00  0.00000000000E+00  0.85833656370E+02  0.85833656410E+02  0.26000000000E-02 0. -1.
         -2   -1    0    0    0  501 -0.00000000000E+00 -0.00000000000E+00 -0.12195063494E+01  0.12195091210E+01  0.26000000000E-02 0.  1.
        -11    1    1    2    0    0 -0.93821601691E+01 -0.35923148255E+01  0.50540270414E+02  0.51529104291E+02  0.51100000000E-03 0. -1.
         11    1    1    2    0    0  0.93821601691E+01  0.35923148255E+01  0.34073879607E+02  0.35524061240E+02  0.51100000000E-03 0.  1.
<mgrwt>
<rscale>  0 0.20462142E+02</rscale>
<asrwt>0</asrwt>
<pdfrwt beam="1">  1        2 0.13205185E-01 0.20462142E+02</pdfrwt>
<pdfrwt beam="2">  1       -2 0.18761648E-03 0.20462142E+02</pdfrwt>
<totfact> 0.48510866E+06</totfact>
</mgrwt>
</event>
<event>
 5    1  0.4046313E-006  0.2000522E+02  0.7818608E-02  0.1745224E+00
          2   -1    0    0  501    0  0.00000000000E+00  0.00000000000E+00  0.67648707226E+02  0.67648707276E+02  0.26000000000E-02 0.  1.
         -2   -1    0    0    0  501 -0.00000000000E+00 -0.00000000000E+00 -0.14789955740E+01  0.14789978593E+01  0.26000000000E-02 0. -1.
       1023    2    1    2    0    0  0.00000000000E+00  0.00000000000E+00  0.66169711652E+02  0.69127705136E+02  0.20005221248E+02 0.  0.
        -11    1    3    3    0    0 -0.87040836466E+01  0.49269391274E+01  0.32642098826E+02  0.34140041261E+02  0.51100000000E-03 0. -1.
         11    1    3    3    0    0  0.87040836466E+01 -0.49269391274E+01  0.33527612826E+02  0.34987663874E+02  0.51100000000E-03 0.  1.
<mgrwt>
<rscale>  0 0.20005221E+02</rscale>
<asrwt>0</asrwt>
<pdfrwt beam="1">  1        2 0.10407491E-01 0.20005221E+02</pdfrwt>
<pdfrwt beam="2">  1       -2 0.22753802E-03 0.20005221E+02</pdfrwt>
<totfact> 0.48684716E+06</totfact>
</mgrwt>
</event>
<event>
 5    1  0.4046313E-006  0.2000332E+02  0.7818608E-02  0.1745262E+00
         -2   -1    0    0    0  501 -0.00000000000E+00  0.00000000000E+00  0.11680686106E+01  0.11680715043E+01  0.26000000000E-02 0.  1.
          2   -1    0    0  501    0  0.00000000000E+00 -0.00000000000E+00 -0.85639733955E+02  0.85639733994E+02  0.26000000000E-02 0. -1.
       1023    2    1    2    0    0  0.00000000000E+00  0.00000000000E+00 -0.84471665344E+02  0.86807805499E+02  0.20003320961E+02 0.  0.
        -11    1    3    3    0    0  0.99307600654E+01  0.11809366418E+01 -0.41643896724E+02  0.42827896767E+02  0.51100000000E-03 0.  1.
         11    1    3    3    0    0 -0.99307600654E+01 -0.11809366418E+01 -0.42827768620E+02  0.43979908732E+02  0.51100000000E-03 0. -1.
<mgrwt>
<rscale>  0 0.20003321E+02</rscale>
<asrwt>0</asrwt>
<pdfrwt beam="2">  1        2 0.13175339E-01 0.20003321E+02</pdfrwt>
<pdfrwt beam="1">  1       -2 0.17970316E-03 0.20003321E+02</pdfrwt>
<totfact> 0.50986815E+06</totfact>
</mgrwt>
</event>
<event>
 5    1  0.4046313E-006  0.2000045E+02  0.7818608E-02  0.1745319E+00
         -2   -1    0    0    0  501 -0.00000000000E+00  0.00000000000E+00  0.53758048456E+02  0.53758048519E+02  0.26000000000E-02 0. -1.
          2   -1    0    0  501    0  0.00000000000E+00 -0.00000000000E+00 -0.18602697107E+01  0.18602715277E+01  0.26000000000E-02 0.  1.
       1023    2    1    2    0    0  0.00000000000E+00  0.00000000000E+00  0.51897778746E+02  0.55618320047E+02  0.20000452148E+02 0.  0.
        -11    1    3    3    0    0  0.83272051832E+01  0.55372282412E+01  0.26048322190E+02  0.27901941365E+02  0.51100000000E-03 0. -1.
         11    1    3    3    0    0 -0.83272051832E+01 -0.55372282412E+01  0.25849456555E+02  0.27716378682E+02  0.51100000000E-03 0.  1.
<mgrwt>
<rscale>  0 0.20000452E+02</rscale>
<asrwt>0</asrwt>
<pdfrwt beam="2">  1        2 0.28619547E-03 0.20000452E+02</pdfrwt>
<pdfrwt beam="1">  1       -2 0.82704695E-02 0.20000452E+02</pdfrwt>
<totfact> 0.33535954E+06</totfact>
</mgrwt>
</event>
<event>
 5    1  0.4046313E-006  0.2000217E+02  0.7818608E-02  0.1745285E+00
         -2   -1    0    0    0  501 -0.00000000000E+00  0.00000000000E+00  0.27889353814E+02  0.27889353935E+02  0.26000000000E-02 0.  1.
          2   -1    0    0  501    0  0.00000000000E+00 -0.00000000000E+00 -0.35863758573E+01  0.35863767997E+01  0.26000000000E-02 0. -1.
       1023    2    1    2    0    0  0.00000000000E+00  0.00000000000E+00  0.24302977957E+02  0.31475730735E+02  0.20002172075E+02 0.  0.
        -11    1    3    3    0    0 -0.86578285797E+01  0.50060281565E+01  0.12059623586E+02  0.15666934445E+02  0.51100000000E-03 0.  1.
         11    1    3    3    0    0  0.86578285797E+01 -0.50060281565E+01  0.12243354371E+02  0.15808796290E+02  0.51100000000E-03 0. -1.
<mgrwt>
<rscale>  0 0.20002172E+02</rscale>
<asrwt>0</asrwt>
<pdfrwt beam="2">  1        2 0.55175021E-03 0.20002172E+02</pdfrwt>
<pdfrwt beam="1">  1       -2 0.42906699E-02 0.20002172E+02</pdfrwt>
<totfact> 0.36320338E+06</totfact>
</mgrwt>
</event>
<event>
 5    1  0.4046313E-006  0.2000014E+02  0.7818608E-02  0.1745325E+00
         -2   -1    0    0    0  501 -0.00000000000E+00  0.00000000000E+00  0.14380983601E+01  0.14381007104E+01  0.26000000000E-02 0. -1.
          2   -1    0    0  501    0  0.00000000000E+00 -0.00000000000E+00 -0.69537175464E+02  0.69537175513E+02  0.26000000000E-02 0.  1.
       1023    2    1    2    0    0  0.00000000000E+00  0.00000000000E+00 -0.68099077104E+02  0.70975276223E+02  0.20000138313E+02 0.  0.
        -11    1    3    3    0    0  0.96354934134E+01 -0.26755447116E+01 -0.34012310963E+02  0.35451919132E+02  0.51100000000E-03 0. -1.
         11    1    3    3    0    0 -0.96354934134E+01  0.26755447116E+01 -0.34086766141E+02  0.35523357091E+02  0.51100000000E-03 0.  1.
<mgrwt>
<rscale>  0 0.20000138E+02</rscale>
<asrwt>0</asrwt>
<pdfrwt beam="2">  1        2 0.10698025E-01 0.20000138E+02</pdfrwt>
<pdfrwt beam="1">  1       -2 0.22124614E-03 0.20000138E+02</pdfrwt>
<totfact> 0.48958842E+06</totfact>
</mgrwt>
</event>
<event>
 4    1  0.4046313E-006  0.2055568E+02  0.7818608E-02  0.1734498E+00
         -2   -1    0    0    0  501 -0.00000000000E+00  0.00000000000E+00  0.28505628615E+01  0.28505640472E+01  0.26000000000E-02 0. -1.
          2   -1    0    0  501    0  0.00000000000E+00 -0.00000000000E+00 -0.37057243223E+02  0.37057243314E+02  0.26000000000E-02 0.  1.
        -11    1    1    2    0    0 -0.64800223385E+01 -0.79583629224E+01 -0.16026235648E+02  0.19030671538E+02  0.51100000000E-03 0. -1.
         11    1    1    2    0    0  0.64800223385E+01  0.79583629224E+01 -0.18180444714E+02  0.20877135823E+02  0.51100000000E-03 0.  1.
<mgrwt>
<rscale>  0 0.20555683E+02</rscale>
<asrwt>0</asrwt>
<pdfrwt beam="2">  1        2 0.57011141E-02 0.20555683E+02</pdfrwt>
<pdfrwt beam="1">  1       -2 0.43854826E-03 0.20555683E+02</pdfrwt>
<totfact> 0.41809027E+06</totfact>
</mgrwt>
</event>
<event>
 5    1  0.4046313E-006  0.2000077E+02  0.7818608E-02  0.1745313E+00
          2   -1    0    0  501    0  0.00000000000E+00  0.00000000000E+00  0.12381886561E+02  0.12381886834E+02  0.26000000000E-02 0. -1.
         -2   -1    0    0    0  501 -0.00000000000E+00 -0.00000000000E+00 -0.80769361885E+01  0.80769366070E+01  0.26000000000E-02 0.  1.
       1023    2    1    2    0    0  0.00000000000E+00  0.00000000000E+00  0.43049503724E+01  0.20458823441E+02  0.20000771457E+02 0.  0.
        -11    1    3    3    0    0 -0.38731726860E+01  0.92195663987E+01  0.22306667855E+01  0.10245864815E+02  0.51100000000E-03 0. -1.
         11    1    3    3    0    0  0.38731726860E+01 -0.92195663987E+01  0.20742835869E+01  0.10212958626E+02  0.51100000000E-03 0.  1.
<mgrwt>
<rscale>  0 0.20000771E+02</rscale>
<asrwt>0</asrwt>
<pdfrwt beam="1">  1        2 0.19049057E-02 0.20000771E+02</pdfrwt>
<pdfrwt beam="2">  1       -2 0.12426056E-02 0.20000771E+02</pdfrwt>
<totfact> 0.40089414E+06</totfact>
</mgrwt>
</event>
<event>
 5    1  0.4046313E-006  0.2000225E+02  0.7818608E-02  0.1745283E+00
         -2   -1    0    0    0  501 -0.00000000000E+00  0.00000000000E+00  0.19872095480E+02  0.19872095650E+02  0.26000000000E-02 0.  1.
          2   -1    0    0  501    0  0.00000000000E+00 -0.00000000000E+00 -0.50333131077E+01  0.50333137792E+01  0.26000000000E-02 0. -1.
       1023    2    1    2    0    0  0.00000000000E+00  0.00000000000E+00  0.14838782372E+02  0.24905409429E+02  0.20002248787E+02 0.  0.
        -11    1    3    3    0    0  0.99603853739E+01 -0.89131794354E+00  0.72488292110E+01  0.12351082935E+02  0.51100000000E-03 0. -1.
         11    1    3    3    0    0 -0.99603853739E+01  0.89131794354E+00  0.75899531610E+01  0.12554326494E+02  0.51100000000E-03 0.  1.
<mgrwt>
<rscale>  0 0.20002249E+02</rscale>
<asrwt>0</asrwt>
<pdfrwt beam="2">  1        2 0.77435592E-03 0.20002249E+02</pdfrwt>
<pdfrwt beam="1">  1       -2 0.30572456E-02 0.20002249E+02</pdfrwt>
<totfact> 0.37444779E+06</totfact>
</mgrwt>
</event>
<event>
 5    1  0.4046313E-006  0.2000557E+02  0.7818608E-02  0.1745217E+00
         -2   -1    0    0    0  501 -0.00000000000E+00  0.00000000000E+00  0.88786817705E+02  0.88786817743E+02  0.26000000000E-02 0.  1.
          2   -1    0    0  501    0  0.00000000000E+00 -0.00000000000E+00 -0.11269188760E+01  0.11269218753E+01  0.26000000000E-02 0. -1.
       1023    2    1    2    0    0  0.00000000000E+00  0.00000000000E+00  0.87659898829E+02  0.89913739618E+02  0.20005566961E+02 0.  0.
        -11    1    3    3    0    0 -0.31845412036E+01  0.94819803607E+01  0.43469752945E+02  0.44605702277E+02  0.51100000000E-03 0.  1.
         11    1    3    3    0    0  0.31845412036E+01 -0.94819803607E+01  0.44190145884E+02  0.45308037342E+02  0.51100000000E-03 0. -1.
<mgrwt>
<rscale>  0 0.20005567E+02</rscale>
<asrwt>0</asrwt>
<pdfrwt beam="2">  1        2 0.17337235E-03 0.20005567E+02</pdfrwt>
<pdfrwt beam="1">  1       -2 0.13659512E-01 0.20005567E+02</pdfrwt>
<totfact> 0.30549614E+06</totfact>
</mgrwt>
</event>
<event>
 5    1  0.4046313E-006  0.2000074E+02  0.7818608E-02  0.1745313E+00
         -2   -1    0    0    0  501 -0.00000000000E+00  0.00000000000E+00  0.17424136553E+01  0.17424155952E+01  0.26000000000E-02 0.  1.
          2   -1    0    0  501    0  0.00000000000E+00 -0.00000000000E+00 -0.57395884344E+02  0.57395884403E+02  0.26000000000E-02 0. -1.
       1023    2    1    2    0    0  0.00000000000E+00  0.00000000000E+00 -0.55653470689E+02  0.59138299998E+02  0.20000743160E+02 0.  0.
        -11    1    3    3    0    0 -0.43792636846E+01  0.89904220772E+01 -0.27701570115E+02  0.29451360353E+02  0.51100000000E-03 0. -1.
         11    1    3    3    0    0  0.43792636846E+01 -0.89904220772E+01 -0.27951900574E+02  0.29686939645E+02  0.51100000000E-03 0.  1.
<mgrwt>
<rscale>  0 0.20000743E+02</rscale>
<asrwt>0</asrwt>
<pdfrwt beam="2">  1        2 0.88301348E-02 0.20000743E+02</pdfrwt>
<pdfrwt beam="1">  1       -2 0.26806384E-03 0.20000743E+02</pdfrwt>
<totfact> 0.47341978E+06</totfact>
</mgrwt>
</event>
<event>
 5    1  0.4046313E-006  0.2000029E+02  0.7818608E-02  0.1745322E+00
         -2   -1    0    0    0  501 -0.00000000000E+00  0.00000000000E+00  0.38087241730E+01  0.38087250605E+01  0.26000000000E-02 0. -1.
          2   -1    0    0  501    0  0.00000000000E+00 -0.00000000000E+00 -0.26256271326E+02  0.26256271455E+02  0.26000000000E-02 0.  1.
       1023    2    1    2    0    0  0.00000000000E+00  0.00000000000E+00 -0.22447547153E+02  0.30064996515E+02  0.20000291055E+02 0.  0.
        -11    1    3    3    0    0  0.48664541757E+01  0.87361049603E+01 -0.11176137933E+02  0.14996931869E+02  0.51100000000E-03 0.  1.
         11    1    3    3    0    0 -0.48664541757E+01 -0.87361049603E+01 -0.11271409220E+02  0.15068064646E+02  0.51100000000E-03 0. -1.
<mgrwt>
<rscale>  0 0.20000291E+02</rscale>
<asrwt>0</asrwt>
<pdfrwt beam="2">  1        2 0.40394263E-02 0.20000291E+02</pdfrwt>
<pdfrwt beam="1">  1       -2 0.58595766E-03 0.20000291E+02</pdfrwt>
<totfact> 0.42765267E+06</totfact>
</mgrwt>
</event>
<event>
 5    1  0.4046313E-006  0.2000019E+02  0.7818608E-02  0.1745324E+00
         -2   -1    0    0    0  501 -0.00000000000E+00  0.00000000000E+00  0.26665496769E+02  0.26665496895E+02  0.26000000000E-02 0.  1.
          2   -1    0    0  501    0  0.00000000000E+00 -0.00000000000E+00 -0.37502370193E+01  0.37502379205E+01  0.26000000000E-02 0. -1.
       1023    2    1    2    0    0  0.00000000000E+00  0.00000000000E+00  0.22915259749E+02  0.30415734816E+02  0.20000194874E+02 0.  0.
        -11    1    3    3    0    0 -0.71005476358E+01 -0.70415132314E+01  0.11403579853E+02  0.15167146041E+02  0.51100000000E-03 0.  1.
         11    1    3    3    0    0  0.71005476358E+01  0.70415132314E+01  0.11511679897E+02  0.15248588775E+02  0.51100000000E-03 0. -1.
<mgrwt>
<rscale>  0 0.20000195E+02</rscale>
<asrwt>0</asrwt>
<pdfrwt beam="2">  1        2 0.57695963E-03 0.20000195E+02</pdfrwt>
<pdfrwt beam="1">  1       -2 0.41023842E-02 0.20000195E+02</pdfrwt>
<totfact> 0.36486359E+06</totfact>
</mgrwt>
</event>
<event>
 5    1  0.4046313E-006  0.2000130E+02  0.7818608E-02  0.1745302E+00
         -2   -1    0    0    0  501 -0.00000000000E+00  0.00000000000E+00  0.32184247860E+02  0.32184247965E+02  0.26000000000E-02 0.  1.
          2   -1    0    0  501    0  0.00000000000E+00 -0.00000000000E+00 -0.31075125694E+01  0.31075136571E+01  0.26000000000E-02 0. -1.
       1023    2    1    2    0    0  0.00000000000E+00  0.00000000000E+00  0.29076735291E+02  0.35291761622E+02  0.20001297539E+02 0.  0.
        -11    1    3    3    0    0 -0.97940258600E+01 -0.20212238548E+01  0.14659168124E+02  0.17745407822E+02  0.51100000000E-03 0. -1.
         11    1    3    3    0    0  0.97940258600E+01  0.20212238548E+01  0.14417567167E+02  0.17546353801E+02  0.51100000000E-03 0.  1.
<mgrwt>
<rscale>  0 0.20001298E+02</rscale>
<asrwt>0</asrwt>
<pdfrwt beam="2">  1        2 0.47807895E-03 0.20001298E+02</pdfrwt>
<pdfrwt beam="1">  1       -2 0.49514228E-02 0.20001298E+02</pdfrwt>
<totfact> 0.35795351E+06</totfact>
</mgrwt>
</event>
<event>
 5    1  0.4046313E-006  0.2000030E+02  0.7818608E-02  0.1745322E+00
          2   -1    0    0  501    0  0.00000000000E+00  0.00000000000E+00  0.13393766055E+01  0.13393791291E+01  0.26000000000E-02 0. -1.
         -2   -1    0    0    0  501 -0.00000000000E+00 -0.00000000000E+00 -0.74663744461E+02  0.74663744507E+02  0.26000000000E-02 0.  1.
       1023    2    1    2    0    0  0.00000000000E+00  0.00000000000E+00 -0.73324367856E+02  0.76003123636E+02  0.20000297021E+02 0.  0.
        -11    1    3    3    0    0  0.40665364301E+01 -0.91358483678E+01 -0.36853175686E+02  0.38185822007E+02  0.51100000000E-03 0. -1.
         11    1    3    3    0    0 -0.40665364301E+01  0.91358483678E+01 -0.36471192169E+02  0.37817301628E+02  0.51100000000E-03 0.  1.
<mgrwt>
<rscale>  0 0.20000297E+02</rscale>
<asrwt>0</asrwt>
<pdfrwt beam="1">  1        2 0.20605820E-03 0.20000297E+02</pdfrwt>
<pdfrwt beam="2">  1       -2 0.11486727E-01 0.20000297E+02</pdfrwt>
<totfact> 0.31691374E+06</totfact>
</mgrwt>
</event>
<event>
 5    1  0.4046313E-006  0.2000148E+02  0.7818608E-02  0.1745299E+00
          2   -1    0    0  501    0  0.00000000000E+00  0.00000000000E+00  0.39752810101E+01  0.39752818603E+01  0.26000000000E-02 0. -1.
         -2   -1    0    0    0  501 -0.00000000000E+00 -0.00000000000E+00 -0.25159172295E+02  0.25159172429E+02  0.26000000000E-02 0.  1.
       1023    2    1    2    0    0  0.00000000000E+00  0.00000000000E+00 -0.21183891285E+02  0.29134454290E+02  0.20001479365E+02 0.  0.
        -11    1    3    3    0    0 -0.67671846853E+01  0.73630118622E+01 -0.10478538205E+02  0.14484767703E+02  0.51100000000E-03 0.  1.
         11    1    3    3    0    0  0.67671846853E+01 -0.73630118622E+01 -0.10705353080E+02  0.14649686586E+02  0.51100000000E-03 0. -1.
<mgrwt>
<rscale>  0 0.20001479E+02</rscale>
<asrwt>0</asrwt>
<pdfrwt beam="1">  1        2 0.61158179E-03 0.20001479E+02</pdfrwt>
<pdfrwt beam="2">  1       -2 0.38706419E-02 0.20001479E+02</pdfrwt>
<totfact> 0.36681491E+06</totfact>
</mgrwt>
</event>
<event>
 5    1  0.4046313E-006  0.2000481E+02  0.7818608E-02  0.1745232E+00
         -2   -1    0    0    0  501 -0.00000000000E+00  0.00000000000E+00  0.77858196184E+01  0.77858200526E+01  0.26000000000E-02 0. -1.
          2   -1    0    0  501    0  0.00000000000E+00 -0.00000000000E+00 -0.12850042183E+02  0.12850042446E+02  0.26000000000E-02 0.  1.
       1023    2    1    2    0    0  0.00000000000E+00  0.00000000000E+00 -0.50642225641E+01  0.20635862498E+02  0.20004811193E+02 0.  0.
        -11    1    3    3    0    0 -0.91593167783E+01 -0.40186397851E+01 -0.24551391717E+01  0.10299041615E+02  0.51100000000E-03 0. -1.
         11    1    3    3    0    0  0.91593167783E+01  0.40186397851E+01 -0.26090833924E+01  0.10336820883E+02  0.51100000000E-03 0.  1.
<mgrwt>
<rscale>  0 0.20004811E+02</rscale>
<asrwt>0</asrwt>
<pdfrwt beam="2">  1        2 0.19769296E-02 0.20004811E+02</pdfrwt>
<pdfrwt beam="1">  1       -2 0.11978185E-02 0.20004811E+02</pdfrwt>
<totfact> 0.40183636E+06</totfact>
</mgrwt>
</event>
<event>
 5    1  0.4046313E-006  0.2000073E+02  0.7818608E-02  0.1745314E+00
         -2   -1    0    0    0  501 -0.00000000000E+00  0.00000000000E+00  0.32217532096E+02  0.32217532201E+02  0.26000000000E-02 0. -1.
          2   -1    0    0  501    0  0.00000000000E+00 -0.00000000000E+00 -0.31041252139E+01  0.31041263028E+01  0.26000000000E-02 0.  1.
       1023    2    1    2    0    0  0.00000000000E+00  0.00000000000E+00  0.29113406882E+02  0.35321658503E+02  0.20000727466E+02 0.  0.
        -11    1    3    3    0    0 -0.18019551417E+01  0.98366005075E+01  0.14625615607E+02  0.17717629187E+02  0.51100000000E-03 0.  1.
         11    1    3    3    0    0  0.18019551417E+01 -0.98366005075E+01  0.14487791275E+02  0.17604029316E+02  0.51100000000E-03 0. -1.
<mgrwt>
<rscale>  0 0.20000727E+02</rscale>
<asrwt>0</asrwt>
<pdfrwt beam="2">  1        2 0.47755779E-03 0.20000727E+02</pdfrwt>
<pdfrwt beam="1">  1       -2 0.49565437E-02 0.20000727E+02</pdfrwt>
<totfact> 0.35793625E+06</totfact>
</mgrwt>
</event>
<event>
 5    1  0.4046313E-006  0.2000011E+02  0.7818608E-02  0.1745326E+00
         -2   -1    0    0    0  501 -0.00000000000E+00  0.00000000000E+00  0.10055201079E+01  0.10055234693E+01  0.26000000000E-02 0.  1.
          2   -1    0    0  501    0  0.00000000000E+00 -0.00000000000E+00 -0.99451921874E+02  0.99451921908E+02  0.26000000000E-02 0. -1.
       1023    2    1    2    0    0  0.00000000000E+00  0.00000000000E+00 -0.98446401766E+02  0.10045744538E+03  0.20000107776E+02 0.  0.
        -11    1    3    3    0    0  0.43815549349E+01 -0.89889960076E+01 -0.49382404111E+02  0.50384738849E+02  0.51100000000E-03 0.  1.
         11    1    3    3    0    0 -0.43815549349E+01  0.89889960076E+01 -0.49063997655E+02  0.50072706528E+02  0.51100000000E-03 0. -1.
<mgrwt>
<rscale>  0 0.20000108E+02</rscale>
<asrwt>0</asrwt>
<pdfrwt beam="2">  1        2 0.15300288E-01 0.20000108E+02</pdfrwt>
<pdfrwt beam="1">  1       -2 0.15469574E-03 0.20000108E+02</pdfrwt>
<totfact> 0.52691645E+06</totfact>
</mgrwt>
</event>
<event>
 5    1  0.4046313E-006  0.2000025E+02  0.7818608E-02  0.1745323E+00
          2   -1    0    0  501    0  0.00000000000E+00  0.00000000000E+00  0.14596564818E+02  0.14596565049E+02  0.26000000000E-02 0.  1.
         -2   -1    0    0    0  501 -0.00000000000E+00 -0.00000000000E+00 -0.68511005093E+01  0.68511010026E+01  0.26000000000E-02 0. -1.
       1023    2    1    2    0    0  0.00000000000E+00  0.00000000000E+00  0.77454643086E+01  0.21447666052E+02  0.20000254042E+02 0.  0.
        -11    1    3    3    0    0 -0.97346286926E+01 -0.22889073462E+01  0.38954185082E+01  0.10732025822E+02  0.51100000000E-03 0.  1.
         11    1    3    3    0    0  0.97346286926E+01  0.22889073462E+01  0.38500458005E+01  0.10715640230E+02  0.51100000000E-03 0. -1.
<mgrwt>
<rscale>  0 0.20000254E+02</rscale>
<asrwt>0</asrwt>
<pdfrwt beam="1">  1        2 0.22456254E-02 0.20000254E+02</pdfrwt>
<pdfrwt beam="2">  1       -2 0.10540155E-02 0.20000254E+02</pdfrwt>
<totfact> 0.40601149E+06</totfact>
</mgrwt>
</event>
<event>
 5    1  0.4046313E-006  0.2000034E+02  0.7818608E-02  0.1745321E+00
         -2   -1    0    0    0  501 -0.00000000000E+00  0.00000000000E+00  0.47498334133E+01  0.47498341249E+01  0.26000000000E-02 0.  1.
          2   -1    0    0  501    0  0.00000000000E+00 -0.00000000000E+00 -0.21054089713E+02  0.21054089873E+02  0.26000000000E-02 0. -1.
       1023    2    1    2    0    0  0.00000000000E+00  0.00000000000E+00 -0.16304256299E+02  0.25803923998E+02  0.20000343003E+02 0.  0.
        -11    1    3    3    0    0 -0.22256851997E+01  0.97493456751E+01 -0.81569715855E+01  0.12905022333E+02  0.51100000000E-03 0.  1.
         11    1    3    3    0    0  0.22256851997E+01 -0.97493456751E+01 -0.81472847138E+01  0.12898901665E+02  0.51100000000E-03 0. -1.
<mgrwt>
<rscale>  0 0.20000343E+02</rscale>
<asrwt>0</asrwt>
<pdfrwt beam="2">  1        2 0.32390907E-02 0.20000343E+02</pdfrwt>
<pdfrwt beam="1">  1       -2 0.73074368E-03 0.20000343E+02</pdfrwt>
<totfact> 0.41868417E+06</totfact>
</mgrwt>
</event>
<event>
 5    1  0.4064423E-006  0.2000084E+02  0.7818608E-02  0.1745311E+00
          2   -1    0    0  501    0  0.00000000000E+00  0.00000000000E+00  0.66064315899E+02  0.66064315950E+02  0.26000000000E-02 0. -1.
         -2   -1    0    0    0  501 -0.00000000000E+00 -0.00000000000E+00 -0.15138031450E+01  0.15138053778E+01  0.26000000000E-02 0.  1.
       1023    2    1    2    0    0  0.00000000000E+00  0.00000000000E+00  0.64550512754E+02  0.67578121328E+02  0.20000844617E+02 0.  0.
        -11    1    3    3    0    0 -0.62618261634E+01 -0.77972741538E+01  0.32200086725E+02  0.33717258733E+02  0.51100000000E-03 0.  1.
         11    1    3    3    0    0  0.62618261634E+01  0.77972741538E+01  0.32350426029E+02  0.33860862594E+02  0.51100000000E-03 0. -1.
<mgrwt>
<rscale>  0 0.20000845E+02</rscale>
<asrwt>0</asrwt>
<pdfrwt beam="1">  1        2 0.10163739E-01 0.20000845E+02</pdfrwt>
<pdfrwt beam="2">  1       -2 0.23289303E-03 0.20000845E+02</pdfrwt>
<totfact> 0.48500237E+06</totfact>
</mgrwt>
</event>
<event>
 5    1  0.4046313E-006  0.2000059E+02  0.7818608E-02  0.1745316E+00
         -2   -1    0    0    0  501 -0.00000000000E+00  0.00000000000E+00  0.17250029513E+02  0.17250029709E+02  0.26000000000E-02 0. -1.
          2   -1    0    0  501    0  0.00000000000E+00 -0.00000000000E+00 -0.57974352273E+01  0.57974358103E+01  0.26000000000E-02 0.  1.
       1023    2    1    2    0    0  0.00000000000E+00  0.00000000000E+00  0.11452594286E+02  0.23047465519E+02  0.20000593766E+02 0.  0.
        -11    1    3    3    0    0  0.67923900214E+01 -0.73395529782E+01  0.57051315723E+01  0.11513215304E+02  0.51100000000E-03 0. -1.
         11    1    3    3    0    0 -0.67923900214E+01  0.73395529782E+01  0.57474627137E+01  0.11534250215E+02  0.51100000000E-03 0.  1.
<mgrwt>
<rscale>  0 0.20000594E+02</rscale>
<asrwt>0</asrwt>
<pdfrwt beam="2">  1        2 0.89191319E-03 0.20000594E+02</pdfrwt>
<pdfrwt beam="1">  1       -2 0.26538507E-02 0.20000594E+02</pdfrwt>
<totfact> 0.37883085E+06</totfact>
</mgrwt>
</event>
<event>
 5    1  0.4046313E-006  0.2000102E+02  0.7818608E-02  0.1745308E+00
         -2   -1    0    0    0  501 -0.00000000000E+00  0.00000000000E+00  0.32154693691E+01  0.32154704203E+01  0.26000000000E-02 0.  1.
          2   -1    0    0  501    0  0.00000000000E+00 -0.00000000000E+00 -0.31102814961E+02  0.31102815069E+02  0.26000000000E-02 0. -1.
       1023    2    1    2    0    0  0.00000000000E+00  0.00000000000E+00 -0.27887345592E+02  0.34318285490E+02  0.20001016844E+02 0.  0.
        -11    1    3    3    0    0  0.99411243319E+01  0.10880402047E+01 -0.13910050945E+02  0.17131821328E+02  0.51100000000E-03 0.  1.
         11    1    3    3    0    0 -0.99411243319E+01 -0.10880402047E+01 -0.13977294647E+02  0.17186464162E+02  0.51100000000E-03 0. -1.
<mgrwt>
<rscale>  0 0.20001017E+02</rscale>
<asrwt>0</asrwt>
<pdfrwt beam="2">  1        2 0.47850483E-02 0.20001017E+02</pdfrwt>
<pdfrwt beam="1">  1       -2 0.49468771E-03 0.20001017E+02</pdfrwt>
<totfact> 0.43542335E+06</totfact>
</mgrwt>
</event>
<event>
 4    1  0.4046313E-006  0.2002744E+02  0.7818608E-02  0.1744783E+00
         -2   -1    0    0    0  501 -0.00000000000E+00  0.00000000000E+00  0.21705136651E+01  0.21705152224E+01  0.26000000000E-02 0.  1.
          2   -1    0    0  501    0  0.00000000000E+00 -0.00000000000E+00 -0.46198513616E+02  0.46198513689E+02  0.26000000000E-02 0. -1.
        -11    1    1    2    0    0 -0.80793250244E+01 -0.59159996134E+01 -0.22013851466E+02  0.24184379275E+02  0.51100000000E-03 0.  1.
         11    1    1    2    0    0  0.80793250244E+01  0.59159996134E+01 -0.22014148485E+02  0.24184649637E+02  0.51100000000E-03 0. -1.
<mgrwt>
<rscale>  0 0.20027436E+02</rscale>
<asrwt>0</asrwt>
<pdfrwt beam="2">  1        2 0.71074630E-02 0.20027436E+02</pdfrwt>
<pdfrwt beam="1">  1       -2 0.33392534E-03 0.20027436E+02</pdfrwt>
<totfact> 0.45652520E+06</totfact>
</mgrwt>
</event>
<event>
 5    1  0.4046313E-006  0.2000194E+02  0.7818608E-02  0.1745289E+00
         -2   -1    0    0    0  501 -0.00000000000E+00  0.00000000000E+00  0.25103462653E+02  0.25103462788E+02  0.26000000000E-02 0. -1.
          2   -1    0    0  501    0  0.00000000000E+00 -0.00000000000E+00 -0.39842872421E+01  0.39842880905E+01  0.26000000000E-02 0.  1.
       1023    2    1    2    0    0  0.00000000000E+00  0.00000000000E+00  0.21119175411E+02  0.29087750879E+02  0.20001941934E+02 0.  0.
        -11    1    3    3    0    0  0.93437927818E+01 -0.35653098758E+01  0.10502854238E+02  0.14502684078E+02  0.51100000000E-03 0. -1.
         11    1    3    3    0    0 -0.93437927818E+01  0.35653098758E+01  0.10616321173E+02  0.14585066801E+02  0.51100000000E-03 0.  1.
<mgrwt>
<rscale>  0 0.20001942E+02</rscale>
<asrwt>0</asrwt>
<pdfrwt beam="2">  1        2 0.61296732E-03 0.20001942E+02</pdfrwt>
<pdfrwt beam="1">  1       -2 0.38620714E-02 0.20001942E+02</pdfrwt>
<totfact> 0.36687179E+06</totfact>
</mgrwt>
</event>
<event>
 5    1  0.4411116E-006  0.2000148E+02  0.7818608E-02  0.1745299E+00
          2   -1    0    0  501    0  0.00000000000E+00  0.00000000000E+00  0.94243905591E+02  0.94243905627E+02  0.26000000000E-02 0. -1.
         -2   -1    0    0    0  501 -0.00000000000E+00 -0.00000000000E+00 -0.10612316044E+01  0.10612347894E+01  0.26000000000E-02 0.  1.
       1023    2    1    2    0    0  0.00000000000E+00  0.00000000000E+00  0.93182673987E+02  0.95305140416E+02  0.20001476407E+02 0.  0.
        -11    1    3    3    0    0  0.51965416010E+00 -0.99871931577E+01  0.46717110630E+02  0.47775542838E+02  0.51100000000E-03 0. -1.
         11    1    3    3    0    0 -0.51965416010E+00  0.99871931577E+01  0.46465563357E+02  0.47529597578E+02  0.51100000000E-03 0.  1.
<mgrwt>
<rscale>  0 0.20001476E+02</rscale>
<asrwt>0</asrwt>
<pdfrwt beam="1">  1        2 0.14499062E-01 0.20001476E+02</pdfrwt>
<pdfrwt beam="2">  1       -2 0.16326665E-03 0.20001476E+02</pdfrwt>
<totfact> 0.52055013E+06</totfact>
</mgrwt>
</event>
<event>
 5    1  0.4046313E-006  0.2000968E+02  0.7818608E-02  0.1745136E+00
         -2   -1    0    0    0  501 -0.00000000000E+00  0.00000000000E+00  0.16737120968E+01  0.16737141162E+01  0.26000000000E-02 0.  1.
          2   -1    0    0  501    0  0.00000000000E+00 -0.00000000000E+00 -0.59805265679E+02  0.59805265736E+02  0.26000000000E-02 0. -1.
       1023    2    1    2    0    0  0.00000000000E+00  0.00000000000E+00 -0.58131553582E+02  0.61478979852E+02  0.20009683699E+02 0.  0.
        -11    1    3    3    0    0  0.22617889070E+01 -0.97457264295E+01 -0.28928803165E+02  0.30609974282E+02  0.51100000000E-03 0.  1.
         11    1    3    3    0    0 -0.22617889070E+01  0.97457264295E+01 -0.29202750417E+02  0.30869005570E+02  0.51100000000E-03 0. -1.
<mgrwt>
<rscale>  0 0.20009684E+02</rscale>
<asrwt>0</asrwt>
<pdfrwt beam="2">  1        2 0.92008086E-02 0.20009684E+02</pdfrwt>
<pdfrwt beam="1">  1       -2 0.25749437E-03 0.20009684E+02</pdfrwt>
<totfact> 0.47620277E+06</totfact>
</mgrwt>
</event>
<event>
 5    1  0.4046313E-006  0.2000068E+02  0.7818608E-02  0.1745315E+00
         -2   -1    0    0    0  501 -0.00000000000E+00  0.00000000000E+00  0.46830797750E+01  0.46830804967E+01  0.26000000000E-02 0. -1.
          2   -1    0    0  501    0  0.00000000000E+00 -0.00000000000E+00 -0.21354915758E+02  0.21354915916E+02  0.26000000000E-02 0.  1.
       1023    2    1    2    0    0  0.00000000000E+00  0.00000000000E+00 -0.16671835983E+02  0.26037996413E+02  0.20000678543E+02 0.  0.
        -11    1    3    3    0    0 -0.43216952883E-01  0.10000196064E+02 -0.82948267443E+01  0.12992687943E+02  0.51100000000E-03 0. -1.
         11    1    3    3    0    0  0.43216952883E-01 -0.10000196064E+02 -0.83770092389E+01  0.13045308470E+02  0.51100000000E-03 0.  1.
<mgrwt>
<rscale>  0 0.20000679E+02</rscale>
<asrwt>0</asrwt>
<pdfrwt beam="2">  1        2 0.32853717E-02 0.20000679E+02</pdfrwt>
<pdfrwt beam="1">  1       -2 0.72047389E-03 0.20000679E+02</pdfrwt>
<totfact> 0.41920878E+06</totfact>
</mgrwt>
</event>
<event>
 5    1  0.4130262E-006  0.2000239E+02  0.7818608E-02  0.1745281E+00
          2   -1    0    0  501    0  0.00000000000E+00  0.00000000000E+00  0.16074338205E+01  0.16074359233E+01  0.26000000000E-02 0.  1.
         -2   -1    0    0    0  501 -0.00000000000E+00 -0.00000000000E+00 -0.62225775825E+02  0.62225775879E+02  0.26000000000E-02 0. -1.
       1023    2    1    2    0    0  0.00000000000E+00  0.00000000000E+00 -0.60618342004E+02  0.63833211802E+02  0.20002388399E+02 0.  0.
        -11    1    3    3    0    0 -0.99990223381E+01 -0.19541289391E+00 -0.30540428397E+02  0.32136216343E+02  0.51100000000E-03 0. -1.
         11    1    3    3    0    0  0.99990223381E+01  0.19541289391E+00 -0.30077913607E+02  0.31696995459E+02  0.51100000000E-03 0.  1.
<mgrwt>
<rscale>  0 0.20002388E+02</rscale>
<asrwt>0</asrwt>
<pdfrwt beam="1">  1        2 0.24729772E-03 0.20002388E+02</pdfrwt>
<pdfrwt beam="2">  1       -2 0.95731946E-02 0.20002388E+02</pdfrwt>
<totfact> 0.32751285E+06</totfact>
</mgrwt>
</event>
<event>
 5    1  0.4046313E-006  0.2000003E+02  0.7818608E-02  0.1745327E+00
         -2   -1    0    0    0  501 -0.00000000000E+00  0.00000000000E+00  0.16207303243E+01  0.16207324098E+01  0.26000000000E-02 0. -1.
          2   -1    0    0  501    0  0.00000000000E+00 -0.00000000000E+00 -0.61700733319E+02  0.61700733374E+02  0.26000000000E-02 0.  1.
       1023    2    1    2    0    0  0.00000000000E+00  0.00000000000E+00 -0.60080002995E+02  0.63321465783E+02  0.20000031728E+02 0.  0.
        -11    1    3    3    0    0 -0.84839310074E+01  0.52936964027E+01 -0.30029949709E+02  0.31651195660E+02  0.51100000000E-03 0. -1.
         11    1    3    3    0    0  0.84839310074E+01 -0.52936964027E+01 -0.30050053286E+02  0.31670270123E+02  0.51100000000E-03 0.  1.
<mgrwt>
<rscale>  0 0.20000032E+02</rscale>
<asrwt>0</asrwt>
<pdfrwt beam="2">  1        2 0.94924189E-02 0.20000032E+02</pdfrwt>
<pdfrwt beam="1">  1       -2 0.24934334E-03 0.20000032E+02</pdfrwt>
<totfact> 0.47925617E+06</totfact>
</mgrwt>
</event>
<event>
 4    1  0.4046313E-006  0.2001295E+02  0.7818608E-02  0.1745071E+00
         -2   -1    0    0    0  501 -0.00000000000E+00  0.00000000000E+00  0.77878816563E+01  0.77878820903E+01  0.26000000000E-02 0. -1.
          2   -1    0    0  501    0  0.00000000000E+00 -0.00000000000E+00 -0.12857094114E+02  0.12857094377E+02  0.26000000000E-02 0.  1.
        -11    1    1    2    0    0 -0.89868469522E+01  0.43975764285E+01 -0.27054808284E+01  0.10364445155E+02  0.51100000000E-03 0.  1.
         11    1    1    2    0    0  0.89868469522E+01 -0.43975764285E+01 -0.23637316290E+01  0.10280531312E+02  0.51100000000E-03 0. -1.
<mgrwt>
<rscale>  0 0.20012949E+02</rscale>
<asrwt>0</asrwt>
<pdfrwt beam="2">  1        2 0.19780145E-02 0.20012949E+02</pdfrwt>
<pdfrwt beam="1">  1       -2 0.11981357E-02 0.20012949E+02</pdfrwt>
<totfact> 0.40148202E+06</totfact>
</mgrwt>
</event>
<event>
 5    1  0.4046313E-006  0.2000095E+02  0.7818608E-02  0.1745309E+00
          2   -1    0    0  501    0  0.00000000000E+00  0.00000000000E+00  0.36156627267E+01  0.36156636615E+01  0.26000000000E-02 0.  1.
         -2   -1    0    0    0  501 -0.00000000000E+00 -0.00000000000E+00 -0.27660070919E+02  0.27660071041E+02  0.26000000000E-02 0. -1.
       1023    2    1    2    0    0  0.00000000000E+00  0.00000000000E+00 -0.24044408192E+02  0.31275734703E+02  0.20000950374E+02 0.  0.
        -11    1    3    3    0    0  0.71159673509E+01  0.70260200224E+01 -0.12158121316E+02  0.15742358873E+02  0.51100000000E-03 0. -1.
         11    1    3    3    0    0 -0.71159673509E+01 -0.70260200224E+01 -0.11886286877E+02  0.15533375830E+02  0.51100000000E-03 0.  1.
<mgrwt>
<rscale>  0 0.20000950E+02</rscale>
<asrwt>0</asrwt>
<pdfrwt beam="1">  1        2 0.55625590E-03 0.20000950E+02</pdfrwt>
<pdfrwt beam="2">  1       -2 0.42553955E-02 0.20000950E+02</pdfrwt>
<totfact> 0.36354541E+06</totfact>
</mgrwt>
</event>
<event>
 5    1  0.4046313E-006  0.2000065E+02  0.7818608E-02  0.1745315E+00
         -2   -1    0    0    0  501 -0.00000000000E+00  0.00000000000E+00  0.17555377767E+02  0.17555377960E+02  0.26000000000E-02 0. -1.
          2   -1    0    0  501    0  0.00000000000E+00 -0.00000000000E+00 -0.56966314469E+01  0.56966320402E+01  0.26000000000E-02 0.  1.
       1023    2    1    2    0    0  0.00000000000E+00  0.00000000000E+00  0.11858746320E+02  0.23252010000E+02  0.20000652608E+02 0.  0.
        -11    1    3    3    0    0  0.97734448627E+01  0.21179983758E+01  0.59065821248E+01  0.11614381355E+02  0.51100000000E-03 0.  1.
         11    1    3    3    0    0 -0.97734448627E+01 -0.21179983758E+01  0.59521641954E+01  0.11637628645E+02  0.51100000000E-03 0. -1.
<mgrwt>
<rscale>  0 0.20000653E+02</rscale>
<asrwt>0</asrwt>
<pdfrwt beam="2">  1        2 0.87640491E-03 0.20000653E+02</pdfrwt>
<pdfrwt beam="1">  1       -2 0.27008274E-02 0.20000653E+02</pdfrwt>
<totfact> 0.37830229E+06</totfact>
</mgrwt>
</event>
<event>
 5    1  0.4046313E-006  0.2000024E+02  0.7818608E-02  0.1745323E+00
         -2   -1    0    0    0  501 -0.00000000000E+00  0.00000000000E+00  0.47650601911E+02  0.47650601982E+02  0.26000000000E-02 0. -1.
          2   -1    0    0  501    0  0.00000000000E+00 -0.00000000000E+00 -0.20986592951E+01  0.20986609056E+01  0.26000000000E-02 0.  1.
       1023    2    1    2    0    0  0.00000000000E+00  0.00000000000E+00  0.45551942616E+02  0.49749262887E+02  0.20000242043E+02 0.  0.
        -11    1    3    3    0    0  0.13980774428E+01 -0.99019002586E+01  0.22743452209E+02  0.24844855964E+02  0.51100000000E-03 0. -1.
         11    1    3    3    0    0 -0.13980774428E+01  0.99019002586E+01  0.22808490407E+02  0.24904406923E+02  0.51100000000E-03 0.  1.
<mgrwt>
<rscale>  0 0.20000242E+02</rscale>
<asrwt>0</asrwt>
<pdfrwt beam="2">  1        2 0.32287080E-03 0.20000242E+02</pdfrwt>
<pdfrwt beam="1">  1       -2 0.73308617E-02 0.20000242E+02</pdfrwt>
<totfact> 0.34129308E+06</totfact>
</mgrwt>
</event>
<event>
 5    1  0.4046313E-006  0.2000495E+02  0.7818608E-02  0.1745230E+00
          2   -1    0    0  501    0  0.00000000000E+00  0.00000000000E+00  0.35471559978E+01  0.35471569506E+01  0.26000000000E-02 0. -1.
         -2   -1    0    0    0  501 -0.00000000000E+00 -0.00000000000E+00 -0.28205550001E+02  0.28205550120E+02  0.26000000000E-02 0.  1.
       1023    2    1    2    0    0  0.00000000000E+00  0.00000000000E+00 -0.24658394003E+02  0.31752707071E+02  0.20004949676E+02 0.  0.
        -11    1    3    3    0    0  0.81363852371E+01 -0.58172730766E+01 -0.12471800383E+02  0.15987095916E+02  0.51100000000E-03 0. -1.
         11    1    3    3    0    0 -0.81363852371E+01  0.58172730766E+01 -0.12186593619E+02  0.15765611155E+02  0.51100000000E-03 0.  1.
<mgrwt>
<rscale>  0 0.20004950E+02</rscale>
<asrwt>0</asrwt>
<pdfrwt beam="1">  1        2 0.54571641E-03 0.20004950E+02</pdfrwt>
<pdfrwt beam="2">  1       -2 0.43393153E-02 0.20004950E+02</pdfrwt>
<totfact> 0.36269079E+06</totfact>
</mgrwt>
</event>
<event>
 5    1  0.4046313E-006  0.2000530E+02  0.7818608E-02  0.1745223E+00
         -2   -1    0    0    0  501 -0.00000000000E+00  0.00000000000E+00  0.18498534576E+01  0.18498552848E+01  0.26000000000E-02 0.  1.
          2   -1    0    0  501    0  0.00000000000E+00 -0.00000000000E+00 -0.54086982998E+02  0.54086983060E+02  0.26000000000E-02 0. -1.
       1023    2    1    2    0    0  0.00000000000E+00  0.00000000000E+00 -0.52237129540E+02  0.55936838345E+02  0.20005303833E+02 0.  0.
        -11    1    3    3    0    0  0.64621812390E+01  0.76338842182E+01 -0.26483886581E+02  0.28309578296E+02  0.51100000000E-03 0.  1.
         11    1    3    3    0    0 -0.64621812390E+01 -0.76338842182E+01 -0.25753242960E+02  0.27627260049E+02  0.51100000000E-03 0. -1.
<mgrwt>
<rscale>  0 0.20005304E+02</rscale>
<asrwt>0</asrwt>
<pdfrwt beam="2">  1        2 0.83210732E-02 0.20005304E+02</pdfrwt>
<pdfrwt beam="1">  1       -2 0.28459303E-03 0.20005304E+02</pdfrwt>
<totfact> 0.46866625E+06</totfact>
</mgrwt>
</event>
<event>
 5    1  0.4046313E-006  0.2000467E+02  0.7818608E-02  0.1745235E+00
         -2   -1    0    0    0  501 -0.00000000000E+00  0.00000000000E+00  0.40964929750E+01  0.40964938001E+01  0.26000000000E-02 0. -1.
          2   -1    0    0  501    0  0.00000000000E+00 -0.00000000000E+00 -0.24422514023E+02  0.24422514161E+02  0.26000000000E-02 0.  1.
       1023    2    1    2    0    0  0.00000000000E+00  0.00000000000E+00 -0.20326021048E+02  0.28519007961E+02  0.20004666542E+02 0.  0.
        -11    1    3    3    0    0  0.82471006261E+00  0.99674654172E+01 -0.10344221476E+02  0.14388656356E+02  0.51100000000E-03 0. -1.
         11    1    3    3    0    0 -0.82471006261E+00 -0.99674654172E+01 -0.99817995716E+01  0.14130351605E+02  0.51100000000E-03 0.  1.
<mgrwt>
<rscale>  0 0.20004667E+02</rscale>
<asrwt>0</asrwt>
<pdfrwt beam="2">  1        2 0.37573098E-02 0.20004667E+02</pdfrwt>
<pdfrwt beam="1">  1       -2 0.63022978E-03 0.20004667E+02</pdfrwt>
<totfact> 0.42436610E+06</totfact>
</mgrwt>
</event>
<event>
 5    1  0.4064421E-006  0.2000047E+02  0.7818608E-02  0.1745319E+00
          2   -1    0    0  501    0  0.00000000000E+00  0.00000000000E+00  0.61799523165E+02  0.61799523220E+02  0.26000000000E-02 0. -1.
         -2   -1    0    0    0  501 -0.00000000000E+00 -0.00000000000E+00 -0.16182096361E+01  0.16182117248E+01  0.26000000000E-02 0.  1.
       1023    2    1    2    0    0  0.00000000000E+00  0.00000000000E+00  0.60181313529E+02  0.63417734945E+02  0.20000465180E+02 0.  0.
        -11    1    3    3    0    0 -0.76902568881E+01  0.63924213438E+01  0.29965823599E+02  0.31590404965E+02  0.51100000000E-03 0. -1.
         11    1    3    3    0    0  0.76902568881E+01 -0.63924213438E+01  0.30215489930E+02  0.31827329979E+02  0.51100000000E-03 0.  1.
<mgrwt>
<rscale>  0 0.20000465E+02</rscale>
<asrwt>0</asrwt>
<pdfrwt beam="1">  1        2 0.95076185E-02 0.20000465E+02</pdfrwt>
<pdfrwt beam="2">  1       -2 0.24895551E-03 0.20000465E+02</pdfrwt>
<totfact> 0.47936515E+06</totfact>
</mgrwt>
</event>
<event>
 5    1  0.4046313E-006  0.2000012E+02  0.7818608E-02  0.1745326E+00
          2   -1    0    0  501    0  0.00000000000E+00  0.00000000000E+00  0.16236965170E+02  0.16236965378E+02  0.26000000000E-02 0. -1.
         -2   -1    0    0    0  501 -0.00000000000E+00 -0.00000000000E+00 -0.61588609102E+01  0.61588614591E+01  0.26000000000E-02 0.  1.
       1023    2    1    2    0    0  0.00000000000E+00  0.00000000000E+00  0.10078104260E+02  0.22395826837E+02  0.20000121856E+02 0.  0.
        -11    1    3    3    0    0  0.91161051777E+01  0.41106881661E+01  0.50285778871E+01  0.11193200018E+02  0.51100000000E-03 0. -1.
         11    1    3    3    0    0 -0.91161051777E+01 -0.41106881661E+01  0.50495263728E+01  0.11202626820E+02  0.51100000000E-03 0.  1.
<mgrwt>
<rscale>  0 0.20000122E+02</rscale>
<asrwt>0</asrwt>
<pdfrwt beam="1">  1        2 0.24979947E-02 0.20000122E+02</pdfrwt>
<pdfrwt beam="2">  1       -2 0.94751712E-03 0.20000122E+02</pdfrwt>
<totfact> 0.40948239E+06</totfact>
</mgrwt>
</event>
<event>
 5    1  0.4046313E-006  0.2000111E+02  0.7818608E-02  0.1745306E+00
         -2   -1    0    0    0  501 -0.00000000000E+00  0.00000000000E+00  0.42328225675E+01  0.42328233660E+01  0.26000000000E-02 0. -1.
          2   -1    0    0  501    0  0.00000000000E+00 -0.00000000000E+00 -0.23627524575E+02  0.23627524718E+02  0.26000000000E-02 0.  1.
       1023    2    1    2    0    0  0.00000000000E+00  0.00000000000E+00 -0.19394702007E+02  0.27860348084E+02  0.20001113204E+02 0.  0.
        -11    1    3    3    0    0 -0.99304250534E+01 -0.11822060925E+01 -0.96787093129E+01  0.13917196816E+02  0.51100000000E-03 0.  1.
         11    1    3    3    0    0  0.99304250534E+01  0.11822060925E+01 -0.97159926945E+01  0.13943151268E+02  0.51100000000E-03 0. -1.
<mgrwt>
<rscale>  0 0.20001113E+02</rscale>
<asrwt>0</asrwt>
<pdfrwt beam="2">  1        2 0.36350038E-02 0.20001113E+02</pdfrwt>
<pdfrwt beam="1">  1       -2 0.65120356E-03 0.20001113E+02</pdfrwt>
<totfact> 0.42317568E+06</totfact>
</mgrwt>
</event>
<event>
 5    1  0.4046313E-006  0.2000106E+02  0.7818608E-02  0.1745307E+00
         -2   -1    0    0    0  501 -0.00000000000E+00  0.00000000000E+00  0.21063426219E+01  0.21063442266E+01  0.26000000000E-02 0. -1.
          2   -1    0    0  501    0  0.00000000000E+00 -0.00000000000E+00 -0.47480652319E+02  0.47480652391E+02  0.26000000000E-02 0.  1.
       1023    2    1    2    0    0  0.00000000000E+00  0.00000000000E+00 -0.45374309698E+02  0.49586996617E+02  0.20001056297E+02 0.  0.
        -11    1    3    3    0    0 -0.20727912548E+01 -0.97833569143E+01 -0.22700010200E+02  0.24805261527E+02  0.51100000000E-03 0. -1.
         11    1    3    3    0    0  0.20727912548E+01  0.97833569143E+01 -0.22674299497E+02  0.24781735090E+02  0.51100000000E-03 0.  1.
<mgrwt>
<rscale>  0 0.20001056E+02</rscale>
<asrwt>0</asrwt>
<pdfrwt beam="2">  1        2 0.73047151E-02 0.20001056E+02</pdfrwt>
<pdfrwt beam="1">  1       -2 0.32405287E-03 0.20001056E+02</pdfrwt>
<totfact> 0.45968646E+06</totfact>
</mgrwt>
</event>
<event>
 5    1  0.4046313E-006  0.2000249E+02  0.7818608E-02  0.1745278E+00
         -2   -1    0    0    0  501 -0.00000000000E+00  0.00000000000E+00  0.22855192327E+01  0.22855207116E+01  0.26000000000E-02 0. -1.
          2   -1    0    0  501    0  0.00000000000E+00 -0.00000000000E+00 -0.43764632182E+02  0.43764632259E+02  0.26000000000E-02 0.  1.
       1023    2    1    2    0    0  0.00000000000E+00  0.00000000000E+00 -0.41479112949E+02  0.46050152970E+02  0.20002494284E+02 0.  0.
        -11    1    3    3    0    0 -0.81936947932E+01  0.57347223203E+01 -0.20657522544E+02  0.22951185424E+02  0.51100000000E-03 0. -1.
         11    1    3    3    0    0  0.81936947932E+01 -0.57347223203E+01 -0.20821590405E+02  0.23098967546E+02  0.51100000000E-03 0.  1.
<mgrwt>
<rscale>  0 0.20002494E+02</rscale>
<asrwt>0</asrwt>
<pdfrwt beam="2">  1        2 0.67330198E-02 0.20002494E+02</pdfrwt>
<pdfrwt beam="1">  1       -2 0.35161850E-03 0.20002494E+02</pdfrwt>
<totfact> 0.45431369E+06</totfact>
</mgrwt>
</event>
<event>
 5    1  0.4046313E-006  0.2000114E+02  0.7818608E-02  0.1745305E+00
         -2   -1    0    0    0  501 -0.00000000000E+00  0.00000000000E+00  0.79972418212E+01  0.79972422439E+01  0.26000000000E-02 0. -1.
          2   -1    0    0  501    0  0.00000000000E+00 -0.00000000000E+00 -0.12505735663E+02  0.12505735933E+02  0.26000000000E-02 0.  1.
       1023    2    1    2    0    0  0.00000000000E+00  0.00000000000E+00 -0.45084938413E+01  0.20502978177E+02  0.20001139902E+02 0.  0.
        -11    1    3    3    0    0  0.99042712235E+01 -0.13814448148E+01 -0.21601793322E+01  0.10230804135E+02  0.51100000000E-03 0. -1.
         11    1    3    3    0    0 -0.99042712235E+01  0.13814448148E+01 -0.23483145091E+01  0.10272174042E+02  0.51100000000E-03 0.  1.
<mgrwt>
<rscale>  0 0.20001140E+02</rscale>
<asrwt>0</asrwt>
<pdfrwt beam="2">  1        2 0.19239594E-02 0.20001140E+02</pdfrwt>
<pdfrwt beam="1">  1       -2 0.12303450E-02 0.20001140E+02</pdfrwt>
<totfact> 0.40117829E+06</totfact>
</mgrwt>
</event>
<event>
 4    1  0.4046313E-006  0.2035603E+02  0.7818608E-02  0.1738339E+00
          2   -1    0    0  501    0  0.00000000000E+00  0.00000000000E+00  0.11992792282E+03  0.11992792285E+03  0.26000000000E-02 0. -1.
         -2   -1    0    0    0  501 -0.00000000000E+00 -0.00000000000E+00 -0.86378349899E+00  0.86378741200E+00  0.26000000000E-02 0.  1.
        -11    1    1    2    0    0  0.93675032320E+01 -0.39665128397E+01  0.57576045557E+02  0.58467806211E+02  0.51100000000E-03 0.  1.
         11    1    1    2    0    0 -0.93675032320E+01  0.39665128397E+01  0.61488093762E+02  0.62323904047E+02  0.51100000000E-03 0. -1.
<mgrwt>
<rscale>  0 0.20356031E+02</rscale>
<asrwt>0</asrwt>
<pdfrwt beam="1">  1        2 0.18450444E-01 0.20356031E+02</pdfrwt>
<pdfrwt beam="2">  1       -2 0.13289012E-03 0.20356031E+02</pdfrwt>
<totfact> 0.52982605E+06</totfact>
</mgrwt>
</event>
<event>
 5    1  0.4046313E-006  0.2000062E+02  0.7818608E-02  0.1745316E+00
         -2   -1    0    0    0  501 -0.00000000000E+00  0.00000000000E+00  0.12013461263E+03  0.12013461266E+03  0.26000000000E-02 0.  1.
          2   -1    0    0  501    0  0.00000000000E+00 -0.00000000000E+00 -0.83244944703E+00  0.83245350733E+00  0.26000000000E-02 0. -1.
       1023    2    1    2    0    0  0.00000000000E+00  0.00000000000E+00  0.11930216318E+03  0.12096706616E+03  0.20000623904E+02 0.  0.
        -11    1    3    3    0    0 -0.74188631859E+01 -0.67057216847E+01  0.59638126911E+02  0.60470756701E+02  0.51100000000E-03 0. -1.
         11    1    3    3    0    0  0.74188631859E+01  0.67057216847E+01  0.59664036269E+02  0.60496309461E+02  0.51100000000E-03 0.  1.
<mgrwt>
<rscale>  0 0.20000624E+02</rscale>
<asrwt>0</asrwt>
<pdfrwt beam="2">  1        2 0.12806957E-03 0.20000624E+02</pdfrwt>
<pdfrwt beam="1">  1       -2 0.18482233E-01 0.20000624E+02</pdfrwt>
<totfact> 0.28330250E+06</totfact>
</mgrwt>
</event>
<event>
 5    1  0.4046313E-006  0.2000024E+02  0.7818608E-02  0.1745323E+00
         -2   -1    0    0    0  501 -0.00000000000E+00  0.00000000000E+00  0.50678983712E+01  0.50678990381E+01  0.26000000000E-02 0.  1.
          2   -1    0    0  501    0  0.00000000000E+00 -0.00000000000E+00 -0.19732519326E+02  0.19732519497E+02  0.26000000000E-02 0. -1.
       1023    2    1    2    0    0  0.00000000000E+00  0.00000000000E+00 -0.14664620954E+02  0.24800418535E+02  0.20000241293E+02 0.  0.
        -11    1    3    3    0    0  0.84217833855E+01  0.53922089443E+01 -0.73227061327E+01  0.12394530167E+02  0.51100000000E-03 0. -1.
         11    1    3    3    0    0 -0.84217833855E+01 -0.53922089443E+01 -0.73419148217E+01  0.12405888368E+02  0.51100000000E-03 0.  1.
<mgrwt>
<rscale>  0 0.20000241E+02</rscale>
<asrwt>0</asrwt>
<pdfrwt beam="2">  1        2 0.30357722E-02 0.20000241E+02</pdfrwt>
<pdfrwt beam="1">  1       -2 0.77967675E-03 0.20000241E+02</pdfrwt>
<totfact> 0.41627414E+06</totfact>
</mgrwt>
</event>
<event>
 4    1  0.4046313E-006  0.2002410E+02  0.7818608E-02  0.1744849E+00
          2   -1    0    0  501    0  0.00000000000E+00  0.00000000000E+00  0.47236635765E+02  0.47236635837E+02  0.26000000000E-02 0. -1.
         -2   -1    0    0    0  501 -0.00000000000E+00 -0.00000000000E+00 -0.21221056925E+01  0.21221072853E+01  0.26000000000E-02 0.  1.
        -11    1    1    2    0    0 -0.10493038767E+01  0.99510346072E+01  0.23400579349E+02  0.25450171758E+02  0.51100000000E-03 0.  1.
         11    1    1    2    0    0  0.10493038767E+01 -0.99510346072E+01  0.21713950724E+02  0.23908571364E+02  0.51100000000E-03 0. -1.
<mgrwt>
<rscale>  0 0.20024103E+02</rscale>
<asrwt>0</asrwt>
<pdfrwt beam="1">  1        2 0.72671737E-02 0.20024103E+02</pdfrwt>
<pdfrwt beam="2">  1       -2 0.32647798E-03 0.20024103E+02</pdfrwt>
<totfact> 0.45816377E+06</totfact>
</mgrwt>
</event>
<event>
 5    1  0.4046313E-006  0.2000039E+02  0.7818608E-02  0.1745320E+00
         -2   -1    0    0    0  501 -0.00000000000E+00  0.00000000000E+00  0.20325916310E+01  0.20325932939E+01  0.26000000000E-02 0.  1.
          2   -1    0    0  501    0  0.00000000000E+00 -0.00000000000E+00 -0.49200175044E+02  0.49200175112E+02  0.26000000000E-02 0. -1.
       1023    2    1    2    0    0  0.00000000000E+00  0.00000000000E+00 -0.47167583413E+02  0.51232768406E+02  0.20000390836E+02 0.  0.
        -11    1    3    3    0    0 -0.94162571967E+01 -0.33669237504E+01 -0.23474121057E+02  0.25515415630E+02  0.51100000000E-03 0. -1.
         11    1    3    3    0    0  0.94162571967E+01  0.33669237504E+01 -0.23693462356E+02  0.25717352776E+02  0.51100000000E-03 0.  1.
<mgrwt>
<rscale>  0 0.20000391E+02</rscale>
<asrwt>0</asrwt>
<pdfrwt beam="2">  1        2 0.75692569E-02 0.20000391E+02</pdfrwt>
<pdfrwt beam="1">  1       -2 0.31270657E-03 0.20000391E+02</pdfrwt>
<totfact> 0.46214133E+06</totfact>
</mgrwt>
</event>
<event>
 5    1  0.4046313E-006  0.2000056E+02  0.7818608E-02  0.1745317E+00
         -2   -1    0    0    0  501 -0.00000000000E+00  0.00000000000E+00  0.23132266182E+01  0.23132280794E+01  0.26000000000E-02 0. -1.
          2   -1    0    0  501    0  0.00000000000E+00 -0.00000000000E+00 -0.43232070079E+02  0.43232070157E+02  0.26000000000E-02 0.  1.
       1023    2    1    2    0    0  0.00000000000E+00  0.00000000000E+00 -0.40918843461E+02  0.45545298236E+02  0.20000561024E+02 0.  0.
        -11    1    3    3    0    0 -0.92855621490E+01 -0.37126678684E+01 -0.20444500178E+02  0.22759243285E+02  0.51100000000E-03 0.  1.
         11    1    3    3    0    0  0.92855621490E+01  0.37126678684E+01 -0.20474343283E+02  0.22786054951E+02  0.51100000000E-03 0. -1.
<mgrwt>
<rscale>  0 0.20000561E+02</rscale>
<asrwt>0</asrwt>
<pdfrwt beam="2">  1        2 0.66510872E-02 0.20000561E+02</pdfrwt>
<pdfrwt beam="1">  1       -2 0.35588117E-03 0.20000561E+02</pdfrwt>
<totfact> 0.45364382E+06</totfact>
</mgrwt>
</event>
<event>
 5    1  0.4046313E-006  0.2000138E+02  0.7818608E-02  0.1745301E+00
         -2   -1    0    0    0  501 -0.00000000000E+00  0.00000000000E+00  0.36510518495E+02  0.36510518587E+02  0.26000000000E-02 0. -1.
          2   -1    0    0  501    0  0.00000000000E+00 -0.00000000000E+00 -0.27393144544E+01  0.27393156883E+01  0.26000000000E-02 0.  1.
       1023    2    1    2    0    0  0.00000000000E+00  0.00000000000E+00  0.33771204040E+02  0.39249834276E+02  0.20001381660E+02 0.  0.
        -11    1    3    3    0    0 -0.39425645665E+01 -0.91906843164E+01  0.16814218183E+02  0.19563497309E+02  0.51100000000E-03 0. -1.
         11    1    3    3    0    0  0.39425645665E+01  0.91906843164E+01  0.16956985857E+02  0.19686336967E+02  0.51100000000E-03 0.  1.
<mgrwt>
<rscale>  0 0.20001382E+02</rscale>
<asrwt>0</asrwt>
<pdfrwt beam="2">  1        2 0.42143309E-03 0.20001382E+02</pdfrwt>
<pdfrwt beam="1">  1       -2 0.56170030E-02 0.20001382E+02</pdfrwt>
<totfact> 0.35297108E+06</totfact>
</mgrwt>
</event>
<event>
 5    1  0.4291257E-006  0.2000102E+02  0.7818608E-02  0.1745308E+00
          2   -1    0    0  501    0  0.00000000000E+00  0.00000000000E+00  0.11127759839E+03  0.11127759842E+03  0.26000000000E-02 0.  1.
         -2   -1    0    0    0  501 -0.00000000000E+00 -0.00000000000E+00 -0.89874277940E+00  0.89874654020E+00  0.26000000000E-02 0. -1.
       1023    2    1    2    0    0  0.00000000000E+00  0.00000000000E+00  0.11037885561E+03  0.11217634496E+03  0.20001015044E+02 0.  0.
        -11    1    3    3    0    0 -0.43998793227E+01 -0.89804312131E+01  0.54878793584E+02  0.55782515794E+02  0.51100000000E-03 0.  1.
         11    1    3    3    0    0  0.43998793227E+01  0.89804312131E+01  0.55500062022E+02  0.56393829162E+02  0.51100000000E-03 0. -1.
<mgrwt>
<rscale>  0 0.20001015E+02</rscale>
<asrwt>0</asrwt>
<pdfrwt beam="1">  1        2 0.17119623E-01 0.20001015E+02</pdfrwt>
<pdfrwt beam="2">  1       -2 0.13826848E-03 0.20001015E+02</pdfrwt>
<totfact> 0.54082328E+06</totfact>
</mgrwt>
</event>
<event>
 5    1  0.4046313E-006  0.2000132E+02  0.7818608E-02  0.1745302E+00
         -2   -1    0    0    0  501 -0.00000000000E+00  0.00000000000E+00  0.52018488585E+02  0.52018488650E+02  0.26000000000E-02 0. -1.
          2   -1    0    0  501    0  0.00000000000E+00 -0.00000000000E+00 -0.19226470689E+01  0.19226488269E+01  0.26000000000E-02 0.  1.
       1023    2    1    2    0    0  0.00000000000E+00  0.00000000000E+00  0.50095841516E+02  0.53941137476E+02  0.20001324333E+02 0.  0.
        -11    1    3    3    0    0  0.89471373381E+01  0.44674394759E+01  0.24878178194E+02  0.26812926594E+02  0.51100000000E-03 0.  1.
         11    1    3    3    0    0 -0.89471373381E+01 -0.44674394759E+01  0.25217663322E+02  0.27128210883E+02  0.51100000000E-03 0. -1.
<mgrwt>
<rscale>  0 0.20001324E+02</rscale>
<asrwt>0</asrwt>
<pdfrwt beam="2">  1        2 0.29579197E-03 0.20001324E+02</pdfrwt>
<pdfrwt beam="1">  1       -2 0.80028451E-02 0.20001324E+02</pdfrwt>
<totfact> 0.33698505E+06</totfact>
</mgrwt>
</event>
<event>
 5    1  0.4046313E-006  0.2000544E+02  0.7818608E-02  0.1745220E+00
         -2   -1    0    0    0  501 -0.00000000000E+00  0.00000000000E+00  0.13777431531E+02  0.13777431776E+02  0.26000000000E-02 0. -1.
          2   -1    0    0  501    0  0.00000000000E+00 -0.00000000000E+00 -0.72621928787E+01  0.72621933441E+01  0.26000000000E-02 0.  1.
       1023    2    1    2    0    0  0.00000000000E+00  0.00000000000E+00  0.65152386519E+01  0.21039625120E+02  0.20005436524E+02 0.  0.
        -11    1    3    3    0    0 -0.44213894331E+01 -0.89723494152E+01  0.33115931084E+01  0.10536526359E+02  0.51100000000E-03 0. -1.
         11    1    3    3    0    0  0.44213894331E+01  0.89723494152E+01  0.32036455435E+01  0.10503098761E+02  0.51100000000E-03 0.  1.
<mgrwt>
<rscale>  0 0.20005437E+02</rscale>
<asrwt>0</asrwt>
<pdfrwt beam="2">  1        2 0.11172605E-02 0.20005437E+02</pdfrwt>
<pdfrwt beam="1">  1       -2 0.21196049E-02 0.20005437E+02</pdfrwt>
<totfact> 0.38521211E+06</totfact>
</mgrwt>
</event>
<event>
 5    1  0.4046313E-006  0.2000303E+02  0.7818608E-02  0.1745268E+00
          2   -1    0    0  501    0  0.00000000000E+00  0.00000000000E+00  0.39295040216E+01  0.39295048818E+01  0.26000000000E-02 0. -1.
         -2   -1    0    0    0  501 -0.00000000000E+00 -0.00000000000E+00 -0.25456213948E+02  0.25456214081E+02  0.26000000000E-02 0.  1.
       1023    2    1    2    0    0  0.00000000000E+00  0.00000000000E+00 -0.21526709927E+02  0.29385718963E+02  0.20003030738E+02 0.  0.
        -11    1    3    3    0    0  0.59871711106E+01  0.80114966792E+01 -0.10758167996E+02  0.14689059733E+02  0.51100000000E-03 0. -1.
         11    1    3    3    0    0 -0.59871711106E+01 -0.80114966792E+01 -0.10768541930E+02  0.14696659230E+02  0.51100000000E-03 0.  1.
<mgrwt>
<rscale>  0 0.20003031E+02</rscale>
<asrwt>0</asrwt>
<pdfrwt beam="1">  1        2 0.60453917E-03 0.20003031E+02</pdfrwt>
<pdfrwt beam="2">  1       -2 0.39163406E-02 0.20003031E+02</pdfrwt>
<totfact> 0.36635294E+06</totfact>
</mgrwt>
</event>
<event>
 5    1  0.4046313E-006  0.2000061E+02  0.7818608E-02  0.1745316E+00
         -2   -1    0    0    0  501 -0.00000000000E+00  0.00000000000E+00  0.50581940537E+02  0.50581940604E+02  0.26000000000E-02 0. -1.
          2   -1    0    0  501    0  0.00000000000E+00 -0.00000000000E+00 -0.19771089131E+01  0.19771106226E+01  0.26000000000E-02 0.  1.
       1023    2    1    2    0    0  0.00000000000E+00  0.00000000000E+00  0.48604831624E+02  0.52559051226E+02  0.20000605207E+02 0.  0.
        -11    1    3    3    0    0 -0.68596680097E+01 -0.72764350116E+01  0.24126128502E+02  0.26116501076E+02  0.51100000000E-03 0. -1.
         11    1    3    3    0    0  0.68596680097E+01  0.72764350116E+01  0.24478703121E+02  0.26442550150E+02  0.51100000000E-03 0.  1.
<mgrwt>
<rscale>  0 0.20000605E+02</rscale>
<asrwt>0</asrwt>
<pdfrwt beam="2">  1        2 0.30417077E-03 0.20000605E+02</pdfrwt>
<pdfrwt beam="1">  1       -2 0.77818364E-02 0.20000605E+02</pdfrwt>
<totfact> 0.33839798E+06</totfact>
</mgrwt>
</event>
<event>
 4    1  0.4046313E-006  0.2001571E+02  0.7818608E-02  0.1745016E+00
          2   -1    0    0  501    0  0.00000000000E+00  0.00000000000E+00  0.10025223670E+02  0.10025224008E+02  0.26000000000E-02 0. -1.
         -2   -1    0    0    0  501 -0.00000000000E+00 -0.00000000000E+00 -0.99905162945E+01  0.99905166328E+01  0.26000000000E-02 0.  1.
        -11    1    1    2    0    0  0.31960056476E+00  0.99957739061E+01 -0.35617924419E+00  0.10007222613E+02  0.51100000000E-03 0. -1.
         11    1    1    2    0    0 -0.31960056476E+00 -0.99957739061E+01  0.39088662011E+00  0.10008518028E+02  0.51100000000E-03 0.  1.
<mgrwt>
<rscale>  0 0.20015711E+02</rscale>
<asrwt>0</asrwt>
<pdfrwt beam="1">  1        2 0.15423422E-02 0.20015711E+02</pdfrwt>
<pdfrwt beam="2">  1       -2 0.15370026E-02 0.20015711E+02</pdfrwt>
<totfact> 0.39399722E+06</totfact>
</mgrwt>
</event>
<event>
 4    1  0.4046313E-006  0.2002037E+02  0.7818608E-02  0.1744923E+00
          2   -1    0    0  501    0  0.00000000000E+00  0.00000000000E+00  0.52261644642E+01  0.52261651109E+01  0.26000000000E-02 0.  1.
         -2   -1    0    0    0  501 -0.00000000000E+00 -0.00000000000E+00 -0.19173481822E+02  0.19173481998E+02  0.26000000000E-02 0. -1.
        -11    1    1    2    0    0 -0.62412551064E+01 -0.78223477734E+01 -0.66716932212E+01  0.12027214170E+02  0.51100000000E-03 0.  1.
         11    1    1    2    0    0  0.62412551064E+01  0.78223477734E+01 -0.72756241362E+01  0.12372432939E+02  0.51100000000E-03 0. -1.
<mgrwt>
<rscale>  0 0.20020368E+02</rscale>
<asrwt>0</asrwt>
<pdfrwt beam="1">  1        2 0.80402537E-03 0.20020368E+02</pdfrwt>
<pdfrwt beam="2">  1       -2 0.29497665E-02 0.20020368E+02</pdfrwt>
<totfact> 0.37481979E+06</totfact>
</mgrwt>
</event>
<event>
 5    1  0.4046313E-006  0.2000023E+02  0.7818608E-02  0.1745324E+00
          2   -1    0    0  501    0  0.00000000000E+00  0.00000000000E+00  0.59933779310E+02  0.59933779366E+02  0.26000000000E-02 0.  1.
         -2   -1    0    0    0  501 -0.00000000000E+00 -0.00000000000E+00 -0.16685448539E+01  0.16685468796E+01  0.26000000000E-02 0. -1.
       1023    2    1    2    0    0  0.00000000000E+00  0.00000000000E+00  0.58265234456E+02  0.61602326246E+02  0.20000226316E+02 0.  0.
        -11    1    3    3    0    0 -0.18807653596E+01 -0.98216566033E+01  0.29153539177E+02  0.30820951698E+02  0.51100000000E-03 0. -1.
         11    1    3    3    0    0  0.18807653596E+01  0.98216566033E+01  0.29111695279E+02  0.30781374548E+02  0.51100000000E-03 0.  1.
<mgrwt>
<rscale>  0 0.20000226E+02</rscale>
<asrwt>0</asrwt>
<pdfrwt beam="1">  1        2 0.92205824E-02 0.20000226E+02</pdfrwt>
<pdfrwt beam="2">  1       -2 0.25669935E-03 0.20000226E+02</pdfrwt>
<totfact> 0.47687625E+06</totfact>
</mgrwt>
</event>
<event>
 5    1  0.4046313E-006  0.2000472E+02  0.7818608E-02  0.1745234E+00
          2   -1    0    0  501    0  0.00000000000E+00  0.00000000000E+00  0.17247517932E+02  0.17247518128E+02  0.26000000000E-02 0. -1.
         -2   -1    0    0    0  501 -0.00000000000E+00 -0.00000000000E+00 -0.58006707332E+01  0.58006713159E+01  0.26000000000E-02 0.  1.
       1023    2    1    2    0    0  0.00000000000E+00  0.00000000000E+00  0.11446847199E+02  0.23048189444E+02  0.20004717590E+02 0.  0.
        -11    1    3    3    0    0  0.10001646461E+02  0.48329359389E-01  0.55976686681E+01  0.11461638732E+02  0.51100000000E-03 0.  1.
         11    1    3    3    0    0 -0.10001646461E+02 -0.48329359389E-01  0.58491785309E+01  0.11586550712E+02  0.51100000000E-03 0. -1.
<mgrwt>
<rscale>  0 0.20004718E+02</rscale>
<asrwt>0</asrwt>
<pdfrwt beam="1">  1        2 0.26534644E-02 0.20004718E+02</pdfrwt>
<pdfrwt beam="2">  1       -2 0.89241093E-03 0.20004718E+02</pdfrwt>
<totfact> 0.41130542E+06</totfact>
</mgrwt>
</event>
<event>
 5    1  0.4046313E-006  0.2000095E+02  0.7818608E-02  0.1745309E+00
          2   -1    0    0  501    0  0.00000000000E+00  0.00000000000E+00  0.10261634628E+02  0.10261634958E+02  0.26000000000E-02 0. -1.
         -2   -1    0    0    0  501 -0.00000000000E+00 -0.00000000000E+00 -0.97459660279E+01  0.97459663747E+01  0.26000000000E-02 0.  1.
       1023    2    1    2    0    0  0.00000000000E+00  0.00000000000E+00  0.51566860045E+00  0.20007601332E+02  0.20000954901E+02 0.  0.
        -11    1    3    3    0    0  0.67342040034E+01  0.73932063416E+01  0.28119613259E+00  0.10004402786E+02  0.51100000000E-03 0.  1.
         11    1    3    3    0    0 -0.67342040034E+01 -0.73932063416E+01  0.23447246785E+00  0.10003198547E+02  0.51100000000E-03 0. -1.
<mgrwt>
<rscale>  0 0.20000955E+02</rscale>
<asrwt>0</asrwt>
<pdfrwt beam="1">  1        2 0.15787131E-02 0.20000955E+02</pdfrwt>
<pdfrwt beam="2">  1       -2 0.14993794E-02 0.20000955E+02</pdfrwt>
<totfact> 0.39533679E+06</totfact>
</mgrwt>
</event>
<event>
 5    1  0.4046313E-006  0.2000048E+02  0.7818608E-02  0.1745319E+00
         -2   -1    0    0    0  501 -0.00000000000E+00  0.00000000000E+00  0.52089309122E+01  0.52089315610E+01  0.26000000000E-02 0.  1.
          2   -1    0    0  501    0  0.00000000000E+00 -0.00000000000E+00 -0.19198718473E+02  0.19198718649E+02  0.26000000000E-02 0. -1.
       1023    2    1    2    0    0  0.00000000000E+00  0.00000000000E+00 -0.13989787561E+02  0.24407650210E+02  0.20000480814E+02 0.  0.
        -11    1    3    3    0    0 -0.49172359192E+01  0.87075658163E+01 -0.70710696918E+01  0.12247487023E+02  0.51100000000E-03 0. -1.
         11    1    3    3    0    0  0.49172359192E+01 -0.87075658163E+01 -0.69187178694E+01  0.12160163188E+02  0.51100000000E-03 0.  1.
<mgrwt>
<rscale>  0 0.20000481E+02</rscale>
<asrwt>0</asrwt>
<pdfrwt beam="2">  1        2 0.29536490E-02 0.20000481E+02</pdfrwt>
<pdfrwt beam="1">  1       -2 0.80137406E-03 0.20000481E+02</pdfrwt>
<totfact> 0.41526705E+06</totfact>
</mgrwt>
</event>
<event>
 5    1  0.4046313E-006  0.2001219E+02  0.7818608E-02  0.1745086E+00
          2   -1    0    0  501    0  0.00000000000E+00  0.00000000000E+00  0.69785395153E+02  0.69785395202E+02  0.26000000000E-02 0. -1.
         -2   -1    0    0    0  501 -0.00000000000E+00 -0.00000000000E+00 -0.14347108978E+01  0.14347132537E+01  0.26000000000E-02 0.  1.
       1023    2    1    2    0    0  0.00000000000E+00  0.00000000000E+00  0.68350684256E+02  0.71220108455E+02  0.20012191539E+02 0.  0.
        -11    1    3    3    0    0  0.89456215874E+01  0.44788455705E+01  0.33483891696E+02  0.34946462004E+02  0.51100000000E-03 0. -1.
         11    1    3    3    0    0 -0.89456215874E+01 -0.44788455705E+01  0.34866792560E+02  0.36273646452E+02  0.51100000000E-03 0.  1.
<mgrwt>
<rscale>  0 0.20012192E+02</rscale>
<asrwt>0</asrwt>
<pdfrwt beam="1">  1        2 0.10736214E-01 0.20012192E+02</pdfrwt>
<pdfrwt beam="2">  1       -2 0.22072495E-03 0.20012192E+02</pdfrwt>
<totfact> 0.48925743E+06</totfact>
</mgrwt>
</event>
<event>
 5    1  0.4046313E-006  0.2000125E+02  0.7818608E-02  0.1745303E+00
         -2   -1    0    0    0  501 -0.00000000000E+00  0.00000000000E+00  0.14214136957E+02  0.14214137195E+02  0.26000000000E-02 0.  1.
          2   -1    0    0  501    0  0.00000000000E+00 -0.00000000000E+00 -0.70361307697E+01  0.70361312501E+01  0.26000000000E-02 0. -1.
       1023    2    1    2    0    0  0.00000000000E+00  0.00000000000E+00  0.71780061873E+01  0.21250268445E+02  0.20001253365E+02 0.  0.
        -11    1    3    3    0    0  0.95848744372E+01  0.28535013864E+01  0.35723515060E+01  0.10619509578E+02  0.51100000000E-03 0. -1.
         11    1    3    3    0    0 -0.95848744372E+01 -0.28535013864E+01  0.36056546813E+01  0.10630758867E+02  0.51100000000E-03 0.  1.
<mgrwt>
<rscale>  0 0.20001253E+02</rscale>
<asrwt>0</asrwt>
<pdfrwt beam="2">  1        2 0.10824817E-02 0.20001253E+02</pdfrwt>
<pdfrwt beam="1">  1       -2 0.21867904E-02 0.20001253E+02</pdfrwt>
<totfact> 0.38448528E+06</totfact>
</mgrwt>
</event>
<event>
 5    1  0.4046313E-006  0.2000200E+02  0.7818608E-02  0.1745288E+00
         -2   -1    0    0    0  501 -0.00000000000E+00  0.00000000000E+00  0.65043160061E+01  0.65043165258E+01  0.26000000000E-02 0.  1.
          2   -1    0    0  501    0  0.00000000000E+00 -0.00000000000E+00 -0.15377483682E+02  0.15377483902E+02  0.26000000000E-02 0. -1.
       1023    2    1    2    0    0  0.00000000000E+00  0.00000000000E+00 -0.88731676763E+01  0.21881800428E+02  0.20002002034E+02 0.  0.
        -11    1    3    3    0    0 -0.41244496694E+01  0.91108940134E+01 -0.44621530456E+01  0.10951268642E+02  0.51100000000E-03 0.  1.
         11    1    3    3    0    0  0.41244496694E+01 -0.91108940134E+01 -0.44110146306E+01  0.10930531786E+02  0.51100000000E-03 0. -1.
<mgrwt>
<rscale>  0 0.20002002E+02</rscale>
<asrwt>0</asrwt>
<pdfrwt beam="2">  1        2 0.23657668E-02 0.20002002E+02</pdfrwt>
<pdfrwt beam="1">  1       -2 0.10006641E-02 0.20002002E+02</pdfrwt>
<totfact> 0.40760724E+06</totfact>
</mgrwt>
</event>
<event>
 5    1  0.4046313E-006  0.2000053E+02  0.7818608E-02  0.1745317E+00
         -2   -1    0    0    0  501 -0.00000000000E+00  0.00000000000E+00  0.24664770397E+02  0.24664770535E+02  0.26000000000E-02 0.  1.
          2   -1    0    0  501    0  0.00000000000E+00 -0.00000000000E+00 -0.40545816619E+01  0.40545824955E+01  0.26000000000E-02 0. -1.
       1023    2    1    2    0    0  0.00000000000E+00  0.00000000000E+00  0.20610188736E+02  0.28719353030E+02  0.20000533961E+02 0.  0.
        -11    1    3    3    0    0 -0.79794390714E+01  0.60277152317E+01  0.10271707310E+02  0.14335716589E+02  0.51100000000E-03 0.  1.
         11    1    3    3    0    0  0.79794390714E+01 -0.60277152317E+01  0.10338481426E+02  0.14383636441E+02  0.51100000000E-03 0. -1.
<mgrwt>
<rscale>  0 0.20000534E+02</rscale>
<asrwt>0</asrwt>
<pdfrwt beam="2">  1        2 0.62378186E-03 0.20000534E+02</pdfrwt>
<pdfrwt beam="1">  1       -2 0.37945802E-02 0.20000534E+02</pdfrwt>
<totfact> 0.36752477E+06</totfact>
</mgrwt>
</event>
<event>
 5    1  0.4046313E-006  0.2000057E+02  0.7818608E-02  0.1745317E+00
          2   -1    0    0  501    0  0.00000000000E+00  0.00000000000E+00  0.26763438320E+01  0.26763450949E+01  0.26000000000E-02 0.  1.
         -2   -1    0    0    0  501 -0.00000000000E+00 -0.00000000000E+00 -0.37366513702E+02  0.37366513793E+02  0.26000000000E-02 0. -1.
       1023    2    1    2    0    0  0.00000000000E+00  0.00000000000E+00 -0.34690169870E+02  0.40042858888E+02  0.20000566549E+02 0.  0.
        -11    1    3    3    0    0 -0.98924659019E+01 -0.14639900068E+01 -0.17423062121E+02  0.20088983107E+02  0.51100000000E-03 0.  1.
         11    1    3    3    0    0  0.98924659019E+01  0.14639900068E+01 -0.17267107749E+02  0.19953875780E+02  0.51100000000E-03 0. -1.
<mgrwt>
<rscale>  0 0.20000567E+02</rscale>
<asrwt>0</asrwt>
<pdfrwt beam="1">  1        2 0.41174534E-03 0.20000567E+02</pdfrwt>
<pdfrwt beam="2">  1       -2 0.57486941E-02 0.20000567E+02</pdfrwt>
<totfact> 0.35205091E+06</totfact>
</mgrwt>
</event>
<event>
 5    1  0.4046313E-006  0.2000222E+02  0.7818608E-02  0.1745284E+00
         -2   -1    0    0    0  501 -0.00000000000E+00  0.00000000000E+00  0.47075372692E+01  0.47075379872E+01  0.26000000000E-02 0. -1.
          2   -1    0    0  501    0  0.00000000000E+00 -0.00000000000E+00 -0.21247246230E+02  0.21247246389E+02  0.26000000000E-02 0.  1.
       1023    2    1    2    0    0  0.00000000000E+00  0.00000000000E+00 -0.16539708961E+02  0.25954784376E+02  0.20002221364E+02 0.  0.
        -11    1    3    3    0    0  0.81480476194E+01 -0.57986840341E+01 -0.83768418301E+01  0.13045569970E+02  0.51100000000E-03 0. -1.
         11    1    3    3    0    0 -0.81480476194E+01  0.57986840341E+01 -0.81628671310E+01  0.12909214407E+02  0.51100000000E-03 0.  1.
<mgrwt>
<rscale>  0 0.20002221E+02</rscale>
<asrwt>0</asrwt>
<pdfrwt beam="2">  1        2 0.32688071E-02 0.20002221E+02</pdfrwt>
<pdfrwt beam="1">  1       -2 0.72423658E-03 0.20002221E+02</pdfrwt>
<totfact> 0.41894295E+06</totfact>
</mgrwt>
</event>
<event>
 5    1  0.4046313E-006  0.2000852E+02  0.7818608E-02  0.1745159E+00
          2   -1    0    0  501    0  0.00000000000E+00  0.00000000000E+00  0.70099456943E+02  0.70099456991E+02  0.26000000000E-02 0.  1.
         -2   -1    0    0    0  501 -0.00000000000E+00 -0.00000000000E+00 -0.14277583916E+01  0.14277607590E+01  0.26000000000E-02 0. -1.
       1023    2    1    2    0    0  0.00000000000E+00  0.00000000000E+00  0.68671698552E+02  0.71527217750E+02  0.20008515616E+02 0.  0.
        -11    1    3    3    0    0  0.97549523030E+01 -0.22164377886E+01  0.34750948281E+02  0.36162136242E+02  0.51100000000E-03 0.  1.
         11    1    3    3    0    0 -0.97549523030E+01  0.22164377886E+01  0.33920750271E+02  0.35365081509E+02  0.51100000000E-03 0. -1.
<mgrwt>
<rscale>  0 0.20008516E+02</rscale>
<asrwt>0</asrwt>
<pdfrwt beam="1">  1        2 0.10784529E-01 0.20008516E+02</pdfrwt>
<pdfrwt beam="2">  1       -2 0.21965538E-03 0.20008516E+02</pdfrwt>
<totfact> 0.48986488E+06</totfact>
</mgrwt>
</event>
<event>
 5    1  0.4046313E-006  0.2001016E+02  0.7818608E-02  0.1745126E+00
         -2   -1    0    0    0  501 -0.00000000000E+00  0.00000000000E+00  0.41485992220E+02  0.41485992301E+02  0.26000000000E-02 0. -1.
          2   -1    0    0  501    0  0.00000000000E+00 -0.00000000000E+00 -0.24129022114E+01  0.24129036122E+01  0.26000000000E-02 0.  1.
       1023    2    1    2    0    0  0.00000000000E+00  0.00000000000E+00  0.39073090008E+02  0.43898895914E+02  0.20010164907E+02 0.  0.
        -11    1    3    3    0    0  0.51473130575E+01 -0.85786725624E+01  0.19788787725E+02  0.22173961634E+02  0.51100000000E-03 0. -1.
         11    1    3    3    0    0 -0.51473130575E+01  0.85786725624E+01  0.19284302283E+02  0.21724934279E+02  0.51100000000E-03 0.  1.
<mgrwt>
<rscale>  0 0.20010165E+02</rscale>
<asrwt>0</asrwt>
<pdfrwt beam="2">  1        2 0.37121584E-03 0.20010165E+02</pdfrwt>
<pdfrwt beam="1">  1       -2 0.63824604E-02 0.20010165E+02</pdfrwt>
<totfact> 0.34723630E+06</totfact>
</mgrwt>
</event>
<event>
 5    1  0.4046313E-006  0.2000016E+02  0.7818608E-02  0.1745325E+00
          2   -1    0    0  501    0  0.00000000000E+00  0.00000000000E+00  0.20256616495E+02  0.20256616662E+02  0.26000000000E-02 0. -1.
         -2   -1    0    0    0  501 -0.00000000000E+00 -0.00000000000E+00 -0.49367358252E+01  0.49367365099E+01  0.26000000000E-02 0.  1.
       1023    2    1    2    0    0  0.00000000000E+00  0.00000000000E+00  0.15319880670E+02  0.25193353172E+02  0.20000157507E+02 0.  0.
        -11    1    3    3    0    0 -0.99297345099E+01  0.11837399828E+01  0.76264459927E+01  0.12576308939E+02  0.51100000000E-03 0.  1.
         11    1    3    3    0    0  0.99297345099E+01 -0.11837399828E+01  0.76934346771E+01  0.12617044233E+02  0.51100000000E-03 0. -1.
<mgrwt>
<rscale>  0 0.20000158E+02</rscale>
<asrwt>0</asrwt>
<pdfrwt beam="1">  1        2 0.31164026E-02 0.20000158E+02</pdfrwt>
<pdfrwt beam="2">  1       -2 0.75949789E-03 0.20000158E+02</pdfrwt>
<totfact> 0.41724400E+06</totfact>
</mgrwt>
</event>
<event>
 5    1  0.4046313E-006  0.2000033E+02  0.7818608E-02  0.1745321E+00
          2   -1    0    0  501    0  0.00000000000E+00  0.00000000000E+00  0.31545014585E+02  0.31545014692E+02  0.26000000000E-02 0.  1.
         -2   -1    0    0    0  501 -0.00000000000E+00 -0.00000000000E+00 -0.31701784696E+01  0.31701795358E+01  0.26000000000E-02 0. -1.
       1023    2    1    2    0    0  0.00000000000E+00  0.00000000000E+00  0.28374836115E+02  0.34715194228E+02  0.20000334640E+02 0.  0.
        -11    1    3    3    0    0 -0.13097340367E+01  0.99140206581E+01  0.14167078767E+02  0.17340972577E+02  0.51100000000E-03 0. -1.
         11    1    3    3    0    0  0.13097340367E+01 -0.99140206581E+01  0.14207757348E+02  0.17374221651E+02  0.51100000000E-03 0.  1.
<mgrwt>
<rscale>  0 0.20000335E+02</rscale>
<asrwt>0</asrwt>
<pdfrwt beam="1">  1        2 0.48530792E-02 0.20000335E+02</pdfrwt>
<pdfrwt beam="2">  1       -2 0.48771986E-03 0.20000335E+02</pdfrwt>
<totfact> 0.43614949E+06</totfact>
</mgrwt>
</event>
<event>
 5    1  0.4046313E-006  0.2000202E+02  0.7818608E-02  0.1745288E+00
         -2   -1    0    0    0  501 -0.00000000000E+00  0.00000000000E+00  0.12844936101E+02  0.12844936364E+02  0.26000000000E-02 0. -1.
          2   -1    0    0  501    0  0.00000000000E+00 -0.00000000000E+00 -0.77867405895E+01  0.77867410235E+01  0.26000000000E-02 0.  1.
       1023    2    1    2    0    0  0.00000000000E+00  0.00000000000E+00  0.50581955113E+01  0.20631677387E+02  0.20002019148E+02 0.  0.
        -11    1    3    3    0    0  0.48653806914E+01 -0.87377276000E+01  0.25090076551E+01  0.10310913275E+02  0.51100000000E-03 0.  1.
         11    1    3    3    0    0 -0.48653806914E+01  0.87377276000E+01  0.25491878561E+01  0.10320764113E+02  0.51100000000E-03 0. -1.
<mgrwt>
<rscale>  0 0.20002019E+02</rscale>
<asrwt>0</asrwt>
<pdfrwt beam="2">  1        2 0.11979602E-02 0.20002019E+02</pdfrwt>
<pdfrwt beam="1">  1       -2 0.19761441E-02 0.20002019E+02</pdfrwt>
<totfact> 0.38736711E+06</totfact>
</mgrwt>
</event>
<event>
 5    1  0.4046313E-006  0.2000074E+02  0.7818608E-02  0.1745313E+00
         -2   -1    0    0    0  501 -0.00000000000E+00  0.00000000000E+00  0.48803437410E+01  0.48803444336E+01  0.26000000000E-02 0. -1.
          2   -1    0    0  501    0  0.00000000000E+00 -0.00000000000E+00 -0.20491882693E+02  0.20491882858E+02  0.26000000000E-02 0.  1.
       1023    2    1    2    0    0  0.00000000000E+00  0.00000000000E+00 -0.15611538952E+02  0.25372227292E+02  0.20000744218E+02 0.  0.
        -11    1    3    3    0    0  0.56632065640E+01  0.82421753158E+01 -0.77479204778E+01  0.12650519140E+02  0.51100000000E-03 0.  1.
         11    1    3    3    0    0 -0.56632065640E+01 -0.82421753158E+01 -0.78636184744E+01  0.12721708152E+02  0.51100000000E-03 0. -1.
<mgrwt>
<rscale>  0 0.20000744E+02</rscale>
<asrwt>0</asrwt>
<pdfrwt beam="2">  1        2 0.31525974E-02 0.20000744E+02</pdfrwt>
<pdfrwt beam="1">  1       -2 0.75082219E-03 0.20000744E+02</pdfrwt>
<totfact> 0.41764638E+06</totfact>
</mgrwt>
</event>
<event>
 4    1  0.4046313E-006  0.2001291E+02  0.7818608E-02  0.1745071E+00
         -2   -1    0    0    0  501 -0.00000000000E+00  0.00000000000E+00  0.74533818495E+01  0.74533823030E+01  0.26000000000E-02 0. -1.
          2   -1    0    0  501    0  0.00000000000E+00 -0.00000000000E+00 -0.13434052574E+02  0.13434052826E+02  0.26000000000E-02 0.  1.
        -11    1    1    2    0    0 -0.82140269656E+01 -0.57126764722E+01 -0.28279094496E+01  0.10397210375E+02  0.51100000000E-03 0.  1.
         11    1    1    2    0    0  0.82140269656E+01  0.57126764722E+01 -0.31527612753E+01  0.10490224754E+02  0.51100000000E-03 0. -1.
<mgrwt>
<rscale>  0 0.20012909E+02</rscale>
<asrwt>0</asrwt>
<pdfrwt beam="2">  1        2 0.20667774E-02 0.20012909E+02</pdfrwt>
<pdfrwt beam="1">  1       -2 0.11466742E-02 0.20012909E+02</pdfrwt>
<totfact> 0.40283036E+06</totfact>
</mgrwt>
</event>
<event>
 5    1  0.4060447E-006  0.2000113E+02  0.7818608E-02  0.1745306E+00
          2   -1    0    0  501    0  0.00000000000E+00  0.00000000000E+00  0.46524772405E+02  0.46524772478E+02  0.26000000000E-02 0. -1.
         -2   -1    0    0    0  501 -0.00000000000E+00 -0.00000000000E+00 -0.21496338266E+01  0.21496353990E+01  0.26000000000E-02 0.  1.
       1023    2    1    2    0    0  0.00000000000E+00  0.00000000000E+00  0.44375138579E+02  0.48674407877E+02  0.20001126426E+02 0.  0.
        -11    1    3    3    0    0  0.26011685131E+01 -0.96563388122E+01  0.22230238417E+02  0.24376104226E+02  0.51100000000E-03 0. -1.
         11    1    3    3    0    0 -0.26011685131E+01  0.96563388122E+01  0.22144900161E+02  0.24298303651E+02  0.51100000000E-03 0.  1.
<mgrwt>
<rscale>  0 0.20001126E+02</rscale>
<asrwt>0</asrwt>
<pdfrwt beam="1">  1        2 0.71576572E-02 0.20001126E+02</pdfrwt>
<pdfrwt beam="2">  1       -2 0.33071303E-03 0.20001126E+02</pdfrwt>
<totfact> 0.45832883E+06</totfact>
</mgrwt>
</event>
<event>
 5    1  0.4046313E-006  0.2000759E+02  0.7818608E-02  0.1745177E+00
          2   -1    0    0  501    0  0.00000000000E+00  0.00000000000E+00  0.27219022558E+01  0.27219034976E+01  0.26000000000E-02 0.  1.
         -2   -1    0    0    0  501 -0.00000000000E+00 -0.00000000000E+00 -0.36766882635E+02  0.36766882727E+02  0.26000000000E-02 0. -1.
       1023    2    1    2    0    0  0.00000000000E+00  0.00000000000E+00 -0.34044980380E+02  0.39488786225E+02  0.20007587273E+02 0.  0.
        -11    1    3    3    0    0 -0.14182116323E+01 -0.99013328539E+01 -0.16691225541E+02  0.19458795617E+02  0.51100000000E-03 0.  1.
         11    1    3    3    0    0  0.14182116323E+01  0.99013328539E+01 -0.17353754838E+02  0.20029990608E+02  0.51100000000E-03 0. -1.
<mgrwt>
<rscale>  0 0.20007587E+02</rscale>
<asrwt>0</asrwt>
<pdfrwt beam="1">  1        2 0.41875432E-03 0.20007587E+02</pdfrwt>
<pdfrwt beam="2">  1       -2 0.56564432E-02 0.20007587E+02</pdfrwt>
<totfact> 0.35244632E+06</totfact>
</mgrwt>
</event>
<event>
 5    1  0.4046313E-006  0.2000061E+02  0.7818608E-02  0.1745316E+00
          2   -1    0    0  501    0  0.00000000000E+00  0.00000000000E+00  0.84481723809E+00  0.84482123895E+00  0.26000000000E-02 0. -1.
         -2   -1    0    0    0  501 -0.00000000000E+00 -0.00000000000E+00 -0.11837573095E+03  0.11837573098E+03  0.26000000000E-02 0.  1.
       1023    2    1    2    0    0  0.00000000000E+00  0.00000000000E+00 -0.11753091371E+03  0.11922055222E+03  0.20000609818E+02 0.  0.
        -11    1    3    3    0    0 -0.18099389514E+01  0.98351152632E+01 -0.58604761380E+02  0.59451858070E+02  0.51100000000E-03 0. -1.
         11    1    3    3    0    0  0.18099389514E+01 -0.98351152632E+01 -0.58926152330E+02  0.59768694146E+02  0.51100000000E-03 0.  1.
<mgrwt>
<rscale>  0 0.20000610E+02</rscale>
<asrwt>0</asrwt>
<pdfrwt beam="1">  1        2 0.12997229E-03 0.20000610E+02</pdfrwt>
<pdfrwt beam="2">  1       -2 0.18211638E-01 0.20000610E+02</pdfrwt>
<totfact> 0.28447543E+06</totfact>
</mgrwt>
</event>
<event>
 5    1  0.4046313E-006  0.2000014E+02  0.7818608E-02  0.1745325E+00
          2   -1    0    0  501    0  0.00000000000E+00  0.00000000000E+00  0.10567944016E+02  0.10567944336E+02  0.26000000000E-02 0. -1.
         -2   -1    0    0    0  501 -0.00000000000E+00 -0.00000000000E+00 -0.94627138959E+01  0.94627142531E+01  0.26000000000E-02 0.  1.
       1023    2    1    2    0    0  0.00000000000E+00  0.00000000000E+00  0.11052301199E+01  0.20030658589E+02  0.20000143746E+02 0.  0.
        -11    1    3    3    0    0 -0.70756665602E+01  0.70665640631E+01  0.54537353165E+00  0.10014929729E+02  0.51100000000E-03 0.  1.
         11    1    3    3    0    0  0.70756665602E+01 -0.70665640631E+01  0.55985658824E+00  0.10015728860E+02  0.51100000000E-03 0. -1.
<mgrwt>
<rscale>  0 0.20000144E+02</rscale>
<asrwt>0</asrwt>
<pdfrwt beam="1">  1        2 0.16258376E-02 0.20000144E+02</pdfrwt>
<pdfrwt beam="2">  1       -2 0.14558022E-02 0.20000144E+02</pdfrwt>
<totfact> 0.39622907E+06</totfact>
</mgrwt>
</event>
<event>
 5    1  0.4046313E-006  0.2000040E+02  0.7818608E-02  0.1745320E+00
          2   -1    0    0  501    0  0.00000000000E+00  0.00000000000E+00  0.68088679867E+01  0.68088684831E+01  0.26000000000E-02 0. -1.
         -2   -1    0    0    0  501 -0.00000000000E+00 -0.00000000000E+00 -0.14687308681E+02  0.14687308911E+02  0.26000000000E-02 0.  1.
       1023    2    1    2    0    0  0.00000000000E+00  0.00000000000E+00 -0.78784406946E+01  0.21496177395E+02  0.20000395366E+02 0.  0.
        -11    1    3    3    0    0  0.70421244144E+01 -0.71001501119E+01 -0.39204327912E+01  0.10741202978E+02  0.51100000000E-03 0. -1.
         11    1    3    3    0    0 -0.70421244144E+01  0.71001501119E+01 -0.39580079034E+01  0.10754974417E+02  0.51100000000E-03 0.  1.
<mgrwt>
<rscale>  0 0.20000395E+02</rscale>
<asrwt>0</asrwt>
<pdfrwt beam="1">  1        2 0.10475182E-02 0.20000395E+02</pdfrwt>
<pdfrwt beam="2">  1       -2 0.22595860E-02 0.20000395E+02</pdfrwt>
<totfact> 0.38357238E+06</totfact>
</mgrwt>
</event>
<event>
 5    1  0.4046313E-006  0.2000831E+02  0.7818608E-02  0.1745163E+00
          2   -1    0    0  501    0  0.00000000000E+00  0.00000000000E+00  0.44709431940E+02  0.44709432016E+02  0.26000000000E-02 0.  1.
         -2   -1    0    0    0  501 -0.00000000000E+00 -0.00000000000E+00 -0.22385221570E+01  0.22385236669E+01  0.26000000000E-02 0. -1.
       1023    2    1    2    0    0  0.00000000000E+00  0.00000000000E+00  0.42470909784E+02  0.46947955683E+02  0.20008307399E+02 0.  0.
        -11    1    3    3    0    0 -0.48745123870E+01 -0.87336601561E+01  0.20735494670E+02  0.23021694773E+02  0.51100000000E-03 0. -1.
         11    1    3    3    0    0  0.48745123870E+01  0.87336601561E+01  0.21735415113E+02  0.23926260910E+02  0.51100000000E-03 0.  1.
<mgrwt>
<rscale>  0 0.20008307E+02</rscale>
<asrwt>0</asrwt>
<pdfrwt beam="1">  1        2 0.68783747E-02 0.20008307E+02</pdfrwt>
<pdfrwt beam="2">  1       -2 0.34438813E-03 0.20008307E+02</pdfrwt>
<totfact> 0.45537514E+06</totfact>
</mgrwt>
</event>
<event>
 5    1  0.4046313E-006  0.2000118E+02  0.7818608E-02  0.1745305E+00
         -2   -1    0    0    0  501 -0.00000000000E+00  0.00000000000E+00  0.44122106321E+02  0.44122106397E+02  0.26000000000E-02 0. -1.
          2   -1    0    0  501    0  0.00000000000E+00 -0.00000000000E+00 -0.22667036472E+01  0.22667051383E+01  0.26000000000E-02 0.  1.
       1023    2    1    2    0    0  0.00000000000E+00  0.00000000000E+00  0.41855402673E+02  0.46388811535E+02  0.20001177533E+02 0.  0.
        -11    1    3    3    0    0  0.99495694868E+01  0.10084346930E+01  0.20858048114E+02  0.23131559500E+02  0.51100000000E-03 0.  1.
         11    1    3    3    0    0 -0.99495694868E+01 -0.10084346930E+01  0.20997354559E+02  0.23257252035E+02  0.51100000000E-03 0. -1.
<mgrwt>
<rscale>  0 0.20001178E+02</rscale>
<asrwt>0</asrwt>
<pdfrwt beam="2">  1        2 0.34872375E-03 0.20001178E+02</pdfrwt>
<pdfrwt beam="1">  1       -2 0.67880167E-02 0.20001178E+02</pdfrwt>
<totfact> 0.34482857E+06</totfact>
</mgrwt>
</event>
<event>
 5    1  0.4046313E-006  0.2000020E+02  0.7818608E-02  0.1745324E+00
          2   -1    0    0  501    0  0.00000000000E+00  0.00000000000E+00  0.16955169528E+01  0.16955189463E+01  0.26000000000E-02 0. -1.
         -2   -1    0    0    0  501 -0.00000000000E+00 -0.00000000000E+00 -0.58980225339E+02  0.58980225396E+02  0.26000000000E-02 0.  1.
       1023    2    1    2    0    0  0.00000000000E+00  0.00000000000E+00 -0.57284708386E+02  0.60675744343E+02  0.20000203415E+02 0.  0.
        -11    1    3    3    0    0  0.97558192537E+01 -0.21965567585E+01 -0.28745813444E+02  0.30435549308E+02  0.51100000000E-03 0.  1.
         11    1    3    3    0    0 -0.97558192537E+01  0.21965567585E+01 -0.28538894943E+02  0.30240195034E+02  0.51100000000E-03 0. -1.
<mgrwt>
<rscale>  0 0.20000203E+02</rscale>
<asrwt>0</asrwt>
<pdfrwt beam="1">  1        2 0.26084896E-03 0.20000203E+02</pdfrwt>
<pdfrwt beam="2">  1       -2 0.90738794E-02 0.20000203E+02</pdfrwt>
<totfact> 0.33051974E+06</totfact>
</mgrwt>
</event>
<event>
 5    1  0.4046313E-006  0.2000021E+02  0.7818608E-02  0.1745324E+00
         -2   -1    0    0    0  501 -0.00000000000E+00  0.00000000000E+00  0.47281258375E+02  0.47281258446E+02  0.26000000000E-02 0. -1.
          2   -1    0    0  501    0  0.00000000000E+00 -0.00000000000E+00 -0.21150457494E+01  0.21150473474E+01  0.26000000000E-02 0.  1.
       1023    2    1    2    0    0  0.00000000000E+00  0.00000000000E+00  0.45166212626E+02  0.49396305794E+02  0.20000206577E+02 0.  0.
        -11    1    3    3    0    0 -0.80969754308E+01  0.58685977765E+01  0.22521880696E+02  0.24642170386E+02  0.51100000000E-03 0.  1.
         11    1    3    3    0    0  0.80969754308E+01 -0.58685977765E+01  0.22644331930E+02  0.24754135408E+02  0.51100000000E-03 0. -1.
<mgrwt>
<rscale>  0 0.20000207E+02</rscale>
<asrwt>0</asrwt>
<pdfrwt beam="2">  1        2 0.32539178E-03 0.20000207E+02</pdfrwt>
<pdfrwt beam="1">  1       -2 0.72740400E-02 0.20000207E+02</pdfrwt>
<totfact> 0.34166274E+06</totfact>
</mgrwt>
</event>
<event>
 5    1  0.4046313E-006  0.2000162E+02  0.7818608E-02  0.1745296E+00
         -2   -1    0    0    0  501 -0.00000000000E+00  0.00000000000E+00  0.47602536840E+01  0.47602543940E+01  0.26000000000E-02 0. -1.
          2   -1    0    0  501    0  0.00000000000E+00 -0.00000000000E+00 -0.21010691421E+02  0.21010691582E+02  0.26000000000E-02 0.  1.
       1023    2    1    2    0    0  0.00000000000E+00  0.00000000000E+00 -0.16250437738E+02  0.25770945976E+02  0.20001623181E+02 0.  0.
        -11    1    3    3    0    0 -0.23840780811E+01  0.97123763079E+01 -0.81849664935E+01  0.12923148169E+02  0.51100000000E-03 0. -1.
         11    1    3    3    0    0  0.23840780811E+01 -0.97123763079E+01 -0.80654712441E+01  0.12847797807E+02  0.51100000000E-03 0.  1.
<mgrwt>
<rscale>  0 0.20001623E+02</rscale>
<asrwt>0</asrwt>
<pdfrwt beam="2">  1        2 0.32324141E-02 0.20001623E+02</pdfrwt>
<pdfrwt beam="1">  1       -2 0.73234680E-03 0.20001623E+02</pdfrwt>
<totfact> 0.41854560E+06</totfact>
</mgrwt>
</event>
<event>
 5    1  0.4046313E-006  0.2000106E+02  0.7818608E-02  0.1745307E+00
         -2   -1    0    0    0  501 -0.00000000000E+00  0.00000000000E+00  0.83799765552E+01  0.83799769586E+01  0.26000000000E-02 0. -1.
          2   -1    0    0  501    0  0.00000000000E+00 -0.00000000000E+00 -0.11934472471E+02  0.11934472754E+02  0.26000000000E-02 0.  1.
       1023    2    1    2    0    0  0.00000000000E+00  0.00000000000E+00 -0.35544959155E+01  0.20314449713E+02  0.20001060620E+02 0.  0.
        -11    1    3    3    0    0  0.81279082429E+01  0.58262099921E+01 -0.17217015760E+01  0.10147505696E+02  0.51100000000E-03 0.  1.
         11    1    3    3    0    0 -0.81279082429E+01 -0.58262099921E+01 -0.18327943395E+01  0.10166944016E+02  0.51100000000E-03 0. -1.
<mgrwt>
<rscale>  0 0.20001061E+02</rscale>
<asrwt>0</asrwt>
<pdfrwt beam="2">  1        2 0.18360727E-02 0.20001061E+02</pdfrwt>
<pdfrwt beam="1">  1       -2 0.12892272E-02 0.20001061E+02</pdfrwt>
<totfact> 0.39977520E+06</totfact>
</mgrwt>
</event>
<event>
 5    1  0.4046313E-006  0.2000114E+02  0.7818608E-02  0.1745305E+00
          2   -1    0    0  501    0  0.00000000000E+00  0.00000000000E+00  0.12755438264E+02  0.12755438529E+02  0.26000000000E-02 0. -1.
         -2   -1    0    0    0  501 -0.00000000000E+00 -0.00000000000E+00 -0.78406899190E+01  0.78406903501E+01  0.26000000000E-02 0.  1.
       1023    2    1    2    0    0  0.00000000000E+00  0.00000000000E+00  0.49147483447E+01  0.20596128879E+02  0.20001144305E+02 0.  0.
        -11    1    3    3    0    0  0.92456573755E+01  0.38102274441E+01  0.23472844140E+01  0.10271794286E+02  0.51100000000E-03 0.  1.
         11    1    3    3    0    0 -0.92456573755E+01 -0.38102274441E+01  0.25674639307E+01  0.10324334592E+02  0.51100000000E-03 0. -1.
<mgrwt>
<rscale>  0 0.20001144E+02</rscale>
<asrwt>0</asrwt>
<pdfrwt beam="1">  1        2 0.19623751E-02 0.20001144E+02</pdfrwt>
<pdfrwt beam="2">  1       -2 0.12062601E-02 0.20001144E+02</pdfrwt>
<totfact> 0.40177843E+06</totfact>
</mgrwt>
</event>
<event>
 5    1  0.4046313E-006  0.2000913E+02  0.7818608E-02  0.1745147E+00
         -2   -1    0    0    0  501 -0.00000000000E+00  0.00000000000E+00  0.76890205671E+02  0.76890205715E+02  0.26000000000E-02 0.  1.
          2   -1    0    0  501    0  0.00000000000E+00 -0.00000000000E+00 -0.13017420807E+01  0.13017446773E+01  0.26000000000E-02 0. -1.
       1023    2    1    2    0    0  0.00000000000E+00  0.00000000000E+00  0.75588463590E+02  0.78191950392E+02  0.20009129871E+02 0.  0.
        -11    1    3    3    0    0  0.15473150298E+01  0.98825480265E+01  0.38497421019E+02  0.39775750963E+02  0.51100000000E-03 0.  1.
         11    1    3    3    0    0 -0.15473150298E+01 -0.98825480265E+01  0.37091042571E+02  0.38416199429E+02  0.51100000000E-03 0. -1.
<mgrwt>
<rscale>  0 0.20009130E+02</rscale>
<asrwt>0</asrwt>
<pdfrwt beam="2">  1        2 0.20026821E-03 0.20009130E+02</pdfrwt>
<pdfrwt beam="1">  1       -2 0.11829263E-01 0.20009130E+02</pdfrwt>
<totfact> 0.31478110E+06</totfact>
</mgrwt>
</event>
<event>
 5    1  0.4046313E-006  0.2000106E+02  0.7818608E-02  0.1745307E+00
          2   -1    0    0  501    0  0.00000000000E+00  0.00000000000E+00  0.25504212886E+01  0.25504226139E+01  0.26000000000E-02 0.  1.
         -2   -1    0    0    0  501 -0.00000000000E+00 -0.00000000000E+00 -0.39213354072E+02  0.39213354158E+02  0.26000000000E-02 0. -1.
       1023    2    1    2    0    0  0.00000000000E+00  0.00000000000E+00 -0.36662932783E+02  0.41763776772E+02  0.20001060222E+02 0.  0.
        -11    1    3    3    0    0 -0.78409497789E+01  0.62072445494E+01 -0.18300221613E+02  0.20854459707E+02  0.51100000000E-03 0.  1.
         11    1    3    3    0    0  0.78409497789E+01 -0.62072445494E+01 -0.18362711170E+02  0.20909317064E+02  0.51100000000E-03 0. -1.
<mgrwt>
<rscale>  0 0.20001060E+02</rscale>
<asrwt>0</asrwt>
<pdfrwt beam="1">  1        2 0.39237264E-03 0.20001060E+02</pdfrwt>
<pdfrwt beam="2">  1       -2 0.60328234E-02 0.20001060E+02</pdfrwt>
<totfact> 0.35001223E+06</totfact>
</mgrwt>
</event>
<event>
 4    1  0.4046313E-006  0.2001433E+02  0.7818608E-02  0.1745043E+00
          2   -1    0    0  501    0  0.00000000000E+00  0.00000000000E+00  0.27627868439E+01  0.27627880673E+01  0.26000000000E-02 0.  1.
         -2   -1    0    0    0  501 -0.00000000000E+00 -0.00000000000E+00 -0.36247210816E+02  0.36247210909E+02  0.26000000000E-02 0. -1.
        -11    1    1    2    0    0  0.71816753550E+01 -0.69676048505E+01 -0.17013441012E+02  0.19737810253E+02  0.51100000000E-03 0.  1.
         11    1    1    2    0    0 -0.71816753550E+01  0.69676048505E+01 -0.16470982960E+02  0.19272188723E+02  0.51100000000E-03 0. -1.
<mgrwt>
<rscale>  0 0.20014329E+02</rscale>
<asrwt>0</asrwt>
<pdfrwt beam="1">  1        2 0.42504426E-03 0.20014329E+02</pdfrwt>
<pdfrwt beam="2">  1       -2 0.55764937E-02 0.20014329E+02</pdfrwt>
<totfact> 0.35276721E+06</totfact>
</mgrwt>
</event>
<event>
 5    1  0.4046313E-006  0.2000779E+02  0.7818608E-02  0.1745173E+00
         -2   -1    0    0    0  501 -0.00000000000E+00  0.00000000000E+00  0.24858564261E+02  0.24858564397E+02  0.26000000000E-02 0. -1.
          2   -1    0    0  501    0  0.00000000000E+00 -0.00000000000E+00 -0.40258913916E+01  0.40258922312E+01  0.26000000000E-02 0.  1.
       1023    2    1    2    0    0  0.00000000000E+00  0.00000000000E+00  0.20832672869E+02  0.28884456628E+02  0.20007787879E+02 0.  0.
        -11    1    3    3    0    0  0.77975456195E+01 -0.62670680537E+01  0.10424756182E+02  0.14448300987E+02  0.51100000000E-03 0.  1.
         11    1    3    3    0    0 -0.77975456195E+01  0.62670680537E+01  0.10407916687E+02  0.14436155641E+02  0.51100000000E-03 0. -1.
<mgrwt>
<rscale>  0 0.20007788E+02</rscale>
<asrwt>0</asrwt>
<pdfrwt beam="2">  1        2 0.61936799E-03 0.20007788E+02</pdfrwt>
<pdfrwt beam="1">  1       -2 0.38243945E-02 0.20007788E+02</pdfrwt>
<totfact> 0.36697073E+06</totfact>
</mgrwt>
</event>
<event>
 5    1  0.4046313E-006  0.2000141E+02  0.7818608E-02  0.1745300E+00
          2   -1    0    0  501    0  0.00000000000E+00  0.00000000000E+00  0.11000633368E+02  0.11000633676E+02  0.26000000000E-02 0.  1.
         -2   -1    0    0    0  501 -0.00000000000E+00 -0.00000000000E+00 -0.90916701392E+01  0.90916705110E+01  0.26000000000E-02 0. -1.
       1023    2    1    2    0    0  0.00000000000E+00  0.00000000000E+00  0.19089632291E+01  0.20092304187E+02  0.20001413623E+02 0.  0.
        -11    1    3    3    0    0 -0.29724145772E+01 -0.95486089369E+01  0.10090924225E+01  0.10051340648E+02  0.51100000000E-03 0. -1.
         11    1    3    3    0    0  0.29724145772E+01  0.95486089369E+01  0.89987080657E+00  0.10040963538E+02  0.51100000000E-03 0.  1.
<mgrwt>
<rscale>  0 0.20001414E+02</rscale>
<asrwt>0</asrwt>
<pdfrwt beam="1">  1        2 0.16924052E-02 0.20001414E+02</pdfrwt>
<pdfrwt beam="2">  1       -2 0.13987185E-02 0.20001414E+02</pdfrwt>
<totfact> 0.39734598E+06</totfact>
</mgrwt>
</event>
<event>
 5    1  0.4046313E-006  0.2000162E+02  0.7818608E-02  0.1745296E+00
         -2   -1    0    0    0  501 -0.00000000000E+00  0.00000000000E+00  0.68204892584E+01  0.68204897539E+01  0.26000000000E-02 0.  1.
          2   -1    0    0  501    0  0.00000000000E+00 -0.00000000000E+00 -0.14664079211E+02  0.14664079442E+02  0.26000000000E-02 0. -1.
       1023    2    1    2    0    0  0.00000000000E+00  0.00000000000E+00 -0.78435899529E+01  0.21484569196E+02  0.20001620189E+02 0.  0.
        -11    1    3    3    0    0 -0.98600504545E+01 -0.16699566350E+01 -0.40107099763E+01  0.10774745700E+02  0.51100000000E-03 0. -1.
         11    1    3    3    0    0  0.98600504545E+01  0.16699566350E+01 -0.38328799766E+01  0.10709823496E+02  0.51100000000E-03 0.  1.
<mgrwt>
<rscale>  0 0.20001620E+02</rscale>
<asrwt>0</asrwt>
<pdfrwt beam="2">  1        2 0.22560122E-02 0.20001620E+02</pdfrwt>
<pdfrwt beam="1">  1       -2 0.10493061E-02 0.20001620E+02</pdfrwt>
<totfact> 0.40609568E+06</totfact>
</mgrwt>
</event>
<event>
 5    1  0.4046313E-006  0.2000020E+02  0.7818608E-02  0.1745324E+00
          2   -1    0    0  501    0  0.00000000000E+00  0.00000000000E+00  0.18241819967E+02  0.18241820153E+02  0.26000000000E-02 0. -1.
         -2   -1    0    0    0  501 -0.00000000000E+00 -0.00000000000E+00 -0.54820184924E+01  0.54820191090E+01  0.26000000000E-02 0.  1.
       1023    2    1    2    0    0  0.00000000000E+00  0.00000000000E+00  0.12759801475E+02  0.23723839262E+02  0.20000200390E+02 0.  0.
        -11    1    3    3    0    0 -0.29515274941E+01  0.95545655012E+01  0.64127556322E+01  0.11879590545E+02  0.51100000000E-03 0.  1.
         11    1    3    3    0    0  0.29515274941E+01 -0.95545655012E+01  0.63470458428E+01  0.11844248716E+02  0.51100000000E-03 0. -1.
<mgrwt>
<rscale>  0 0.20000200E+02</rscale>
<asrwt>0</asrwt>
<pdfrwt beam="1">  1        2 0.28064339E-02 0.20000200E+02</pdfrwt>
<pdfrwt beam="2">  1       -2 0.84338752E-03 0.20000200E+02</pdfrwt>
<totfact> 0.41345917E+06</totfact>
</mgrwt>
</event>
<event>
 5    1  0.4046313E-006  0.2000029E+02  0.7818608E-02  0.1745322E+00
         -2   -1    0    0    0  501 -0.00000000000E+00  0.00000000000E+00  0.30097628369E+02  0.30097628481E+02  0.26000000000E-02 0. -1.
          2   -1    0    0  501    0  0.00000000000E+00 -0.00000000000E+00 -0.33226152959E+01  0.33226163132E+01  0.26000000000E-02 0.  1.
       1023    2    1    2    0    0  0.00000000000E+00  0.00000000000E+00  0.26775013073E+02  0.33420244794E+02  0.20000285925E+02 0.  0.
        -11    1    3    3    0    0 -0.94578033995E+01 -0.32484658007E+01  0.13359356325E+02  0.16687569532E+02  0.51100000000E-03 0. -1.
         11    1    3    3    0    0  0.94578033995E+01  0.32484658007E+01  0.13415656748E+02  0.16732675263E+02  0.51100000000E-03 0.  1.
<mgrwt>
<rscale>  0 0.20000286E+02</rscale>
<asrwt>0</asrwt>
<pdfrwt beam="2">  1        2 0.51117165E-03 0.20000286E+02</pdfrwt>
<pdfrwt beam="1">  1       -2 0.46304046E-02 0.20000286E+02</pdfrwt>
<totfact> 0.36051217E+06</totfact>
</mgrwt>
</event>
<event>
 5    1  0.4046313E-006  0.2000050E+02  0.7818608E-02  0.1745318E+00
          2   -1    0    0  501    0  0.00000000000E+00  0.00000000000E+00  0.13212383547E+01  0.13212409129E+01  0.26000000000E-02 0.  1.
         -2   -1    0    0    0  501 -0.00000000000E+00 -0.00000000000E+00 -0.75690284174E+02  0.75690284218E+02  0.26000000000E-02 0. -1.
       1023    2    1    2    0    0  0.00000000000E+00  0.00000000000E+00 -0.74369045819E+02  0.77011525131E+02  0.20000500669E+02 0.  0.
        -11    1    3    3    0    0 -0.57823237048E+01 -0.81588887958E+01 -0.37368085443E+02  0.38683026558E+02  0.51100000000E-03 0.  1.
         11    1    3    3    0    0  0.57823237048E+01  0.81588887958E+01 -0.37000960377E+02  0.38328498573E+02  0.51100000000E-03 0. -1.
<mgrwt>
<rscale>  0 0.20000501E+02</rscale>
<asrwt>0</asrwt>
<pdfrwt beam="1">  1        2 0.20326770E-03 0.20000501E+02</pdfrwt>
<pdfrwt beam="2">  1       -2 0.11644656E-01 0.20000501E+02</pdfrwt>
<totfact> 0.31606053E+06</totfact>
</mgrwt>
</event>
<event>
 5    1  0.4046313E-006  0.2000259E+02  0.7818608E-02  0.1745277E+00
         -2   -1    0    0    0  501 -0.00000000000E+00  0.00000000000E+00  0.13757238831E+02  0.13757239077E+02  0.26000000000E-02 0.  1.
          2   -1    0    0  501    0  0.00000000000E+00 -0.00000000000E+00 -0.72707821194E+01  0.72707825843E+01  0.26000000000E-02 0. -1.
       1023    2    1    2    0    0  0.00000000000E+00  0.00000000000E+00  0.64864567114E+01  0.21028021661E+02  0.20002589190E+02 0.  0.
        -11    1    3    3    0    0  0.95819558461E+01  0.28644206920E+01  0.31545874762E+01  0.10486668019E+02  0.51100000000E-03 0.  1.
         11    1    3    3    0    0 -0.95819558461E+01 -0.28644206920E+01  0.33318692352E+01  0.10541353642E+02  0.51100000000E-03 0. -1.
<mgrwt>
<rscale>  0 0.20002589E+02</rscale>
<asrwt>0</asrwt>
<pdfrwt beam="2">  1        2 0.11185819E-02 0.20002589E+02</pdfrwt>
<pdfrwt beam="1">  1       -2 0.21164983E-02 0.20002589E+02</pdfrwt>
<totfact> 0.38537255E+06</totfact>
</mgrwt>
</event>
<event>
 5    1  0.4046313E-006  0.2000030E+02  0.7818608E-02  0.1745322E+00
         -2   -1    0    0    0  501 -0.00000000000E+00  0.00000000000E+00  0.13335492780E+02  0.13335493034E+02  0.26000000000E-02 0. -1.
          2   -1    0    0  501    0  0.00000000000E+00 -0.00000000000E+00 -0.74990104271E+01  0.74990108779E+01  0.26000000000E-02 0.  1.
       1023    2    1    2    0    0  0.00000000000E+00  0.00000000000E+00  0.58364823531E+01  0.20834503912E+02  0.20000300672E+02 0.  0.
        -11    1    3    3    0    0 -0.48280716031E+01 -0.87573439829E+01  0.28758313696E+01  0.10405371467E+02  0.51100000000E-03 0. -1.
         11    1    3    3    0    0  0.48280716031E+01  0.87573439829E+01  0.29606509835E+01  0.10429132445E+02  0.51100000000E-03 0.  1.
<mgrwt>
<rscale>  0 0.20000301E+02</rscale>
<asrwt>0</asrwt>
<pdfrwt beam="2">  1        2 0.11536940E-02 0.20000301E+02</pdfrwt>
<pdfrwt beam="1">  1       -2 0.20516143E-02 0.20000301E+02</pdfrwt>
<totfact> 0.38636343E+06</totfact>
</mgrwt>
</event>
<event>
 5    1  0.4046313E-006  0.2000020E+02  0.7818608E-02  0.1745324E+00
         -2   -1    0    0    0  501 -0.00000000000E+00  0.00000000000E+00  0.21502290175E+02  0.21502290333E+02  0.26000000000E-02 0. -1.
          2   -1    0    0  501    0  0.00000000000E+00 -0.00000000000E+00 -0.46507591258E+01  0.46507598526E+01  0.26000000000E-02 0.  1.
       1023    2    1    2    0    0  0.00000000000E+00  0.00000000000E+00  0.16851531050E+02  0.26153050185E+02  0.20000198381E+02 0.  0.
        -11    1    3    3    0    0 -0.90417871512E+01 -0.42717743348E+01  0.84304259709E+01  0.13079528018E+02  0.51100000000E-03 0. -1.
         11    1    3    3    0    0  0.90417871512E+01  0.42717743348E+01  0.84211050787E+01  0.13073522167E+02  0.51100000000E-03 0.  1.
<mgrwt>
<rscale>  0 0.20000198E+02</rscale>
<asrwt>0</asrwt>
<pdfrwt beam="2">  1        2 0.71550147E-03 0.20000198E+02</pdfrwt>
<pdfrwt beam="1">  1       -2 0.33080447E-02 0.20000198E+02</pdfrwt>
<totfact> 0.37204260E+06</totfact>
</mgrwt>
</event>
<event>
 5    1  0.4702025E-006  0.2000084E+02  0.7818608E-02  0.1745311E+00
         -2   -1    0    0    0  501 -0.00000000000E+00  0.00000000000E+00  0.33312899191E+01  0.33312909337E+01  0.26000000000E-02 0. -1.
          2   -1    0    0  501    0  0.00000000000E+00 -0.00000000000E+00 -0.30020907904E+02  0.30020908017E+02  0.26000000000E-02 0.  1.
       1023    2    1    2    0    0  0.00000000000E+00  0.00000000000E+00 -0.26689617985E+02  0.33352198950E+02  0.20000836648E+02 0.  0.
        -11    1    3    3    0    0 -0.10000361240E+02  0.33646178900E-01 -0.13339696600E+02  0.16672008356E+02  0.51100000000E-03 0. -1.
         11    1    3    3    0    0  0.10000361240E+02 -0.33646178900E-01 -0.13349921385E+02  0.16680190594E+02  0.51100000000E-03 0.  1.
<mgrwt>
<rscale>  0 0.20000837E+02</rscale>
<asrwt>0</asrwt>
<pdfrwt beam="2">  1        2 0.46186011E-02 0.20000837E+02</pdfrwt>
<pdfrwt beam="1">  1       -2 0.51250625E-03 0.20000837E+02</pdfrwt>
<totfact> 0.43372480E+06</totfact>
</mgrwt>
</event>
<event>
 5    1  0.4046313E-006  0.2000268E+02  0.7818608E-02  0.1745275E+00
         -2   -1    0    0    0  501 -0.00000000000E+00  0.00000000000E+00  0.79930301974E+01  0.79930306203E+01  0.26000000000E-02 0. -1.
          2   -1    0    0  501    0  0.00000000000E+00 -0.00000000000E+00 -0.12514248841E+02  0.12514249111E+02  0.26000000000E-02 0.  1.
       1023    2    1    2    0    0  0.00000000000E+00  0.00000000000E+00 -0.45212186435E+01  0.20507279731E+02  0.20002677420E+02 0.  0.
        -11    1    3    3    0    0  0.63123761987E+01 -0.77575813750E+01 -0.22860064890E+01  0.10259239153E+02  0.51100000000E-03 0.  1.
         11    1    3    3    0    0 -0.63123761987E+01  0.77575813750E+01 -0.22352121544E+01  0.10248040579E+02  0.51100000000E-03 0. -1.
<mgrwt>
<rscale>  0 0.20002677E+02</rscale>
<asrwt>0</asrwt>
<pdfrwt beam="2">  1        2 0.19252691E-02 0.20002677E+02</pdfrwt>
<pdfrwt beam="1">  1       -2 0.12296970E-02 0.20002677E+02</pdfrwt>
<totfact> 0.40112882E+06</totfact>
</mgrwt>
</event>
<event>
 5    1  0.4046313E-006  0.2000130E+02  0.7818608E-02  0.1745302E+00
          2   -1    0    0  501    0  0.00000000000E+00  0.00000000000E+00  0.14717148030E+01  0.14717170997E+01  0.26000000000E-02 0. -1.
         -2   -1    0    0    0  501 -0.00000000000E+00 -0.00000000000E+00 -0.67956709883E+02  0.67956709932E+02  0.26000000000E-02 0.  1.
       1023    2    1    2    0    0  0.00000000000E+00  0.00000000000E+00 -0.66484995080E+02  0.69428427032E+02  0.20001297693E+02 0.  0.
        -11    1    3    3    0    0 -0.88419443388E+01 -0.46713657723E+01 -0.32872864495E+02  0.34360251138E+02  0.51100000000E-03 0. -1.
         11    1    3    3    0    0  0.88419443388E+01  0.46713657723E+01 -0.33612130584E+02  0.35068175894E+02  0.51100000000E-03 0.  1.
<mgrwt>
<rscale>  0 0.20001298E+02</rscale>
<asrwt>0</asrwt>
<pdfrwt beam="1">  1        2 0.22641790E-03 0.20001298E+02</pdfrwt>
<pdfrwt beam="2">  1       -2 0.10454876E-01 0.20001298E+02</pdfrwt>
<totfact> 0.32253276E+06</totfact>
</mgrwt>
</event>
<event>
 5    1  0.4046313E-006  0.2000065E+02  0.7818608E-02  0.1745315E+00
         -2   -1    0    0    0  501 -0.00000000000E+00  0.00000000000E+00  0.72002333555E+01  0.72002338250E+01  0.26000000000E-02 0. -1.
          2   -1    0    0  501    0  0.00000000000E+00 -0.00000000000E+00 -0.13889342110E+02  0.13889342353E+02  0.26000000000E-02 0.  1.
       1023    2    1    2    0    0  0.00000000000E+00  0.00000000000E+00 -0.66891087543E+01  0.21089576178E+02  0.20000651176E+02 0.  0.
        -11    1    3    3    0    0  0.96260788556E+01 -0.27091613462E+01 -0.34231954826E+01  0.10569731165E+02  0.51100000000E-03 0. -1.
         11    1    3    3    0    0 -0.96260788556E+01  0.27091613462E+01 -0.32659132716E+01  0.10519845013E+02  0.51100000000E-03 0.  1.
<mgrwt>
<rscale>  0 0.20000651E+02</rscale>
<asrwt>0</asrwt>
<pdfrwt beam="2">  1        2 0.21368219E-02 0.20000651E+02</pdfrwt>
<pdfrwt beam="1">  1       -2 0.11077283E-02 0.20000651E+02</pdfrwt>
<totfact> 0.40442672E+06</totfact>
</mgrwt>
</event>
<event>
 5    1  0.4046313E-006  0.2000146E+02  0.7818608E-02  0.1745299E+00
          2   -1    0    0  501    0  0.00000000000E+00  0.00000000000E+00  0.15958122469E+01  0.15958143650E+01  0.26000000000E-02 0. -1.
         -2   -1    0    0    0  501 -0.00000000000E+00 -0.00000000000E+00 -0.62673143108E+02  0.62673143162E+02  0.26000000000E-02 0.  1.
       1023    2    1    2    0    0  0.00000000000E+00  0.00000000000E+00 -0.61077330861E+02  0.64268957527E+02  0.20001463858E+02 0.  0.
        -11    1    3    3    0    0 -0.92472442918E+01 -0.38082896621E+01 -0.30517911717E+02  0.32114755689E+02  0.51100000000E-03 0.  1.
         11    1    3    3    0    0  0.92472442918E+01  0.38082896621E+01 -0.30559419144E+02  0.32154201838E+02  0.51100000000E-03 0. -1.
<mgrwt>
<rscale>  0 0.20001464E+02</rscale>
<asrwt>0</asrwt>
<pdfrwt beam="1">  1        2 0.24550979E-03 0.20001464E+02</pdfrwt>
<pdfrwt beam="2">  1       -2 0.96420203E-02 0.20001464E+02</pdfrwt>
<totfact> 0.32714733E+06</totfact>
</mgrwt>
</event>
<event>
 5    1  0.4046313E-006  0.2000143E+02  0.7818608E-02  0.1745300E+00
          2   -1    0    0  501    0  0.00000000000E+00  0.00000000000E+00  0.27442891129E+02  0.27442891252E+02  0.26000000000E-02 0. -1.
         -2   -1    0    0    0  501 -0.00000000000E+00 -0.00000000000E+00 -0.36444527133E+01  0.36444536407E+01  0.26000000000E-02 0.  1.
       1023    2    1    2    0    0  0.00000000000E+00  0.00000000000E+00  0.23798438416E+02  0.31087344893E+02  0.20001433485E+02 0.  0.
        -11    1    3    3    0    0 -0.71318186210E+01 -0.70102207623E+01  0.12040845304E+02  0.15652092125E+02  0.51100000000E-03 0. -1.
         11    1    3    3    0    0  0.71318186210E+01  0.70102207623E+01  0.11757593111E+02  0.15435252768E+02  0.51100000000E-03 0.  1.
<mgrwt>
<rscale>  0 0.20001433E+02</rscale>
<asrwt>0</asrwt>
<pdfrwt beam="1">  1        2 0.42219835E-02 0.20001433E+02</pdfrwt>
<pdfrwt beam="2">  1       -2 0.56068509E-03 0.20001433E+02</pdfrwt>
<totfact> 0.42955008E+06</totfact>
</mgrwt>
</event>
<event>
 5    1  0.4046313E-006  0.2000222E+02  0.7818608E-02  0.1745284E+00
         -2   -1    0    0    0  501 -0.00000000000E+00  0.00000000000E+00  0.13851324248E+02  0.13851324492E+02  0.26000000000E-02 0. -1.
          2   -1    0    0  501    0  0.00000000000E+00 -0.00000000000E+00 -0.72211277753E+01  0.72211282434E+01  0.26000000000E-02 0.  1.
       1023    2    1    2    0    0  0.00000000000E+00  0.00000000000E+00  0.66301964727E+01  0.21072452735E+02  0.20002218852E+02 0.  0.
        -11    1    3    3    0    0 -0.94956092212E+01 -0.31380461145E+01  0.34108548733E+01  0.10566355054E+02  0.51100000000E-03 0. -1.
         11    1    3    3    0    0  0.94956092212E+01  0.31380461145E+01  0.32193415994E+01  0.10506097681E+02  0.51100000000E-03 0.  1.
<mgrwt>
<rscale>  0 0.20002219E+02</rscale>
<asrwt>0</asrwt>
<pdfrwt beam="2">  1        2 0.11109428E-02 0.20002219E+02</pdfrwt>
<pdfrwt beam="1">  1       -2 0.21309730E-02 0.20002219E+02</pdfrwt>
<totfact> 0.38519153E+06</totfact>
</mgrwt>
</event>
<event>
 5    1  0.4046313E-006  0.2000109E+02  0.7818608E-02  0.1745306E+00
         -2   -1    0    0    0  501 -0.00000000000E+00  0.00000000000E+00  0.31326053201E+02  0.31326053309E+02  0.26000000000E-02 0.  1.
          2   -1    0    0  501    0  0.00000000000E+00 -0.00000000000E+00 -0.31925773536E+01  0.31925784123E+01  0.26000000000E-02 0. -1.
       1023    2    1    2    0    0  0.00000000000E+00  0.00000000000E+00  0.28133475847E+02  0.34518631721E+02  0.20001086787E+02 0.  0.
        -11    1    3    3    0    0 -0.50886904676E+01  0.86090557263E+01  0.14039085443E+02  0.17236778455E+02  0.51100000000E-03 0. -1.
         11    1    3    3    0    0  0.50886904676E+01 -0.86090557263E+01  0.14094390404E+02  0.17281853266E+02  0.51100000000E-03 0.  1.
<mgrwt>
<rscale>  0 0.20001087E+02</rscale>
<asrwt>0</asrwt>
<pdfrwt beam="2">  1        2 0.49116586E-03 0.20001087E+02</pdfrwt>
<pdfrwt beam="1">  1       -2 0.48193926E-02 0.20001087E+02</pdfrwt>
<totfact> 0.35898751E+06</totfact>
</mgrwt>
</event>
<event>
 5    1  0.4046313E-006  0.2000044E+02  0.7818608E-02  0.1745319E+00
         -2   -1    0    0    0  501 -0.00000000000E+00  0.00000000000E+00  0.98363878312E+02  0.98363878346E+02  0.26000000000E-02 0. -1.
          2   -1    0    0  501    0  0.00000000000E+00 -0.00000000000E+00 -0.10166763955E+01  0.10166797201E+01  0.26000000000E-02 0.  1.
       1023    2    1    2    0    0  0.00000000000E+00  0.00000000000E+00  0.97347201916E+02  0.99380558066E+02  0.20000440011E+02 0.  0.
        -11    1    3    3    0    0  0.72328629287E+01  0.69057161593E+01  0.48503051890E+02  0.49523219450E+02  0.51100000000E-03 0. -1.
         11    1    3    3    0    0 -0.72328629287E+01 -0.69057161593E+01  0.48844150026E+02  0.49857338616E+02  0.51100000000E-03 0.  1.
<mgrwt>
<rscale>  0 0.20000440E+02</rscale>
<asrwt>0</asrwt>
<pdfrwt beam="2">  1        2 0.15641205E-03 0.20000440E+02</pdfrwt>
<pdfrwt beam="1">  1       -2 0.15132901E-01 0.20000440E+02</pdfrwt>
<totfact> 0.29848660E+06</totfact>
</mgrwt>
</event>
<event>
 5    1  0.4046313E-006  0.2000042E+02  0.7818608E-02  0.1745320E+00
          2   -1    0    0  501    0  0.00000000000E+00  0.00000000000E+00  0.26148385868E+02  0.26148385997E+02  0.26000000000E-02 0. -1.
         -2   -1    0    0    0  501 -0.00000000000E+00 -0.00000000000E+00 -0.38244892529E+01  0.38244901367E+01  0.26000000000E-02 0.  1.
       1023    2    1    2    0    0  0.00000000000E+00  0.00000000000E+00  0.22323896615E+02  0.29972876134E+02  0.20000423587E+02 0.  0.
        -11    1    3    3    0    0  0.45855006848E+01 -0.88868925227E+01  0.11197425021E+02  0.15012861239E+02  0.51100000000E-03 0.  1.
         11    1    3    3    0    0 -0.45855006848E+01  0.88868925227E+01  0.11126471594E+02  0.14960014894E+02  0.51100000000E-03 0. -1.
<mgrwt>
<rscale>  0 0.20000424E+02</rscale>
<asrwt>0</asrwt>
<pdfrwt beam="1">  1        2 0.40228288E-02 0.20000424E+02</pdfrwt>
<pdfrwt beam="2">  1       -2 0.58838303E-03 0.20000424E+02</pdfrwt>
<totfact> 0.42746735E+06</totfact>
</mgrwt>
</event>
<event>
 5    1  0.4046313E-006  0.2001118E+02  0.7818608E-02  0.1745106E+00
          2   -1    0    0  501    0  0.00000000000E+00  0.00000000000E+00  0.22599380393E+01  0.22599395349E+01  0.26000000000E-02 0.  1.
         -2   -1    0    0    0  501 -0.00000000000E+00 -0.00000000000E+00 -0.44298451119E+02  0.44298451195E+02  0.26000000000E-02 0. -1.
       1023    2    1    2    0    0  0.00000000000E+00  0.00000000000E+00 -0.42038513080E+02  0.46558390730E+02  0.20011176013E+02 0.  0.
        -11    1    3    3    0    0  0.63502644199E+01  0.77321162942E+01 -0.21060254375E+02  0.23316213140E+02  0.51100000000E-03 0.  1.
         11    1    3    3    0    0 -0.63502644199E+01 -0.77321162942E+01 -0.20978258705E+02  0.23242177591E+02  0.51100000000E-03 0. -1.
<mgrwt>
<rscale>  0 0.20011176E+02</rscale>
<asrwt>0</asrwt>
<pdfrwt beam="1">  1        2 0.34768293E-03 0.20011176E+02</pdfrwt>
<pdfrwt beam="2">  1       -2 0.68151458E-02 0.20011176E+02</pdfrwt>
<totfact> 0.34427125E+06</totfact>
</mgrwt>
</event>
<event>
 5    1  0.4046313E-006  0.2000039E+02  0.7818608E-02  0.1745320E+00
          2   -1    0    0  501    0  0.00000000000E+00  0.00000000000E+00  0.83902162977E+00  0.83902565826E+00  0.26000000000E-02 0.  1.
         -2   -1    0    0    0  501 -0.00000000000E+00 -0.00000000000E+00 -0.11919078342E+03  0.11919078345E+03  0.26000000000E-02 0. -1.
       1023    2    1    2    0    0  0.00000000000E+00  0.00000000000E+00 -0.11835176179E+03  0.12002980911E+03  0.20000388879E+02 0.  0.
        -11    1    3    3    0    0 -0.72480386469E+01 -0.68896185886E+01 -0.58848267218E+02  0.59691870998E+02  0.51100000000E-03 0.  1.
         11    1    3    3    0    0  0.72480386469E+01  0.68896185886E+01 -0.59503494572E+02  0.60337938107E+02  0.51100000000E-03 0. -1.
<mgrwt>
<rscale>  0 0.20000389E+02</rscale>
<asrwt>0</asrwt>
<pdfrwt beam="1">  1        2 0.12908066E-03 0.20000389E+02</pdfrwt>
<pdfrwt beam="2">  1       -2 0.18337031E-01 0.20000389E+02</pdfrwt>
<totfact> 0.28393783E+06</totfact>
</mgrwt>
</event>
<event>
 5    1  0.4046313E-006  0.2000060E+02  0.7818608E-02  0.1745316E+00
         -2   -1    0    0    0  501 -0.00000000000E+00  0.00000000000E+00  0.10973219613E+02  0.10973219921E+02  0.26000000000E-02 0.  1.
          2   -1    0    0  501    0  0.00000000000E+00 -0.00000000000E+00 -0.91136374161E+01  0.91136377869E+01  0.26000000000E-02 0. -1.
       1023    2    1    2    0    0  0.00000000000E+00  0.00000000000E+00  0.18595821965E+01  0.20086857707E+02  0.20000595157E+02 0.  0.
        -11    1    3    3    0    0  0.37473453935E+01  0.92714753682E+01  0.87388783522E+00  0.10038253494E+02  0.51100000000E-03 0. -1.
         11    1    3    3    0    0 -0.37473453935E+01 -0.92714753682E+01  0.98569436124E+00  0.10048604213E+02  0.51100000000E-03 0.  1.
<mgrwt>
<rscale>  0 0.20000595E+02</rscale>
<asrwt>0</asrwt>
<pdfrwt beam="2">  1        2 0.14020981E-02 0.20000595E+02</pdfrwt>
<pdfrwt beam="1">  1       -2 0.16881877E-02 0.20000595E+02</pdfrwt>
<totfact> 0.39193432E+06</totfact>
</mgrwt>
</event>
<event>
 5    1  0.4046313E-006  0.2000119E+02  0.7818608E-02  0.1745304E+00
         -2   -1    0    0    0  501 -0.00000000000E+00  0.00000000000E+00  0.38867449572E+02  0.38867449658E+02  0.26000000000E-02 0. -1.
          2   -1    0    0  501    0  0.00000000000E+00 -0.00000000000E+00 -0.25731523190E+01  0.25731536326E+01  0.26000000000E-02 0.  1.
       1023    2    1    2    0    0  0.00000000000E+00  0.00000000000E+00  0.36294297252E+02  0.41440603291E+02  0.20001189667E+02 0.  0.
        -11    1    3    3    0    0  0.57865233749E+01  0.81562681405E+01  0.18027514869E+02  0.20615524620E+02  0.51100000000E-03 0.  1.
         11    1    3    3    0    0 -0.57865233749E+01 -0.81562681405E+01  0.18266782384E+02  0.20825078671E+02  0.51100000000E-03 0. -1.
<mgrwt>
<rscale>  0 0.20001190E+02</rscale>
<asrwt>0</asrwt>
<pdfrwt beam="2">  1        2 0.39586974E-03 0.20001190E+02</pdfrwt>
<pdfrwt beam="1">  1       -2 0.59796071E-02 0.20001190E+02</pdfrwt>
<totfact> 0.35038224E+06</totfact>
</mgrwt>
</event>
<event>
 5    1  0.4046313E-006  0.2000030E+02  0.7818608E-02  0.1745322E+00
         -2   -1    0    0    0  501 -0.00000000000E+00  0.00000000000E+00  0.71629888407E+01  0.71629893126E+01  0.26000000000E-02 0. -1.
          2   -1    0    0  501    0  0.00000000000E+00 -0.00000000000E+00 -0.13961076949E+02  0.13961077191E+02  0.26000000000E-02 0.  1.
       1023    2    1    2    0    0  0.00000000000E+00  0.00000000000E+00 -0.67980881083E+01  0.21124066504E+02  0.20000304591E+02 0.  0.
        -11    1    3    3    0    0 -0.95905870576E+01  0.28324091756E+01 -0.33633233388E+01  0.10550537711E+02  0.51100000000E-03 0.  1.
         11    1    3    3    0    0  0.95905870576E+01 -0.28324091756E+01 -0.34347647695E+01  0.10573528793E+02  0.51100000000E-03 0. -1.
<mgrwt>
<rscale>  0 0.20000305E+02</rscale>
<asrwt>0</asrwt>
<pdfrwt beam="2">  1        2 0.21478580E-02 0.20000305E+02</pdfrwt>
<pdfrwt beam="1">  1       -2 0.11019983E-02 0.20000305E+02</pdfrwt>
<totfact> 0.40460379E+06</totfact>
</mgrwt>
</event>
<event>
 5    1  0.4046313E-006  0.2000228E+02  0.7818608E-02  0.1745283E+00
          2   -1    0    0  501    0  0.00000000000E+00  0.00000000000E+00  0.35206500537E+02  0.35206500633E+02  0.26000000000E-02 0. -1.
         -2   -1    0    0    0  501 -0.00000000000E+00 -0.00000000000E+00 -0.28410302993E+01  0.28410314890E+01  0.26000000000E-02 0.  1.
       1023    2    1    2    0    0  0.00000000000E+00  0.00000000000E+00  0.32365470238E+02  0.38047532122E+02  0.20002275792E+02 0.  0.
        -11    1    3    3    0    0  0.99741477123E+01  0.73389584530E+00  0.16138809720E+02  0.18986400532E+02  0.51100000000E-03 0. -1.
         11    1    3    3    0    0 -0.99741477123E+01 -0.73389584530E+00  0.16226660518E+02  0.19061131591E+02  0.51100000000E-03 0.  1.
<mgrwt>
<rscale>  0 0.20002276E+02</rscale>
<asrwt>0</asrwt>
<pdfrwt beam="1">  1        2 0.54163845E-02 0.20002276E+02</pdfrwt>
<pdfrwt beam="2">  1       -2 0.43708171E-03 0.20002276E+02</pdfrwt>
<totfact> 0.44169219E+06</totfact>
</mgrwt>
</event>
<event>
 5    1  0.4046313E-006  0.2000040E+02  0.7818608E-02  0.1745320E+00
          2   -1    0    0  501    0  0.00000000000E+00  0.00000000000E+00  0.19139656941E+02  0.19139657117E+02  0.26000000000E-02 0.  1.
         -2   -1    0    0    0  501 -0.00000000000E+00 -0.00000000000E+00 -0.52249637108E+01  0.52249643577E+01  0.26000000000E-02 0. -1.
       1023    2    1    2    0    0  0.00000000000E+00  0.00000000000E+00  0.13914693230E+02  0.24364621475E+02  0.20000402294E+02 0.  0.
        -11    1    3    3    0    0 -0.38816613756E+01  0.92161110118E+01  0.69511942388E+01  0.12178797101E+02  0.51100000000E-03 0.  1.
         11    1    3    3    0    0  0.38816613756E+01 -0.92161110118E+01  0.69634989910E+01  0.12185824374E+02  0.51100000000E-03 0. -1.
<mgrwt>
<rscale>  0 0.20000402E+02</rscale>
<asrwt>0</asrwt>
<pdfrwt beam="1">  1        2 0.29445626E-02 0.20000402E+02</pdfrwt>
<pdfrwt beam="2">  1       -2 0.80384065E-03 0.20000402E+02</pdfrwt>
<totfact> 0.41515975E+06</totfact>
</mgrwt>
</event>
<event>
 5    1  0.4046313E-006  0.2000048E+02  0.7818608E-02  0.1745319E+00
         -2   -1    0    0    0  501 -0.00000000000E+00  0.00000000000E+00  0.37874084615E+02  0.37874084705E+02  0.26000000000E-02 0. -1.
          2   -1    0    0  501    0  0.00000000000E+00 -0.00000000000E+00 -0.26404534310E+01  0.26404547111E+01  0.26000000000E-02 0.  1.
       1023    2    1    2    0    0  0.00000000000E+00  0.00000000000E+00  0.35233631184E+02  0.40514539416E+02  0.20000478435E+02 0.  0.
        -11    1    3    3    0    0 -0.38716334467E+01 -0.92203564014E+01  0.17583750912E+02  0.20228514877E+02  0.51100000000E-03 0. -1.
         11    1    3    3    0    0  0.38716334467E+01  0.92203564014E+01  0.17649880272E+02  0.20286024539E+02  0.51100000000E-03 0.  1.
<mgrwt>
<rscale>  0 0.20000478E+02</rscale>
<asrwt>0</asrwt>
<pdfrwt beam="2">  1        2 0.40622371E-03 0.20000478E+02</pdfrwt>
<pdfrwt beam="1">  1       -2 0.58267824E-02 0.20000478E+02</pdfrwt>
<totfact> 0.35149476E+06</totfact>
</mgrwt>
</event>
<event>
 5    1  0.4046313E-006  0.2000053E+02  0.7818608E-02  0.1745317E+00
          2   -1    0    0  501    0  0.00000000000E+00  0.00000000000E+00  0.10135064552E+02  0.10135064885E+02  0.26000000000E-02 0.  1.
         -2   -1    0    0    0  501 -0.00000000000E+00 -0.00000000000E+00 -0.98672599614E+01  0.98672603039E+01  0.26000000000E-02 0. -1.
       1023    2    1    2    0    0  0.00000000000E+00  0.00000000000E+00  0.26780459057E+00  0.20002325189E+02  0.20000532335E+02 0.  0.
        -11    1    3    3    0    0  0.71640362693E+01  0.69771565760E+01  0.99350610475E-01  0.10000699993E+02  0.51100000000E-03 0.  1.
         11    1    3    3    0    0 -0.71640362693E+01 -0.69771565760E+01  0.16845398009E+00  0.10001625196E+02  0.51100000000E-03 0. -1.
<mgrwt>
<rscale>  0 0.20000532E+02</rscale>
<asrwt>0</asrwt>
<pdfrwt beam="1">  1        2 0.15592408E-02 0.20000532E+02</pdfrwt>
<pdfrwt beam="2">  1       -2 0.15180400E-02 0.20000532E+02</pdfrwt>
<totfact> 0.39499597E+06</totfact>
</mgrwt>
</event>
<event>
 5    1  0.4046313E-006  0.2000059E+02  0.7818608E-02  0.1745316E+00
         -2   -1    0    0    0  501 -0.00000000000E+00  0.00000000000E+00  0.22549737951E+01  0.22549752940E+01  0.26000000000E-02 0.  1.
          2   -1    0    0  501    0  0.00000000000E+00 -0.00000000000E+00 -0.44349017007E+02  0.44349017084E+02  0.26000000000E-02 0. -1.
       1023    2    1    2    0    0  0.00000000000E+00  0.00000000000E+00 -0.42094043212E+02  0.46603992378E+02  0.20000590780E+02 0.  0.
        -11    1    3    3    0    0  0.68993626096E+01  0.72391063904E+01 -0.21031942286E+02  0.23288376121E+02  0.51100000000E-03 0. -1.
         11    1    3    3    0    0 -0.68993626096E+01 -0.72391063904E+01 -0.21062100926E+02  0.23315616257E+02  0.51100000000E-03 0.  1.
<mgrwt>
<rscale>  0 0.20000591E+02</rscale>
<asrwt>0</asrwt>
<pdfrwt beam="2">  1        2 0.68229252E-02 0.20000591E+02</pdfrwt>
<pdfrwt beam="1">  1       -2 0.34691920E-03 0.20000591E+02</pdfrwt>
<totfact> 0.45525025E+06</totfact>
</mgrwt>
</event>
<event>
 5    1  0.4046313E-006  0.2000225E+02  0.7818608E-02  0.1745283E+00
         -2   -1    0    0    0  501 -0.00000000000E+00  0.00000000000E+00  0.30673422966E+01  0.30673433985E+01  0.26000000000E-02 0.  1.
          2   -1    0    0  501    0  0.00000000000E+00 -0.00000000000E+00 -0.32608838495E+02  0.32608838599E+02  0.26000000000E-02 0. -1.
       1023    2    1    2    0    0  0.00000000000E+00  0.00000000000E+00 -0.29541496199E+02  0.35676181997E+02  0.20002248980E+02 0.  0.
        -11    1    3    3    0    0  0.97742490044E+01 -0.21174363819E+01 -0.14672887112E+02  0.17757057664E+02  0.51100000000E-03 0.  1.
         11    1    3    3    0    0 -0.97742490044E+01  0.21174363819E+01 -0.14868609087E+02  0.17919124333E+02  0.51100000000E-03 0. -1.
<mgrwt>
<rscale>  0 0.20002249E+02</rscale>
<asrwt>0</asrwt>
<pdfrwt beam="2">  1        2 0.50167442E-02 0.20002249E+02</pdfrwt>
<pdfrwt beam="1">  1       -2 0.47189893E-03 0.20002249E+02</pdfrwt>
<totfact> 0.43771138E+06</totfact>
</mgrwt>
</event>
<event>
 5    1  0.4046313E-006  0.2000091E+02  0.7818608E-02  0.1745310E+00
          2   -1    0    0  501    0  0.00000000000E+00  0.00000000000E+00  0.27635505156E+02  0.27635505278E+02  0.26000000000E-02 0. -1.
         -2   -1    0    0    0  501 -0.00000000000E+00 -0.00000000000E+00 -0.36188628086E+01  0.36188637426E+01  0.26000000000E-02 0.  1.
       1023    2    1    2    0    0  0.00000000000E+00  0.00000000000E+00  0.24016642348E+02  0.31254369021E+02  0.20000911810E+02 0.  0.
        -11    1    3    3    0    0 -0.94775391435E+01  0.31913914919E+01  0.12039188092E+02  0.15650903426E+02  0.51100000000E-03 0. -1.
         11    1    3    3    0    0  0.94775391435E+01 -0.31913914919E+01  0.11977454255E+02  0.15603465595E+02  0.51100000000E-03 0.  1.
<mgrwt>
<rscale>  0 0.20000912E+02</rscale>
<asrwt>0</asrwt>
<pdfrwt beam="1">  1        2 0.42516163E-02 0.20000912E+02</pdfrwt>
<pdfrwt beam="2">  1       -2 0.55674819E-03 0.20000912E+02</pdfrwt>
<totfact> 0.42988920E+06</totfact>
</mgrwt>
</event>
<event>
 5    1  0.4046313E-006  0.2000074E+02  0.7818608E-02  0.1745313E+00
         -2   -1    0    0    0  501 -0.00000000000E+00  0.00000000000E+00  0.71838491216E+01  0.71838495921E+01  0.26000000000E-02 0.  1.
          2   -1    0    0  501    0  0.00000000000E+00 -0.00000000000E+00 -0.13921145468E+02  0.13921145710E+02  0.26000000000E-02 0. -1.
       1023    2    1    2    0    0  0.00000000000E+00  0.00000000000E+00 -0.67372963461E+01  0.21104995302E+02  0.20000741603E+02 0.  0.
        -11    1    3    3    0    0  0.58275045702E+01 -0.81266155349E+01 -0.34484986618E+01  0.10577988129E+02  0.51100000000E-03 0.  1.
         11    1    3    3    0    0 -0.58275045702E+01  0.81266155349E+01 -0.32887976843E+01  0.10527007174E+02  0.51100000000E-03 0. -1.
<mgrwt>
<rscale>  0 0.20000742E+02</rscale>
<asrwt>0</asrwt>
<pdfrwt beam="2">  1        2 0.21417147E-02 0.20000742E+02</pdfrwt>
<pdfrwt beam="1">  1       -2 0.11052076E-02 0.20000742E+02</pdfrwt>
<totfact> 0.40449409E+06</totfact>
</mgrwt>
</event>
<event>
 5    1  0.4046313E-006  0.2000093E+02  0.7818608E-02  0.1745310E+00
          2   -1    0    0  501    0  0.00000000000E+00  0.00000000000E+00  0.28515881091E+02  0.28515881210E+02  0.26000000000E-02 0. -1.
         -2   -1    0    0    0  501 -0.00000000000E+00 -0.00000000000E+00 -0.35071425652E+01  0.35071435290E+01  0.26000000000E-02 0.  1.
       1023    2    1    2    0    0  0.00000000000E+00  0.00000000000E+00  0.25008738526E+02  0.32023024739E+02  0.20000927747E+02 0.  0.
        -11    1    3    3    0    0  0.58162160368E+01 -0.81347334269E+01  0.12638521103E+02  0.16116279746E+02  0.51100000000E-03 0. -1.
         11    1    3    3    0    0 -0.58162160368E+01  0.81347334269E+01  0.12370217423E+02  0.15906744993E+02  0.51100000000E-03 0.  1.
<mgrwt>
<rscale>  0 0.20000928E+02</rscale>
<asrwt>0</asrwt>
<pdfrwt beam="1">  1        2 0.43870589E-02 0.20000928E+02</pdfrwt>
<pdfrwt beam="2">  1       -2 0.53956046E-03 0.20000928E+02</pdfrwt>
<totfact> 0.43131425E+06</totfact>
</mgrwt>
</event>
<event>
 5    1  0.4046313E-006  0.2000066E+02  0.7818608E-02  0.1745315E+00
         -2   -1    0    0    0  501 -0.00000000000E+00  0.00000000000E+00  0.42532458776E+02  0.42532458856E+02  0.26000000000E-02 0. -1.
          2   -1    0    0  501    0  0.00000000000E+00 -0.00000000000E+00 -0.23513005401E+01  0.23513019776E+01  0.26000000000E-02 0.  1.
       1023    2    1    2    0    0  0.00000000000E+00  0.00000000000E+00  0.40181158236E+02  0.44883760833E+02  0.20000662723E+02 0.  0.
        -11    1    3    3    0    0  0.65749938837E+01 -0.75347362517E+01  0.19951659194E+02  0.22317515539E+02  0.51100000000E-03 0. -1.
         11    1    3    3    0    0 -0.65749938837E+01  0.75347362517E+01  0.20229499042E+02  0.22566245295E+02  0.51100000000E-03 0.  1.
<mgrwt>
<rscale>  0 0.20000663E+02</rscale>
<asrwt>0</asrwt>
<pdfrwt beam="2">  1        2 0.36173867E-03 0.20000663E+02</pdfrwt>
<pdfrwt beam="1">  1       -2 0.65434551E-02 0.20000663E+02</pdfrwt>
<totfact> 0.34649666E+06</totfact>
</mgrwt>
</event>
<event>
 4    1  0.4046313E-006  0.2001485E+02  0.7818608E-02  0.1745033E+00
         -2   -1    0    0    0  501 -0.00000000000E+00  0.00000000000E+00  0.14463321959E+01  0.14463345328E+01  0.26000000000E-02 0.  1.
          2   -1    0    0  501    0  0.00000000000E+00 -0.00000000000E+00 -0.69243085524E+02  0.69243085573E+02  0.26000000000E-02 0. -1.
        -11    1    1    2    0    0 -0.90782557633E+01 -0.42109317912E+01 -0.34052882200E+02  0.35492893100E+02  0.51100000000E-03 0.  1.
         11    1    1    2    0    0  0.90782557633E+01  0.42109317912E+01 -0.33743871129E+02  0.35196527006E+02  0.51100000000E-03 0. -1.
<mgrwt>
<rscale>  0 0.20014853E+02</rscale>
<asrwt>0</asrwt>
<pdfrwt beam="2">  1        2 0.10652780E-01 0.20014853E+02</pdfrwt>
<pdfrwt beam="1">  1       -2 0.22251288E-03 0.20014853E+02</pdfrwt>
<totfact> 0.48840793E+06</totfact>
</mgrwt>
</event>
<event>
 5    1  0.4046313E-006  0.2000029E+02  0.7818608E-02  0.1745322E+00
          2   -1    0    0  501    0  0.00000000000E+00  0.00000000000E+00  0.82084809001E+02  0.82084809042E+02  0.26000000000E-02 0. -1.
         -2   -1    0    0    0  501 -0.00000000000E+00 -0.00000000000E+00 -0.12182855883E+01  0.12182883627E+01  0.26000000000E-02 0.  1.
       1023    2    1    2    0    0  0.00000000000E+00  0.00000000000E+00  0.80866523413E+02  0.83303097405E+02  0.20000285708E+02 0.  0.
        -11    1    3    3    0    0 -0.27803197085E+01 -0.96058302714E+01  0.40543770279E+02  0.41758824954E+02  0.51100000000E-03 0.  1.
         11    1    3    3    0    0  0.27803197085E+01  0.96058302714E+01  0.40322753134E+02  0.41544272451E+02  0.51100000000E-03 0. -1.
<mgrwt>
<rscale>  0 0.20000286E+02</rscale>
<asrwt>0</asrwt>
<pdfrwt beam="1">  1        2 0.12628430E-01 0.20000286E+02</pdfrwt>
<pdfrwt beam="2">  1       -2 0.18742880E-03 0.20000286E+02</pdfrwt>
<totfact> 0.50560081E+06</totfact>
</mgrwt>
</event>
<event>
 5    1  0.4046313E-006  0.2000066E+02  0.7818608E-02  0.1745315E+00
         -2   -1    0    0    0  501 -0.00000000000E+00  0.00000000000E+00  0.18607984113E+01  0.18608002277E+01  0.26000000000E-02 0.  1.
          2   -1    0    0  501    0  0.00000000000E+00 -0.00000000000E+00 -0.53743883495E+02  0.53743883557E+02  0.26000000000E-02 0. -1.
       1023    2    1    2    0    0  0.00000000000E+00  0.00000000000E+00 -0.51883085083E+02  0.55604683785E+02  0.20000658516E+02 0.  0.
        -11    1    3    3    0    0 -0.13624361929E+01 -0.99069628851E+01 -0.26078843991E+02  0.27930453812E+02  0.51100000000E-03 0.  1.
         11    1    3    3    0    0  0.13624361929E+01  0.99069628851E+01 -0.25804241093E+02  0.27674229973E+02  0.51100000000E-03 0. -1.
<mgrwt>
<rscale>  0 0.20000659E+02</rscale>
<asrwt>0</asrwt>
<pdfrwt beam="2">  1        2 0.82682887E-02 0.20000659E+02</pdfrwt>
<pdfrwt beam="1">  1       -2 0.28627686E-03 0.20000659E+02</pdfrwt>
<totfact> 0.46843688E+06</totfact>
</mgrwt>
</event>
<event>
 5    1  0.4062981E-006  0.2000098E+02  0.7818608E-02  0.1745309E+00
         -2   -1    0    0    0  501 -0.00000000000E+00  0.00000000000E+00  0.18144270519E+01  0.18144289148E+01  0.26000000000E-02 0.  1.
          2   -1    0    0  501    0  0.00000000000E+00 -0.00000000000E+00 -0.55119180746E+02  0.55119180808E+02  0.26000000000E-02 0. -1.
       1023    2    1    2    0    0  0.00000000000E+00  0.00000000000E+00 -0.53304753695E+02  0.56933609723E+02  0.20000978716E+02 0.  0.
        -11    1    3    3    0    0 -0.91033317656E+01 -0.41392126339E+01 -0.26430845754E+02  0.28259393801E+02  0.51100000000E-03 0.  1.
         11    1    3    3    0    0  0.91033317656E+01  0.41392126339E+01 -0.26873907941E+02  0.28674215922E+02  0.51100000000E-03 0. -1.
<mgrwt>
<rscale>  0 0.20000979E+02</rscale>
<asrwt>0</asrwt>
<pdfrwt beam="2">  1        2 0.84798728E-02 0.20000979E+02</pdfrwt>
<pdfrwt beam="1">  1       -2 0.27914281E-03 0.20000979E+02</pdfrwt>
<totfact> 0.47030662E+06</totfact>
</mgrwt>
</event>
<event>
 5    1  0.4046313E-006  0.2000947E+02  0.7818608E-02  0.1745140E+00
          2   -1    0    0  501    0  0.00000000000E+00  0.00000000000E+00  0.31216096229E+02  0.31216096337E+02  0.26000000000E-02 0. -1.
         -2   -1    0    0    0  501 -0.00000000000E+00 -0.00000000000E+00 -0.32065095545E+01  0.32065106086E+01  0.26000000000E-02 0.  1.
       1023    2    1    2    0    0  0.00000000000E+00  0.00000000000E+00  0.28009586675E+02  0.34422606946E+02  0.20009470839E+02 0.  0.
        -11    1    3    3    0    0  0.99619136454E+01 -0.91993065777E+00  0.14165573058E+02  0.17342129518E+02  0.51100000000E-03 0.  1.
         11    1    3    3    0    0 -0.99619136454E+01  0.91993065777E+00  0.13844013616E+02  0.17080477428E+02  0.51100000000E-03 0. -1.
<mgrwt>
<rscale>  0 0.20009471E+02</rscale>
<asrwt>0</asrwt>
<pdfrwt beam="1">  1        2 0.48024766E-02 0.20009471E+02</pdfrwt>
<pdfrwt beam="2">  1       -2 0.49330923E-03 0.20009471E+02</pdfrwt>
<totfact> 0.43518888E+06</totfact>
</mgrwt>
</event>
<event>
 5    1  0.4114023E-006  0.2000063E+02  0.7818608E-02  0.1745316E+00
          2   -1    0    0  501    0  0.00000000000E+00  0.00000000000E+00  0.87591692191E+02  0.87591692230E+02  0.26000000000E-02 0.  1.
         -2   -1    0    0    0  501 -0.00000000000E+00 -0.00000000000E+00 -0.11417313003E+01  0.11417342607E+01  0.26000000000E-02 0. -1.
       1023    2    1    2    0    0  0.00000000000E+00  0.00000000000E+00  0.86449960891E+02  0.88733426491E+02  0.20000630958E+02 0.  0.
        -11    1    3    3    0    0  0.46776559460E+01 -0.88388502310E+01  0.43330981092E+02  0.44469986072E+02  0.51100000000E-03 0. -1.
         11    1    3    3    0    0 -0.46776559460E+01  0.88388502310E+01  0.43118979799E+02  0.44263440419E+02  0.51100000000E-03 0.  1.
<mgrwt>
<rscale>  0 0.20000631E+02</rscale>
<asrwt>0</asrwt>
<pdfrwt beam="1">  1        2 0.13475640E-01 0.20000631E+02</pdfrwt>
<pdfrwt beam="2">  1       -2 0.17565127E-03 0.20000631E+02</pdfrwt>
<totfact> 0.51244124E+06</totfact>
</mgrwt>
</event>
<event>
 4    1  0.4046313E-006  0.2001936E+02  0.7818608E-02  0.1744943E+00
         -2   -1    0    0    0  501 -0.00000000000E+00  0.00000000000E+00  0.39950312831E+01  0.39950321292E+01  0.26000000000E-02 0.  1.
          2   -1    0    0  501    0  0.00000000000E+00 -0.00000000000E+00 -0.25079565387E+02  0.25079565521E+02  0.26000000000E-02 0. -1.
        -11    1    1    2    0    0  0.84003112988E+01  0.54418029242E+01 -0.10721399938E+02  0.14667203751E+02  0.51100000000E-03 0. -1.
         11    1    1    2    0    0 -0.84003112988E+01 -0.54418029242E+01 -0.10363134165E+02  0.14407393899E+02  0.51100000000E-03 0.  1.
<mgrwt>
<rscale>  0 0.20019357E+02</rscale>
<asrwt>0</asrwt>
<pdfrwt beam="2">  1        2 0.38583946E-02 0.20019357E+02</pdfrwt>
<pdfrwt beam="1">  1       -2 0.61462029E-03 0.20019357E+02</pdfrwt>
<totfact> 0.42477630E+06</totfact>
</mgrwt>
</event>
<event>
 5    1  0.4046313E-006  0.2000049E+02  0.7818608E-02  0.1745318E+00
         -2   -1    0    0    0  501 -0.00000000000E+00  0.00000000000E+00  0.33195799627E+01  0.33195809809E+01  0.26000000000E-02 0. -1.
          2   -1    0    0  501    0  0.00000000000E+00 -0.00000000000E+00 -0.30125753498E+02  0.30125753611E+02  0.26000000000E-02 0.  1.
       1023    2    1    2    0    0  0.00000000000E+00  0.00000000000E+00 -0.26806173536E+02  0.33445334591E+02  0.20000486652E+02 0.  0.
        -11    1    3    3    0    0  0.57075578255E+01  0.82112728877E+01 -0.13302092782E+02  0.16641721407E+02  0.51100000000E-03 0.  1.
         11    1    3    3    0    0 -0.57075578255E+01 -0.82112728877E+01 -0.13504080754E+02  0.16803613184E+02  0.51100000000E-03 0. -1.
<mgrwt>
<rscale>  0 0.20000487E+02</rscale>
<asrwt>0</asrwt>
<pdfrwt beam="2">  1        2 0.46347312E-02 0.20000487E+02</pdfrwt>
<pdfrwt beam="1">  1       -2 0.51070472E-03 0.20000487E+02</pdfrwt>
<totfact> 0.43390806E+06</totfact>
</mgrwt>
</event>
<event>
 5    1  0.4046313E-006  0.2000076E+02  0.7818608E-02  0.1745313E+00
         -2   -1    0    0    0  501 -0.00000000000E+00  0.00000000000E+00  0.96615949429E+01  0.96615952927E+01  0.26000000000E-02 0. -1.
          2   -1    0    0  501    0  0.00000000000E+00 -0.00000000000E+00 -0.10351047661E+02  0.10351047988E+02  0.26000000000E-02 0.  1.
       1023    2    1    2    0    0  0.00000000000E+00  0.00000000000E+00 -0.68945271835E+00  0.20012643280E+02  0.20000763636E+02 0.  0.
        -11    1    3    3    0    0 -0.83319524728E+01 -0.55303247465E+01 -0.30332022920E+00  0.10004895164E+02  0.51100000000E-03 0.  1.
         11    1    3    3    0    0  0.83319524728E+01  0.55303247465E+01 -0.38613248916E+00  0.10007748117E+02  0.51100000000E-03 0. -1.
<mgrwt>
<rscale>  0 0.20000764E+02</rscale>
<asrwt>0</asrwt>
<pdfrwt beam="2">  1        2 0.15924689E-02 0.20000764E+02</pdfrwt>
<pdfrwt beam="1">  1       -2 0.14863993E-02 0.20000764E+02</pdfrwt>
<totfact> 0.39559739E+06</totfact>
</mgrwt>
</event>
<event>
 5    1  0.4046313E-006  0.2000025E+02  0.7818608E-02  0.1745323E+00
         -2   -1    0    0    0  501 -0.00000000000E+00  0.00000000000E+00  0.26694145765E+01  0.26694158427E+01  0.26000000000E-02 0.  1.
          2   -1    0    0  501    0  0.00000000000E+00 -0.00000000000E+00 -0.37462319433E+02  0.37462319523E+02  0.26000000000E-02 0. -1.
       1023    2    1    2    0    0  0.00000000000E+00  0.00000000000E+00 -0.34792904856E+02  0.40131735366E+02  0.20000248876E+02 0.  0.
        -11    1    3    3    0    0 -0.15110293911E+01  0.98851862343E+01 -0.17298730372E+02  0.19981145849E+02  0.51100000000E-03 0. -1.
         11    1    3    3    0    0  0.15110293911E+01 -0.98851862343E+01 -0.17494174485E+02  0.20150589517E+02  0.51100000000E-03 0.  1.
<mgrwt>
<rscale>  0 0.20000249E+02</rscale>
<asrwt>0</asrwt>
<pdfrwt beam="2">  1        2 0.57634335E-02 0.20000249E+02</pdfrwt>
<pdfrwt beam="1">  1       -2 0.41067930E-03 0.20000249E+02</pdfrwt>
<totfact> 0.44518954E+06</totfact>
</mgrwt>
</event>
<event>
 5    1  0.4046313E-006  0.2000076E+02  0.7818608E-02  0.1745313E+00
         -2   -1    0    0    0  501 -0.00000000000E+00  0.00000000000E+00  0.11942595236E+02  0.11942595519E+02  0.26000000000E-02 0. -1.
          2   -1    0    0  501    0  0.00000000000E+00 -0.00000000000E+00 -0.83740273553E+01  0.83740277589E+01  0.26000000000E-02 0.  1.
       1023    2    1    2    0    0  0.00000000000E+00  0.00000000000E+00  0.35685678806E+01  0.20316623278E+02  0.20000762603E+02 0.  0.
        -11    1    3    3    0    0 -0.16249396300E+00 -0.99990610306E+01  0.17839167841E+01  0.10158247149E+02  0.51100000000E-03 0.  1.
         11    1    3    3    0    0  0.16249396300E+00  0.99990610306E+01  0.17846510965E+01  0.10158376129E+02  0.51100000000E-03 0. -1.
<mgrwt>
<rscale>  0 0.20000763E+02</rscale>
<asrwt>0</asrwt>
<pdfrwt beam="2">  1        2 0.12883120E-02 0.20000763E+02</pdfrwt>
<pdfrwt beam="1">  1       -2 0.18373224E-02 0.20000763E+02</pdfrwt>
<totfact> 0.38950371E+06</totfact>
</mgrwt>
</event>
<event>
 4    1  0.4046313E-006  0.2039911E+02  0.7818608E-02  0.1737506E+00
          2   -1    0    0  501    0  0.00000000000E+00  0.00000000000E+00  0.28861223657E+02  0.28861223774E+02  0.26000000000E-02 0.  1.
         -2   -1    0    0    0  501 -0.00000000000E+00 -0.00000000000E+00 -0.36045220382E+01  0.36045229759E+01  0.26000000000E-02 0. -1.
        -11    1    1    2    0    0 -0.99717533352E+01 -0.19764167392E+01  0.13949266760E+02  0.17260478878E+02  0.51100000000E-03 0.  1.
         11    1    1    2    0    0  0.99717533352E+01  0.19764167392E+01  0.11307434859E+02  0.15205267872E+02  0.51100000000E-03 0. -1.
<mgrwt>
<rscale>  0 0.20399111E+02</rscale>
<asrwt>0</asrwt>
<pdfrwt beam="1">  1        2 0.44401883E-02 0.20399111E+02</pdfrwt>
<pdfrwt beam="2">  1       -2 0.55454194E-03 0.20399111E+02</pdfrwt>
<totfact> 0.41314875E+06</totfact>
</mgrwt>
</event>
<event>
 5    1  0.4046313E-006  0.2000003E+02  0.7818608E-02  0.1745328E+00
          2   -1    0    0  501    0  0.00000000000E+00  0.00000000000E+00  0.11849112823E+02  0.11849113109E+02  0.26000000000E-02 0.  1.
         -2   -1    0    0    0  501 -0.00000000000E+00 -0.00000000000E+00 -0.84394726912E+01  0.84394730917E+01  0.26000000000E-02 0. -1.
       1023    2    1    2    0    0  0.00000000000E+00  0.00000000000E+00  0.34096401321E+01  0.20288586200E+02  0.20000027104E+02 0.  0.
        -11    1    3    3    0    0 -0.45629823301E+01  0.88982835080E+01  0.17010724146E+01  0.10143663281E+02  0.51100000000E-03 0.  1.
         11    1    3    3    0    0  0.45629823301E+01 -0.88982835080E+01  0.17085677175E+01  0.10144922919E+02  0.51100000000E-03 0. -1.
<mgrwt>
<rscale>  0 0.20000027E+02</rscale>
<asrwt>0</asrwt>
<pdfrwt beam="1">  1        2 0.18229405E-02 0.20000027E+02</pdfrwt>
<pdfrwt beam="2">  1       -2 0.12983805E-02 0.20000027E+02</pdfrwt>
<totfact> 0.39960774E+06</totfact>
</mgrwt>
</event>
<event>
 5    1  0.4046313E-006  0.2001125E+02  0.7818608E-02  0.1745104E+00
          2   -1    0    0  501    0  0.00000000000E+00  0.00000000000E+00  0.38215801161E+02  0.38215801249E+02  0.26000000000E-02 0. -1.
         -2   -1    0    0    0  501 -0.00000000000E+00 -0.00000000000E+00 -0.26196626513E+01  0.26196639415E+01  0.26000000000E-02 0.  1.
       1023    2    1    2    0    0  0.00000000000E+00  0.00000000000E+00  0.35596138510E+02  0.40835465191E+02  0.20011250350E+02 0.  0.
        -11    1    3    3    0    0 -0.75236953423E+01 -0.65955633637E+01  0.17943615932E+02  0.20544605147E+02  0.51100000000E-03 0. -1.
         11    1    3    3    0    0  0.75236953423E+01  0.65955633637E+01  0.17652522578E+02  0.20290860044E+02  0.51100000000E-03 0.  1.
<mgrwt>
<rscale>  0 0.20011250E+02</rscale>
<asrwt>0</asrwt>
<pdfrwt beam="1">  1        2 0.58793537E-02 0.20011250E+02</pdfrwt>
<pdfrwt beam="2">  1       -2 0.40302516E-03 0.20011250E+02</pdfrwt>
<totfact> 0.44576446E+06</totfact>
</mgrwt>
</event>
<event>
 5    1  0.4046313E-006  0.2000205E+02  0.7818608E-02  0.1745287E+00
          2   -1    0    0  501    0  0.00000000000E+00  0.00000000000E+00  0.32524448530E+02  0.32524448634E+02  0.26000000000E-02 0. -1.
         -2   -1    0    0    0  501 -0.00000000000E+00 -0.00000000000E+00 -0.30752395571E+01  0.30752406562E+01  0.26000000000E-02 0.  1.
       1023    2    1    2    0    0  0.00000000000E+00  0.00000000000E+00  0.29449208973E+02  0.35599689290E+02  0.20002049106E+02 0.  0.
        -11    1    3    3    0    0 -0.94697759733E+01 -0.32158860125E+01  0.14802429176E+02  0.17864223733E+02  0.51100000000E-03 0.  1.
         11    1    3    3    0    0  0.94697759733E+01  0.32158860125E+01  0.14646779798E+02  0.17735465557E+02  0.51100000000E-03 0. -1.
<mgrwt>
<rscale>  0 0.20002049E+02</rscale>
<asrwt>0</asrwt>
<pdfrwt beam="1">  1        2 0.50037616E-02 0.20002049E+02</pdfrwt>
<pdfrwt beam="2">  1       -2 0.47311385E-03 0.20002049E+02</pdfrwt>
<totfact> 0.43759042E+06</totfact>
</mgrwt>
</event>
<event>
 5    1  0.4046313E-006  0.2000275E+02  0.7818608E-02  0.1745273E+00
         -2   -1    0    0    0  501 -0.00000000000E+00  0.00000000000E+00  0.24847851458E+01  0.24847865061E+01  0.26000000000E-02 0.  1.
          2   -1    0    0  501    0  0.00000000000E+00 -0.00000000000E+00 -0.40255985950E+02  0.40255986034E+02  0.26000000000E-02 0. -1.
       1023    2    1    2    0    0  0.00000000000E+00  0.00000000000E+00 -0.37771200804E+02  0.42740772540E+02  0.20002750489E+02 0.  0.
        -11    1    3    3    0    0  0.25663127011E+01 -0.96662354725E+01 -0.18728039095E+02  0.21231144992E+02  0.51100000000E-03 0.  1.
         11    1    3    3    0    0 -0.25663127011E+01  0.96662354725E+01 -0.19043161710E+02  0.21509627548E+02  0.51100000000E-03 0. -1.
<mgrwt>
<rscale>  0 0.20002750E+02</rscale>
<asrwt>0</asrwt>
<pdfrwt beam="2">  1        2 0.61932282E-02 0.20002750E+02</pdfrwt>
<pdfrwt beam="1">  1       -2 0.38227478E-03 0.20002750E+02</pdfrwt>
<totfact> 0.44920133E+06</totfact>
</mgrwt>
</event>
<event>
 5    1  0.4046313E-006  0.2000194E+02  0.7818608E-02  0.1745289E+00
          2   -1    0    0  501    0  0.00000000000E+00  0.00000000000E+00  0.19609181877E+01  0.19609199114E+01  0.26000000000E-02 0. -1.
         -2   -1    0    0    0  501 -0.00000000000E+00 -0.00000000000E+00 -0.51006410739E+02  0.51006410805E+02  0.26000000000E-02 0.  1.
       1023    2    1    2    0    0  0.00000000000E+00  0.00000000000E+00 -0.49045492551E+02  0.52967330717E+02  0.20001944497E+02 0.  0.
        -11    1    3    3    0    0 -0.97676389171E+01 -0.21476823389E+01 -0.24553651791E+02  0.26512282549E+02  0.51100000000E-03 0.  1.
         11    1    3    3    0    0  0.97676389171E+01  0.21476823389E+01 -0.24491840761E+02  0.26455048168E+02  0.51100000000E-03 0. -1.
<mgrwt>
<rscale>  0 0.20001944E+02</rscale>
<asrwt>0</asrwt>
<pdfrwt beam="1">  1        2 0.30167990E-03 0.20001944E+02</pdfrwt>
<pdfrwt beam="2">  1       -2 0.78471392E-02 0.20001944E+02</pdfrwt>
<totfact> 0.33793717E+06</totfact>
</mgrwt>
</event>
<event>
 5    1  0.4069017E-006  0.2000177E+02  0.7818608E-02  0.1745293E+00
         -2   -1    0    0    0  501 -0.00000000000E+00  0.00000000000E+00  0.28244771360E+01  0.28244783327E+01  0.26000000000E-02 0.  1.
          2   -1    0    0  501    0  0.00000000000E+00 -0.00000000000E+00 -0.35411024951E+02  0.35411025046E+02  0.26000000000E-02 0. -1.
       1023    2    1    2    0    0  0.00000000000E+00  0.00000000000E+00 -0.32586547815E+02  0.38235503379E+02  0.20001765426E+02 0.  0.
        -11    1    3    3    0    0 -0.75185498107E+01 -0.65942603216E+01 -0.16160912153E+02  0.19004945207E+02  0.51100000000E-03 0. -1.
         11    1    3    3    0    0  0.75185498107E+01  0.65942603216E+01 -0.16425635661E+02  0.19230558172E+02  0.51100000000E-03 0.  1.
<mgrwt>
<rscale>  0 0.20001765E+02</rscale>
<asrwt>0</asrwt>
<pdfrwt beam="2">  1        2 0.54478497E-02 0.20001765E+02</pdfrwt>
<pdfrwt beam="1">  1       -2 0.43453507E-03 0.20001765E+02</pdfrwt>
<totfact> 0.44202763E+06</totfact>
</mgrwt>
</event>
<event>
 5    1  0.4046313E-006  0.2000080E+02  0.7818608E-02  0.1745312E+00
         -2   -1    0    0    0  501 -0.00000000000E+00  0.00000000000E+00  0.22931750536E+01  0.22931765275E+01  0.26000000000E-02 0.  1.
          2   -1    0    0  501    0  0.00000000000E+00 -0.00000000000E+00 -0.43611122519E+02  0.43611122597E+02  0.26000000000E-02 0. -1.
       1023    2    1    2    0    0  0.00000000000E+00  0.00000000000E+00 -0.41317947466E+02  0.45904299124E+02  0.20000797367E+02 0.  0.
        -11    1    3    3    0    0 -0.86851847313E+01  0.49572105031E+01 -0.20567060487E+02  0.22869419475E+02  0.51100000000E-03 0.  1.
         11    1    3    3    0    0  0.86851847313E+01 -0.49572105031E+01 -0.20750886979E+02  0.23034879649E+02  0.51100000000E-03 0. -1.
<mgrwt>
<rscale>  0 0.20000797E+02</rscale>
<asrwt>0</asrwt>
<pdfrwt beam="2">  1        2 0.67094030E-02 0.20000797E+02</pdfrwt>
<pdfrwt beam="1">  1       -2 0.35279631E-03 0.20000797E+02</pdfrwt>
<totfact> 0.45417858E+06</totfact>
</mgrwt>
</event>
<event>
 5    1  0.4046313E-006  0.2000373E+02  0.7818608E-02  0.1745254E+00
          2   -1    0    0  501    0  0.00000000000E+00  0.00000000000E+00  0.62868111966E+02  0.62868112020E+02  0.26000000000E-02 0. -1.
         -2   -1    0    0    0  501 -0.00000000000E+00 -0.00000000000E+00 -0.15912236508E+01  0.15912257750E+01  0.26000000000E-02 0.  1.
       1023    2    1    2    0    0  0.00000000000E+00  0.00000000000E+00  0.61276888315E+02  0.64459337795E+02  0.20003729336E+02 0.  0.
        -11    1    3    3    0    0  0.99264291344E+01 -0.12211812317E+01  0.30285192651E+02  0.31893857922E+02  0.51100000000E-03 0. -1.
         11    1    3    3    0    0 -0.99264291344E+01  0.12211812317E+01  0.30991695664E+02  0.32565479873E+02  0.51100000000E-03 0.  1.
<mgrwt>
<rscale>  0 0.20003729E+02</rscale>
<asrwt>0</asrwt>
<pdfrwt beam="1">  1        2 0.96720177E-02 0.20003729E+02</pdfrwt>
<pdfrwt beam="2">  1       -2 0.24480380E-03 0.20003729E+02</pdfrwt>
<totfact> 0.48061633E+06</totfact>
</mgrwt>
</event>
<event>
 5    1  0.4046313E-006  0.2000095E+02  0.7818608E-02  0.1745309E+00
         -2   -1    0    0    0  501 -0.00000000000E+00  0.00000000000E+00  0.98791944417E+01  0.98791947838E+01  0.26000000000E-02 0.  1.
          2   -1    0    0  501    0  0.00000000000E+00 -0.00000000000E+00 -0.10123244815E+02  0.10123245148E+02  0.26000000000E-02 0. -1.
       1023    2    1    2    0    0  0.00000000000E+00  0.00000000000E+00 -0.24405037286E+00  0.20002439932E+02  0.20000951044E+02 0.  0.
        -11    1    3    3    0    0  0.99958484869E+01 -0.30361002377E+00 -0.10346618668E+00  0.10000993527E+02  0.51100000000E-03 0. -1.
         11    1    3    3    0    0 -0.99958484869E+01  0.30361002377E+00 -0.14058418619E+00  0.10001446405E+02  0.51100000000E-03 0.  1.
<mgrwt>
<rscale>  0 0.20000951E+02</rscale>
<asrwt>0</asrwt>
<pdfrwt beam="2">  1        2 0.15574223E-02 0.20000951E+02</pdfrwt>
<pdfrwt beam="1">  1       -2 0.15198761E-02 0.20000951E+02</pdfrwt>
<totfact> 0.39494329E+06</totfact>
</mgrwt>
</event>
<event>
 5    1  0.4046313E-006  0.2000134E+02  0.7818608E-02  0.1745302E+00
         -2   -1    0    0    0  501 -0.00000000000E+00  0.00000000000E+00  0.77608291526E+02  0.77608291569E+02  0.26000000000E-02 0. -1.
          2   -1    0    0  501    0  0.00000000000E+00 -0.00000000000E+00 -0.12886929343E+01  0.12886955571E+01  0.26000000000E-02 0.  1.
       1023    2    1    2    0    0  0.00000000000E+00  0.00000000000E+00  0.76319598592E+02  0.78896987127E+02  0.20001336167E+02 0.  0.
        -11    1    3    3    0    0  0.51933039858E+01  0.85457686782E+01  0.37713637776E+02  0.39016907145E+02  0.51100000000E-03 0. -1.
         11    1    3    3    0    0 -0.51933039858E+01 -0.85457686782E+01  0.38605960815E+02  0.39880079981E+02  0.51100000000E-03 0.  1.
<mgrwt>
<rscale>  0 0.20001336E+02</rscale>
<asrwt>0</asrwt>
<pdfrwt beam="2">  1        2 0.19826060E-03 0.20001336E+02</pdfrwt>
<pdfrwt beam="1">  1       -2 0.11939741E-01 0.20001336E+02</pdfrwt>
<totfact> 0.31446403E+06</totfact>
</mgrwt>
</event>
<event>
 4    1  0.4046313E-006  0.2001492E+02  0.7818608E-02  0.1745032E+00
          2   -1    0    0  501    0  0.00000000000E+00  0.00000000000E+00  0.30829453513E+01  0.30829464476E+01  0.26000000000E-02 0. -1.
         -2   -1    0    0    0  501 -0.00000000000E+00 -0.00000000000E+00 -0.32484908256E+02  0.32484908360E+02  0.26000000000E-02 0.  1.
        -11    1    1    2    0    0 -0.76469355424E+01 -0.64542428782E+01 -0.14473797019E+02  0.17596126697E+02  0.51100000000E-03 0.  1.
         11    1    1    2    0    0  0.76469355424E+01  0.64542428782E+01 -0.14928165886E+02  0.17971728111E+02  0.51100000000E-03 0. -1.
<mgrwt>
<rscale>  0 0.20014916E+02</rscale>
<asrwt>0</asrwt>
<pdfrwt beam="1">  1        2 0.47429940E-03 0.20014916E+02</pdfrwt>
<pdfrwt beam="2">  1       -2 0.49976780E-02 0.20014916E+02</pdfrwt>
<totfact> 0.35706686E+06</totfact>
</mgrwt>
</event>
<event>
 5    1  0.4046313E-006  0.2000185E+02  0.7818608E-02  0.1745291E+00
          2   -1    0    0  501    0  0.00000000000E+00  0.00000000000E+00  0.18418203324E+02  0.18418203508E+02  0.26000000000E-02 0. -1.
         -2   -1    0    0    0  501 -0.00000000000E+00 -0.00000000000E+00 -0.54304142592E+01  0.54304148817E+01  0.26000000000E-02 0.  1.
       1023    2    1    2    0    0  0.00000000000E+00  0.00000000000E+00  0.12987789065E+02  0.23848618389E+02  0.20001848272E+02 0.  0.
        -11    1    3    3    0    0  0.60790002540E+01 -0.79411606434E+01  0.65499064079E+01  0.11954812866E+02  0.51100000000E-03 0.  1.
         11    1    3    3    0    0 -0.60790002540E+01  0.79411606434E+01  0.64378826569E+01  0.11893805523E+02  0.51100000000E-03 0. -1.
<mgrwt>
<rscale>  0 0.20001848E+02</rscale>
<asrwt>0</asrwt>
<pdfrwt beam="1">  1        2 0.28335698E-02 0.20001848E+02</pdfrwt>
<pdfrwt beam="2">  1       -2 0.83544840E-03 0.20001848E+02</pdfrwt>
<totfact> 0.41372147E+06</totfact>
</mgrwt>
</event>
<event>
 5    1  0.4046313E-006  0.2000044E+02  0.7818608E-02  0.1745319E+00
         -2   -1    0    0    0  501 -0.00000000000E+00  0.00000000000E+00  0.96259575521E+01  0.96259579032E+01  0.26000000000E-02 0. -1.
          2   -1    0    0  501    0  0.00000000000E+00 -0.00000000000E+00 -0.10389037532E+02  0.10389037858E+02  0.26000000000E-02 0.  1.
       1023    2    1    2    0    0  0.00000000000E+00  0.00000000000E+00 -0.76307998031E+00  0.20014995761E+02  0.20000444101E+02 0.  0.
        -11    1    3    3    0    0 -0.93712345600E+01  0.34905314573E+01 -0.40592510228E+00  0.10008427573E+02  0.51100000000E-03 0.  1.
         11    1    3    3    0    0  0.93712345600E+01 -0.34905314573E+01 -0.35715487803E+00  0.10006568188E+02  0.51100000000E-03 0. -1.
<mgrwt>
<rscale>  0 0.20000444E+02</rscale>
<asrwt>0</asrwt>
<pdfrwt beam="2">  1        2 0.15983135E-02 0.20000444E+02</pdfrwt>
<pdfrwt beam="1">  1       -2 0.14809166E-02 0.20000444E+02</pdfrwt>
<totfact> 0.39571831E+06</totfact>
</mgrwt>
</event>
<event>
 5    1  0.4046313E-006  0.2000024E+02  0.7818608E-02  0.1745323E+00
         -2   -1    0    0    0  501 -0.00000000000E+00  0.00000000000E+00  0.33035243208E+02  0.33035243310E+02  0.26000000000E-02 0. -1.
          2   -1    0    0  501    0  0.00000000000E+00 -0.00000000000E+00 -0.30271420013E+01  0.30271431179E+01  0.26000000000E-02 0.  1.
       1023    2    1    2    0    0  0.00000000000E+00  0.00000000000E+00  0.30008101206E+02  0.36062386428E+02  0.20000239420E+02 0.  0.
        -11    1    3    3    0    0 -0.96994203621E+01  0.24337538082E+01  0.14964505804E+02  0.17998287340E+02  0.51100000000E-03 0. -1.
         11    1    3    3    0    0  0.96994203621E+01 -0.24337538082E+01  0.15043595402E+02  0.18064099088E+02  0.51100000000E-03 0.  1.
<mgrwt>
<rscale>  0 0.20000239E+02</rscale>
<asrwt>0</asrwt>
<pdfrwt beam="2">  1        2 0.46571425E-03 0.20000239E+02</pdfrwt>
<pdfrwt beam="1">  1       -2 0.50823452E-02 0.20000239E+02</pdfrwt>
<totfact> 0.35699083E+06</totfact>
</mgrwt>
</event>
<event>
 5    1  0.4046313E-006  0.2000044E+02  0.7818608E-02  0.1745319E+00
         -2   -1    0    0    0  501 -0.00000000000E+00  0.00000000000E+00  0.19492290661E+01  0.19492308001E+01  0.26000000000E-02 0.  1.
          2   -1    0    0  501    0  0.00000000000E+00 -0.00000000000E+00 -0.51304578903E+02  0.51304578969E+02  0.26000000000E-02 0. -1.
       1023    2    1    2    0    0  0.00000000000E+00  0.00000000000E+00 -0.49355349837E+02  0.53253809769E+02  0.20000442430E+02 0.  0.
        -11    1    3    3    0    0 -0.72285211946E+01  0.69100384161E+01 -0.24851757168E+02  0.26788243395E+02  0.51100000000E-03 0.  1.
         11    1    3    3    0    0  0.72285211946E+01 -0.69100384161E+01 -0.24503592669E+02  0.26465566374E+02  0.51100000000E-03 0. -1.
<mgrwt>
<rscale>  0 0.20000442E+02</rscale>
<asrwt>0</asrwt>
<pdfrwt beam="2">  1        2 0.78930113E-02 0.20000442E+02</pdfrwt>
<pdfrwt beam="1">  1       -2 0.29988157E-03 0.20000442E+02</pdfrwt>
<totfact> 0.46507604E+06</totfact>
</mgrwt>
</event>
<event>
 5    1  0.4046313E-006  0.2000040E+02  0.7818608E-02  0.1745320E+00
          2   -1    0    0  501    0  0.00000000000E+00  0.00000000000E+00  0.75772090830E+02  0.75772090875E+02  0.26000000000E-02 0. -1.
         -2   -1    0    0    0  501 -0.00000000000E+00 -0.00000000000E+00 -0.13197987785E+01  0.13198013395E+01  0.26000000000E-02 0.  1.
       1023    2    1    2    0    0  0.00000000000E+00  0.00000000000E+00  0.74452292052E+02  0.77091892214E+02  0.20000401331E+02 0.  0.
        -11    1    3    3    0    0  0.92475199779E+01 -0.38057998374E+01  0.37005562866E+02  0.38332915640E+02  0.51100000000E-03 0. -1.
         11    1    3    3    0    0 -0.92475199779E+01  0.38057998374E+01  0.37446729185E+02  0.38758976574E+02  0.51100000000E-03 0.  1.
<mgrwt>
<rscale>  0 0.20000401E+02</rscale>
<asrwt>0</asrwt>
<pdfrwt beam="1">  1        2 0.11657246E-01 0.20000401E+02</pdfrwt>
<pdfrwt beam="2">  1       -2 0.20304614E-03 0.20000401E+02</pdfrwt>
<totfact> 0.49761039E+06</totfact>
</mgrwt>
</event>
<event>
 5    1  0.4046313E-006  0.2000143E+02  0.7818608E-02  0.1745300E+00
          2   -1    0    0  501    0  0.00000000000E+00  0.00000000000E+00  0.17483990530E+01  0.17484009862E+01  0.26000000000E-02 0.  1.
         -2   -1    0    0    0  501 -0.00000000000E+00 -0.00000000000E+00 -0.57203350476E+02  0.57203350535E+02  0.26000000000E-02 0. -1.
       1023    2    1    2    0    0  0.00000000000E+00  0.00000000000E+00 -0.55454951423E+02  0.58951751522E+02  0.20001434201E+02 0.  0.
        -11    1    3    3    0    0 -0.18008636557E+01  0.98370122525E+01 -0.27923477430E+02  0.29660251381E+02  0.51100000000E-03 0. -1.
         11    1    3    3    0    0  0.18008636557E+01 -0.98370122525E+01 -0.27531473994E+02  0.29291500141E+02  0.51100000000E-03 0.  1.
<mgrwt>
<rscale>  0 0.20001434E+02</rscale>
<asrwt>0</asrwt>
<pdfrwt beam="1">  1        2 0.26898467E-03 0.20001434E+02</pdfrwt>
<pdfrwt beam="2">  1       -2 0.88005142E-02 0.20001434E+02</pdfrwt>
<totfact> 0.33210559E+06</totfact>
</mgrwt>
</event>
<event>
 5    1  0.4046313E-006  0.2000047E+02  0.7818608E-02  0.1745319E+00
         -2   -1    0    0    0  501 -0.00000000000E+00  0.00000000000E+00  0.17110996154E+01  0.17111015907E+01  0.26000000000E-02 0.  1.
          2   -1    0    0  501    0  0.00000000000E+00 -0.00000000000E+00 -0.58444649786E+02  0.58444649844E+02  0.26000000000E-02 0. -1.
       1023    2    1    2    0    0  0.00000000000E+00  0.00000000000E+00 -0.56733550170E+02  0.60155751434E+02  0.20000467887E+02 0.  0.
        -11    1    3    3    0    0 -0.95965114547E+01  0.28125589904E+01 -0.28469147513E+02  0.30174424279E+02  0.51100000000E-03 0.  1.
         11    1    3    3    0    0  0.95965114547E+01 -0.28125589904E+01 -0.28264402657E+02  0.29981327156E+02  0.51100000000E-03 0. -1.
<mgrwt>
<rscale>  0 0.20000468E+02</rscale>
<asrwt>0</asrwt>
<pdfrwt beam="2">  1        2 0.89914832E-02 0.20000468E+02</pdfrwt>
<pdfrwt beam="1">  1       -2 0.26324630E-03 0.20000468E+02</pdfrwt>
<totfact> 0.47485475E+06</totfact>
</mgrwt>
</event>
<event>
 5    1  0.4046313E-006  0.2000169E+02  0.7818608E-02  0.1745294E+00
         -2   -1    0    0    0  501 -0.00000000000E+00  0.00000000000E+00  0.19431112701E+01  0.19431130096E+01  0.26000000000E-02 0. -1.
          2   -1    0    0  501    0  0.00000000000E+00 -0.00000000000E+00 -0.51472532072E+02  0.51472532137E+02  0.26000000000E-02 0.  1.
       1023    2    1    2    0    0  0.00000000000E+00  0.00000000000E+00 -0.49529420802E+02  0.53415645147E+02  0.20001690467E+02 0.  0.
        -11    1    3    3    0    0 -0.69212358155E+01  0.72189554158E+01 -0.24740437324E+02  0.26685315471E+02  0.51100000000E-03 0.  1.
         11    1    3    3    0    0  0.69212358155E+01 -0.72189554158E+01 -0.24788983477E+02  0.26730329676E+02  0.51100000000E-03 0. -1.
<mgrwt>
<rscale>  0 0.20001690E+02</rscale>
<asrwt>0</asrwt>
<pdfrwt beam="2">  1        2 0.79188502E-02 0.20001690E+02</pdfrwt>
<pdfrwt beam="1">  1       -2 0.29894037E-03 0.20001690E+02</pdfrwt>
<totfact> 0.46524469E+06</totfact>
</mgrwt>
</event>
<event>
 5    1  0.4046313E-006  0.2000022E+02  0.7818608E-02  0.1745324E+00
         -2   -1    0    0    0  501 -0.00000000000E+00  0.00000000000E+00  0.23897608227E+01  0.23897622371E+01  0.26000000000E-02 0.  1.
          2   -1    0    0  501    0  0.00000000000E+00 -0.00000000000E+00 -0.41846086476E+02  0.41846086557E+02  0.26000000000E-02 0. -1.
       1023    2    1    2    0    0  0.00000000000E+00  0.00000000000E+00 -0.39456325653E+02  0.44235848794E+02  0.20000217110E+02 0.  0.
        -11    1    3    3    0    0 -0.30858527145E+01 -0.95119924951E+01 -0.19637435863E+02  0.22037000153E+02  0.51100000000E-03 0. -1.
         11    1    3    3    0    0  0.30858527145E+01  0.95119924951E+01 -0.19818889790E+02  0.22198848641E+02  0.51100000000E-03 0.  1.
<mgrwt>
<rscale>  0 0.20000217E+02</rscale>
<asrwt>0</asrwt>
<pdfrwt beam="2">  1        2 0.64378590E-02 0.20000217E+02</pdfrwt>
<pdfrwt beam="1">  1       -2 0.36765566E-03 0.20000217E+02</pdfrwt>
<totfact> 0.45165244E+06</totfact>
</mgrwt>
</event>
<event>
 5    1  0.4046313E-006  0.2000053E+02  0.7818608E-02  0.1745318E+00
          2   -1    0    0  501    0  0.00000000000E+00  0.00000000000E+00  0.31684933870E+02  0.31684933977E+02  0.26000000000E-02 0.  1.
         -2   -1    0    0    0  501 -0.00000000000E+00 -0.00000000000E+00 -0.31562401171E+01  0.31562411880E+01  0.26000000000E-02 0. -1.
       1023    2    1    2    0    0  0.00000000000E+00  0.00000000000E+00  0.28528693753E+02  0.34841175165E+02  0.20000527983E+02 0.  0.
        -11    1    3    3    0    0 -0.68823946835E+01  0.72551997224E+01  0.14264736363E+02  0.17420906502E+02  0.51100000000E-03 0. -1.
         11    1    3    3    0    0  0.68823946835E+01 -0.72551997224E+01  0.14263957390E+02  0.17420268662E+02  0.51100000000E-03 0.  1.
<mgrwt>
<rscale>  0 0.20000528E+02</rscale>
<asrwt>0</asrwt>
<pdfrwt beam="1">  1        2 0.48746053E-02 0.20000528E+02</pdfrwt>
<pdfrwt beam="2">  1       -2 0.48557549E-03 0.20000528E+02</pdfrwt>
<totfact> 0.43635870E+06</totfact>
</mgrwt>
</event>
<event>
 4    1  0.4046313E-006  0.2002021E+02  0.7818608E-02  0.1744926E+00
         -2   -1    0    0    0  501 -0.00000000000E+00  0.00000000000E+00  0.10734227490E+01  0.10734258978E+01  0.26000000000E-02 0. -1.
          2   -1    0    0  501    0  0.00000000000E+00 -0.00000000000E+00 -0.93348187541E+02  0.93348187577E+02  0.26000000000E-02 0.  1.
        -11    1    1    2    0    0  0.14037821407E+01  0.99111139501E+01 -0.46315990554E+02  0.47385353911E+02  0.51100000000E-03 0. -1.
         11    1    1    2    0    0 -0.14037821407E+01 -0.99111139501E+01 -0.45958774238E+02  0.47036259563E+02  0.51100000000E-03 0.  1.
<mgrwt>
<rscale>  0 0.20020212E+02</rscale>
<asrwt>0</asrwt>
<pdfrwt beam="2">  1        2 0.14361253E-01 0.20020212E+02</pdfrwt>
<pdfrwt beam="1">  1       -2 0.16514228E-03 0.20020212E+02</pdfrwt>
<totfact> 0.51838698E+06</totfact>
</mgrwt>
</event>
<event>
 5    1  0.4046313E-006  0.2000035E+02  0.7818608E-02  0.1745321E+00
          2   -1    0    0  501    0  0.00000000000E+00  0.00000000000E+00  0.51407870821E+02  0.51407870887E+02  0.26000000000E-02 0.  1.
         -2   -1    0    0    0  501 -0.00000000000E+00 -0.00000000000E+00 -0.19452946341E+01  0.19452963716E+01  0.26000000000E-02 0. -1.
       1023    2    1    2    0    0  0.00000000000E+00  0.00000000000E+00  0.49462576187E+02  0.53353167258E+02  0.20000350333E+02 0.  0.
        -11    1    3    3    0    0  0.64450519622E+01  0.76460654891E+01  0.24598151933E+02  0.26553155953E+02  0.51100000000E-03 0. -1.
         11    1    3    3    0    0 -0.64450519622E+01 -0.76460654891E+01  0.24864424253E+02  0.26800011306E+02  0.51100000000E-03 0.  1.
<mgrwt>
<rscale>  0 0.20000350E+02</rscale>
<asrwt>0</asrwt>
<pdfrwt beam="1">  1        2 0.79089041E-02 0.20000350E+02</pdfrwt>
<pdfrwt beam="2">  1       -2 0.29927621E-03 0.20000350E+02</pdfrwt>
<totfact> 0.46522432E+06</totfact>
</mgrwt>
</event>
<event>
 5    1  0.4046313E-006  0.2000117E+02  0.7818608E-02  0.1745305E+00
         -2   -1    0    0    0  501 -0.00000000000E+00  0.00000000000E+00  0.19061477209E+02  0.19061477386E+02  0.26000000000E-02 0. -1.
          2   -1    0    0  501    0  0.00000000000E+00 -0.00000000000E+00 -0.52467968320E+01  0.52467974762E+01  0.26000000000E-02 0.  1.
       1023    2    1    2    0    0  0.00000000000E+00  0.00000000000E+00  0.13814680377E+02  0.24308274863E+02  0.20001170788E+02 0.  0.
        -11    1    3    3    0    0 -0.76086057284E+01 -0.64898348563E+01  0.68422272544E+01  0.12117132980E+02  0.51100000000E-03 0.  1.
         11    1    3    3    0    0  0.76086057284E+01  0.64898348563E+01  0.69724531227E+01  0.12191141883E+02  0.51100000000E-03 0. -1.
<mgrwt>
<rscale>  0 0.20001171E+02</rscale>
<asrwt>0</asrwt>
<pdfrwt beam="2">  1        2 0.80719958E-03 0.20001171E+02</pdfrwt>
<pdfrwt beam="1">  1       -2 0.29325350E-02 0.20001171E+02</pdfrwt>
<totfact> 0.37578072E+06</totfact>
</mgrwt>
</event>
<event>
 4    1  0.4046313E-006  0.2001459E+02  0.7818608E-02  0.1745038E+00
         -2   -1    0    0    0  501 -0.00000000000E+00  0.00000000000E+00  0.77877113765E+02  0.77877113809E+02  0.26000000000E-02 0.  1.
          2   -1    0    0  501    0  0.00000000000E+00 -0.00000000000E+00 -0.12859472083E+01  0.12859498367E+01  0.26000000000E-02 0. -1.
        -11    1    1    2    0    0  0.78125084319E+01  0.62514251031E+01  0.38984739271E+02  0.40248298102E+02  0.51100000000E-03 0.  1.
         11    1    1    2    0    0 -0.78125084319E+01 -0.62514251031E+01  0.37606427286E+02  0.38914765543E+02  0.51100000000E-03 0. -1.
<mgrwt>
<rscale>  0 0.20014591E+02</rscale>
<asrwt>0</asrwt>
<pdfrwt beam="2">  1        2 0.19783820E-03 0.20014591E+02</pdfrwt>
<pdfrwt beam="1">  1       -2 0.11981097E-01 0.20014591E+02</pdfrwt>
<totfact> 0.31379148E+06</totfact>
</mgrwt>
</event>
<event>
 5    1  0.4046313E-006  0.2000079E+02  0.7818608E-02  0.1745312E+00
          2   -1    0    0  501    0  0.00000000000E+00  0.00000000000E+00  0.23671788931E+01  0.23671803210E+01  0.26000000000E-02 0.  1.
         -2   -1    0    0    0  501 -0.00000000000E+00 -0.00000000000E+00 -0.42247709345E+02  0.42247709425E+02  0.26000000000E-02 0. -1.
       1023    2    1    2    0    0  0.00000000000E+00  0.00000000000E+00 -0.39880530452E+02  0.44614889746E+02  0.20000791933E+02 0.  0.
        -11    1    3    3    0    0 -0.28584903318E+01 -0.95830813707E+01 -0.19853766170E+02  0.22230124762E+02  0.51100000000E-03 0.  1.
         11    1    3    3    0    0  0.28584903318E+01  0.95830813707E+01 -0.20026764282E+02  0.22384764984E+02  0.51100000000E-03 0. -1.
<mgrwt>
<rscale>  0 0.20000792E+02</rscale>
<asrwt>0</asrwt>
<pdfrwt beam="1">  1        2 0.36418152E-03 0.20000792E+02</pdfrwt>
<pdfrwt beam="2">  1       -2 0.64996471E-02 0.20000792E+02</pdfrwt>
<totfact> 0.34678991E+06</totfact>
</mgrwt>
</event>
<event>
 5    1  0.4046313E-006  0.2000248E+02  0.7818608E-02  0.1745279E+00
          2   -1    0    0  501    0  0.00000000000E+00  0.00000000000E+00  0.81087067926E+01  0.81087072094E+01  0.26000000000E-02 0. -1.
         -2   -1    0    0    0  501 -0.00000000000E+00 -0.00000000000E+00 -0.12335483750E+02  0.12335484024E+02  0.26000000000E-02 0.  1.
       1023    2    1    2    0    0  0.00000000000E+00  0.00000000000E+00 -0.42267769575E+01  0.20444191233E+02  0.20002482639E+02 0.  0.
        -11    1    3    3    0    0 -0.80058960645E+01 -0.59933120993E+01 -0.20078317389E+01  0.10200272068E+02  0.51100000000E-03 0.  1.
         11    1    3    3    0    0  0.80058960645E+01  0.59933120993E+01 -0.22189452186E+01  0.10243919165E+02  0.51100000000E-03 0. -1.
<mgrwt>
<rscale>  0 0.20002483E+02</rscale>
<asrwt>0</asrwt>
<pdfrwt beam="1">  1        2 0.12474934E-02 0.20002483E+02</pdfrwt>
<pdfrwt beam="2">  1       -2 0.18977668E-02 0.20002483E+02</pdfrwt>
<totfact> 0.38850602E+06</totfact>
</mgrwt>
</event>
<event>
 5    1  0.4425196E-006  0.2000089E+02  0.7818608E-02  0.1745310E+00
         -2   -1    0    0    0  501 -0.00000000000E+00  0.00000000000E+00  0.97425140148E+00  0.97425487080E+00  0.26000000000E-02 0.  1.
          2   -1    0    0  501    0  0.00000000000E+00 -0.00000000000E+00 -0.10265187586E+03  0.10265187590E+03  0.26000000000E-02 0. -1.
       1023    2    1    2    0    0  0.00000000000E+00  0.00000000000E+00 -0.10167762446E+03  0.10362613077E+03  0.20000891519E+02 0.  0.
        -11    1    3    3    0    0 -0.79040889549E+01 -0.61265233968E+01 -0.50828464670E+02  0.51802912390E+02  0.51100000000E-03 0.  1.
         11    1    3    3    0    0  0.79040889549E+01  0.61265233968E+01 -0.50849159794E+02  0.51823218379E+02  0.51100000000E-03 0. -1.
<mgrwt>
<rscale>  0 0.20000892E+02</rscale>
<asrwt>0</asrwt>
<pdfrwt beam="2">  1        2 0.15792588E-01 0.20000892E+02</pdfrwt>
<pdfrwt beam="1">  1       -2 0.14988518E-03 0.20000892E+02</pdfrwt>
<totfact> 0.53069219E+06</totfact>
</mgrwt>
</event>
<event>
 5    1  0.4046313E-006  0.2000047E+02  0.7818608E-02  0.1745319E+00
          2   -1    0    0  501    0  0.00000000000E+00  0.00000000000E+00  0.19454585014E+01  0.19454602388E+01  0.26000000000E-02 0. -1.
         -2   -1    0    0    0  501 -0.00000000000E+00 -0.00000000000E+00 -0.51404154223E+02  0.51404154288E+02  0.26000000000E-02 0.  1.
       1023    2    1    2    0    0  0.00000000000E+00  0.00000000000E+00 -0.49458695721E+02  0.53349614527E+02  0.20000469688E+02 0.  0.
        -11    1    3    3    0    0  0.99871888391E+01 -0.51016873085E+00 -0.24670686778E+02  0.26620424478E+02  0.51100000000E-03 0. -1.
         11    1    3    3    0    0 -0.99871888391E+01  0.51016873085E+00 -0.24788008943E+02  0.26729190049E+02  0.51100000000E-03 0.  1.
<mgrwt>
<rscale>  0 0.20000470E+02</rscale>
<asrwt>0</asrwt>
<pdfrwt beam="1">  1        2 0.29930149E-03 0.20000470E+02</pdfrwt>
<pdfrwt beam="2">  1       -2 0.79083305E-02 0.20000470E+02</pdfrwt>
<totfact> 0.33760744E+06</totfact>
</mgrwt>
</event>
<event>
 5    1  0.4046313E-006  0.2000053E+02  0.7818608E-02  0.1745317E+00
         -2   -1    0    0    0  501 -0.00000000000E+00  0.00000000000E+00  0.19000378246E+02  0.19000378424E+02  0.26000000000E-02 0. -1.
          2   -1    0    0  501    0  0.00000000000E+00 -0.00000000000E+00 -0.52633333591E+01  0.52633340013E+01  0.26000000000E-02 0.  1.
       1023    2    1    2    0    0  0.00000000000E+00  0.00000000000E+00  0.13737044887E+02  0.24263712425E+02  0.20000533453E+02 0.  0.
        -11    1    3    3    0    0  0.86830047236E+01 -0.49607266843E+01  0.68148950438E+01  0.12101494742E+02  0.51100000000E-03 0.  1.
         11    1    3    3    0    0 -0.86830047236E+01  0.49607266843E+01  0.69221498430E+01  0.12162217683E+02  0.51100000000E-03 0. -1.
<mgrwt>
<rscale>  0 0.20000533E+02</rscale>
<asrwt>0</asrwt>
<pdfrwt beam="2">  1        2 0.80974366E-03 0.20000533E+02</pdfrwt>
<pdfrwt beam="1">  1       -2 0.29231352E-02 0.20000533E+02</pdfrwt>
<totfact> 0.37590540E+06</totfact>
</mgrwt>
</event>
<event>
 5    1  0.4046313E-006  0.2000073E+02  0.7818608E-02  0.1745314E+00
         -2   -1    0    0    0  501 -0.00000000000E+00  0.00000000000E+00  0.14277817512E+02  0.14277817749E+02  0.26000000000E-02 0. -1.
          2   -1    0    0  501    0  0.00000000000E+00 -0.00000000000E+00 -0.70043840812E+01  0.70043845638E+01  0.26000000000E-02 0.  1.
       1023    2    1    2    0    0  0.00000000000E+00  0.00000000000E+00  0.72734334306E+01  0.21282202312E+02  0.20000732521E+02 0.  0.
        -11    1    3    3    0    0 -0.24940202863E+01  0.96840095351E+01  0.37266746168E+01  0.10671845287E+02  0.51100000000E-03 0.  1.
         11    1    3    3    0    0  0.24940202863E+01 -0.96840095351E+01  0.35467588138E+01  0.10610357026E+02  0.51100000000E-03 0. -1.
<mgrwt>
<rscale>  0 0.20000733E+02</rscale>
<asrwt>0</asrwt>
<pdfrwt beam="2">  1        2 0.10775976E-02 0.20000733E+02</pdfrwt>
<pdfrwt beam="1">  1       -2 0.21965874E-02 0.20000733E+02</pdfrwt>
<totfact> 0.38437763E+06</totfact>
</mgrwt>
</event>
<event>
 5    1  0.4046313E-006  0.2000005E+02  0.7818608E-02  0.1745327E+00
         -2   -1    0    0    0  501 -0.00000000000E+00  0.00000000000E+00  0.92712129567E+00  0.92712494136E+00  0.26000000000E-02 0.  1.
          2   -1    0    0  501    0  0.00000000000E+00 -0.00000000000E+00 -0.10786105467E+03  0.10786105470E+03  0.26000000000E-02 0. -1.
       1023    2    1    2    0    0  0.00000000000E+00  0.00000000000E+00 -0.10693393337E+03  0.10878817964E+03  0.20000048077E+02 0.  0.
        -11    1    3    3    0    0 -0.31101793347E+00  0.99951717561E+01 -0.53559582935E+02  0.54485127467E+02  0.51100000000E-03 0.  1.
         11    1    3    3    0    0  0.31101793347E+00 -0.99951717561E+01 -0.53374350439E+02  0.54303052176E+02  0.51100000000E-03 0. -1.
<mgrwt>
<rscale>  0 0.20000048E+02</rscale>
<asrwt>0</asrwt>
<pdfrwt beam="2">  1        2 0.16593999E-01 0.20000048E+02</pdfrwt>
<pdfrwt beam="1">  1       -2 0.14263441E-03 0.20000048E+02</pdfrwt>
<totfact> 0.53689115E+06</totfact>
</mgrwt>
</event>
<event>
 5    1  0.4046313E-006  0.2001031E+02  0.7818608E-02  0.1745123E+00
          2   -1    0    0  501    0  0.00000000000E+00  0.00000000000E+00  0.37752113786E+01  0.37752122739E+01  0.26000000000E-02 0.  1.
         -2   -1    0    0    0  501 -0.00000000000E+00 -0.00000000000E+00 -0.26515907514E+02  0.26515907641E+02  0.26000000000E-02 0. -1.
       1023    2    1    2    0    0  0.00000000000E+00  0.00000000000E+00 -0.22740696135E+02  0.30291119915E+02  0.20010314466E+02 0.  0.
        -11    1    3    3    0    0 -0.69785923453E+01  0.71687792167E+01 -0.11529290226E+02  0.15264883883E+02  0.51100000000E-03 0. -1.
         11    1    3    3    0    0  0.69785923453E+01 -0.71687792167E+01 -0.11211405909E+02  0.15026236032E+02  0.51100000000E-03 0.  1.
<mgrwt>
<rscale>  0 0.20010314E+02</rscale>
<asrwt>0</asrwt>
<pdfrwt beam="1">  1        2 0.58080185E-03 0.20010314E+02</pdfrwt>
<pdfrwt beam="2">  1       -2 0.40793703E-02 0.20010314E+02</pdfrwt>
<totfact> 0.36465771E+06</totfact>
</mgrwt>
</event>
<event>
 5    1  0.4046313E-006  0.2000068E+02  0.7818608E-02  0.1745314E+00
          2   -1    0    0  501    0  0.00000000000E+00  0.00000000000E+00  0.14892566616E+02  0.14892566843E+02  0.26000000000E-02 0. -1.
         -2   -1    0    0    0  501 -0.00000000000E+00 -0.00000000000E+00 -0.67152178318E+01  0.67152183352E+01  0.26000000000E-02 0.  1.
       1023    2    1    2    0    0  0.00000000000E+00  0.00000000000E+00  0.81773487837E+01  0.21607785178E+02  0.20000683667E+02 0.  0.
        -11    1    3    3    0    0  0.99904133351E+01  0.44532749337E+00  0.40749516140E+01  0.10798699278E+02  0.51100000000E-03 0.  1.
         11    1    3    3    0    0 -0.99904133351E+01 -0.44532749337E+00  0.41023971697E+01  0.10809085899E+02  0.51100000000E-03 0. -1.
<mgrwt>
<rscale>  0 0.20000684E+02</rscale>
<asrwt>0</asrwt>
<pdfrwt beam="1">  1        2 0.22911642E-02 0.20000684E+02</pdfrwt>
<pdfrwt beam="2">  1       -2 0.10331105E-02 0.20000684E+02</pdfrwt>
<totfact> 0.40663334E+06</totfact>
</mgrwt>
</event>
<event>
 5    1  0.4046313E-006  0.2000034E+02  0.7818608E-02  0.1745321E+00
          2   -1    0    0  501    0  0.00000000000E+00  0.00000000000E+00  0.13818384174E+02  0.13818384419E+02  0.26000000000E-02 0. -1.
         -2   -1    0    0    0  501 -0.00000000000E+00 -0.00000000000E+00 -0.72369813514E+01  0.72369818185E+01  0.26000000000E-02 0.  1.
       1023    2    1    2    0    0  0.00000000000E+00  0.00000000000E+00  0.65814028226E+01  0.21055366237E+02  0.20000339604E+02 0.  0.
        -11    1    3    3    0    0  0.38267538759E+01 -0.92390038970E+01  0.33039162598E+01  0.10531813763E+02  0.51100000000E-03 0. -1.
         11    1    3    3    0    0 -0.38267538759E+01  0.92390038970E+01  0.32774865627E+01  0.10523552474E+02  0.51100000000E-03 0.  1.
<mgrwt>
<rscale>  0 0.20000340E+02</rscale>
<asrwt>0</asrwt>
<pdfrwt beam="1">  1        2 0.21259053E-02 0.20000340E+02</pdfrwt>
<pdfrwt beam="2">  1       -2 0.11133818E-02 0.20000340E+02</pdfrwt>
<totfact> 0.40428104E+06</totfact>
</mgrwt>
</event>
<event>
 5    1  0.4046313E-006  0.2000027E+02  0.7818608E-02  0.1745323E+00
          2   -1    0    0  501    0  0.00000000000E+00  0.00000000000E+00  0.20191560536E+01  0.20191577276E+01  0.26000000000E-02 0. -1.
         -2   -1    0    0    0  501 -0.00000000000E+00 -0.00000000000E+00 -0.49526979468E+02  0.49526979536E+02  0.26000000000E-02 0.  1.
       1023    2    1    2    0    0  0.00000000000E+00  0.00000000000E+00 -0.47507823414E+02  0.51546137264E+02  0.20000274529E+02 0.  0.
        -11    1    3    3    0    0  0.84196793054E+01 -0.53954143203E+01 -0.23662800185E+02  0.25689095121E+02  0.51100000000E-03 0. -1.
         11    1    3    3    0    0 -0.84196793054E+01  0.53954143203E+01 -0.23845023229E+02  0.25857042142E+02  0.51100000000E-03 0.  1.
<mgrwt>
<rscale>  0 0.20000275E+02</rscale>
<asrwt>0</asrwt>
<pdfrwt beam="1">  1        2 0.31063957E-03 0.20000275E+02</pdfrwt>
<pdfrwt beam="2">  1       -2 0.76195345E-02 0.20000275E+02</pdfrwt>
<totfact> 0.33943900E+06</totfact>
</mgrwt>
</event>
<event>
 5    1  0.4642968E-006  0.2000209E+02  0.7818608E-02  0.1745286E+00
          2   -1    0    0  501    0  0.00000000000E+00  0.00000000000E+00  0.29520632656E+02  0.29520632770E+02  0.26000000000E-02 0.  1.
         -2   -1    0    0    0  501 -0.00000000000E+00 -0.00000000000E+00 -0.33881701265E+01  0.33881711240E+01  0.26000000000E-02 0. -1.
       1023    2    1    2    0    0  0.00000000000E+00  0.00000000000E+00  0.26132462529E+02  0.32908803894E+02  0.20002094288E+02 0.  0.
        -11    1    3    3    0    0 -0.99903953250E+01 -0.45872604932E+00  0.12983715231E+02  0.16388877014E+02  0.51100000000E-03 0. -1.
         11    1    3    3    0    0  0.99903953250E+01  0.45872604932E+00  0.13148747299E+02  0.16519926880E+02  0.51100000000E-03 0.  1.
<mgrwt>
<rscale>  0 0.20002094E+02</rscale>
<asrwt>0</asrwt>
<pdfrwt beam="1">  1        2 0.45416358E-02 0.20002094E+02</pdfrwt>
<pdfrwt beam="2">  1       -2 0.52125704E-03 0.20002094E+02</pdfrwt>
<totfact> 0.43286814E+06</totfact>
</mgrwt>
</event>
<event>
 5    1  0.4046313E-006  0.2000047E+02  0.7818608E-02  0.1745319E+00
          2   -1    0    0  501    0  0.00000000000E+00  0.00000000000E+00  0.12491954873E+02  0.12491955144E+02  0.26000000000E-02 0. -1.
         -2   -1    0    0    0  501 -0.00000000000E+00 -0.00000000000E+00 -0.80055300552E+01  0.80055304774E+01  0.26000000000E-02 0.  1.
       1023    2    1    2    0    0  0.00000000000E+00  0.00000000000E+00  0.44864248179E+01  0.20497485621E+02  0.20000472723E+02 0.  0.
        -11    1    3    3    0    0 -0.52475063878E+01 -0.85128301941E+01  0.22317167310E+01  0.10246226673E+02  0.51100000000E-03 0. -1.
         11    1    3    3    0    0  0.52475063878E+01  0.85128301941E+01  0.22547080869E+01  0.10251258948E+02  0.51100000000E-03 0.  1.
<mgrwt>
<rscale>  0 0.20000473E+02</rscale>
<asrwt>0</asrwt>
<pdfrwt beam="1">  1        2 0.19218393E-02 0.20000473E+02</pdfrwt>
<pdfrwt beam="2">  1       -2 0.12316201E-02 0.20000473E+02</pdfrwt>
<totfact> 0.40117533E+06</totfact>
</mgrwt>
</event>
<event>
 5    1  0.4046313E-006  0.2000151E+02  0.7818608E-02  0.1745298E+00
         -2   -1    0    0    0  501 -0.00000000000E+00  0.00000000000E+00  0.55930813262E+01  0.55930819305E+01  0.26000000000E-02 0. -1.
          2   -1    0    0  501    0  0.00000000000E+00 -0.00000000000E+00 -0.17881936460E+02  0.17881936649E+02  0.26000000000E-02 0.  1.
       1023    2    1    2    0    0  0.00000000000E+00  0.00000000000E+00 -0.12288855133E+02  0.23475018579E+02  0.20001513363E+02 0.  0.
        -11    1    3    3    0    0  0.83284521991E-01  0.10000081586E+02 -0.62395296456E+01  0.11787293943E+02  0.51100000000E-03 0.  1.
         11    1    3    3    0    0 -0.83284521991E-01 -0.10000081586E+02 -0.60493254878E+01  0.11687724636E+02  0.51100000000E-03 0. -1.
<mgrwt>
<rscale>  0 0.20001513E+02</rscale>
<asrwt>0</asrwt>
<pdfrwt beam="2">  1        2 0.27510672E-02 0.20001513E+02</pdfrwt>
<pdfrwt beam="1">  1       -2 0.86047412E-03 0.20001513E+02</pdfrwt>
<totfact> 0.41270076E+06</totfact>
</mgrwt>
</event>
<event>
 5    1  0.4046313E-006  0.2000029E+02  0.7818608E-02  0.1745322E+00
         -2   -1    0    0    0  501 -0.00000000000E+00  0.00000000000E+00  0.35720471685E+01  0.35720481147E+01  0.26000000000E-02 0.  1.
          2   -1    0    0  501    0  0.00000000000E+00 -0.00000000000E+00 -0.27995948134E+02  0.27995948255E+02  0.26000000000E-02 0. -1.
       1023    2    1    2    0    0  0.00000000000E+00  0.00000000000E+00 -0.24423900965E+02  0.31567996369E+02  0.20000286408E+02 0.  0.
        -11    1    3    3    0    0 -0.12203461656E+01  0.99253774707E+01 -0.12176616667E+02  0.15756660700E+02  0.51100000000E-03 0. -1.
         11    1    3    3    0    0  0.12203461656E+01 -0.99253774707E+01 -0.12247284298E+02  0.15811335669E+02  0.51100000000E-03 0.  1.
<mgrwt>
<rscale>  0 0.20000286E+02</rscale>
<asrwt>0</asrwt>
<pdfrwt beam="2">  1        2 0.43070689E-02 0.20000286E+02</pdfrwt>
<pdfrwt beam="1">  1       -2 0.54954582E-03 0.20000286E+02</pdfrwt>
<totfact> 0.43050489E+06</totfact>
</mgrwt>
</event>
<event>
 5    1  0.4046313E-006  0.2000022E+02  0.7818608E-02  0.1745324E+00
          2   -1    0    0  501    0  0.00000000000E+00  0.00000000000E+00  0.47973504133E+01  0.47973511179E+01  0.26000000000E-02 0.  1.
         -2   -1    0    0    0  501 -0.00000000000E+00 -0.00000000000E+00 -0.20845289867E+02  0.20845290029E+02  0.26000000000E-02 0. -1.
       1023    2    1    2    0    0  0.00000000000E+00  0.00000000000E+00 -0.16047939454E+02  0.25642641147E+02  0.20000217106E+02 0.  0.
        -11    1    3    3    0    0 -0.44695978286E+01 -0.89456325204E+01 -0.80533431229E+01  0.12839703332E+02  0.51100000000E-03 0. -1.
         11    1    3    3    0    0  0.44695978286E+01  0.89456325204E+01 -0.79945963310E+01  0.12802937815E+02  0.51100000000E-03 0.  1.
<mgrwt>
<rscale>  0 0.20000217E+02</rscale>
<asrwt>0</asrwt>
<pdfrwt beam="1">  1        2 0.73805399E-03 0.20000217E+02</pdfrwt>
<pdfrwt beam="2">  1       -2 0.32069677E-02 0.20000217E+02</pdfrwt>
<totfact> 0.37302915E+06</totfact>
</mgrwt>
</event>
<event>
 5    1  0.4046313E-006  0.2000078E+02  0.7818608E-02  0.1745313E+00
         -2   -1    0    0    0  501 -0.00000000000E+00  0.00000000000E+00  0.50710407183E+01  0.50710413848E+01  0.26000000000E-02 0.  1.
          2   -1    0    0  501    0  0.00000000000E+00 -0.00000000000E+00 -0.19721345314E+02  0.19721345486E+02  0.26000000000E-02 0. -1.
       1023    2    1    2    0    0  0.00000000000E+00  0.00000000000E+00 -0.14650304596E+02  0.24792386870E+02  0.20000775534E+02 0.  0.
        -11    1    3    3    0    0 -0.36978032867E+01  0.92915447928E+01 -0.72821863472E+01  0.12370804018E+02  0.51100000000E-03 0. -1.
         11    1    3    3    0    0  0.36978032867E+01 -0.92915447928E+01 -0.73681182487E+01  0.12421582853E+02  0.51100000000E-03 0.  1.
<mgrwt>
<rscale>  0 0.20000776E+02</rscale>
<asrwt>0</asrwt>
<pdfrwt beam="2">  1        2 0.30340532E-02 0.20000776E+02</pdfrwt>
<pdfrwt beam="1">  1       -2 0.78016018E-03 0.20000776E+02</pdfrwt>
<totfact> 0.41622836E+06</totfact>
</mgrwt>
</event>
<event>
 5    1  0.4046313E-006  0.2000076E+02  0.7818608E-02  0.1745313E+00
          2   -1    0    0  501    0  0.00000000000E+00  0.00000000000E+00  0.13590827403E+01  0.13590852272E+01  0.26000000000E-02 0.  1.
         -2   -1    0    0    0  501 -0.00000000000E+00 -0.00000000000E+00 -0.73584552092E+02  0.73584552138E+02  0.26000000000E-02 0. -1.
       1023    2    1    2    0    0  0.00000000000E+00  0.00000000000E+00 -0.72225469352E+02  0.74943637365E+02  0.20000758947E+02 0.  0.
        -11    1    3    3    0    0 -0.53498950161E+01 -0.84490361084E+01 -0.36117333912E+02  0.37476251107E+02  0.51100000000E-03 0.  1.
         11    1    3    3    0    0  0.53498950161E+01  0.84490361084E+01 -0.36108135440E+02  0.37467386259E+02  0.51100000000E-03 0. -1.
<mgrwt>
<rscale>  0 0.20000759E+02</rscale>
<asrwt>0</asrwt>
<pdfrwt beam="1">  1        2 0.20908990E-03 0.20000759E+02</pdfrwt>
<pdfrwt beam="2">  1       -2 0.11320697E-01 0.20000759E+02</pdfrwt>
<totfact> 0.31779274E+06</totfact>
</mgrwt>
</event>
<event>
 5    1  0.4112532E-006  0.2000046E+02  0.7818608E-02  0.1745319E+00
          2   -1    0    0  501    0  0.00000000000E+00  0.00000000000E+00  0.92796170632E+02  0.92796170669E+02  0.26000000000E-02 0. -1.
         -2   -1    0    0    0  501 -0.00000000000E+00 -0.00000000000E+00 -0.10776781637E+01  0.10776813001E+01  0.26000000000E-02 0.  1.
       1023    2    1    2    0    0  0.00000000000E+00  0.00000000000E+00  0.91718492469E+02  0.93873851969E+02  0.20000455563E+02 0.  0.
        -11    1    3    3    0    0 -0.42411465831E+01  0.90562315537E+01  0.46063895782E+02  0.47136876744E+02  0.51100000000E-03 0. -1.
         11    1    3    3    0    0  0.42411465831E+01 -0.90562315537E+01  0.45654596687E+02  0.46736975225E+02  0.51100000000E-03 0.  1.
<mgrwt>
<rscale>  0 0.20000456E+02</rscale>
<asrwt>0</asrwt>
<pdfrwt beam="1">  1        2 0.14276337E-01 0.20000456E+02</pdfrwt>
<pdfrwt beam="2">  1       -2 0.16579686E-03 0.20000456E+02</pdfrwt>
<totfact> 0.51884575E+06</totfact>
</mgrwt>
</event>
<event>
 5    1  0.4046313E-006  0.2000210E+02  0.7818608E-02  0.1745286E+00
         -2   -1    0    0    0  501 -0.00000000000E+00  0.00000000000E+00  0.11419219706E+02  0.11419220002E+02  0.26000000000E-02 0. -1.
          2   -1    0    0  501    0  0.00000000000E+00 -0.00000000000E+00 -0.87590073985E+01  0.87590077844E+01  0.26000000000E-02 0.  1.
       1023    2    1    2    0    0  0.00000000000E+00  0.00000000000E+00  0.26602123071E+01  0.20178227786E+02  0.20002103566E+02 0.  0.
        -11    1    3    3    0    0 -0.24527957766E+01  0.96955942864E+01  0.13132009788E+01  0.10086885186E+02  0.51100000000E-03 0. -1.
         11    1    3    3    0    0  0.24527957766E+01 -0.96955942864E+01  0.13470113283E+01  0.10091342600E+02  0.51100000000E-03 0.  1.
<mgrwt>
<rscale>  0 0.20002104E+02</rscale>
<asrwt>0</asrwt>
<pdfrwt beam="2">  1        2 0.13475397E-02 0.20002104E+02</pdfrwt>
<pdfrwt beam="1">  1       -2 0.17568031E-02 0.20002104E+02</pdfrwt>
<totfact> 0.39072978E+06</totfact>
</mgrwt>
</event>
<event>
 5    1  0.4283435E-006  0.2000072E+02  0.7818608E-02  0.1745314E+00
         -2   -1    0    0    0  501 -0.00000000000E+00  0.00000000000E+00  0.99468460412E+00  0.99468800217E+00  0.26000000000E-02 0.  1.
          2   -1    0    0  501    0  0.00000000000E+00 -0.00000000000E+00 -0.10054147442E+03  0.10054147445E+03  0.26000000000E-02 0. -1.
       1023    2    1    2    0    0  0.00000000000E+00  0.00000000000E+00 -0.99546789815E+02  0.10153616245E+03  0.20000723077E+02 0.  0.
        -11    1    3    3    0    0  0.26704819823E+01  0.96371184514E+01 -0.49563798877E+02  0.50562591760E+02  0.51100000000E-03 0.  1.
         11    1    3    3    0    0 -0.26704819823E+01 -0.96371184514E+01 -0.49982990938E+02  0.50973570695E+02  0.51100000000E-03 0. -1.
<mgrwt>
<rscale>  0 0.20000723E+02</rscale>
<asrwt>0</asrwt>
<pdfrwt beam="2">  1        2 0.15467911E-01 0.20000723E+02</pdfrwt>
<pdfrwt beam="1">  1       -2 0.15302874E-03 0.20000723E+02</pdfrwt>
<totfact> 0.52818533E+06</totfact>
</mgrwt>
</event>
<event>
 5    1  0.4046313E-006  0.2000130E+02  0.7818608E-02  0.1745302E+00
         -2   -1    0    0    0  501 -0.00000000000E+00  0.00000000000E+00  0.49906628414E+02  0.49906628482E+02  0.26000000000E-02 0. -1.
          2   -1    0    0  501    0  0.00000000000E+00 -0.00000000000E+00 -0.20040010083E+01  0.20040026949E+01  0.26000000000E-02 0.  1.
       1023    2    1    2    0    0  0.00000000000E+00  0.00000000000E+00  0.47902627406E+02  0.51910631177E+02  0.20001297878E+02 0.  0.
        -11    1    3    3    0    0 -0.34659150163E+01 -0.93803050121E+01  0.23688042063E+02  0.25712371070E+02  0.51100000000E-03 0. -1.
         11    1    3    3    0    0  0.34659150163E+01  0.93803050121E+01  0.24214585343E+02  0.26198260107E+02  0.51100000000E-03 0.  1.
<mgrwt>
<rscale>  0 0.20001298E+02</rscale>
<asrwt>0</asrwt>
<pdfrwt beam="2">  1        2 0.30830798E-03 0.20001298E+02</pdfrwt>
<pdfrwt beam="1">  1       -2 0.76779431E-02 0.20001298E+02</pdfrwt>
<totfact> 0.33902980E+06</totfact>
</mgrwt>
</event>
<event>
 5    1  0.4046313E-006  0.2000048E+02  0.7818608E-02  0.1745318E+00
          2   -1    0    0  501    0  0.00000000000E+00  0.00000000000E+00  0.30767906052E+02  0.30767906162E+02  0.26000000000E-02 0.  1.
         -2   -1    0    0    0  501 -0.00000000000E+00 -0.00000000000E+00 -0.32502960081E+01  0.32502970480E+01  0.26000000000E-02 0. -1.
       1023    2    1    2    0    0  0.00000000000E+00  0.00000000000E+00  0.27517610044E+02  0.34018203210E+02  0.20000482172E+02 0.  0.
        -11    1    3    3    0    0  0.99879998261E+01 -0.48992464184E+00  0.13874849117E+02  0.17102970647E+02  0.51100000000E-03 0. -1.
         11    1    3    3    0    0 -0.99879998261E+01  0.48992464184E+00  0.13642760927E+02  0.16915232563E+02  0.51100000000E-03 0.  1.
<mgrwt>
<rscale>  0 0.20000482E+02</rscale>
<asrwt>0</asrwt>
<pdfrwt beam="1">  1        2 0.47335242E-02 0.20000482E+02</pdfrwt>
<pdfrwt beam="2">  1       -2 0.50004561E-03 0.20000482E+02</pdfrwt>
<totfact> 0.43492279E+06</totfact>
</mgrwt>
</event>
<event>
 5    1  0.4212470E-006  0.2000116E+02  0.7818608E-02  0.1745305E+00
          2   -1    0    0  501    0  0.00000000000E+00  0.00000000000E+00  0.51952966294E+02  0.51952966359E+02  0.26000000000E-02 0.  1.
         -2   -1    0    0    0  501 -0.00000000000E+00 -0.00000000000E+00 -0.19250396517E+01  0.19250414075E+01  0.26000000000E-02 0. -1.
       1023    2    1    2    0    0  0.00000000000E+00  0.00000000000E+00  0.50027926642E+02  0.53878007767E+02  0.20001156886E+02 0.  0.
        -11    1    3    3    0    0  0.76684317774E+01  0.64188591477E+01  0.25203872260E+02  0.27115342075E+02  0.51100000000E-03 0. -1.
         11    1    3    3    0    0 -0.76684317774E+01 -0.64188591477E+01  0.24824054382E+02  0.26762665692E+02  0.51100000000E-03 0.  1.
<mgrwt>
<rscale>  0 0.20001157E+02</rscale>
<asrwt>0</asrwt>
<pdfrwt beam="1">  1        2 0.79927653E-02 0.20001157E+02</pdfrwt>
<pdfrwt beam="2">  1       -2 0.29616005E-03 0.20001157E+02</pdfrwt>
<totfact> 0.46593868E+06</totfact>
</mgrwt>
</event>
<event>
 5    1  0.4046313E-006  0.2000547E+02  0.7818608E-02  0.1745219E+00
          2   -1    0    0  501    0  0.00000000000E+00  0.00000000000E+00  0.27275460447E+01  0.27275472839E+01  0.26000000000E-02 0.  1.
         -2   -1    0    0    0  501 -0.00000000000E+00 -0.00000000000E+00 -0.36683055764E+02  0.36683055856E+02  0.26000000000E-02 0. -1.
       1023    2    1    2    0    0  0.00000000000E+00  0.00000000000E+00 -0.33955509719E+02  0.39410603140E+02  0.20005474240E+02 0.  0.
        -11    1    3    3    0    0  0.99148243293E+01  0.13215642189E+01 -0.17109555408E+02  0.19818858695E+02  0.51100000000E-03 0. -1.
         11    1    3    3    0    0 -0.99148243293E+01 -0.13215642189E+01 -0.16845954311E+02  0.19591744445E+02  0.51100000000E-03 0.  1.
<mgrwt>
<rscale>  0 0.20005474E+02</rscale>
<asrwt>0</asrwt>
<pdfrwt beam="1">  1        2 0.41962260E-03 0.20005474E+02</pdfrwt>
<pdfrwt beam="2">  1       -2 0.56435468E-02 0.20005474E+02</pdfrwt>
<totfact> 0.35262097E+06</totfact>
</mgrwt>
</event>
<event>
 4    1  0.4120805E-006  0.2012588E+02  0.7818608E-02  0.1742836E+00
         -2   -1    0    0    0  501 -0.00000000000E+00  0.00000000000E+00  0.15719814444E+02  0.15719814659E+02  0.26000000000E-02 0. -1.
          2   -1    0    0  501    0  0.00000000000E+00 -0.00000000000E+00 -0.64417240937E+01  0.64417246184E+01  0.26000000000E-02 0.  1.
        -11    1    1    2    0    0 -0.63104217655E+00 -0.99954193607E+01  0.35623439643E+01  0.10630000809E+02  0.51100000000E-03 0.  1.
         11    1    1    2    0    0  0.63104217655E+00  0.99954193607E+01  0.57157463857E+01  0.11531538468E+02  0.51100000000E-03 0. -1.
<mgrwt>
<rscale>  0 0.20125875E+02</rscale>
<asrwt>0</asrwt>
<pdfrwt beam="2">  1        2 0.99103453E-03 0.20125875E+02</pdfrwt>
<pdfrwt beam="1">  1       -2 0.24184331E-02 0.20125875E+02</pdfrwt>
<totfact> 0.37646584E+06</totfact>
</mgrwt>
</event>
<event>
 5    1  0.4046313E-006  0.2000524E+02  0.7818608E-02  0.1745224E+00
         -2   -1    0    0    0  501 -0.00000000000E+00  0.00000000000E+00  0.26507744700E+02  0.26507744827E+02  0.26000000000E-02 0.  1.
          2   -1    0    0  501    0  0.00000000000E+00 -0.00000000000E+00 -0.37744584525E+01  0.37744593480E+01  0.26000000000E-02 0. -1.
       1023    2    1    2    0    0  0.00000000000E+00  0.00000000000E+00  0.22733286247E+02  0.30282204175E+02  0.20005238967E+02 0.  0.
        -11    1    3    3    0    0 -0.64140486393E+01  0.76738632146E+01  0.11131166070E+02  0.14964326076E+02  0.51100000000E-03 0.  1.
         11    1    3    3    0    0  0.64140486393E+01 -0.76738632146E+01  0.11602120178E+02  0.15317878099E+02  0.51100000000E-03 0. -1.
<mgrwt>
<rscale>  0 0.20005239E+02</rscale>
<asrwt>0</asrwt>
<pdfrwt beam="2">  1        2 0.58068599E-03 0.20005239E+02</pdfrwt>
<pdfrwt beam="1">  1       -2 0.40781147E-02 0.20005239E+02</pdfrwt>
<totfact> 0.36486989E+06</totfact>
</mgrwt>
</event>
<event>
 5    1  0.4046313E-006  0.2000007E+02  0.7818608E-02  0.1745327E+00
          2   -1    0    0  501    0  0.00000000000E+00  0.00000000000E+00  0.70637728458E+01  0.70637733243E+01  0.26000000000E-02 0. -1.
         -2   -1    0    0    0  501 -0.00000000000E+00 -0.00000000000E+00 -0.14156842588E+02  0.14156842827E+02  0.26000000000E-02 0.  1.
       1023    2    1    2    0    0  0.00000000000E+00  0.00000000000E+00 -0.70930697424E+01  0.21220616151E+02  0.20000072787E+02 0.  0.
        -11    1    3    3    0    0 -0.31746611554E+01 -0.94827195990E+01 -0.35643892456E+01  0.10616275967E+02  0.51100000000E-03 0.  1.
         11    1    3    3    0    0  0.31746611554E+01  0.94827195990E+01 -0.35286804968E+01  0.10604340185E+02  0.51100000000E-03 0. -1.
<mgrwt>
<rscale>  0 0.20000073E+02</rscale>
<asrwt>0</asrwt>
<pdfrwt beam="1">  1        2 0.10867343E-02 0.20000073E+02</pdfrwt>
<pdfrwt beam="2">  1       -2 0.21779758E-02 0.20000073E+02</pdfrwt>
<totfact> 0.38465096E+06</totfact>
</mgrwt>
</event>
<event>
 4    1  0.4046313E-006  0.2001473E+02  0.7818608E-02  0.1745035E+00
         -2   -1    0    0    0  501 -0.00000000000E+00  0.00000000000E+00  0.89233850828E+00  0.89234229608E+00  0.26000000000E-02 0. -1.
          2   -1    0    0  501    0  0.00000000000E+00 -0.00000000000E+00 -0.11223000403E+03  0.11223000406E+03  0.26000000000E-02 0.  1.
        -11    1    1    2    0    0  0.73760780182E+01  0.67620679199E+01 -0.54970168461E+02  0.55873531394E+02  0.51100000000E-03 0.  1.
         11    1    1    2    0    0 -0.73760780182E+01 -0.67620679199E+01 -0.56367497059E+02  0.57248814961E+02  0.51100000000E-03 0. -1.
<mgrwt>
<rscale>  0 0.20014732E+02</rscale>
<asrwt>0</asrwt>
<pdfrwt beam="2">  1        2 0.17266144E-01 0.20014732E+02</pdfrwt>
<pdfrwt beam="1">  1       -2 0.13728323E-03 0.20014732E+02</pdfrwt>
<totfact> 0.54111153E+06</totfact>
</mgrwt>
</event>
<event>
 4    1  0.4046313E-006  0.2002047E+02  0.7818608E-02  0.1744921E+00
         -2   -1    0    0    0  501 -0.00000000000E+00  0.00000000000E+00  0.41808350358E+01  0.41808358443E+01  0.26000000000E-02 0.  1.
          2   -1    0    0  501    0  0.00000000000E+00 -0.00000000000E+00 -0.23967653820E+02  0.23967653961E+02  0.26000000000E-02 0. -1.
        -11    1    1    2    0    0 -0.97446093698E+01 -0.22723394076E+01 -0.94862030038E+01  0.13788001517E+02  0.51100000000E-03 0.  1.
         11    1    1    2    0    0  0.97446093698E+01  0.22723394076E+01 -0.10300615781E+02  0.14360488288E+02  0.51100000000E-03 0. -1.
<mgrwt>
<rscale>  0 0.20020472E+02</rscale>
<asrwt>0</asrwt>
<pdfrwt beam="2">  1        2 0.36873313E-02 0.20020472E+02</pdfrwt>
<pdfrwt beam="1">  1       -2 0.64320548E-03 0.20020472E+02</pdfrwt>
<totfact> 0.42283886E+06</totfact>
</mgrwt>
</event>
<event>
 5    1  0.4046313E-006  0.2000163E+02  0.7818608E-02  0.1745296E+00
         -2   -1    0    0    0  501 -0.00000000000E+00  0.00000000000E+00  0.76043956626E+02  0.76043956670E+02  0.26000000000E-02 0.  1.
          2   -1    0    0  501    0  0.00000000000E+00 -0.00000000000E+00 -0.13152423490E+01  0.13152449189E+01  0.26000000000E-02 0. -1.
       1023    2    1    2    0    0  0.00000000000E+00  0.00000000000E+00  0.74728714276E+02  0.77359201589E+02  0.20001633260E+02 0.  0.
        -11    1    3    3    0    0 -0.10588117474E+00 -0.10000177006E+02  0.37518191154E+02  0.38828203908E+02  0.51100000000E-03 0. -1.
         11    1    3    3    0    0  0.10588117474E+00  0.10000177006E+02  0.37210523122E+02  0.38530997681E+02  0.51100000000E-03 0.  1.
<mgrwt>
<rscale>  0 0.20001633E+02</rscale>
<asrwt>0</asrwt>
<pdfrwt beam="2">  1        2 0.20234522E-03 0.20001633E+02</pdfrwt>
<pdfrwt beam="1">  1       -2 0.11699068E-01 0.20001633E+02</pdfrwt>
<totfact> 0.31573111E+06</totfact>
</mgrwt>
</event>
<event>
 5    1  0.4046313E-006  0.2000064E+02  0.7818608E-02  0.1745315E+00
          2   -1    0    0  501    0  0.00000000000E+00  0.00000000000E+00  0.15859321370E+02  0.15859321583E+02  0.26000000000E-02 0.  1.
         -2   -1    0    0    0  501 -0.00000000000E+00 -0.00000000000E+00 -0.63058411577E+01  0.63058416937E+01  0.26000000000E-02 0. -1.
       1023    2    1    2    0    0  0.00000000000E+00  0.00000000000E+00  0.95534802122E+01  0.22165163277E+02  0.20000636963E+02 0.  0.
        -11    1    3    3    0    0 -0.75799244167E+01 -0.65228960079E+01  0.47166199029E+01  0.11056669031E+02  0.51100000000E-03 0.  1.
         11    1    3    3    0    0  0.75799244167E+01  0.65228960079E+01  0.48368603094E+01  0.11108494246E+02  0.51100000000E-03 0. -1.
<mgrwt>
<rscale>  0 0.20000637E+02</rscale>
<asrwt>0</asrwt>
<pdfrwt beam="1">  1        2 0.24398956E-02 0.20000637E+02</pdfrwt>
<pdfrwt beam="2">  1       -2 0.97012947E-03 0.20000637E+02</pdfrwt>
<totfact> 0.40867962E+06</totfact>
</mgrwt>
</event>
<event>
 5    1  0.4046313E-006  0.2000045E+02  0.7818608E-02  0.1745319E+00
         -2   -1    0    0    0  501 -0.00000000000E+00  0.00000000000E+00  0.33820649726E+01  0.33820659720E+01  0.26000000000E-02 0. -1.
          2   -1    0    0  501    0  0.00000000000E+00 -0.00000000000E+00 -0.29569053364E+02  0.29569053479E+02  0.26000000000E-02 0.  1.
       1023    2    1    2    0    0  0.00000000000E+00  0.00000000000E+00 -0.26186988392E+02  0.32951119451E+02  0.20000447795E+02 0.  0.
        -11    1    3    3    0    0  0.99869636677E+01 -0.51103064054E+00 -0.12990842668E+02  0.16393980270E+02  0.51100000000E-03 0.  1.
         11    1    3    3    0    0 -0.99869636677E+01  0.51103064054E+00 -0.13196145723E+02  0.16557139180E+02  0.51100000000E-03 0. -1.
<mgrwt>
<rscale>  0 0.20000448E+02</rscale>
<asrwt>0</asrwt>
<pdfrwt beam="2">  1        2 0.45490850E-02 0.20000448E+02</pdfrwt>
<pdfrwt beam="1">  1       -2 0.52031779E-03 0.20000448E+02</pdfrwt>
<totfact> 0.43302522E+06</totfact>
</mgrwt>
</event>
<event>
 5    1  0.4046313E-006  0.2000084E+02  0.7818608E-02  0.1745311E+00
          2   -1    0    0  501    0  0.00000000000E+00  0.00000000000E+00  0.98374490274E+01  0.98374493709E+01  0.26000000000E-02 0. -1.
         -2   -1    0    0    0  501 -0.00000000000E+00 -0.00000000000E+00 -0.10166091715E+02  0.10166092047E+02  0.26000000000E-02 0.  1.
       1023    2    1    2    0    0  0.00000000000E+00  0.00000000000E+00 -0.32864268765E+00  0.20003541418E+02  0.20000841564E+02 0.  0.
        -11    1    3    3    0    0 -0.47279389859E+01  0.88120468583E+01 -0.11103501394E+00  0.10000895256E+02  0.51100000000E-03 0. -1.
         11    1    3    3    0    0  0.47279389859E+01 -0.88120468583E+01 -0.21760767371E+00  0.10002646162E+02  0.51100000000E-03 0.  1.
<mgrwt>
<rscale>  0 0.20000842E+02</rscale>
<asrwt>0</asrwt>
<pdfrwt beam="1">  1        2 0.15134537E-02 0.20000842E+02</pdfrwt>
<pdfrwt beam="2">  1       -2 0.15640142E-02 0.20000842E+02</pdfrwt>
<totfact> 0.39412027E+06</totfact>
</mgrwt>
</event>
<event>
 5    1  0.4046313E-006  0.2000026E+02  0.7818608E-02  0.1745323E+00
          2   -1    0    0  501    0  0.00000000000E+00  0.00000000000E+00  0.49622326317E+01  0.49622333128E+01  0.26000000000E-02 0.  1.
         -2   -1    0    0    0  501 -0.00000000000E+00 -0.00000000000E+00 -0.20152748736E+02  0.20152748904E+02  0.26000000000E-02 0. -1.
       1023    2    1    2    0    0  0.00000000000E+00  0.00000000000E+00 -0.15190516104E+02  0.25114982216E+02  0.20000263804E+02 0.  0.
        -11    1    3    3    0    0 -0.74851457775E+01  0.66313621367E+01 -0.75747509274E+01  0.12545087603E+02  0.51100000000E-03 0.  1.
         11    1    3    3    0    0  0.74851457775E+01 -0.66313621367E+01 -0.76157651768E+01  0.12569894613E+02  0.51100000000E-03 0. -1.
<mgrwt>
<rscale>  0 0.20000264E+02</rscale>
<asrwt>0</asrwt>
<pdfrwt beam="1">  1        2 0.76342048E-03 0.20000264E+02</pdfrwt>
<pdfrwt beam="2">  1       -2 0.31004229E-02 0.20000264E+02</pdfrwt>
<totfact> 0.37409052E+06</totfact>
</mgrwt>
</event>
<event>
 5    1  0.4046313E-006  0.2000067E+02  0.7818608E-02  0.1745315E+00
         -2   -1    0    0    0  501 -0.00000000000E+00  0.00000000000E+00  0.13112048459E+01  0.13112074237E+01  0.26000000000E-02 0.  1.
          2   -1    0    0  501    0  0.00000000000E+00 -0.00000000000E+00 -0.76270736698E+02  0.76270736743E+02  0.26000000000E-02 0. -1.
       1023    2    1    2    0    0  0.00000000000E+00  0.00000000000E+00 -0.74959531852E+02  0.77581944166E+02  0.20000666116E+02 0.  0.
        -11    1    3    3    0    0  0.48596664365E+01  0.87401352603E+01 -0.37408370568E+02  0.38721990019E+02  0.51100000000E-03 0.  1.
         11    1    3    3    0    0 -0.48596664365E+01 -0.87401352603E+01 -0.37551161284E+02  0.38859954147E+02  0.51100000000E-03 0. -1.
<mgrwt>
<rscale>  0 0.20000666E+02</rscale>
<asrwt>0</asrwt>
<pdfrwt beam="2">  1        2 0.11733956E-01 0.20000666E+02</pdfrwt>
<pdfrwt beam="1">  1       -2 0.20172408E-03 0.20000666E+02</pdfrwt>
<totfact> 0.49823174E+06</totfact>
</mgrwt>
</event>
<event>
 5    1  0.4261785E-006  0.2000168E+02  0.7818608E-02  0.1745295E+00
          2   -1    0    0  501    0  0.00000000000E+00  0.00000000000E+00  0.98490683293E+02  0.98490683327E+02  0.26000000000E-02 0.  1.
         -2   -1    0    0    0  501 -0.00000000000E+00 -0.00000000000E+00 -0.10154929188E+01  0.10154962473E+01  0.26000000000E-02 0. -1.
       1023    2    1    2    0    0  0.00000000000E+00  0.00000000000E+00  0.97475190374E+02  0.99506179575E+02  0.20001675806E+02 0.  0.
        -11    1    3    3    0    0 -0.93925342512E+01  0.34337519851E+01  0.48339412722E+02  0.49363034499E+02  0.51100000000E-03 0.  1.
         11    1    3    3    0    0  0.93925342512E+01 -0.34337519851E+01  0.49135777652E+02  0.50143145076E+02  0.51100000000E-03 0. -1.
<mgrwt>
<rscale>  0 0.20001676E+02</rscale>
<asrwt>0</asrwt>
<pdfrwt beam="1">  1        2 0.15152415E-01 0.20001676E+02</pdfrwt>
<pdfrwt beam="2">  1       -2 0.15622992E-03 0.20001676E+02</pdfrwt>
<totfact> 0.52567143E+06</totfact>
</mgrwt>
</event>
<event>
 5    1  0.4046313E-006  0.2000173E+02  0.7818608E-02  0.1745294E+00
         -2   -1    0    0    0  501 -0.00000000000E+00  0.00000000000E+00  0.26096722883E+01  0.26096735835E+01  0.26000000000E-02 0.  1.
          2   -1    0    0  501    0  0.00000000000E+00 -0.00000000000E+00 -0.38325600446E+02  0.38325600534E+02  0.26000000000E-02 0. -1.
       1023    2    1    2    0    0  0.00000000000E+00  0.00000000000E+00 -0.35715928157E+02  0.40935274117E+02  0.20001728498E+02 0.  0.
        -11    1    3    3    0    0  0.88833272419E+01  0.45920206747E+01 -0.17590113589E+02  0.20233938151E+02  0.51100000000E-03 0. -1.
         11    1    3    3    0    0 -0.88833272419E+01 -0.45920206747E+01 -0.18125814568E+02  0.20701335966E+02  0.51100000000E-03 0.  1.
<mgrwt>
<rscale>  0 0.20001728E+02</rscale>
<asrwt>0</asrwt>
<pdfrwt beam="2">  1        2 0.58962459E-02 0.20001728E+02</pdfrwt>
<pdfrwt beam="1">  1       -2 0.40148818E-03 0.20001728E+02</pdfrwt>
<totfact> 0.44640203E+06</totfact>
</mgrwt>
</event>
<event>
 5    1  0.4046313E-006  0.2000090E+02  0.7818608E-02  0.1745310E+00
          2   -1    0    0  501    0  0.00000000000E+00  0.00000000000E+00  0.22649982020E+02  0.22649982170E+02  0.26000000000E-02 0.  1.
         -2   -1    0    0    0  501 -0.00000000000E+00 -0.00000000000E+00 -0.44154131321E+01  0.44154138976E+01  0.26000000000E-02 0. -1.
       1023    2    1    2    0    0  0.00000000000E+00  0.00000000000E+00  0.18234568888E+02  0.27065396067E+02  0.20000904023E+02 0.  0.
        -11    1    3    3    0    0 -0.68131420479E+01 -0.73205051235E+01  0.91422490414E+01  0.13549517247E+02  0.51100000000E-03 0.  1.
         11    1    3    3    0    0  0.68131420479E+01  0.73205051235E+01  0.90923198469E+01  0.13515878820E+02  0.51100000000E-03 0. -1.
<mgrwt>
<rscale>  0 0.20000904E+02</rscale>
<asrwt>0</asrwt>
<pdfrwt beam="1">  1        2 0.34846127E-02 0.20000904E+02</pdfrwt>
<pdfrwt beam="2">  1       -2 0.67929439E-03 0.20000904E+02</pdfrwt>
<totfact> 0.42148982E+06</totfact>
</mgrwt>
</event>
<event>
 5    1  0.4046313E-006  0.2000053E+02  0.7818608E-02  0.1745317E+00
         -2   -1    0    0    0  501 -0.00000000000E+00  0.00000000000E+00  0.59665598065E+02  0.59665598122E+02  0.26000000000E-02 0. -1.
          2   -1    0    0  501    0  0.00000000000E+00 -0.00000000000E+00 -0.16760961409E+01  0.16760981575E+01  0.26000000000E-02 0.  1.
       1023    2    1    2    0    0  0.00000000000E+00  0.00000000000E+00  0.57989501924E+02  0.61341696279E+02  0.20000534218E+02 0.  0.
        -11    1    3    3    0    0  0.97953709420E-01  0.99997815680E+01  0.28961768255E+02  0.30639667868E+02  0.51100000000E-03 0. -1.
         11    1    3    3    0    0 -0.97953709420E-01 -0.99997815680E+01  0.29027733669E+02  0.30702028411E+02  0.51100000000E-03 0.  1.
<mgrwt>
<rscale>  0 0.20000534E+02</rscale>
<asrwt>0</asrwt>
<pdfrwt beam="2">  1        2 0.25786113E-03 0.20000534E+02</pdfrwt>
<pdfrwt beam="1">  1       -2 0.91793219E-02 0.20000534E+02</pdfrwt>
<totfact> 0.32988387E+06</totfact>
</mgrwt>
</event>
<event>
 5    1  0.4046313E-006  0.2000041E+02  0.7818608E-02  0.1745320E+00
         -2   -1    0    0    0  501 -0.00000000000E+00  0.00000000000E+00  0.29372622607E+02  0.29372622722E+02  0.26000000000E-02 0. -1.
          2   -1    0    0  501    0  0.00000000000E+00 -0.00000000000E+00 -0.34046686520E+01  0.34046696447E+01  0.26000000000E-02 0.  1.
       1023    2    1    2    0    0  0.00000000000E+00  0.00000000000E+00  0.25967953955E+02  0.32777292367E+02  0.20000406553E+02 0.  0.
        -11    1    3    3    0    0 -0.35598686506E+01  0.93450067761E+01  0.12906260166E+02  0.16327074698E+02  0.51100000000E-03 0.  1.
         11    1    3    3    0    0  0.35598686506E+01 -0.93450067761E+01  0.13061693789E+02  0.16450217669E+02  0.51100000000E-03 0. -1.
<mgrwt>
<rscale>  0 0.20000407E+02</rscale>
<asrwt>0</asrwt>
<pdfrwt beam="2">  1        2 0.52379528E-03 0.20000407E+02</pdfrwt>
<pdfrwt beam="1">  1       -2 0.45188649E-02 0.20000407E+02</pdfrwt>
<totfact> 0.36140341E+06</totfact>
</mgrwt>
</event>
<event>
 5    1  0.4046313E-006  0.2000318E+02  0.7818608E-02  0.1745265E+00
         -2   -1    0    0    0  501 -0.00000000000E+00  0.00000000000E+00  0.81987814069E+01  0.81987818191E+01  0.26000000000E-02 0.  1.
          2   -1    0    0  501    0  0.00000000000E+00 -0.00000000000E+00 -0.12200814596E+02  0.12200814873E+02  0.26000000000E-02 0. -1.
       1023    2    1    2    0    0  0.00000000000E+00  0.00000000000E+00 -0.40020331894E+01  0.20399596692E+02  0.20003181636E+02 0.  0.
        -11    1    3    3    0    0 -0.97212023831E+01  0.23450427602E+01 -0.21800441460E+01  0.10234920325E+02  0.51100000000E-03 0.  1.
         11    1    3    3    0    0  0.97212023831E+01 -0.23450427602E+01 -0.18219890434E+01  0.10164676367E+02  0.51100000000E-03 0. -1.
<mgrwt>
<rscale>  0 0.20003182E+02</rscale>
<asrwt>0</asrwt>
<pdfrwt beam="2">  1        2 0.18770485E-02 0.20003182E+02</pdfrwt>
<pdfrwt beam="1">  1       -2 0.12613510E-02 0.20003182E+02</pdfrwt>
<totfact> 0.40034051E+06</totfact>
</mgrwt>
</event>
<event>
 4    1  0.4046313E-006  0.2006873E+02  0.7818608E-02  0.1743965E+00
          2   -1    0    0  501    0  0.00000000000E+00  0.00000000000E+00  0.57947321296E+01  0.57947327128E+01  0.26000000000E-02 0. -1.
         -2   -1    0    0    0  501 -0.00000000000E+00 -0.00000000000E+00 -0.17375860848E+02  0.17375861042E+02  0.26000000000E-02 0.  1.
        -11    1    1    2    0    0 -0.70053586957E+01  0.71623740011E+01 -0.64373418671E+01  0.11908569283E+02  0.51100000000E-03 0. -1.
         11    1    1    2    0    0  0.70053586957E+01 -0.71623740011E+01 -0.51437868512E+01  0.11262024473E+02  0.51100000000E-03 0.  1.
<mgrwt>
<rscale>  0 0.20068729E+02</rscale>
<asrwt>0</asrwt>
<pdfrwt beam="1">  1        2 0.89149732E-03 0.20068729E+02</pdfrwt>
<pdfrwt beam="2">  1       -2 0.26732094E-02 0.20068729E+02</pdfrwt>
<totfact> 0.37583530E+06</totfact>
</mgrwt>
</event>
<event>
 5    1  0.4046313E-006  0.2000069E+02  0.7818608E-02  0.1745314E+00
         -2   -1    0    0    0  501 -0.00000000000E+00  0.00000000000E+00  0.13704770837E+01  0.13704795500E+01  0.26000000000E-02 0. -1.
          2   -1    0    0  501    0  0.00000000000E+00 -0.00000000000E+00 -0.72972290560E+02  0.72972290606E+02  0.26000000000E-02 0.  1.
       1023    2    1    2    0    0  0.00000000000E+00  0.00000000000E+00 -0.71601813476E+02  0.74342770156E+02  0.20000694523E+02 0.  0.
        -11    1    3    3    0    0 -0.40294159686E+01 -0.91525012376E+01 -0.35616057370E+02  0.36993350953E+02  0.51100000000E-03 0. -1.
         11    1    3    3    0    0  0.40294159686E+01  0.91525012376E+01 -0.35985756107E+02  0.37349419203E+02  0.51100000000E-03 0.  1.
<mgrwt>
<rscale>  0 0.20000695E+02</rscale>
<asrwt>0</asrwt>
<pdfrwt beam="2">  1        2 0.11226503E-01 0.20000695E+02</pdfrwt>
<pdfrwt beam="1">  1       -2 0.21084288E-03 0.20000695E+02</pdfrwt>
<totfact> 0.49400555E+06</totfact>
</mgrwt>
</event>
<event>
 5    1  0.4046313E-006  0.2000200E+02  0.7818608E-02  0.1745288E+00
          2   -1    0    0  501    0  0.00000000000E+00  0.00000000000E+00  0.17956614353E+01  0.17956633176E+01  0.26000000000E-02 0.  1.
         -2   -1    0    0    0  501 -0.00000000000E+00 -0.00000000000E+00 -0.55700895835E+02  0.55700895896E+02  0.26000000000E-02 0. -1.
       1023    2    1    2    0    0  0.00000000000E+00  0.00000000000E+00 -0.53905234400E+02  0.57496559214E+02  0.20002000542E+02 0.  0.
        -11    1    3    3    0    0  0.50392933102E+01  0.86377424327E+01 -0.26601325778E+02  0.28418930395E+02  0.51100000000E-03 0. -1.
         11    1    3    3    0    0 -0.50392933102E+01 -0.86377424327E+01 -0.27303908622E+02  0.29077628819E+02  0.51100000000E-03 0.  1.
<mgrwt>
<rscale>  0 0.20002001E+02</rscale>
<asrwt>0</asrwt>
<pdfrwt beam="1">  1        2 0.27625580E-03 0.20002001E+02</pdfrwt>
<pdfrwt beam="2">  1       -2 0.85693674E-02 0.20002001E+02</pdfrwt>
<totfact> 0.33347808E+06</totfact>
</mgrwt>
</event>
<event>
 5    1  0.4046313E-006  0.2000054E+02  0.7818608E-02  0.1745317E+00
          2   -1    0    0  501    0  0.00000000000E+00  0.00000000000E+00  0.39385300995E+02  0.39385301081E+02  0.26000000000E-02 0.  1.
         -2   -1    0    0    0  501 -0.00000000000E+00 -0.00000000000E+00 -0.25391540241E+01  0.25391553553E+01  0.26000000000E-02 0. -1.
       1023    2    1    2    0    0  0.00000000000E+00  0.00000000000E+00  0.36846146971E+02  0.41924456436E+02  0.20000537514E+02 0.  0.
        -11    1    3    3    0    0 -0.66126749956E+01  0.75018543489E+01  0.18403670067E+02  0.20945175136E+02  0.51100000000E-03 0. -1.
         11    1    3    3    0    0  0.66126749956E+01 -0.75018543489E+01  0.18442476904E+02  0.20979281301E+02  0.51100000000E-03 0.  1.
<mgrwt>
<rscale>  0 0.20000538E+02</rscale>
<asrwt>0</asrwt>
<pdfrwt beam="1">  1        2 0.60592769E-02 0.20000538E+02</pdfrwt>
<pdfrwt beam="2">  1       -2 0.39063921E-03 0.20000538E+02</pdfrwt>
<totfact> 0.44803064E+06</totfact>
</mgrwt>
</event>
<event>
 5    1  0.4046313E-006  0.2000077E+02  0.7818608E-02  0.1745313E+00
         -2   -1    0    0    0  501 -0.00000000000E+00  0.00000000000E+00  0.24843003117E+01  0.24843016722E+01  0.26000000000E-02 0. -1.
          2   -1    0    0  501    0  0.00000000000E+00 -0.00000000000E+00 -0.40255888035E+02  0.40255888119E+02  0.26000000000E-02 0.  1.
       1023    2    1    2    0    0  0.00000000000E+00  0.00000000000E+00 -0.37771587723E+02  0.42740189791E+02  0.20000774591E+02 0.  0.
        -11    1    3    3    0    0 -0.90281696719E+01  0.43008256210E+01 -0.18772775846E+02  0.21270215369E+02  0.51100000000E-03 0. -1.
         11    1    3    3    0    0  0.90281696719E+01 -0.43008256210E+01 -0.18998811878E+02  0.21469974422E+02  0.51100000000E-03 0.  1.
<mgrwt>
<rscale>  0 0.20000775E+02</rscale>
<asrwt>0</asrwt>
<pdfrwt beam="2">  1        2 0.61932132E-02 0.20000775E+02</pdfrwt>
<pdfrwt beam="1">  1       -2 0.38220019E-03 0.20000775E+02</pdfrwt>
<totfact> 0.44930030E+06</totfact>
</mgrwt>
</event>
<event>
 5    1  0.4046313E-006  0.2000099E+02  0.7818608E-02  0.1745308E+00
          2   -1    0    0  501    0  0.00000000000E+00  0.00000000000E+00  0.30685097259E+01  0.30685108274E+01  0.26000000000E-02 0.  1.
         -2   -1    0    0    0  501 -0.00000000000E+00 -0.00000000000E+00 -0.32592342280E+02  0.32592342384E+02  0.26000000000E-02 0. -1.
       1023    2    1    2    0    0  0.00000000000E+00  0.00000000000E+00 -0.29523832554E+02  0.35660853211E+02  0.20000994052E+02 0.  0.
        -11    1    3    3    0    0  0.50616056426E+01  0.86249660199E+01 -0.14749311773E+02  0.17819991262E+02  0.51100000000E-03 0. -1.
         11    1    3    3    0    0 -0.50616056426E+01 -0.86249660199E+01 -0.14774520781E+02  0.17840861949E+02  0.51100000000E-03 0.  1.
<mgrwt>
<rscale>  0 0.20000994E+02</rscale>
<asrwt>0</asrwt>
<pdfrwt beam="1">  1        2 0.47207853E-03 0.20000994E+02</pdfrwt>
<pdfrwt beam="2">  1       -2 0.50142064E-02 0.20000994E+02</pdfrwt>
<totfact> 0.35748233E+06</totfact>
</mgrwt>
</event>
<event>
 5    1  0.4046313E-006  0.2000008E+02  0.7818608E-02  0.1745327E+00
          2   -1    0    0  501    0  0.00000000000E+00  0.00000000000E+00  0.16100398711E+02  0.16100398921E+02  0.26000000000E-02 0. -1.
         -2   -1    0    0    0  501 -0.00000000000E+00 -0.00000000000E+00 -0.62110744051E+01  0.62110749493E+01  0.26000000000E-02 0.  1.
       1023    2    1    2    0    0  0.00000000000E+00  0.00000000000E+00  0.98893243059E+01  0.22311473870E+02  0.20000078276E+02 0.  0.
        -11    1    3    3    0    0  0.10416179127E+01  0.99456363837E+01  0.49318674163E+01  0.11150065804E+02  0.51100000000E-03 0. -1.
         11    1    3    3    0    0 -0.10416179127E+01 -0.99456363837E+01  0.49574568896E+01  0.11161408067E+02  0.51100000000E-03 0.  1.
<mgrwt>
<rscale>  0 0.20000078E+02</rscale>
<asrwt>0</asrwt>
<pdfrwt beam="1">  1        2 0.24769844E-02 0.20000078E+02</pdfrwt>
<pdfrwt beam="2">  1       -2 0.95554998E-03 0.20000078E+02</pdfrwt>
<totfact> 0.40920394E+06</totfact>
</mgrwt>
</event>
<event>
 5    1  0.4046313E-006  0.2000075E+02  0.7818608E-02  0.1745313E+00
         -2   -1    0    0    0  501 -0.00000000000E+00  0.00000000000E+00  0.15262406286E+02  0.15262406507E+02  0.26000000000E-02 0. -1.
          2   -1    0    0  501    0  0.00000000000E+00 -0.00000000000E+00 -0.65525370281E+01  0.65525375439E+01  0.26000000000E-02 0.  1.
       1023    2    1    2    0    0  0.00000000000E+00  0.00000000000E+00  0.87098692578E+01  0.21814944051E+02  0.20000749023E+02 0.  0.
        -11    1    3    3    0    0  0.66622835021E+01  0.74576404516E+01  0.42772908981E+01  0.10876471866E+02  0.51100000000E-03 0.  1.
         11    1    3    3    0    0 -0.66622835021E+01 -0.74576404516E+01  0.44325783597E+01  0.10938472185E+02  0.51100000000E-03 0. -1.
<mgrwt>
<rscale>  0 0.20000749E+02</rscale>
<asrwt>0</asrwt>
<pdfrwt beam="2">  1        2 0.10080827E-02 0.20000749E+02</pdfrwt>
<pdfrwt beam="1">  1       -2 0.23480626E-02 0.20000749E+02</pdfrwt>
<totfact> 0.38243989E+06</totfact>
</mgrwt>
</event>
<event>
 4    1  0.4046313E-006  0.2002475E+02  0.7818608E-02  0.1744836E+00
          2   -1    0    0  501    0  0.00000000000E+00  0.00000000000E+00  0.37505259702E+01  0.37505268714E+01  0.26000000000E-02 0.  1.
         -2   -1    0    0    0  501 -0.00000000000E+00 -0.00000000000E+00 -0.26728943711E+02  0.26728943837E+02  0.26000000000E-02 0. -1.
        -11    1    1    2    0    0 -0.72013834148E+01  0.69414161644E+01 -0.12177408286E+02  0.15758567647E+02  0.51100000000E-03 0. -1.
         11    1    1    2    0    0  0.72013834148E+01 -0.69414161644E+01 -0.10801009454E+02  0.14720903061E+02  0.51100000000E-03 0.  1.
<mgrwt>
<rscale>  0 0.20024746E+02</rscale>
<asrwt>0</asrwt>
<pdfrwt beam="1">  1        2 0.57700409E-03 0.20024746E+02</pdfrwt>
<pdfrwt beam="2">  1       -2 0.41121451E-02 0.20024746E+02</pdfrwt>
<totfact> 0.36380742E+06</totfact>
</mgrwt>
</event>
<event>
 5    1  0.4046313E-006  0.2000042E+02  0.7818608E-02  0.1745320E+00
         -2   -1    0    0    0  501 -0.00000000000E+00  0.00000000000E+00  0.12964663098E+01  0.12964689169E+01  0.26000000000E-02 0. -1.
          2   -1    0    0  501    0  0.00000000000E+00 -0.00000000000E+00 -0.77135920073E+02  0.77135920116E+02  0.26000000000E-02 0.  1.
       1023    2    1    2    0    0  0.00000000000E+00  0.00000000000E+00 -0.75839453763E+02  0.78432389033E+02  0.20000422556E+02 0.  0.
        -11    1    3    3    0    0  0.56539781213E+01  0.82483243092E+01 -0.37748663290E+02  0.39050786201E+02  0.51100000000E-03 0. -1.
         11    1    3    3    0    0 -0.56539781213E+01 -0.82483243092E+01 -0.38090790473E+02  0.39381602832E+02  0.51100000000E-03 0.  1.
<mgrwt>
<rscale>  0 0.20000423E+02</rscale>
<asrwt>0</asrwt>
<pdfrwt beam="2">  1        2 0.11867061E-01 0.20000423E+02</pdfrwt>
<pdfrwt beam="1">  1       -2 0.19945662E-03 0.20000423E+02</pdfrwt>
<totfact> 0.49934646E+06</totfact>
</mgrwt>
</event>
<event>
 4    1  0.4046313E-006  0.2002386E+02  0.7818608E-02  0.1744854E+00
         -2   -1    0    0    0  501 -0.00000000000E+00  0.00000000000E+00  0.40508743766E+01  0.40508752110E+01  0.26000000000E-02 0. -1.
          2   -1    0    0  501    0  0.00000000000E+00 -0.00000000000E+00 -0.24744961602E+02  0.24744961739E+02  0.26000000000E-02 0.  1.
        -11    1    1    2    0    0  0.21716937206E+01  0.97683343516E+01 -0.10806632164E+02  0.14728201133E+02  0.51100000000E-03 0.  1.
         11    1    1    2    0    0 -0.21716937206E+01 -0.97683343516E+01 -0.98874550616E+01  0.14067635817E+02  0.51100000000E-03 0. -1.
<mgrwt>
<rscale>  0 0.20023860E+02</rscale>
<asrwt>0</asrwt>
<pdfrwt beam="2">  1        2 0.38069171E-02 0.20023860E+02</pdfrwt>
<pdfrwt beam="1">  1       -2 0.62321153E-03 0.20023860E+02</pdfrwt>
<totfact> 0.42399804E+06</totfact>
</mgrwt>
</event>
<event>
 5    1  0.4046313E-006  0.2000401E+02  0.7818608E-02  0.1745248E+00
         -2   -1    0    0    0  501 -0.00000000000E+00  0.00000000000E+00  0.62228617365E+02  0.62228617419E+02  0.26000000000E-02 0. -1.
          2   -1    0    0  501    0  0.00000000000E+00 -0.00000000000E+00 -0.16076214838E+01  0.16076235863E+01  0.26000000000E-02 0.  1.
       1023    2    1    2    0    0  0.00000000000E+00  0.00000000000E+00  0.60620995881E+02  0.63836241006E+02  0.20004012700E+02 0.  0.
        -11    1    3    3    0    0  0.99774809278E+01 -0.69871060052E+00  0.30446210832E+02  0.32046997932E+02  0.51100000000E-03 0.  1.
         11    1    3    3    0    0 -0.99774809278E+01  0.69871060052E+00  0.30174785049E+02  0.31789243074E+02  0.51100000000E-03 0. -1.
<mgrwt>
<rscale>  0 0.20004013E+02</rscale>
<asrwt>0</asrwt>
<pdfrwt beam="2">  1        2 0.24732657E-03 0.20004013E+02</pdfrwt>
<pdfrwt beam="1">  1       -2 0.95736329E-02 0.20004013E+02</pdfrwt>
<totfact> 0.32745221E+06</totfact>
</mgrwt>
</event>
<event>
 5    1  0.4086355E-006  0.2000098E+02  0.7818608E-02  0.1745309E+00
          2   -1    0    0  501    0  0.00000000000E+00  0.00000000000E+00  0.62385514035E+02  0.62385514089E+02  0.26000000000E-02 0. -1.
         -2   -1    0    0    0  501 -0.00000000000E+00 -0.00000000000E+00 -0.16030925729E+01  0.16030946813E+01  0.26000000000E-02 0.  1.
       1023    2    1    2    0    0  0.00000000000E+00  0.00000000000E+00  0.60782421462E+02  0.63988608770E+02  0.20000982316E+02 0.  0.
        -11    1    3    3    0    0  0.54852609096E+01  0.83617106918E+01  0.30581297028E+02  0.32174866295E+02  0.51100000000E-03 0. -1.
         11    1    3    3    0    0 -0.54852609096E+01 -0.83617106918E+01  0.30201124434E+02  0.31813742475E+02  0.51100000000E-03 0.  1.
<mgrwt>
<rscale>  0 0.20000982E+02</rscale>
<asrwt>0</asrwt>
<pdfrwt beam="1">  1        2 0.95977708E-02 0.20000982E+02</pdfrwt>
<pdfrwt beam="2">  1       -2 0.24662981E-03 0.20000982E+02</pdfrwt>
<totfact> 0.48011988E+06</totfact>
</mgrwt>
</event>
<event>
 5    1  0.4046313E-006  0.2000037E+02  0.7818608E-02  0.1745321E+00
          2   -1    0    0  501    0  0.00000000000E+00  0.00000000000E+00  0.48058815302E+02  0.48058815372E+02  0.26000000000E-02 0. -1.
         -2   -1    0    0    0  501 -0.00000000000E+00 -0.00000000000E+00 -0.20808591662E+01  0.20808607905E+01  0.26000000000E-02 0.  1.
       1023    2    1    2    0    0  0.00000000000E+00  0.00000000000E+00  0.45977956136E+02  0.50139676163E+02  0.20000366879E+02 0.  0.
        -11    1    3    3    0    0 -0.60265388683E+01  0.79802487151E+01  0.23017371144E+02  0.25095874460E+02  0.51100000000E-03 0. -1.
         11    1    3    3    0    0  0.60265388683E+01 -0.79802487151E+01  0.22960584992E+02  0.25043801703E+02  0.51100000000E-03 0.  1.
<mgrwt>
<rscale>  0 0.20000367E+02</rscale>
<asrwt>0</asrwt>
<pdfrwt beam="1">  1        2 0.73936630E-02 0.20000367E+02</pdfrwt>
<pdfrwt beam="2">  1       -2 0.32013235E-03 0.20000367E+02</pdfrwt>
<totfact> 0.46053787E+06</totfact>
</mgrwt>
</event>
<event>
 4    1  0.4046313E-006  0.2006912E+02  0.7818608E-02  0.1743957E+00
         -2   -1    0    0    0  501 -0.00000000000E+00  0.00000000000E+00  0.40169331302E+01  0.40169339717E+01  0.26000000000E-02 0. -1.
          2   -1    0    0  501    0  0.00000000000E+00 -0.00000000000E+00 -0.25066975071E+02  0.25066975206E+02  0.26000000000E-02 0.  1.
        -11    1    1    2    0    0 -0.81963591855E+01  0.57868319929E+01 -0.10752539500E+02  0.14706625526E+02  0.51100000000E-03 0.  1.
         11    1    1    2    0    0  0.81963591855E+01 -0.57868319929E+01 -0.10297502442E+02  0.14377283652E+02  0.51100000000E-03 0. -1.
<mgrwt>
<rscale>  0 0.20069118E+02</rscale>
<asrwt>0</asrwt>
<pdfrwt beam="2">  1        2 0.38564577E-02 0.20069118E+02</pdfrwt>
<pdfrwt beam="1">  1       -2 0.61798980E-03 0.20069118E+02</pdfrwt>
<totfact> 0.42239169E+06</totfact>
</mgrwt>
</event>
<event>
 5    1  0.4046313E-006  0.2000098E+02  0.7818608E-02  0.1745309E+00
          2   -1    0    0  501    0  0.00000000000E+00  0.00000000000E+00  0.13771905919E+02  0.13771906165E+02  0.26000000000E-02 0.  1.
         -2   -1    0    0    0  501 -0.00000000000E+00 -0.00000000000E+00 -0.72618721854E+01  0.72618726508E+01  0.26000000000E-02 0. -1.
       1023    2    1    2    0    0  0.00000000000E+00  0.00000000000E+00  0.65100337340E+01  0.21033778816E+02  0.20000982777E+02 0.  0.
        -11    1    3    3    0    0 -0.87407152089E+01  0.48587445545E+01  0.33057439778E+01  0.10532589640E+02  0.51100000000E-03 0. -1.
         11    1    3    3    0    0  0.87407152089E+01 -0.48587445545E+01  0.32042897563E+01  0.10501189176E+02  0.51100000000E-03 0.  1.
<mgrwt>
<rscale>  0 0.20000983E+02</rscale>
<asrwt>0</asrwt>
<pdfrwt beam="1">  1        2 0.21187548E-02 0.20000983E+02</pdfrwt>
<pdfrwt beam="2">  1       -2 0.11172112E-02 0.20000983E+02</pdfrwt>
<totfact> 0.40414649E+06</totfact>
</mgrwt>
</event>
<event>
 5    1  0.4046313E-006  0.2000088E+02  0.7818608E-02  0.1745310E+00
          2   -1    0    0  501    0  0.00000000000E+00  0.00000000000E+00  0.10073082990E+01  0.10073116545E+01  0.26000000000E-02 0.  1.
         -2   -1    0    0    0  501 -0.00000000000E+00 -0.00000000000E+00 -0.99283084518E+02  0.99283084552E+02  0.26000000000E-02 0. -1.
       1023    2    1    2    0    0  0.00000000000E+00  0.00000000000E+00 -0.98275776219E+02  0.10029039621E+03  0.20000884476E+02 0.  0.
        -11    1    3    3    0    0 -0.43616048008E+01 -0.89987973236E+01 -0.49554255639E+02  0.50553201698E+02  0.51100000000E-03 0.  1.
         11    1    3    3    0    0  0.43616048008E+01  0.89987973236E+01 -0.48721520580E+02  0.49737194508E+02  0.51100000000E-03 0. -1.
<mgrwt>
<rscale>  0 0.20000884E+02</rscale>
<asrwt>0</asrwt>
<pdfrwt beam="1">  1        2 0.15497085E-03 0.20000884E+02</pdfrwt>
<pdfrwt beam="2">  1       -2 0.15274313E-01 0.20000884E+02</pdfrwt>
<totfact> 0.29780055E+06</totfact>
</mgrwt>
</event>
<event>
 5    1  0.4046313E-006  0.2000049E+02  0.7818608E-02  0.1745318E+00
         -2   -1    0    0    0  501 -0.00000000000E+00  0.00000000000E+00  0.84982909211E+00  0.84983306938E+00  0.26000000000E-02 0. -1.
          2   -1    0    0  501    0  0.00000000000E+00 -0.00000000000E+00 -0.11767622574E+03  0.11767622577E+03  0.26000000000E-02 0.  1.
       1023    2    1    2    0    0  0.00000000000E+00  0.00000000000E+00 -0.11682639664E+03  0.11852605884E+03  0.20000491743E+02 0.  0.
        -11    1    3    3    0    0 -0.86766862015E+00 -0.99625021414E+01 -0.58560696062E+02  0.59408412041E+02  0.51100000000E-03 0.  1.
         11    1    3    3    0    0  0.86766862015E+00  0.99625021414E+01 -0.58265700583E+02  0.59117646794E+02  0.51100000000E-03 0. -1.
<mgrwt>
<rscale>  0 0.20000492E+02</rscale>
<asrwt>0</asrwt>
<pdfrwt beam="2">  1        2 0.18104022E-01 0.20000492E+02</pdfrwt>
<pdfrwt beam="1">  1       -2 0.13074334E-03 0.20000492E+02</pdfrwt>
<totfact> 0.54823860E+06</totfact>
</mgrwt>
</event>
<event>
 5    1  0.4046313E-006  0.2000035E+02  0.7818608E-02  0.1745321E+00
         -2   -1    0    0    0  501 -0.00000000000E+00  0.00000000000E+00  0.12883199155E+02  0.12883199418E+02  0.26000000000E-02 0. -1.
          2   -1    0    0  501    0  0.00000000000E+00 -0.00000000000E+00 -0.77623221859E+01  0.77623226213E+01  0.26000000000E-02 0.  1.
       1023    2    1    2    0    0  0.00000000000E+00  0.00000000000E+00  0.51208769695E+01  0.20645522039E+02  0.20000354980E+02 0.  0.
        -11    1    3    3    0    0 -0.43506809676E+01 -0.90041167134E+01  0.25931937659E+01  0.10330885579E+02  0.51100000000E-03 0. -1.
         11    1    3    3    0    0  0.43506809676E+01  0.90041167134E+01  0.25276832036E+01  0.10314636460E+02  0.51100000000E-03 0.  1.
<mgrwt>
<rscale>  0 0.20000355E+02</rscale>
<asrwt>0</asrwt>
<pdfrwt beam="2">  1        2 0.11942035E-02 0.20000355E+02</pdfrwt>
<pdfrwt beam="1">  1       -2 0.19820307E-02 0.20000355E+02</pdfrwt>
<totfact> 0.38735126E+06</totfact>
</mgrwt>
</event>
<event>
 5    1  0.4046313E-006  0.2000028E+02  0.7818608E-02  0.1745322E+00
         -2   -1    0    0    0  501 -0.00000000000E+00  0.00000000000E+00  0.25763742583E+02  0.25763742714E+02  0.26000000000E-02 0.  1.
          2   -1    0    0  501    0  0.00000000000E+00 -0.00000000000E+00 -0.38815322538E+01  0.38815331246E+01  0.26000000000E-02 0. -1.
       1023    2    1    2    0    0  0.00000000000E+00  0.00000000000E+00  0.21882210329E+02  0.29645275839E+02  0.20000281265E+02 0.  0.
        -11    1    3    3    0    0 -0.51521713410E+00  0.99867535671E+01  0.10872907481E+02  0.14772298835E+02  0.51100000000E-03 0.  1.
         11    1    3    3    0    0  0.51521713410E+00 -0.99867535671E+01  0.11009302848E+02  0.14872977004E+02  0.51100000000E-03 0. -1.
<mgrwt>
<rscale>  0 0.20000281E+02</rscale>
<asrwt>0</asrwt>
<pdfrwt beam="2">  1        2 0.59715888E-03 0.20000281E+02</pdfrwt>
<pdfrwt beam="1">  1       -2 0.39636528E-02 0.20000281E+02</pdfrwt>
<totfact> 0.36605107E+06</totfact>
</mgrwt>
</event>
<event>
 5    1  0.4046313E-006  0.2000081E+02  0.7818608E-02  0.1745312E+00
          2   -1    0    0  501    0  0.00000000000E+00  0.00000000000E+00  0.53047325230E+01  0.53047331602E+01  0.26000000000E-02 0.  1.
         -2   -1    0    0    0  501 -0.00000000000E+00 -0.00000000000E+00 -0.18852610943E+02  0.18852611122E+02  0.26000000000E-02 0. -1.
       1023    2    1    2    0    0  0.00000000000E+00  0.00000000000E+00 -0.13547878419E+02  0.24157344282E+02  0.20000806811E+02 0.  0.
        -11    1    3    3    0    0  0.94390303550E+01  0.33027624861E+01 -0.68552670122E+01  0.12124282253E+02  0.51100000000E-03 0.  1.
         11    1    3    3    0    0 -0.94390303550E+01 -0.33027624861E+01 -0.66926114073E+01  0.12033062029E+02  0.51100000000E-03 0. -1.
<mgrwt>
<rscale>  0 0.20000807E+02</rscale>
<asrwt>0</asrwt>
<pdfrwt beam="1">  1        2 0.81611277E-03 0.20000807E+02</pdfrwt>
<pdfrwt beam="2">  1       -2 0.29004017E-02 0.20000807E+02</pdfrwt>
<totfact> 0.37613375E+06</totfact>
</mgrwt>
</event>
<event>
 5    1  0.4046313E-006  0.2000020E+02  0.7818608E-02  0.1745324E+00
          2   -1    0    0  501    0  0.00000000000E+00  0.00000000000E+00  0.18048303984E+02  0.18048304171E+02  0.26000000000E-02 0.  1.
         -2   -1    0    0    0  501 -0.00000000000E+00 -0.00000000000E+00 -0.55407955762E+01  0.55407961862E+01  0.26000000000E-02 0. -1.
       1023    2    1    2    0    0  0.00000000000E+00  0.00000000000E+00  0.12507508408E+02  0.23589100358E+02  0.20000197227E+02 0.  0.
        -11    1    3    3    0    0 -0.77468524358E+01  0.63236009293E+01  0.62748738386E+01  0.11805748317E+02  0.51100000000E-03 0. -1.
         11    1    3    3    0    0  0.77468524358E+01 -0.63236009293E+01  0.62326345694E+01  0.11783352041E+02  0.51100000000E-03 0.  1.
<mgrwt>
<rscale>  0 0.20000197E+02</rscale>
<asrwt>0</asrwt>
<pdfrwt beam="1">  1        2 0.27766622E-02 0.20000197E+02</pdfrwt>
<pdfrwt beam="2">  1       -2 0.85243015E-03 0.20000197E+02</pdfrwt>
<totfact> 0.41308526E+06</totfact>
</mgrwt>
</event>
<event>
 5    1  0.4046313E-006  0.2000047E+02  0.7818608E-02  0.1745319E+00
          2   -1    0    0  501    0  0.00000000000E+00  0.00000000000E+00  0.50430507987E+01  0.50430514689E+01  0.26000000000E-02 0.  1.
         -2   -1    0    0    0  501 -0.00000000000E+00 -0.00000000000E+00 -0.19830193666E+02  0.19830193837E+02  0.26000000000E-02 0. -1.
       1023    2    1    2    0    0  0.00000000000E+00  0.00000000000E+00 -0.14787142868E+02  0.24873245306E+02  0.20000468441E+02 0.  0.
        -11    1    3    3    0    0  0.97868594115E+01  0.20546713659E+01 -0.73689286768E+01  0.12421972535E+02  0.51100000000E-03 0.  1.
         11    1    3    3    0    0 -0.97868594115E+01 -0.20546713659E+01 -0.74182141910E+01  0.12451272771E+02  0.51100000000E-03 0. -1.
<mgrwt>
<rscale>  0 0.20000468E+02</rscale>
<asrwt>0</asrwt>
<pdfrwt beam="1">  1        2 0.77585404E-03 0.20000468E+02</pdfrwt>
<pdfrwt beam="2">  1       -2 0.30507991E-02 0.20000468E+02</pdfrwt>
<totfact> 0.37458586E+06</totfact>
</mgrwt>
</event>
<event>
 5    1  0.4046313E-006  0.2000108E+02  0.7818608E-02  0.1745307E+00
          2   -1    0    0  501    0  0.00000000000E+00  0.00000000000E+00  0.29474411219E+02  0.29474411333E+02  0.26000000000E-02 0. -1.
         -2   -1    0    0    0  501 -0.00000000000E+00 -0.00000000000E+00 -0.33931404073E+01  0.33931414034E+01  0.26000000000E-02 0.  1.
       1023    2    1    2    0    0  0.00000000000E+00  0.00000000000E+00  0.26081270812E+02  0.32867552737E+02  0.20001083365E+02 0.  0.
        -11    1    3    3    0    0 -0.40264487995E+01  0.91539551884E+01  0.13139889965E+02  0.16512537481E+02  0.51100000000E-03 0.  1.
         11    1    3    3    0    0  0.40264487995E+01 -0.91539551884E+01  0.12941380847E+02  0.16355015255E+02  0.51100000000E-03 0. -1.
<mgrwt>
<rscale>  0 0.20001083E+02</rscale>
<asrwt>0</asrwt>
<pdfrwt beam="1">  1        2 0.45345248E-02 0.20001083E+02</pdfrwt>
<pdfrwt beam="2">  1       -2 0.52202169E-03 0.20001083E+02</pdfrwt>
<totfact> 0.43284348E+06</totfact>
</mgrwt>
</event>
<event>
 5    1  0.4046313E-006  0.2000396E+02  0.7818608E-02  0.1745249E+00
          2   -1    0    0  501    0  0.00000000000E+00  0.00000000000E+00  0.11804382893E+01  0.11804411526E+01  0.26000000000E-02 0. -1.
         -2   -1    0    0    0  501 -0.00000000000E+00 -0.00000000000E+00 -0.84747740790E+02  0.84747740830E+02  0.26000000000E-02 0.  1.
       1023    2    1    2    0    0  0.00000000000E+00  0.00000000000E+00 -0.83567302501E+02  0.85928181982E+02  0.20003959897E+02 0.  0.
        -11    1    3    3    0    0  0.63384723911E+01  0.77368800944E+01 -0.42057247731E+02  0.43230170400E+02  0.51100000000E-03 0.  1.
         11    1    3    3    0    0 -0.63384723911E+01 -0.77368800944E+01 -0.41510054770E+02  0.42698011582E+02  0.51100000000E-03 0. -1.
<mgrwt>
<rscale>  0 0.20003960E+02</rscale>
<asrwt>0</asrwt>
<pdfrwt beam="1">  1        2 0.18160618E-03 0.20003960E+02</pdfrwt>
<pdfrwt beam="2">  1       -2 0.13038109E-01 0.20003960E+02</pdfrwt>
<totfact> 0.30868257E+06</totfact>
</mgrwt>
</event>
<event>
 5    1  0.4076504E-006  0.2000152E+02  0.7818608E-02  0.1745298E+00
          2   -1    0    0  501    0  0.00000000000E+00  0.00000000000E+00  0.59933076952E+02  0.59933077008E+02  0.26000000000E-02 0.  1.
         -2   -1    0    0    0  501 -0.00000000000E+00 -0.00000000000E+00 -0.16687799568E+01  0.16687819823E+01  0.26000000000E-02 0. -1.
       1023    2    1    2    0    0  0.00000000000E+00  0.00000000000E+00  0.58264296995E+02  0.61601858990E+02  0.20001518111E+02 0.  0.
        -11    1    3    3    0    0  0.87178860257E+01  0.48992995355E+01  0.28816425614E+02  0.30502312340E+02  0.51100000000E-03 0. -1.
         11    1    3    3    0    0 -0.87178860257E+01 -0.48992995355E+01  0.29447871381E+02  0.31099546650E+02  0.51100000000E-03 0.  1.
<mgrwt>
<rscale>  0 0.20001518E+02</rscale>
<asrwt>0</asrwt>
<pdfrwt beam="1">  1        2 0.92204727E-02 0.20001518E+02</pdfrwt>
<pdfrwt beam="2">  1       -2 0.25673556E-03 0.20001518E+02</pdfrwt>
<totfact> 0.47680686E+06</totfact>
</mgrwt>
</event>
<event>
 4    1  0.4046313E-006  0.2084161E+02  0.7818608E-02  0.1729092E+00
          2   -1    0    0  501    0  0.00000000000E+00  0.00000000000E+00  0.53473051884E+02  0.53473051948E+02  0.26000000000E-02 0.  1.
         -2   -1    0    0    0  501 -0.00000000000E+00 -0.00000000000E+00 -0.20308009905E+01  0.20308026549E+01  0.26000000000E-02 0. -1.
        -11    1    1    2    0    0 -0.69928430992E+01  0.77243405709E+01  0.25276434682E+02  0.27339777658E+02  0.51100000000E-03 0. -1.
         11    1    1    2    0    0  0.69928430992E+01 -0.77243405709E+01  0.26165816212E+02  0.28164076945E+02  0.51100000000E-03 0.  1.
<mgrwt>
<rscale>  0 0.20841610E+02</rscale>
<asrwt>0</asrwt>
<pdfrwt beam="1">  1        2 0.82266219E-02 0.20841610E+02</pdfrwt>
<pdfrwt beam="2">  1       -2 0.31243111E-03 0.20841610E+02</pdfrwt>
<totfact> 0.42690099E+06</totfact>
</mgrwt>
</event>
<event>
 5    1  0.4046313E-006  0.2000541E+02  0.7818608E-02  0.1745221E+00
         -2   -1    0    0    0  501 -0.00000000000E+00  0.00000000000E+00  0.32225932830E+01  0.32225943319E+01  0.26000000000E-02 0. -1.
          2   -1    0    0  501    0  0.00000000000E+00 -0.00000000000E+00 -0.31047693423E+02  0.31047693532E+02  0.26000000000E-02 0.  1.
       1023    2    1    2    0    0  0.00000000000E+00  0.00000000000E+00 -0.27825100140E+02  0.34270287864E+02  0.20005410080E+02 0.  0.
        -11    1    3    3    0    0  0.98706195812E+01 -0.16185047277E+01 -0.14038658834E+02  0.17237535514E+02  0.51100000000E-03 0.  1.
         11    1    3    3    0    0 -0.98706195812E+01  0.16185047277E+01 -0.13786441306E+02  0.17032752350E+02  0.51100000000E-03 0. -1.
<mgrwt>
<rscale>  0 0.20005410E+02</rscale>
<asrwt>0</asrwt>
<pdfrwt beam="2">  1        2 0.47765681E-02 0.20005410E+02</pdfrwt>
<pdfrwt beam="1">  1       -2 0.49578369E-03 0.20005410E+02</pdfrwt>
<totfact> 0.43512262E+06</totfact>
</mgrwt>
</event>
<event>
 5    1  0.4046313E-006  0.2000271E+02  0.7818608E-02  0.1745274E+00
          2   -1    0    0  501    0  0.00000000000E+00  0.00000000000E+00  0.52237104789E+01  0.52237111260E+01  0.26000000000E-02 0. -1.
         -2   -1    0    0    0  501 -0.00000000000E+00 -0.00000000000E+00 -0.19148670412E+02  0.19148670588E+02  0.26000000000E-02 0.  1.
       1023    2    1    2    0    0  0.00000000000E+00  0.00000000000E+00 -0.13924959933E+02  0.24372381714E+02  0.20002711849E+02 0.  0.
        -11    1    3    3    0    0  0.74248057750E+01  0.67002262031E+01 -0.70595601834E+01  0.12241656841E+02  0.51100000000E-03 0.  1.
         11    1    3    3    0    0 -0.74248057750E+01 -0.67002262031E+01 -0.68653997495E+01  0.12130724873E+02  0.51100000000E-03 0. -1.
<mgrwt>
<rscale>  0 0.20002712E+02</rscale>
<asrwt>0</asrwt>
<pdfrwt beam="1">  1        2 0.80364784E-03 0.20002712E+02</pdfrwt>
<pdfrwt beam="2">  1       -2 0.29459493E-02 0.20002712E+02</pdfrwt>
<totfact> 0.37557749E+06</totfact>
</mgrwt>
</event>
<event>
 5    1  0.4046313E-006  0.2000065E+02  0.7818608E-02  0.1745315E+00
         -2   -1    0    0    0  501 -0.00000000000E+00  0.00000000000E+00  0.10376151433E+02  0.10376151758E+02  0.26000000000E-02 0.  1.
          2   -1    0    0  501    0  0.00000000000E+00 -0.00000000000E+00 -0.96381112368E+01  0.96381115875E+01  0.26000000000E-02 0. -1.
       1023    2    1    2    0    0  0.00000000000E+00  0.00000000000E+00  0.73804019574E+00  0.20014263346E+02  0.20000650838E+02 0.  0.
        -11    1    3    3    0    0 -0.16283229279E+01  0.98668651357E+01  0.36230266930E+00  0.10006883963E+02  0.51100000000E-03 0.  1.
         11    1    3    3    0    0  0.16283229279E+01 -0.98668651357E+01  0.37573752644E+00  0.10007379383E+02  0.51100000000E-03 0. -1.
<mgrwt>
<rscale>  0 0.20000651E+02</rscale>
<asrwt>0</asrwt>
<pdfrwt beam="2">  1        2 0.14827864E-02 0.20000651E+02</pdfrwt>
<pdfrwt beam="1">  1       -2 0.15963310E-02 0.20000651E+02</pdfrwt>
<totfact> 0.39353877E+06</totfact>
</mgrwt>
</event>
<event>
 5    1  0.4046313E-006  0.2000097E+02  0.7818608E-02  0.1745309E+00
         -2   -1    0    0    0  501 -0.00000000000E+00  0.00000000000E+00  0.41967447692E+01  0.41967455746E+01  0.26000000000E-02 0.  1.
          2   -1    0    0  501    0  0.00000000000E+00 -0.00000000000E+00 -0.23830309548E+02  0.23830309690E+02  0.26000000000E-02 0. -1.
       1023    2    1    2    0    0  0.00000000000E+00  0.00000000000E+00 -0.19633564779E+02  0.28027055265E+02  0.20000973998E+02 0.  0.
        -11    1    3    3    0    0 -0.54228553787E+01 -0.84024513517E+01 -0.97684272377E+01  0.13979653792E+02  0.51100000000E-03 0.  1.
         11    1    3    3    0    0  0.54228553787E+01  0.84024513517E+01 -0.98651375414E+01  0.14047401473E+02  0.51100000000E-03 0. -1.
<mgrwt>
<rscale>  0 0.20000974E+02</rscale>
<asrwt>0</asrwt>
<pdfrwt beam="2">  1        2 0.36662015E-02 0.20000974E+02</pdfrwt>
<pdfrwt beam="1">  1       -2 0.64565313E-03 0.20000974E+02</pdfrwt>
<totfact> 0.42353078E+06</totfact>
</mgrwt>
</event>
<event>
 5    1  0.4046313E-006  0.2000321E+02  0.7818608E-02  0.1745264E+00
          2   -1    0    0  501    0  0.00000000000E+00  0.00000000000E+00  0.18639678949E+02  0.18639679130E+02  0.26000000000E-02 0.  1.
         -2   -1    0    0    0  501 -0.00000000000E+00 -0.00000000000E+00 -0.53666214203E+01  0.53666220501E+01  0.26000000000E-02 0. -1.
       1023    2    1    2    0    0  0.00000000000E+00  0.00000000000E+00  0.13273057529E+02  0.24006301180E+02  0.20003210747E+02 0.  0.
        -11    1    3    3    0    0 -0.99275736348E+01  0.12140941976E+01  0.65921600336E+01  0.11978619168E+02  0.51100000000E-03 0. -1.
         11    1    3    3    0    0  0.99275736348E+01 -0.12140941976E+01  0.66808974949E+01  0.12027682012E+02  0.51100000000E-03 0.  1.
<mgrwt>
<rscale>  0 0.20003211E+02</rscale>
<asrwt>0</asrwt>
<pdfrwt beam="1">  1        2 0.28676429E-02 0.20003211E+02</pdfrwt>
<pdfrwt beam="2">  1       -2 0.82563414E-03 0.20003211E+02</pdfrwt>
<totfact> 0.41408148E+06</totfact>
</mgrwt>
</event>
<event>
 5    1  0.4046313E-006  0.2000100E+02  0.7818608E-02  0.1745308E+00
          2   -1    0    0  501    0  0.00000000000E+00  0.00000000000E+00  0.35367874640E+02  0.35367874735E+02  0.26000000000E-02 0. -1.
         -2   -1    0    0    0  501 -0.00000000000E+00 -0.00000000000E+00 -0.28277053959E+01  0.28277065912E+01  0.26000000000E-02 0.  1.
       1023    2    1    2    0    0  0.00000000000E+00  0.00000000000E+00  0.32540169244E+02  0.38195581327E+02  0.20000995436E+02 0.  0.
        -11    1    3    3    0    0 -0.96076961483E+01 -0.27748763664E+01  0.16180711716E+02  0.19021650718E+02  0.51100000000E-03 0. -1.
         11    1    3    3    0    0  0.96076961483E+01  0.27748763664E+01  0.16359457528E+02  0.19173930609E+02  0.51100000000E-03 0.  1.
<mgrwt>
<rscale>  0 0.20000995E+02</rscale>
<asrwt>0</asrwt>
<pdfrwt beam="1">  1        2 0.54412118E-02 0.20000995E+02</pdfrwt>
<pdfrwt beam="2">  1       -2 0.43503168E-03 0.20000995E+02</pdfrwt>
<totfact> 0.44200028E+06</totfact>
</mgrwt>
</event>
<event>
 5    1  0.4046313E-006  0.2000120E+02  0.7818608E-02  0.1745304E+00
         -2   -1    0    0    0  501 -0.00000000000E+00  0.00000000000E+00  0.20715202208E+01  0.20715218524E+01  0.26000000000E-02 0. -1.
          2   -1    0    0  501    0  0.00000000000E+00 -0.00000000000E+00 -0.48279474577E+02  0.48279474647E+02  0.26000000000E-02 0.  1.
       1023    2    1    2    0    0  0.00000000000E+00  0.00000000000E+00 -0.46207954356E+02  0.50350996499E+02  0.20001195032E+02 0.  0.
        -11    1    3    3    0    0  0.57737774622E+01 -0.81652642139E+01 -0.22946674041E+02  0.25031138521E+02  0.51100000000E-03 0.  1.
         11    1    3    3    0    0 -0.57737774622E+01  0.81652642139E+01 -0.23261280315E+02  0.25319857978E+02  0.51100000000E-03 0. -1.
<mgrwt>
<rscale>  0 0.20001195E+02</rscale>
<asrwt>0</asrwt>
<pdfrwt beam="2">  1        2 0.74276107E-02 0.20001195E+02</pdfrwt>
<pdfrwt beam="1">  1       -2 0.31869559E-03 0.20001195E+02</pdfrwt>
<totfact> 0.46080624E+06</totfact>
</mgrwt>
</event>
<event>
 5    1  0.4046313E-006  0.2000134E+02  0.7818608E-02  0.1745301E+00
         -2   -1    0    0    0  501 -0.00000000000E+00  0.00000000000E+00  0.67670832483E+01  0.67670837478E+01  0.26000000000E-02 0. -1.
          2   -1    0    0  501    0  0.00000000000E+00 -0.00000000000E+00 -0.14779391315E+02  0.14779391544E+02  0.26000000000E-02 0.  1.
       1023    2    1    2    0    0  0.00000000000E+00  0.00000000000E+00 -0.80123080670E+01  0.21546475292E+02  0.20001337879E+02 0.  0.
        -11    1    3    3    0    0  0.94506065032E+01 -0.32709961307E+01 -0.40062542618E+01  0.10773274917E+02  0.51100000000E-03 0. -1.
         11    1    3    3    0    0 -0.94506065032E+01  0.32709961307E+01 -0.40060538052E+01  0.10773200375E+02  0.51100000000E-03 0.  1.
<mgrwt>
<rscale>  0 0.20001338E+02</rscale>
<asrwt>0</asrwt>
<pdfrwt beam="2">  1        2 0.22737525E-02 0.20001338E+02</pdfrwt>
<pdfrwt beam="1">  1       -2 0.10410898E-02 0.20001338E+02</pdfrwt>
<totfact> 0.40635884E+06</totfact>
</mgrwt>
</event>
<event>
 5    1  0.4046313E-006  0.2000105E+02  0.7818608E-02  0.1745307E+00
         -2   -1    0    0    0  501 -0.00000000000E+00  0.00000000000E+00  0.50836779319E+01  0.50836785968E+01  0.26000000000E-02 0. -1.
          2   -1    0    0  501    0  0.00000000000E+00 -0.00000000000E+00 -0.19672870468E+02  0.19672870639E+02  0.26000000000E-02 0.  1.
       1023    2    1    2    0    0  0.00000000000E+00  0.00000000000E+00 -0.14589192536E+02  0.24756549236E+02  0.20001054753E+02 0.  0.
        -11    1    3    3    0    0 -0.69976645677E+01 -0.71439777531E+01 -0.71923777173E+01  0.12318036574E+02  0.51100000000E-03 0.  1.
         11    1    3    3    0    0  0.69976645677E+01  0.71439777531E+01 -0.73968148184E+01  0.12438512663E+02  0.51100000000E-03 0. -1.
<mgrwt>
<rscale>  0 0.20001055E+02</rscale>
<asrwt>0</asrwt>
<pdfrwt beam="2">  1        2 0.30265955E-02 0.20001055E+02</pdfrwt>
<pdfrwt beam="1">  1       -2 0.78210437E-03 0.20001055E+02</pdfrwt>
<totfact> 0.41612532E+06</totfact>
</mgrwt>
</event>
<event>
 5    1  0.4046313E-006  0.2000050E+02  0.7818608E-02  0.1745318E+00
         -2   -1    0    0    0  501 -0.00000000000E+00  0.00000000000E+00  0.25403064635E+01  0.25403077940E+01  0.26000000000E-02 0. -1.
          2   -1    0    0  501    0  0.00000000000E+00 -0.00000000000E+00 -0.39367280769E+02  0.39367280855E+02  0.26000000000E-02 0.  1.
       1023    2    1    2    0    0  0.00000000000E+00  0.00000000000E+00 -0.36826974306E+02  0.41907588649E+02  0.20000498740E+02 0.  0.
        -11    1    3    3    0    0 -0.69778600635E+01 -0.71633845796E+01 -0.18454198301E+02  0.20989569907E+02  0.51100000000E-03 0.  1.
         11    1    3    3    0    0  0.69778600635E+01  0.71633845796E+01 -0.18372776005E+02  0.20918018742E+02  0.51100000000E-03 0. -1.
<mgrwt>
<rscale>  0 0.20000499E+02</rscale>
<asrwt>0</asrwt>
<pdfrwt beam="2">  1        2 0.60565044E-02 0.20000499E+02</pdfrwt>
<pdfrwt beam="1">  1       -2 0.39081652E-03 0.20000499E+02</pdfrwt>
<totfact> 0.44800598E+06</totfact>
</mgrwt>
</event>
<event>
 5    1  0.4309119E-006  0.2000075E+02  0.7818608E-02  0.1745313E+00
          2   -1    0    0  501    0  0.00000000000E+00  0.00000000000E+00  0.21680684469E+01  0.21680700058E+01  0.26000000000E-02 0.  1.
         -2   -1    0    0    0  501 -0.00000000000E+00 -0.00000000000E+00 -0.46127459224E+02  0.46127459297E+02  0.26000000000E-02 0. -1.
       1023    2    1    2    0    0  0.00000000000E+00  0.00000000000E+00 -0.43959390777E+02  0.48295529303E+02  0.20000752815E+02 0.  0.
        -11    1    3    3    0    0 -0.99874839603E+01 -0.50523854809E+00 -0.22098633876E+02  0.24256024433E+02  0.51100000000E-03 0.  1.
         11    1    3    3    0    0  0.99874839603E+01  0.50523854809E+00 -0.21860756901E+02  0.24039504870E+02  0.51100000000E-03 0. -1.
<mgrwt>
<rscale>  0 0.20000753E+02</rscale>
<asrwt>0</asrwt>
<pdfrwt beam="1">  1        2 0.33354915E-03 0.20000753E+02</pdfrwt>
<pdfrwt beam="2">  1       -2 0.70965316E-02 0.20000753E+02</pdfrwt>
<totfact> 0.34280093E+06</totfact>
</mgrwt>
</event>
<event>
 5    1  0.4046313E-006  0.2000161E+02  0.7818608E-02  0.1745296E+00
         -2   -1    0    0    0  501 -0.00000000000E+00  0.00000000000E+00  0.62053065507E+01  0.62053070954E+01  0.26000000000E-02 0.  1.
          2   -1    0    0  501    0  0.00000000000E+00 -0.00000000000E+00 -0.16117839438E+02  0.16117839648E+02  0.26000000000E-02 0. -1.
       1023    2    1    2    0    0  0.00000000000E+00  0.00000000000E+00 -0.99125328875E+01  0.22323146743E+02  0.20001614242E+02 0.  0.
        -11    1    3    3    0    0  0.69260438302E+01 -0.72138617956E+01 -0.50445533901E+01  0.11200776951E+02  0.51100000000E-03 0.  1.
         11    1    3    3    0    0 -0.69260438302E+01  0.72138617956E+01 -0.48679794973E+01  0.11122369792E+02  0.51100000000E-03 0. -1.
<mgrwt>
<rscale>  0 0.20001614E+02</rscale>
<asrwt>0</asrwt>
<pdfrwt beam="2">  1        2 0.24796676E-02 0.20001614E+02</pdfrwt>
<pdfrwt beam="1">  1       -2 0.95466261E-03 0.20001614E+02</pdfrwt>
<totfact> 0.40916877E+06</totfact>
</mgrwt>
</event>
<event>
 5    1  0.4046313E-006  0.2000142E+02  0.7818608E-02  0.1745300E+00
         -2   -1    0    0    0  501 -0.00000000000E+00  0.00000000000E+00  0.26612652884E+02  0.26612653011E+02  0.26000000000E-02 0. -1.
          2   -1    0    0  501    0  0.00000000000E+00 -0.00000000000E+00 -0.37581456364E+01  0.37581465358E+01  0.26000000000E-02 0.  1.
       1023    2    1    2    0    0  0.00000000000E+00  0.00000000000E+00  0.22854507248E+02  0.30370799547E+02  0.20001424039E+02 0.  0.
        -11    1    3    3    0    0  0.34893246889E+01 -0.93717784304E+01  0.11286252687E+02  0.15079294337E+02  0.51100000000E-03 0. -1.
         11    1    3    3    0    0 -0.34893246889E+01  0.93717784304E+01  0.11568254561E+02  0.15291505210E+02  0.51100000000E-03 0.  1.
<mgrwt>
<rscale>  0 0.20001424E+02</rscale>
<asrwt>0</asrwt>
<pdfrwt beam="2">  1        2 0.57817635E-03 0.20001424E+02</pdfrwt>
<pdfrwt beam="1">  1       -2 0.40942542E-02 0.20001424E+02</pdfrwt>
<totfact> 0.36488392E+06</totfact>
</mgrwt>
</event>
<event>
 5    1  0.4046313E-006  0.2000101E+02  0.7818608E-02  0.1745308E+00
         -2   -1    0    0    0  501 -0.00000000000E+00  0.00000000000E+00  0.21456291908E+02  0.21456292066E+02  0.26000000000E-02 0.  1.
          2   -1    0    0  501    0  0.00000000000E+00 -0.00000000000E+00 -0.46611092259E+01  0.46611099510E+01  0.26000000000E-02 0. -1.
       1023    2    1    2    0    0  0.00000000000E+00  0.00000000000E+00  0.16795182682E+02  0.26117402017E+02  0.20001013144E+02 0.  0.
        -11    1    3    3    0    0 -0.59257415955E+01 -0.80552693222E+01  0.85169429800E+01  0.13135451850E+02  0.51100000000E-03 0. -1.
         11    1    3    3    0    0  0.59257415955E+01  0.80552693222E+01  0.82782397025E+01  0.12981950167E+02  0.51100000000E-03 0.  1.
<mgrwt>
<rscale>  0 0.20001013E+02</rscale>
<asrwt>0</asrwt>
<pdfrwt beam="2">  1        2 0.71709381E-03 0.20001013E+02</pdfrwt>
<pdfrwt beam="1">  1       -2 0.33009680E-02 0.20001013E+02</pdfrwt>
<totfact> 0.37207816E+06</totfact>
</mgrwt>
</event>
<event>
 5    1  0.4046313E-006  0.2000163E+02  0.7818608E-02  0.1745296E+00
          2   -1    0    0  501    0  0.00000000000E+00  0.00000000000E+00  0.12195783105E+02  0.12195783382E+02  0.26000000000E-02 0.  1.
         -2   -1    0    0    0  501 -0.00000000000E+00 -0.00000000000E+00 -0.82008955621E+01  0.82008959742E+01  0.26000000000E-02 0. -1.
       1023    2    1    2    0    0  0.00000000000E+00  0.00000000000E+00  0.39948875428E+01  0.20396679356E+02  0.20001634990E+02 0.  0.
        -11    1    3    3    0    0  0.79421230459E+01 -0.60776350582E+01  0.20353797742E+01  0.10205769812E+02  0.51100000000E-03 0.  1.
         11    1    3    3    0    0 -0.79421230459E+01  0.60776350582E+01  0.19595077686E+01  0.10190909544E+02  0.51100000000E-03 0. -1.
<mgrwt>
<rscale>  0 0.20001635E+02</rscale>
<asrwt>0</asrwt>
<pdfrwt beam="1">  1        2 0.18762744E-02 0.20001635E+02</pdfrwt>
<pdfrwt beam="2">  1       -2 0.12616763E-02 0.20001635E+02</pdfrwt>
<totfact> 0.40039850E+06</totfact>
</mgrwt>
</event>
<event>
 5    1  0.4046313E-006  0.2000052E+02  0.7818608E-02  0.1745318E+00
          2   -1    0    0  501    0  0.00000000000E+00  0.00000000000E+00  0.36624370571E+02  0.36624370663E+02  0.26000000000E-02 0.  1.
         -2   -1    0    0    0  501 -0.00000000000E+00 -0.00000000000E+00 -0.27305645089E+01  0.27305657467E+01  0.26000000000E-02 0. -1.
       1023    2    1    2    0    0  0.00000000000E+00  0.00000000000E+00  0.33893806062E+02  0.39354936410E+02  0.20000523255E+02 0.  0.
        -11    1    3    3    0    0  0.12553479892E+01 -0.99210628080E+01  0.17031457576E+02  0.19750289447E+02  0.51100000000E-03 0.  1.
         11    1    3    3    0    0 -0.12553479892E+01  0.99210628080E+01  0.16862348485E+02  0.19604646962E+02  0.51100000000E-03 0. -1.
<mgrwt>
<rscale>  0 0.20000523E+02</rscale>
<asrwt>0</asrwt>
<pdfrwt beam="1">  1        2 0.56345183E-02 0.20000523E+02</pdfrwt>
<pdfrwt beam="2">  1       -2 0.42008697E-03 0.20000523E+02</pdfrwt>
<totfact> 0.44392025E+06</totfact>
</mgrwt>
</event>
<event>
 5    1  0.4046313E-006  0.2000244E+02  0.7818608E-02  0.1745280E+00
          2   -1    0    0  501    0  0.00000000000E+00  0.00000000000E+00  0.64516584771E+02  0.64516584824E+02  0.26000000000E-02 0.  1.
         -2   -1    0    0    0  501 -0.00000000000E+00 -0.00000000000E+00 -0.15503664501E+01  0.15503686302E+01  0.26000000000E-02 0. -1.
       1023    2    1    2    0    0  0.00000000000E+00  0.00000000000E+00  0.62966218321E+02  0.66066953454E+02  0.20002442076E+02 0.  0.
        -11    1    3    3    0    0 -0.99587506395E+01  0.91625209214E+00  0.31782017258E+02  0.33318356104E+02  0.51100000000E-03 0. -1.
         11    1    3    3    0    0  0.99587506395E+01 -0.91625209214E+00  0.31184201063E+02  0.32748597350E+02  0.51100000000E-03 0.  1.
<mgrwt>
<rscale>  0 0.20002442E+02</rscale>
<asrwt>0</asrwt>
<pdfrwt beam="1">  1        2 0.99256251E-02 0.20002442E+02</pdfrwt>
<pdfrwt beam="2">  1       -2 0.23851817E-03 0.20002442E+02</pdfrwt>
<totfact> 0.48287311E+06</totfact>
</mgrwt>
</event>
<event>
 5    1  0.4046313E-006  0.2000032E+02  0.7818608E-02  0.1745322E+00
          2   -1    0    0  501    0  0.00000000000E+00  0.00000000000E+00  0.79927567788E+02  0.79927567830E+02  0.26000000000E-02 0. -1.
         -2   -1    0    0    0  501 -0.00000000000E+00 -0.00000000000E+00 -0.12511712219E+01  0.12511739234E+01  0.26000000000E-02 0.  1.
       1023    2    1    2    0    0  0.00000000000E+00  0.00000000000E+00  0.78676396566E+02  0.81178741753E+02  0.20000318400E+02 0.  0.
        -11    1    3    3    0    0  0.96441239771E+01 -0.26441336727E+01  0.39130695098E+02  0.40388264004E+02  0.51100000000E-03 0. -1.
         11    1    3    3    0    0 -0.96441239771E+01  0.26441336727E+01  0.39545701468E+02  0.40790477749E+02  0.51100000000E-03 0.  1.
<mgrwt>
<rscale>  0 0.20000318E+02</rscale>
<asrwt>0</asrwt>
<pdfrwt beam="1">  1        2 0.12296548E-01 0.20000318E+02</pdfrwt>
<pdfrwt beam="2">  1       -2 0.19248810E-03 0.20000318E+02</pdfrwt>
<totfact> 0.50288686E+06</totfact>
</mgrwt>
</event>
<event>
 5    1  0.4046313E-006  0.2000168E+02  0.7818608E-02  0.1745295E+00
          2   -1    0    0  501    0  0.00000000000E+00  0.00000000000E+00  0.16989379126E+02  0.16989379325E+02  0.26000000000E-02 0. -1.
         -2   -1    0    0    0  501 -0.00000000000E+00 -0.00000000000E+00 -0.58870174098E+01  0.58870179840E+01  0.26000000000E-02 0.  1.
       1023    2    1    2    0    0  0.00000000000E+00  0.00000000000E+00  0.11102361717E+02  0.22876397309E+02  0.20001677884E+02 0.  0.
        -11    1    3    3    0    0  0.85471916935E+01 -0.51925122166E+01  0.55391681801E+01  0.11432368668E+02  0.51100000000E-03 0. -1.
         11    1    3    3    0    0 -0.85471916935E+01  0.51925122166E+01  0.55631935364E+01  0.11444028642E+02  0.51100000000E-03 0.  1.
<mgrwt>
<rscale>  0 0.20001678E+02</rscale>
<asrwt>0</asrwt>
<pdfrwt beam="1">  1        2 0.26137507E-02 0.20001678E+02</pdfrwt>
<pdfrwt beam="2">  1       -2 0.90569504E-03 0.20001678E+02</pdfrwt>
<totfact> 0.41093270E+06</totfact>
</mgrwt>
</event>
<event>
 4    1  0.4046313E-006  0.2039383E+02  0.7818608E-02  0.1737608E+00
         -2   -1    0    0    0  501 -0.00000000000E+00  0.00000000000E+00  0.20915422680E+01  0.20915438841E+01  0.26000000000E-02 0. -1.
          2   -1    0    0  501    0  0.00000000000E+00 -0.00000000000E+00 -0.49713068515E+02  0.49713068583E+02  0.26000000000E-02 0.  1.
        -11    1    1    2    0    0 -0.21611857260E+01 -0.99650958593E+01 -0.23667782818E+02  0.25770871212E+02  0.51100000000E-03 0. -1.
         11    1    1    2    0    0  0.21611857260E+01  0.99650958593E+01 -0.23953743429E+02  0.26033741255E+02  0.51100000000E-03 0.  1.
<mgrwt>
<rscale>  0 0.20393825E+02</rscale>
<asrwt>0</asrwt>
<pdfrwt beam="2">  1        2 0.76481636E-02 0.20393825E+02</pdfrwt>
<pdfrwt beam="1">  1       -2 0.32177590E-03 0.20393825E+02</pdfrwt>
<totfact> 0.44316408E+06</totfact>
</mgrwt>
</event>
<event>
 5    1  0.4243681E-006  0.2000219E+02  0.7818608E-02  0.1745285E+00
         -2   -1    0    0    0  501 -0.00000000000E+00  0.00000000000E+00  0.13274604658E+01  0.13274630121E+01  0.26000000000E-02 0. -1.
          2   -1    0    0  501    0  0.00000000000E+00 -0.00000000000E+00 -0.75348221769E+02  0.75348221814E+02  0.26000000000E-02 0.  1.
       1023    2    1    2    0    0  0.00000000000E+00  0.00000000000E+00 -0.74020761304E+02  0.76675684826E+02  0.20002188371E+02 0.  0.
        -11    1    3    3    0    0 -0.65016125459E+01 -0.75994014755E+01 -0.37025791606E+02  0.38352719758E+02  0.51100000000E-03 0.  1.
         11    1    3    3    0    0  0.65016125459E+01  0.75994014755E+01 -0.36994969697E+02  0.38322965069E+02  0.51100000000E-03 0. -1.
<mgrwt>
<rscale>  0 0.20002188E+02</rscale>
<asrwt>0</asrwt>
<pdfrwt beam="2">  1        2 0.11592031E-01 0.20002188E+02</pdfrwt>
<pdfrwt beam="1">  1       -2 0.20422495E-03 0.20002188E+02</pdfrwt>
<totfact> 0.49697062E+06</totfact>
</mgrwt>
</event>
<event>
 5    1  0.4046313E-006  0.2000020E+02  0.7818608E-02  0.1745324E+00
          2   -1    0    0  501    0  0.00000000000E+00  0.00000000000E+00  0.10286834203E+02  0.10286834532E+02  0.26000000000E-02 0. -1.
         -2   -1    0    0    0  501 -0.00000000000E+00 -0.00000000000E+00 -0.97213569373E+01  0.97213572850E+01  0.26000000000E-02 0.  1.
       1023    2    1    2    0    0  0.00000000000E+00  0.00000000000E+00  0.56547726564E+00  0.20008191817E+02  0.20000199380E+02 0.  0.
        -11    1    3    3    0    0  0.99982774112E+01 -0.18996381546E+00  0.30161686808E+00  0.10004629450E+02  0.51100000000E-03 0.  1.
         11    1    3    3    0    0 -0.99982774112E+01  0.18996381546E+00  0.26386039755E+00  0.10003562366E+02  0.51100000000E-03 0. -1.
<mgrwt>
<rscale>  0 0.20000199E+02</rscale>
<asrwt>0</asrwt>
<pdfrwt beam="1">  1        2 0.15825899E-02 0.20000199E+02</pdfrwt>
<pdfrwt beam="2">  1       -2 0.14955934E-02 0.20000199E+02</pdfrwt>
<totfact> 0.39544209E+06</totfact>
</mgrwt>
</event>
<event>
 5    1  0.4046313E-006  0.2000385E+02  0.7818608E-02  0.1745252E+00
          2   -1    0    0  501    0  0.00000000000E+00  0.00000000000E+00  0.36043489882E+02  0.36043489975E+02  0.26000000000E-02 0. -1.
         -2   -1    0    0    0  501 -0.00000000000E+00 -0.00000000000E+00 -0.27754936508E+01  0.27754948686E+01  0.26000000000E-02 0.  1.
       1023    2    1    2    0    0  0.00000000000E+00  0.00000000000E+00  0.33267996231E+02  0.38818984844E+02  0.20003849907E+02 0.  0.
        -11    1    3    3    0    0  0.35834930856E+01 -0.93359851482E+01  0.17004547137E+02  0.19727054138E+02  0.51100000000E-03 0. -1.
         11    1    3    3    0    0 -0.35834930856E+01  0.93359851482E+01  0.16263449094E+02  0.19091930706E+02  0.51100000000E-03 0.  1.
<mgrwt>
<rscale>  0 0.20003850E+02</rscale>
<asrwt>0</asrwt>
<pdfrwt beam="1">  1        2 0.55451523E-02 0.20003850E+02</pdfrwt>
<pdfrwt beam="2">  1       -2 0.42699913E-03 0.20003850E+02</pdfrwt>
<totfact> 0.44288079E+06</totfact>
</mgrwt>
</event>
<event>
 4    1  0.4046313E-006  0.2001867E+02  0.7818608E-02  0.1744957E+00
          2   -1    0    0  501    0  0.00000000000E+00  0.00000000000E+00  0.28567844284E+01  0.28567856115E+01  0.26000000000E-02 0.  1.
         -2   -1    0    0    0  501 -0.00000000000E+00 -0.00000000000E+00 -0.35069750080E+02  0.35069750177E+02  0.26000000000E-02 0. -1.
        -11    1    1    2    0    0  0.83872839595E+01  0.54543803183E+01 -0.15538295030E+02  0.18480676654E+02  0.51100000000E-03 0.  1.
         11    1    1    2    0    0 -0.83872839595E+01 -0.54543803183E+01 -0.16674670622E+02  0.19445859135E+02  0.51100000000E-03 0. -1.
<mgrwt>
<rscale>  0 0.20018665E+02</rscale>
<asrwt>0</asrwt>
<pdfrwt beam="1">  1        2 0.43950542E-03 0.20018665E+02</pdfrwt>
<pdfrwt beam="2">  1       -2 0.53953460E-02 0.20018665E+02</pdfrwt>
<totfact> 0.35392851E+06</totfact>
</mgrwt>
</event>
<event>
 5    1  0.4046313E-006  0.2000035E+02  0.7818608E-02  0.1745321E+00
         -2   -1    0    0    0  501 -0.00000000000E+00  0.00000000000E+00  0.19013201059E+01  0.19013218837E+01  0.26000000000E-02 0.  1.
          2   -1    0    0  501    0  0.00000000000E+00 -0.00000000000E+00 -0.52596846728E+02  0.52596846792E+02  0.26000000000E-02 0. -1.
       1023    2    1    2    0    0  0.00000000000E+00  0.00000000000E+00 -0.50695526622E+02  0.54498168676E+02  0.20000349236E+02 0.  0.
        -11    1    3    3    0    0  0.53295429052E+01 -0.84616227981E+01 -0.25402543767E+02  0.27300042455E+02  0.51100000000E-03 0. -1.
         11    1    3    3    0    0 -0.53295429052E+01  0.84616227981E+01 -0.25292982855E+02  0.27198126221E+02  0.51100000000E-03 0.  1.
<mgrwt>
<rscale>  0 0.20000349E+02</rscale>
<asrwt>0</asrwt>
<pdfrwt beam="2">  1        2 0.80918216E-02 0.20000349E+02</pdfrwt>
<pdfrwt beam="1">  1       -2 0.29251097E-03 0.20000349E+02</pdfrwt>
<totfact> 0.46687156E+06</totfact>
</mgrwt>
</event>
<event>
 5    1  0.4046313E-006  0.2000026E+02  0.7818608E-02  0.1745323E+00
          2   -1    0    0  501    0  0.00000000000E+00  0.00000000000E+00  0.60918487741E+01  0.60918493290E+01  0.26000000000E-02 0. -1.
         -2   -1    0    0    0  501 -0.00000000000E+00 -0.00000000000E+00 -0.16415809402E+02  0.16415809608E+02  0.26000000000E-02 0.  1.
       1023    2    1    2    0    0  0.00000000000E+00  0.00000000000E+00 -0.10323960628E+02  0.22507658937E+02  0.20000263693E+02 0.  0.
        -11    1    3    3    0    0  0.83741891007E+01  0.54656187602E+01 -0.51045407163E+01  0.11227482697E+02  0.51100000000E-03 0. -1.
         11    1    3    3    0    0 -0.83741891007E+01 -0.54656187602E+01 -0.52194199115E+01  0.11280176240E+02  0.51100000000E-03 0.  1.
<mgrwt>
<rscale>  0 0.20000264E+02</rscale>
<asrwt>0</asrwt>
<pdfrwt beam="1">  1        2 0.93720757E-03 0.20000264E+02</pdfrwt>
<pdfrwt beam="2">  1       -2 0.25255092E-02 0.20000264E+02</pdfrwt>
<totfact> 0.38031943E+06</totfact>
</mgrwt>
</event>
<event>
 5    1  0.4046313E-006  0.2000045E+02  0.7818608E-02  0.1745319E+00
          2   -1    0    0  501    0  0.00000000000E+00  0.00000000000E+00  0.37018639492E+01  0.37018648623E+01  0.26000000000E-02 0. -1.
         -2   -1    0    0    0  501 -0.00000000000E+00 -0.00000000000E+00 -0.27014631853E+02  0.27014631978E+02  0.26000000000E-02 0.  1.
       1023    2    1    2    0    0  0.00000000000E+00  0.00000000000E+00 -0.23312767903E+02  0.30716496840E+02  0.20000450765E+02 0.  0.
        -11    1    3    3    0    0 -0.80055851459E+01  0.59927670367E+01 -0.11590199491E+02  0.15308016684E+02  0.51100000000E-03 0. -1.
         11    1    3    3    0    0  0.80055851459E+01 -0.59927670367E+01 -0.11722568412E+02  0.15408480156E+02  0.51100000000E-03 0.  1.
<mgrwt>
<rscale>  0 0.20000451E+02</rscale>
<asrwt>0</asrwt>
<pdfrwt beam="1">  1        2 0.56951763E-03 0.20000451E+02</pdfrwt>
<pdfrwt beam="2">  1       -2 0.41560972E-02 0.20000451E+02</pdfrwt>
<totfact> 0.36439836E+06</totfact>
</mgrwt>
</event>
<event>
 5    1  0.4046313E-006  0.2000077E+02  0.7818608E-02  0.1745313E+00
          2   -1    0    0  501    0  0.00000000000E+00  0.00000000000E+00  0.21656531269E+02  0.21656531425E+02  0.26000000000E-02 0. -1.
         -2   -1    0    0    0  501 -0.00000000000E+00 -0.00000000000E+00 -0.46178994461E+01  0.46179001780E+01  0.26000000000E-02 0.  1.
       1023    2    1    2    0    0  0.00000000000E+00  0.00000000000E+00  0.17038631823E+02  0.26274431603E+02  0.20000769527E+02 0.  0.
        -11    1    3    3    0    0  0.68243352821E+01  0.73099444903E+01  0.85577205814E+01  0.13162120737E+02  0.51100000000E-03 0. -1.
         11    1    3    3    0    0 -0.68243352821E+01 -0.73099444903E+01  0.84809112418E+01  0.13112310866E+02  0.51100000000E-03 0.  1.
<mgrwt>
<rscale>  0 0.20000770E+02</rscale>
<asrwt>0</asrwt>
<pdfrwt beam="1">  1        2 0.33317741E-02 0.20000770E+02</pdfrwt>
<pdfrwt beam="2">  1       -2 0.71044614E-03 0.20000770E+02</pdfrwt>
<totfact> 0.41974315E+06</totfact>
</mgrwt>
</event>
<event>
 5    1  0.4046313E-006  0.2000896E+02  0.7818608E-02  0.1745150E+00
          2   -1    0    0  501    0  0.00000000000E+00  0.00000000000E+00  0.10907832912E+01  0.10907863899E+01  0.26000000000E-02 0. -1.
         -2   -1    0    0    0  501 -0.00000000000E+00 -0.00000000000E+00 -0.91759275451E+02  0.91759275488E+02  0.26000000000E-02 0.  1.
       1023    2    1    2    0    0  0.00000000000E+00  0.00000000000E+00 -0.90668492160E+02  0.92850061878E+02  0.20008960997E+02 0.  0.
        -11    1    3    3    0    0  0.63366655192E+01 -0.77411978134E+01 -0.44866591462E+02  0.45968364156E+02  0.51100000000E-03 0. -1.
         11    1    3    3    0    0 -0.63366655192E+01  0.77411978134E+01 -0.45801900698E+02  0.46881697722E+02  0.51100000000E-03 0.  1.
<mgrwt>
<rscale>  0 0.20008961E+02</rscale>
<asrwt>0</asrwt>
<pdfrwt beam="1">  1        2 0.16781313E-03 0.20008961E+02</pdfrwt>
<pdfrwt beam="2">  1       -2 0.14116806E-01 0.20008961E+02</pdfrwt>
<totfact> 0.30311988E+06</totfact>
</mgrwt>
</event>
<event>
 5    1  0.4046313E-006  0.2000018E+02  0.7818608E-02  0.1745325E+00
          2   -1    0    0  501    0  0.00000000000E+00  0.00000000000E+00  0.75402596838E+01  0.75402601320E+01  0.26000000000E-02 0. -1.
         -2   -1    0    0    0  501 -0.00000000000E+00 -0.00000000000E+00 -0.13262374698E+02  0.13262374952E+02  0.26000000000E-02 0.  1.
       1023    2    1    2    0    0  0.00000000000E+00  0.00000000000E+00 -0.57221150138E+01  0.20802635084E+02  0.20000175655E+02 0.  0.
        -11    1    3    3    0    0 -0.67120613667E+00  0.99774652254E+01 -0.29003390876E+01  0.10412122602E+02  0.51100000000E-03 0.  1.
         11    1    3    3    0    0  0.67120613667E+00 -0.99774652254E+01 -0.28217759262E+01  0.10390512482E+02  0.51100000000E-03 0. -1.
<mgrwt>
<rscale>  0 0.20000176E+02</rscale>
<asrwt>0</asrwt>
<pdfrwt beam="1">  1        2 0.11600400E-02 0.20000176E+02</pdfrwt>
<pdfrwt beam="2">  1       -2 0.20403654E-02 0.20000176E+02</pdfrwt>
<totfact> 0.38652660E+06</totfact>
</mgrwt>
</event>
<event>
 5    1  0.4046313E-006  0.2000377E+02  0.7818608E-02  0.1745253E+00
          2   -1    0    0  501    0  0.00000000000E+00  0.00000000000E+00  0.15424826824E+01  0.15424848737E+01  0.26000000000E-02 0.  1.
         -2   -1    0    0    0  501 -0.00000000000E+00 -0.00000000000E+00 -0.64854961583E+02  0.64854961635E+02  0.26000000000E-02 0. -1.
       1023    2    1    2    0    0  0.00000000000E+00  0.00000000000E+00 -0.63312478900E+02  0.66397446509E+02  0.20003772603E+02 0.  0.
        -11    1    3    3    0    0  0.50474959676E+01 -0.86345956930E+01 -0.31439317134E+02  0.32991879614E+02  0.51100000000E-03 0. -1.
         11    1    3    3    0    0 -0.50474959676E+01  0.86345956930E+01 -0.31873161766E+02  0.33405566895E+02  0.51100000000E-03 0.  1.
<mgrwt>
<rscale>  0 0.20003773E+02</rscale>
<asrwt>0</asrwt>
<pdfrwt beam="1">  1        2 0.23730525E-03 0.20003773E+02</pdfrwt>
<pdfrwt beam="2">  1       -2 0.99776845E-02 0.20003773E+02</pdfrwt>
<totfact> 0.32513824E+06</totfact>
</mgrwt>
</event>
<event>
 5    1  0.4046313E-006  0.2000116E+02  0.7818608E-02  0.1745305E+00
          2   -1    0    0  501    0  0.00000000000E+00  0.00000000000E+00  0.81497740947E+01  0.81497745094E+01  0.26000000000E-02 0.  1.
         -2   -1    0    0    0  501 -0.00000000000E+00 -0.00000000000E+00 -0.12271705492E+02  0.12271705768E+02  0.26000000000E-02 0. -1.
       1023    2    1    2    0    0  0.00000000000E+00  0.00000000000E+00 -0.41219313975E+01  0.20421480277E+02  0.20001163423E+02 0.  0.
        -11    1    3    3    0    0  0.31588218813E+01  0.94885333019E+01 -0.20965463210E+01  0.10217921836E+02  0.51100000000E-03 0. -1.
         11    1    3    3    0    0 -0.31588218813E+01 -0.94885333019E+01 -0.20253850765E+01  0.10203558441E+02  0.51100000000E-03 0.  1.
<mgrwt>
<rscale>  0 0.20001163E+02</rscale>
<asrwt>0</asrwt>
<pdfrwt beam="1">  1        2 0.12538115E-02 0.20001163E+02</pdfrwt>
<pdfrwt beam="2">  1       -2 0.18879547E-02 0.20001163E+02</pdfrwt>
<totfact> 0.38870939E+06</totfact>
</mgrwt>
</event>
<event>
 5    1  0.4274792E-006  0.2000387E+02  0.7818608E-02  0.1745251E+00
         -2   -1    0    0    0  501 -0.00000000000E+00  0.00000000000E+00  0.88612281513E+00  0.88612662949E+00  0.26000000000E-02 0.  1.
          2   -1    0    0  501    0  0.00000000000E+00 -0.00000000000E+00 -0.11289465261E+03  0.11289465264E+03  0.26000000000E-02 0. -1.
       1023    2    1    2    0    0  0.00000000000E+00  0.00000000000E+00 -0.11200852980E+03  0.11378077927E+03  0.20003874234E+02 0.  0.
        -11    1    3    3    0    0  0.67259662932E+01  0.74001361750E+01 -0.54893909581E+02  0.55797329214E+02  0.51100000000E-03 0.  1.
         11    1    3    3    0    0 -0.67259662932E+01 -0.74001361750E+01 -0.57114620217E+02  0.57983450060E+02  0.51100000000E-03 0. -1.
<mgrwt>
<rscale>  0 0.20003874E+02</rscale>
<asrwt>0</asrwt>
<pdfrwt beam="2">  1        2 0.17368397E-01 0.20003874E+02</pdfrwt>
<pdfrwt beam="1">  1       -2 0.13632697E-03 0.20003874E+02</pdfrwt>
<totfact> 0.54252905E+06</totfact>
</mgrwt>
</event>
<event>
 5    1  0.4046313E-006  0.2000048E+02  0.7818608E-02  0.1745318E+00
         -2   -1    0    0    0  501 -0.00000000000E+00  0.00000000000E+00  0.85459727750E+00  0.85460123257E+00  0.26000000000E-02 0.  1.
          2   -1    0    0  501    0  0.00000000000E+00 -0.00000000000E+00 -0.11701955849E+03  0.11701955852E+03  0.26000000000E-02 0. -1.
       1023    2    1    2    0    0  0.00000000000E+00  0.00000000000E+00 -0.11616496121E+03  0.11787415975E+03  0.20000483084E+02 0.  0.
        -11    1    3    3    0    0  0.68477106159E+01  0.72879110384E+01 -0.58120972625E+02  0.58975013753E+02  0.51100000000E-03 0. -1.
         11    1    3    3    0    0 -0.68477106159E+01 -0.72879110384E+01 -0.58043988584E+02  0.58899145995E+02  0.51100000000E-03 0.  1.
<mgrwt>
<rscale>  0 0.20000483E+02</rscale>
<asrwt>0</asrwt>
<pdfrwt beam="2">  1        2 0.18002997E-01 0.20000483E+02</pdfrwt>
<pdfrwt beam="1">  1       -2 0.13147690E-03 0.20000483E+02</pdfrwt>
<totfact> 0.54748645E+06</totfact>
</mgrwt>
</event>
<event>
 5    1  0.4046313E-006  0.2000026E+02  0.7818608E-02  0.1745323E+00
         -2   -1    0    0    0  501 -0.00000000000E+00  0.00000000000E+00  0.32318416725E+02  0.32318416830E+02  0.26000000000E-02 0. -1.
          2   -1    0    0  501    0  0.00000000000E+00 -0.00000000000E+00 -0.30942912231E+01  0.30942923154E+01  0.26000000000E-02 0.  1.
       1023    2    1    2    0    0  0.00000000000E+00  0.00000000000E+00  0.29224125502E+02  0.35412709145E+02  0.20000261439E+02 0.  0.
        -11    1    3    3    0    0  0.70671006086E+01  0.70751863880E+01  0.14649233423E+02  0.17737029446E+02  0.51100000000E-03 0. -1.
         11    1    3    3    0    0 -0.70671006086E+01 -0.70751863880E+01  0.14574892079E+02  0.17675679699E+02  0.51100000000E-03 0.  1.
<mgrwt>
<rscale>  0 0.20000261E+02</rscale>
<asrwt>0</asrwt>
<pdfrwt beam="2">  1        2 0.47604490E-03 0.20000261E+02</pdfrwt>
<pdfrwt beam="1">  1       -2 0.49720642E-02 0.20000261E+02</pdfrwt>
<totfact> 0.35783481E+06</totfact>
</mgrwt>
</event>
<event>
 5    1  0.4046313E-006  0.2000181E+02  0.7818608E-02  0.1745292E+00
         -2   -1    0    0    0  501 -0.00000000000E+00  0.00000000000E+00  0.18309379509E+01  0.18309397969E+01  0.26000000000E-02 0.  1.
          2   -1    0    0  501    0  0.00000000000E+00 -0.00000000000E+00 -0.54626651717E+02  0.54626651779E+02  0.26000000000E-02 0. -1.
       1023    2    1    2    0    0  0.00000000000E+00  0.00000000000E+00 -0.52795713766E+02  0.56457591576E+02  0.20001806280E+02 0.  0.
        -11    1    3    3    0    0  0.28975183357E+01  0.95714164702E+01 -0.26109484614E+02  0.27959127540E+02  0.51100000000E-03 0.  1.
         11    1    3    3    0    0 -0.28975183357E+01 -0.95714164702E+01 -0.26686229152E+02  0.28498464036E+02  0.51100000000E-03 0. -1.
<mgrwt>
<rscale>  0 0.20001806E+02</rscale>
<asrwt>0</asrwt>
<pdfrwt beam="2">  1        2 0.84040992E-02 0.20001806E+02</pdfrwt>
<pdfrwt beam="1">  1       -2 0.28168295E-03 0.20001806E+02</pdfrwt>
<totfact> 0.46958900E+06</totfact>
</mgrwt>
</event>
<event>
 5    1  0.4173088E-006  0.2000083E+02  0.7818608E-02  0.1745312E+00
         -2   -1    0    0    0  501 -0.00000000000E+00  0.00000000000E+00  0.11735813123E+01  0.11735841924E+01  0.26000000000E-02 0. -1.
          2   -1    0    0  501    0  0.00000000000E+00 -0.00000000000E+00 -0.85216191089E+02  0.85216191129E+02  0.26000000000E-02 0.  1.
       1023    2    1    2    0    0  0.00000000000E+00  0.00000000000E+00 -0.84042609777E+02  0.86389775322E+02  0.20000825531E+02 0.  0.
        -11    1    3    3    0    0 -0.64525266606E+01 -0.76397855878E+01 -0.41664312117E+02  0.42847594198E+02  0.51100000000E-03 0. -1.
         11    1    3    3    0    0  0.64525266606E+01  0.76397855878E+01 -0.42378297660E+02  0.43542181123E+02  0.51100000000E-03 0.  1.
<mgrwt>
<rscale>  0 0.20000826E+02</rscale>
<asrwt>0</asrwt>
<pdfrwt beam="2">  1        2 0.13110179E-01 0.20000826E+02</pdfrwt>
<pdfrwt beam="1">  1       -2 0.18055126E-03 0.20000826E+02</pdfrwt>
<totfact> 0.50948172E+06</totfact>
</mgrwt>
</event>
<event>
 5    1  0.4046313E-006  0.2000122E+02  0.7818608E-02  0.1745304E+00
          2   -1    0    0  501    0  0.00000000000E+00  0.00000000000E+00  0.80953627868E+01  0.80953632043E+01  0.26000000000E-02 0. -1.
         -2   -1    0    0    0  501 -0.00000000000E+00 -0.00000000000E+00 -0.12354262634E+02  0.12354262908E+02  0.26000000000E-02 0.  1.
       1023    2    1    2    0    0  0.00000000000E+00  0.00000000000E+00 -0.42588998472E+01  0.20449626112E+02  0.20001224468E+02 0.  0.
        -11    1    3    3    0    0  0.97536745972E+01 -0.22061294995E+01 -0.22370192301E+01  0.10247215759E+02  0.51100000000E-03 0.  1.
         11    1    3    3    0    0 -0.97536745972E+01  0.22061294995E+01 -0.20218806171E+01  0.10202410353E+02  0.51100000000E-03 0. -1.
<mgrwt>
<rscale>  0 0.20001224E+02</rscale>
<asrwt>0</asrwt>
<pdfrwt beam="1">  1        2 0.12454405E-02 0.20001224E+02</pdfrwt>
<pdfrwt beam="2">  1       -2 0.19006558E-02 0.20001224E+02</pdfrwt>
<totfact> 0.38851504E+06</totfact>
</mgrwt>
</event>
<event>
 5    1  0.4046313E-006  0.2000048E+02  0.7818608E-02  0.1745319E+00
          2   -1    0    0  501    0  0.00000000000E+00  0.00000000000E+00  0.69072141181E+02  0.69072141230E+02  0.26000000000E-02 0.  1.
         -2   -1    0    0    0  501 -0.00000000000E+00 -0.00000000000E+00 -0.14478295535E+01  0.14478318880E+01  0.26000000000E-02 0. -1.
       1023    2    1    2    0    0  0.00000000000E+00  0.00000000000E+00  0.67624311628E+02  0.70519973118E+02  0.20000477131E+02 0.  0.
        -11    1    3    3    0    0 -0.99115827272E+01 -0.13283010284E+01  0.33705481728E+02  0.35157692679E+02  0.51100000000E-03 0. -1.
         11    1    3    3    0    0  0.99115827272E+01  0.13283010284E+01  0.33918829900E+02  0.35362280439E+02  0.51100000000E-03 0.  1.
<mgrwt>
<rscale>  0 0.20000477E+02</rscale>
<asrwt>0</asrwt>
<pdfrwt beam="1">  1        2 0.10626482E-01 0.20000477E+02</pdfrwt>
<pdfrwt beam="2">  1       -2 0.22274321E-03 0.20000477E+02</pdfrwt>
<totfact> 0.48896402E+06</totfact>
</mgrwt>
</event>
<event>
 5    1  0.4046313E-006  0.2000102E+02  0.7818608E-02  0.1745308E+00
          2   -1    0    0  501    0  0.00000000000E+00  0.00000000000E+00  0.44609032003E+01  0.44609039580E+01  0.26000000000E-02 0. -1.
         -2   -1    0    0    0  501 -0.00000000000E+00 -0.00000000000E+00 -0.22419263210E+02  0.22419263361E+02  0.26000000000E-02 0.  1.
       1023    2    1    2    0    0  0.00000000000E+00  0.00000000000E+00 -0.17958360010E+02  0.26880167319E+02  0.20001017495E+02 0.  0.
        -11    1    3    3    0    0 -0.19914032893E+01  0.98001033547E+01 -0.89124939481E+01  0.13395531399E+02  0.51100000000E-03 0.  1.
         11    1    3    3    0    0  0.19914032893E+01 -0.98001033547E+01 -0.90458660616E+01  0.13484635920E+02  0.51100000000E-03 0. -1.
<mgrwt>
<rscale>  0 0.20001017E+02</rscale>
<asrwt>0</asrwt>
<pdfrwt beam="1">  1        2 0.68629288E-03 0.20001017E+02</pdfrwt>
<pdfrwt beam="2">  1       -2 0.34491174E-02 0.20001017E+02</pdfrwt>
<totfact> 0.37066360E+06</totfact>
</mgrwt>
</event>
<event>
 5    1  0.4133297E-006  0.2000150E+02  0.7818608E-02  0.1745298E+00
         -2   -1    0    0    0  501 -0.00000000000E+00  0.00000000000E+00  0.19338452060E+01  0.19338469538E+01  0.26000000000E-02 0. -1.
          2   -1    0    0  501    0  0.00000000000E+00 -0.00000000000E+00 -0.51718199917E+02  0.51718199982E+02  0.26000000000E-02 0.  1.
       1023    2    1    2    0    0  0.00000000000E+00  0.00000000000E+00 -0.49784354711E+02  0.53652046936E+02  0.20001504105E+02 0.  0.
        -11    1    3    3    0    0 -0.73229173605E+01 -0.68109799035E+01 -0.24833688960E+02  0.26771751410E+02  0.51100000000E-03 0.  1.
         11    1    3    3    0    0  0.73229173605E+01  0.68109799035E+01 -0.24950665751E+02  0.26880295527E+02  0.51100000000E-03 0. -1.
<mgrwt>
<rscale>  0 0.20001504E+02</rscale>
<asrwt>0</asrwt>
<pdfrwt beam="2">  1        2 0.79566452E-02 0.20001504E+02</pdfrwt>
<pdfrwt beam="1">  1       -2 0.29751483E-03 0.20001504E+02</pdfrwt>
<totfact> 0.46559523E+06</totfact>
</mgrwt>
</event>
<event>
 5    1  0.4046313E-006  0.2000282E+02  0.7818608E-02  0.1745272E+00
         -2   -1    0    0    0  501 -0.00000000000E+00  0.00000000000E+00  0.19478822908E+01  0.19478840260E+01  0.26000000000E-02 0.  1.
          2   -1    0    0  501    0  0.00000000000E+00 -0.00000000000E+00 -0.51352263409E+02  0.51352263475E+02  0.26000000000E-02 0. -1.
       1023    2    1    2    0    0  0.00000000000E+00  0.00000000000E+00 -0.49404381118E+02  0.53300147501E+02  0.20002821049E+02 0.  0.
        -11    1    3    3    0    0  0.46658445194E+01  0.88452801418E+01 -0.24333677151E+02  0.26308495392E+02  0.51100000000E-03 0. -1.
         11    1    3    3    0    0 -0.46658445194E+01 -0.88452801418E+01 -0.25070703967E+02  0.26991652108E+02  0.51100000000E-03 0.  1.
<mgrwt>
<rscale>  0 0.20002821E+02</rscale>
<asrwt>0</asrwt>
<pdfrwt beam="2">  1        2 0.79003473E-02 0.20002821E+02</pdfrwt>
<pdfrwt beam="1">  1       -2 0.29967438E-03 0.20002821E+02</pdfrwt>
<totfact> 0.46501915E+06</totfact>
</mgrwt>
</event>
<event>
 5    1  0.4046313E-006  0.2000039E+02  0.7818608E-02  0.1745320E+00
         -2   -1    0    0    0  501 -0.00000000000E+00  0.00000000000E+00  0.97877452837E+01  0.97877456291E+01  0.26000000000E-02 0.  1.
          2   -1    0    0  501    0  0.00000000000E+00 -0.00000000000E+00 -0.10217256563E+02  0.10217256894E+02  0.26000000000E-02 0. -1.
       1023    2    1    2    0    0  0.00000000000E+00  0.00000000000E+00 -0.42951127927E+00  0.20005002523E+02  0.20000391146E+02 0.  0.
        -11    1    3    3    0    0  0.45940744275E+01 -0.88824344894E+01 -0.24212863909E+00  0.10003088965E+02  0.51100000000E-03 0.  1.
         11    1    3    3    0    0 -0.45940744275E+01  0.88824344894E+01 -0.18738264018E+00  0.10001913558E+02  0.51100000000E-03 0. -1.
<mgrwt>
<rscale>  0 0.20000391E+02</rscale>
<asrwt>0</asrwt>
<pdfrwt beam="2">  1        2 0.15718857E-02 0.20000391E+02</pdfrwt>
<pdfrwt beam="1">  1       -2 0.15058070E-02 0.20000391E+02</pdfrwt>
<totfact> 0.39523648E+06</totfact>
</mgrwt>
</event>
<event>
 5    1  0.4046313E-006  0.2000012E+02  0.7818608E-02  0.1745326E+00
         -2   -1    0    0    0  501 -0.00000000000E+00  0.00000000000E+00  0.61056862703E+02  0.61056862758E+02  0.26000000000E-02 0. -1.
          2   -1    0    0  501    0  0.00000000000E+00 -0.00000000000E+00 -0.16378360216E+01  0.16378380853E+01  0.26000000000E-02 0.  1.
       1023    2    1    2    0    0  0.00000000000E+00  0.00000000000E+00  0.59419026681E+02  0.62694700844E+02  0.20000119552E+02 0.  0.
        -11    1    3    3    0    0  0.86787293742E+01 -0.49679563794E+01  0.29760168554E+02  0.31395359001E+02  0.51100000000E-03 0.  1.
         11    1    3    3    0    0 -0.86787293742E+01  0.49679563794E+01  0.29658858127E+02  0.31299341843E+02  0.51100000000E-03 0. -1.
<mgrwt>
<rscale>  0 0.20000120E+02</rscale>
<asrwt>0</asrwt>
<pdfrwt beam="2">  1        2 0.25197498E-03 0.20000120E+02</pdfrwt>
<pdfrwt beam="1">  1       -2 0.93933621E-02 0.20000120E+02</pdfrwt>
<totfact> 0.32864133E+06</totfact>
</mgrwt>
</event>
<event>
 5    1  0.4046313E-006  0.2000028E+02  0.7818608E-02  0.1745323E+00
         -2   -1    0    0    0  501 -0.00000000000E+00  0.00000000000E+00  0.12109050904E+02  0.12109051183E+02  0.26000000000E-02 0.  1.
          2   -1    0    0  501    0  0.00000000000E+00 -0.00000000000E+00 -0.82585162570E+01  0.82585166663E+01  0.26000000000E-02 0. -1.
       1023    2    1    2    0    0  0.00000000000E+00  0.00000000000E+00  0.38505346470E+01  0.20367567849E+02  0.20000280074E+02 0.  0.
        -11    1    3    3    0    0 -0.92102927791E+01  0.38952869529E+01  0.19182876355E+01  0.10182464399E+02  0.51100000000E-03 0. -1.
         11    1    3    3    0    0  0.92102927791E+01 -0.38952869529E+01  0.19322470115E+01  0.10185103450E+02  0.51100000000E-03 0.  1.
<mgrwt>
<rscale>  0 0.20000280E+02</rscale>
<asrwt>0</asrwt>
<pdfrwt beam="2">  1        2 0.12705410E-02 0.20000280E+02</pdfrwt>
<pdfrwt beam="1">  1       -2 0.18629309E-02 0.20000280E+02</pdfrwt>
<totfact> 0.38912797E+06</totfact>
</mgrwt>
</event>
<event>
 5    1  0.4154270E-006  0.2000060E+02  0.7818608E-02  0.1745316E+00
         -2   -1    0    0    0  501 -0.00000000000E+00  0.00000000000E+00  0.17952234326E+01  0.17952253154E+01  0.26000000000E-02 0.  1.
          2   -1    0    0  501    0  0.00000000000E+00 -0.00000000000E+00 -0.55706691362E+02  0.55706691423E+02  0.26000000000E-02 0. -1.
       1023    2    1    2    0    0  0.00000000000E+00  0.00000000000E+00 -0.53911467930E+02  0.57501916738E+02  0.20000601347E+02 0.  0.
        -11    1    3    3    0    0  0.98547711128E+01 -0.16997720430E+01 -0.27003377606E+02  0.28795627117E+02  0.51100000000E-03 0.  1.
         11    1    3    3    0    0 -0.98547711128E+01  0.16997720430E+01 -0.26908090324E+02  0.28706289621E+02  0.51100000000E-03 0. -1.
<mgrwt>
<rscale>  0 0.20000601E+02</rscale>
<asrwt>0</asrwt>
<pdfrwt beam="2">  1        2 0.85702590E-02 0.20000601E+02</pdfrwt>
<pdfrwt beam="1">  1       -2 0.27618841E-03 0.20000601E+02</pdfrwt>
<totfact> 0.47112915E+06</totfact>
</mgrwt>
</event>
<event>
 5    1  0.4264737E-006  0.2000105E+02  0.7818608E-02  0.1745307E+00
         -2   -1    0    0    0  501 -0.00000000000E+00  0.00000000000E+00  0.98107077428E+00  0.98107421949E+00  0.26000000000E-02 0.  1.
          2   -1    0    0  501    0  0.00000000000E+00 -0.00000000000E+00 -0.10193991600E+03  0.10193991603E+03  0.26000000000E-02 0. -1.
       1023    2    1    2    0    0  0.00000000000E+00  0.00000000000E+00 -0.10095884522E+03  0.10292099025E+03  0.20001045104E+02 0.  0.
        -11    1    3    3    0    0 -0.99757345765E+01 -0.70368300751E+00 -0.50474438067E+02  0.51455605609E+02  0.51100000000E-03 0. -1.
         11    1    3    3    0    0  0.99757345765E+01  0.70368300751E+00 -0.50484407157E+02  0.51465384642E+02  0.51100000000E-03 0.  1.
<mgrwt>
<rscale>  0 0.20001045E+02</rscale>
<asrwt>0</asrwt>
<pdfrwt beam="2">  1        2 0.15683056E-01 0.20001045E+02</pdfrwt>
<pdfrwt beam="1">  1       -2 0.15093431E-03 0.20001045E+02</pdfrwt>
<totfact> 0.52983571E+06</totfact>
</mgrwt>
</event>
<event>
 5    1  0.4046313E-006  0.2000083E+02  0.7818608E-02  0.1745312E+00
         -2   -1    0    0    0  501 -0.00000000000E+00  0.00000000000E+00  0.21948821293E+02  0.21948821447E+02  0.26000000000E-02 0.  1.
          2   -1    0    0  501    0  0.00000000000E+00 -0.00000000000E+00 -0.45564313849E+01  0.45564321267E+01  0.26000000000E-02 0. -1.
       1023    2    1    2    0    0  0.00000000000E+00  0.00000000000E+00  0.17392389908E+02  0.26505253574E+02  0.20000830990E+02 0.  0.
        -11    1    3    3    0    0  0.69800389469E+01 -0.71609413183E+01  0.88168219457E+01  0.13331780592E+02  0.51100000000E-03 0.  1.
         11    1    3    3    0    0 -0.69800389469E+01  0.71609413183E+01  0.85755679626E+01  0.13173472982E+02  0.51100000000E-03 0. -1.
<mgrwt>
<rscale>  0 0.20000831E+02</rscale>
<asrwt>0</asrwt>
<pdfrwt beam="2">  1        2 0.70098952E-03 0.20000831E+02</pdfrwt>
<pdfrwt beam="1">  1       -2 0.33767418E-02 0.20000831E+02</pdfrwt>
<totfact> 0.37135716E+06</totfact>
</mgrwt>
</event>
<event>
 5    1  0.4046313E-006  0.2000139E+02  0.7818608E-02  0.1745300E+00
          2   -1    0    0  501    0  0.00000000000E+00  0.00000000000E+00  0.45109063200E+01  0.45109070693E+01  0.26000000000E-02 0.  1.
         -2   -1    0    0    0  501 -0.00000000000E+00 -0.00000000000E+00 -0.22171577745E+02  0.22171577897E+02  0.26000000000E-02 0. -1.
       1023    2    1    2    0    0  0.00000000000E+00  0.00000000000E+00 -0.17660671425E+02  0.26682484967E+02  0.20001392172E+02 0.  0.
        -11    1    3    3    0    0  0.47013701859E+01  0.88263444864E+01 -0.89393949277E+01  0.13413426876E+02  0.51100000000E-03 0.  1.
         11    1    3    3    0    0 -0.47013701859E+01 -0.88263444864E+01 -0.87212764972E+01  0.13269058091E+02  0.51100000000E-03 0. -1.
<mgrwt>
<rscale>  0 0.20001392E+02</rscale>
<asrwt>0</asrwt>
<pdfrwt beam="1">  1        2 0.69398567E-03 0.20001392E+02</pdfrwt>
<pdfrwt beam="2">  1       -2 0.34110120E-02 0.20001392E+02</pdfrwt>
<totfact> 0.37100854E+06</totfact>
</mgrwt>
</event>
<event>
 5    1  0.4046313E-006  0.2000036E+02  0.7818608E-02  0.1745321E+00
         -2   -1    0    0    0  501 -0.00000000000E+00  0.00000000000E+00  0.74182607704E+02  0.74182607749E+02  0.26000000000E-02 0.  1.
          2   -1    0    0  501    0  0.00000000000E+00 -0.00000000000E+00 -0.13480717340E+01  0.13480742413E+01  0.26000000000E-02 0. -1.
       1023    2    1    2    0    0  0.00000000000E+00  0.00000000000E+00  0.72834535970E+02  0.75530681990E+02  0.20000357297E+02 0.  0.
        -11    1    3    3    0    0  0.38124817840E+01 -0.92449158838E+01  0.36452227011E+02  0.37799052123E+02  0.51100000000E-03 0.  1.
         11    1    3    3    0    0 -0.38124817840E+01  0.92449158838E+01  0.36382308959E+02  0.37731629868E+02  0.51100000000E-03 0. -1.
<mgrwt>
<rscale>  0 0.20000357E+02</rscale>
<asrwt>0</asrwt>
<pdfrwt beam="2">  1        2 0.20739584E-03 0.20000357E+02</pdfrwt>
<pdfrwt beam="1">  1       -2 0.11412710E-01 0.20000357E+02</pdfrwt>
<totfact> 0.31730997E+06</totfact>
</mgrwt>
</event>
<event>
 5    1  0.4046313E-006  0.2000166E+02  0.7818608E-02  0.1745295E+00
          2   -1    0    0  501    0  0.00000000000E+00  0.00000000000E+00  0.25163832357E+01  0.25163845789E+01  0.26000000000E-02 0. -1.
         -2   -1    0    0    0  501 -0.00000000000E+00 -0.00000000000E+00 -0.39746159003E+02  0.39746159088E+02  0.26000000000E-02 0.  1.
       1023    2    1    2    0    0  0.00000000000E+00  0.00000000000E+00 -0.37229775767E+02  0.42262543667E+02  0.20001659769E+02 0.  0.
        -11    1    3    3    0    0  0.27814390523E+00  0.99961880945E+01 -0.18352186978E+02  0.20899854248E+02  0.51100000000E-03 0. -1.
         11    1    3    3    0    0 -0.27814390523E+00 -0.99961880945E+01 -0.18877588789E+02  0.21362689419E+02  0.51100000000E-03 0.  1.
<mgrwt>
<rscale>  0 0.20001660E+02</rscale>
<asrwt>0</asrwt>
<pdfrwt beam="1">  1        2 0.38713602E-03 0.20001660E+02</pdfrwt>
<pdfrwt beam="2">  1       -2 0.61147934E-02 0.20001660E+02</pdfrwt>
<totfact> 0.34941468E+06</totfact>
</mgrwt>
</event>
<event>
 4    1  0.4046313E-006  0.2004048E+02  0.7818608E-02  0.1744524E+00
         -2   -1    0    0    0  501 -0.00000000000E+00  0.00000000000E+00  0.92652760326E+00  0.92653125128E+00  0.26000000000E-02 0.  1.
          2   -1    0    0  501    0  0.00000000000E+00 -0.00000000000E+00 -0.10836697209E+03  0.10836697213E+03  0.26000000000E-02 0. -1.
        -11    1    1    2    0    0  0.57660439503E+01 -0.81790444740E+01 -0.50933203367E+02  0.51906986397E+02  0.51100000000E-03 0. -1.
         11    1    1    2    0    0 -0.57660439503E+01  0.81790444740E+01 -0.56507241124E+02  0.57386516979E+02  0.51100000000E-03 0.  1.
<mgrwt>
<rscale>  0 0.20040478E+02</rscale>
<asrwt>0</asrwt>
<pdfrwt beam="2">  1        2 0.16671832E-01 0.20040478E+02</pdfrwt>
<pdfrwt beam="1">  1       -2 0.14254308E-03 0.20040478E+02</pdfrwt>
<totfact> 0.53509669E+06</totfact>
</mgrwt>
</event>
<event>
 5    1  0.4046313E-006  0.2000006E+02  0.7818608E-02  0.1745327E+00
          2   -1    0    0  501    0  0.00000000000E+00  0.00000000000E+00  0.39441288769E+01  0.39441297339E+01  0.26000000000E-02 0.  1.
         -2   -1    0    0    0  501 -0.00000000000E+00 -0.00000000000E+00 -0.25354278707E+02  0.25354278840E+02  0.26000000000E-02 0. -1.
       1023    2    1    2    0    0  0.00000000000E+00  0.00000000000E+00 -0.21410149830E+02  0.29298408574E+02  0.20000055731E+02 0.  0.
        -11    1    3    3    0    0  0.95237787264E+01 -0.30492064969E+01 -0.10738976107E+02  0.14673977974E+02  0.51100000000E-03 0. -1.
         11    1    3    3    0    0 -0.95237787264E+01  0.30492064969E+01 -0.10671173723E+02  0.14624430600E+02  0.51100000000E-03 0.  1.
<mgrwt>
<rscale>  0 0.20000056E+02</rscale>
<asrwt>0</asrwt>
<pdfrwt beam="1">  1        2 0.60678915E-03 0.20000056E+02</pdfrwt>
<pdfrwt beam="2">  1       -2 0.39006582E-02 0.20000056E+02</pdfrwt>
<totfact> 0.36660858E+06</totfact>
</mgrwt>
</event>
<event>
 5    1  0.4046313E-006  0.2000107E+02  0.7818608E-02  0.1745307E+00
         -2   -1    0    0    0  501 -0.00000000000E+00  0.00000000000E+00  0.26313475924E+02  0.26313476053E+02  0.26000000000E-02 0.  1.
          2   -1    0    0  501    0  0.00000000000E+00 -0.00000000000E+00 -0.38007390671E+01  0.38007399564E+01  0.26000000000E-02 0. -1.
       1023    2    1    2    0    0  0.00000000000E+00  0.00000000000E+00  0.22512736857E+02  0.30114216009E+02  0.20001067097E+02 0.  0.
        -11    1    3    3    0    0 -0.98597259886E+01  0.16695858558E+01  0.11113869442E+02  0.14950578842E+02  0.51100000000E-03 0. -1.
         11    1    3    3    0    0  0.98597259886E+01 -0.16695858558E+01  0.11398867415E+02  0.15163637166E+02  0.51100000000E-03 0.  1.
<mgrwt>
<rscale>  0 0.20001067E+02</rscale>
<asrwt>0</asrwt>
<pdfrwt beam="2">  1        2 0.58472915E-03 0.20001067E+02</pdfrwt>
<pdfrwt beam="1">  1       -2 0.40482272E-02 0.20001067E+02</pdfrwt>
<totfact> 0.36529109E+06</totfact>
</mgrwt>
</event>
<event>
 5    1  0.4046313E-006  0.2000022E+02  0.7818608E-02  0.1745324E+00
          2   -1    0    0  501    0  0.00000000000E+00  0.00000000000E+00  0.53576643643E+01  0.53576649952E+01  0.26000000000E-02 0. -1.
         -2   -1    0    0    0  501 -0.00000000000E+00 -0.00000000000E+00 -0.18665257256E+02  0.18665257437E+02  0.26000000000E-02 0.  1.
       1023    2    1    2    0    0  0.00000000000E+00  0.00000000000E+00 -0.13307592892E+02  0.24022922432E+02  0.20000219339E+02 0.  0.
        -11    1    3    3    0    0  0.96213142507E+01  0.27261685033E+01 -0.66809357450E+01  0.12026495138E+02  0.51100000000E-03 0.  1.
         11    1    3    3    0    0 -0.96213142507E+01 -0.27261685033E+01 -0.66266571467E+01  0.11996427294E+02  0.51100000000E-03 0. -1.
<mgrwt>
<rscale>  0 0.20000219E+02</rscale>
<asrwt>0</asrwt>
<pdfrwt beam="1">  1        2 0.82425613E-03 0.20000219E+02</pdfrwt>
<pdfrwt beam="2">  1       -2 0.28715781E-02 0.20000219E+02</pdfrwt>
<totfact> 0.37646317E+06</totfact>
</mgrwt>
</event>
<event>
 5    1  0.4046313E-006  0.2000096E+02  0.7818608E-02  0.1745309E+00
          2   -1    0    0  501    0  0.00000000000E+00  0.00000000000E+00  0.41599658596E+01  0.41599666721E+01  0.26000000000E-02 0.  1.
         -2   -1    0    0    0  501 -0.00000000000E+00 -0.00000000000E+00 -0.24040962775E+02  0.24040962916E+02  0.26000000000E-02 0. -1.
       1023    2    1    2    0    0  0.00000000000E+00  0.00000000000E+00 -0.19880996915E+02  0.28200929588E+02  0.20000959758E+02 0.  0.
        -11    1    3    3    0    0  0.96809312812E+01  0.25077062810E+01 -0.99066504193E+01  0.14076602717E+02  0.51100000000E-03 0. -1.
         11    1    3    3    0    0 -0.96809312812E+01 -0.25077062810E+01 -0.99743464961E+01  0.14124326871E+02  0.51100000000E-03 0.  1.
<mgrwt>
<rscale>  0 0.20000960E+02</rscale>
<asrwt>0</asrwt>
<pdfrwt beam="1">  1        2 0.63999484E-03 0.20000960E+02</pdfrwt>
<pdfrwt beam="2">  1       -2 0.36986096E-02 0.20000960E+02</pdfrwt>
<totfact> 0.36836711E+06</totfact>
</mgrwt>
</event>
<event>
 5    1  0.4046313E-006  0.2000336E+02  0.7818608E-02  0.1745261E+00
          2   -1    0    0  501    0  0.00000000000E+00  0.00000000000E+00  0.35672389261E+02  0.35672389356E+02  0.26000000000E-02 0. -1.
         -2   -1    0    0    0  501 -0.00000000000E+00 -0.00000000000E+00 -0.28042309782E+01  0.28042321835E+01  0.26000000000E-02 0.  1.
       1023    2    1    2    0    0  0.00000000000E+00  0.00000000000E+00  0.32868158283E+02  0.38476621540E+02  0.20003364121E+02 0.  0.
        -11    1    3    3    0    0 -0.99549616151E+01  0.94925165424E+00  0.16093752434E+02  0.18947591064E+02  0.51100000000E-03 0.  1.
         11    1    3    3    0    0  0.99549616151E+01 -0.94925165424E+00  0.16774405849E+02  0.19529030475E+02  0.51100000000E-03 0. -1.
<mgrwt>
<rscale>  0 0.20003364E+02</rscale>
<asrwt>0</asrwt>
<pdfrwt beam="1">  1        2 0.54880600E-02 0.20003364E+02</pdfrwt>
<pdfrwt beam="2">  1       -2 0.43142025E-03 0.20003364E+02</pdfrwt>
<totfact> 0.44234430E+06</totfact>
</mgrwt>
</event>
<event>
 5    1  0.4046313E-006  0.2000777E+02  0.7818608E-02  0.1745174E+00
         -2   -1    0    0    0  501 -0.00000000000E+00  0.00000000000E+00  0.19832476579E+02  0.19832476749E+02  0.26000000000E-02 0. -1.
          2   -1    0    0  501    0  0.00000000000E+00 -0.00000000000E+00 -0.50461548283E+01  0.50461554981E+01  0.26000000000E-02 0.  1.
       1023    2    1    2    0    0  0.00000000000E+00  0.00000000000E+00  0.14786321750E+02  0.24878632247E+02  0.20007774279E+02 0.  0.
        -11    1    3    3    0    0 -0.13486671138E+01  0.99115575824E+01  0.72178349260E+01  0.12335113213E+02  0.51100000000E-03 0. -1.
         11    1    3    3    0    0  0.13486671138E+01 -0.99115575824E+01  0.75684868243E+01  0.12543519034E+02  0.51100000000E-03 0.  1.
<mgrwt>
<rscale>  0 0.20007774E+02</rscale>
<asrwt>0</asrwt>
<pdfrwt beam="2">  1        2 0.77633157E-03 0.20007774E+02</pdfrwt>
<pdfrwt beam="1">  1       -2 0.30511503E-02 0.20007774E+02</pdfrwt>
<totfact> 0.37428558E+06</totfact>
</mgrwt>
</event>
<event>
 5    1  0.4046313E-006  0.2000130E+02  0.7818608E-02  0.1745302E+00
          2   -1    0    0  501    0  0.00000000000E+00  0.00000000000E+00  0.16467545382E+02  0.16467545587E+02  0.26000000000E-02 0. -1.
         -2   -1    0    0    0  501 -0.00000000000E+00 -0.00000000000E+00 -0.60733375093E+01  0.60733380658E+01  0.26000000000E-02 0.  1.
       1023    2    1    2    0    0  0.00000000000E+00  0.00000000000E+00  0.10394207873E+02  0.22540883653E+02  0.20001296922E+02 0.  0.
        -11    1    3    3    0    0 -0.48237610278E+00 -0.99886005806E+01  0.52987884449E+01  0.11317331289E+02  0.51100000000E-03 0. -1.
         11    1    3    3    0    0  0.48237610278E+00  0.99886005806E+01  0.50954194280E+01  0.11223552364E+02  0.51100000000E-03 0.  1.
<mgrwt>
<rscale>  0 0.20001297E+02</rscale>
<asrwt>0</asrwt>
<pdfrwt beam="1">  1        2 0.25334686E-02 0.20001297E+02</pdfrwt>
<pdfrwt beam="2">  1       -2 0.93435966E-03 0.20001297E+02</pdfrwt>
<totfact> 0.40989853E+06</totfact>
</mgrwt>
</event>
<event>
 5    1  0.4046313E-006  0.2000036E+02  0.7818608E-02  0.1745321E+00
          2   -1    0    0  501    0  0.00000000000E+00  0.00000000000E+00  0.10855275508E+01  0.10855306645E+01  0.26000000000E-02 0. -1.
         -2   -1    0    0    0  501 -0.00000000000E+00 -0.00000000000E+00 -0.92124279944E+02  0.92124279981E+02  0.26000000000E-02 0.  1.
       1023    2    1    2    0    0  0.00000000000E+00  0.00000000000E+00 -0.91038752393E+02  0.93209810645E+02  0.20000359077E+02 0.  0.
        -11    1    3    3    0    0  0.82300876009E+01  0.56806007899E+01 -0.45496884872E+02  0.46582937870E+02  0.51100000000E-03 0.  1.
         11    1    3    3    0    0 -0.82300876009E+01 -0.56806007899E+01 -0.45541867521E+02  0.46626872776E+02  0.51100000000E-03 0. -1.
<mgrwt>
<rscale>  0 0.20000359E+02</rscale>
<asrwt>0</asrwt>
<pdfrwt beam="1">  1        2 0.16700455E-03 0.20000359E+02</pdfrwt>
<pdfrwt beam="2">  1       -2 0.14172960E-01 0.20000359E+02</pdfrwt>
<totfact> 0.30312858E+06</totfact>
</mgrwt>
</event>
<event>
 5    1  0.4046313E-006  0.2000041E+02  0.7818608E-02  0.1745320E+00
          2   -1    0    0  501    0  0.00000000000E+00  0.00000000000E+00  0.57088886000E+01  0.57088891921E+01  0.26000000000E-02 0. -1.
         -2   -1    0    0    0  501 -0.00000000000E+00 -0.00000000000E+00 -0.17517265471E+02  0.17517265664E+02  0.26000000000E-02 0.  1.
       1023    2    1    2    0    0  0.00000000000E+00  0.00000000000E+00 -0.11808376871E+02  0.23226154856E+02  0.20000412623E+02 0.  0.
        -11    1    3    3    0    0 -0.82435464736E+01  0.56610799221E+01 -0.59222411156E+01  0.11622255566E+02  0.51100000000E-03 0.  1.
         11    1    3    3    0    0  0.82435464736E+01 -0.56610799221E+01 -0.58861357557E+01  0.11603899290E+02  0.51100000000E-03 0. -1.
<mgrwt>
<rscale>  0 0.20000413E+02</rscale>
<asrwt>0</asrwt>
<pdfrwt beam="1">  1        2 0.87829062E-03 0.20000413E+02</pdfrwt>
<pdfrwt beam="2">  1       -2 0.26949640E-02 0.20000413E+02</pdfrwt>
<totfact> 0.37837742E+06</totfact>
</mgrwt>
</event>
<event>
 5    1  0.4046313E-006  0.2000373E+02  0.7818608E-02  0.1745254E+00
          2   -1    0    0  501    0  0.00000000000E+00  0.00000000000E+00  0.10122042063E+01  0.10122075456E+01  0.26000000000E-02 0.  1.
         -2   -1    0    0    0  501 -0.00000000000E+00 -0.00000000000E+00 -0.98831026862E+02  0.98831026896E+02  0.26000000000E-02 0. -1.
       1023    2    1    2    0    0  0.00000000000E+00  0.00000000000E+00 -0.97818822655E+02  0.99843234441E+02  0.20003734603E+02 0.  0.
        -11    1    3    3    0    0  0.88591995188E+01  0.46422886223E+01 -0.48744663981E+02  0.49760210275E+02  0.51100000000E-03 0.  1.
         11    1    3    3    0    0 -0.88591995188E+01 -0.46422886223E+01 -0.49074158675E+02  0.50083024167E+02  0.51100000000E-03 0. -1.
<mgrwt>
<rscale>  0 0.20003735E+02</rscale>
<asrwt>0</asrwt>
<pdfrwt beam="1">  1        2 0.15572406E-03 0.20003735E+02</pdfrwt>
<pdfrwt beam="2">  1       -2 0.15204766E-01 0.20003735E+02</pdfrwt>
<totfact> 0.29803781E+06</totfact>
</mgrwt>
</event>
<event>
 5    1  0.4046313E-006  0.2000824E+02  0.7818608E-02  0.1745164E+00
         -2   -1    0    0    0  501 -0.00000000000E+00  0.00000000000E+00  0.15522883643E+02  0.15522883860E+02  0.26000000000E-02 0. -1.
          2   -1    0    0  501    0  0.00000000000E+00 -0.00000000000E+00 -0.64474102559E+01  0.64474107801E+01  0.26000000000E-02 0.  1.
       1023    2    1    2    0    0  0.00000000000E+00  0.00000000000E+00  0.90754733867E+01  0.21970294640E+02  0.20008239038E+02 0.  0.
        -11    1    3    3    0    0  0.28410019534E+01 -0.95886274498E+01  0.48268809700E+01  0.11104586828E+02  0.51100000000E-03 0. -1.
         11    1    3    3    0    0 -0.28410019534E+01  0.95886274498E+01  0.42485924167E+01  0.10865707812E+02  0.51100000000E-03 0.  1.
<mgrwt>
<rscale>  0 0.20008239E+02</rscale>
<asrwt>0</asrwt>
<pdfrwt beam="2">  1        2 0.99190932E-03 0.20008239E+02</pdfrwt>
<pdfrwt beam="1">  1       -2 0.23881360E-02 0.20008239E+02</pdfrwt>
<totfact> 0.38163640E+06</totfact>
</mgrwt>
</event>
<event>
 5    1  0.4046313E-006  0.2000025E+02  0.7818608E-02  0.1745323E+00
          2   -1    0    0  501    0  0.00000000000E+00  0.00000000000E+00  0.87656595628E+01  0.87656599484E+01  0.26000000000E-02 0. -1.
         -2   -1    0    0    0  501 -0.00000000000E+00 -0.00000000000E+00 -0.11408437511E+02  0.11408437808E+02  0.26000000000E-02 0.  1.
       1023    2    1    2    0    0  0.00000000000E+00  0.00000000000E+00 -0.26427779485E+01  0.20174097756E+02  0.20000248623E+02 0.  0.
        -11    1    3    3    0    0  0.81584849586E+01  0.57828709060E+01 -0.13250606109E+01  0.10087529857E+02  0.51100000000E-03 0.  1.
         11    1    3    3    0    0 -0.81584849586E+01 -0.57828709060E+01 -0.13177173376E+01  0.10086567899E+02  0.51100000000E-03 0. -1.
<mgrwt>
<rscale>  0 0.20000249E+02</rscale>
<asrwt>0</asrwt>
<pdfrwt beam="1">  1        2 0.13485631E-02 0.20000249E+02</pdfrwt>
<pdfrwt beam="2">  1       -2 0.17551443E-02 0.20000249E+02</pdfrwt>
<totfact> 0.39083457E+06</totfact>
</mgrwt>
</event>
<event>
 5    1  0.4046313E-006  0.2000647E+02  0.7818608E-02  0.1745199E+00
          2   -1    0    0  501    0  0.00000000000E+00  0.00000000000E+00  0.79973883041E+02  0.79973883084E+02  0.26000000000E-02 0. -1.
         -2   -1    0    0    0  501 -0.00000000000E+00 -0.00000000000E+00 -0.12512162693E+01  0.12512189707E+01  0.26000000000E-02 0.  1.
       1023    2    1    2    0    0  0.00000000000E+00  0.00000000000E+00  0.78722666772E+02  0.81225102054E+02  0.20006472454E+02 0.  0.
        -11    1    3    3    0    0 -0.83595793096E+01 -0.54938300405E+01  0.39361240442E+02  0.40612460946E+02  0.51100000000E-03 0. -1.
         11    1    3    3    0    0  0.83595793096E+01  0.54938300405E+01  0.39361426330E+02  0.40612641108E+02  0.51100000000E-03 0.  1.
<mgrwt>
<rscale>  0 0.20006472E+02</rscale>
<asrwt>0</asrwt>
<pdfrwt beam="1">  1        2 0.12303671E-01 0.20006472E+02</pdfrwt>
<pdfrwt beam="2">  1       -2 0.19249507E-03 0.20006472E+02</pdfrwt>
<totfact> 0.50260290E+06</totfact>
</mgrwt>
</event>
<event>
 5    1  0.4046313E-006  0.2000070E+02  0.7818608E-02  0.1745314E+00
          2   -1    0    0  501    0  0.00000000000E+00  0.00000000000E+00  0.53870833421E+02  0.53870833483E+02  0.26000000000E-02 0.  1.
         -2   -1    0    0    0  501 -0.00000000000E+00 -0.00000000000E+00 -0.18564201720E+01  0.18564219927E+01  0.26000000000E-02 0. -1.
       1023    2    1    2    0    0  0.00000000000E+00  0.00000000000E+00  0.52014413249E+02  0.55727255476E+02  0.20000695420E+02 0.  0.
        -11    1    3    3    0    0 -0.16548223874E+01 -0.98623749345E+01  0.25880207244E+02  0.27745089723E+02  0.51100000000E-03 0. -1.
         11    1    3    3    0    0  0.16548223874E+01  0.98623749345E+01  0.26134206005E+02  0.27982165753E+02  0.51100000000E-03 0.  1.
<mgrwt>
<rscale>  0 0.20000695E+02</rscale>
<asrwt>0</asrwt>
<pdfrwt beam="1">  1        2 0.82878199E-02 0.20000695E+02</pdfrwt>
<pdfrwt beam="2">  1       -2 0.28560327E-03 0.20000695E+02</pdfrwt>
<totfact> 0.46860953E+06</totfact>
</mgrwt>
</event>
<event>
 5    1  0.4046313E-006  0.2000021E+02  0.7818608E-02  0.1745324E+00
         -2   -1    0    0    0  501 -0.00000000000E+00  0.00000000000E+00  0.30099837674E+01  0.30099848903E+01  0.26000000000E-02 0. -1.
          2   -1    0    0  501    0  0.00000000000E+00 -0.00000000000E+00 -0.33223456489E+02  0.33223456591E+02  0.26000000000E-02 0.  1.
       1023    2    1    2    0    0  0.00000000000E+00  0.00000000000E+00 -0.30213472721E+02  0.36233441481E+02  0.20000208690E+02 0.  0.
        -11    1    3    3    0    0  0.99663636766E+01 -0.82067623807E+00 -0.15130511972E+02  0.18136546177E+02  0.51100000000E-03 0.  1.
         11    1    3    3    0    0 -0.99663636766E+01  0.82067623807E+00 -0.15082960749E+02  0.18096895304E+02  0.51100000000E-03 0. -1.
<mgrwt>
<rscale>  0 0.20000209E+02</rscale>
<asrwt>0</asrwt>
<pdfrwt beam="2">  1        2 0.51113008E-02 0.20000209E+02</pdfrwt>
<pdfrwt beam="1">  1       -2 0.46307454E-03 0.20000209E+02</pdfrwt>
<totfact> 0.43876109E+06</totfact>
</mgrwt>
</event>
<event>
 5    1  0.4046313E-006  0.2000178E+02  0.7818608E-02  0.1745293E+00
          2   -1    0    0  501    0  0.00000000000E+00  0.00000000000E+00  0.10260501014E+01  0.10260533956E+01  0.26000000000E-02 0. -1.
         -2   -1    0    0    0  501 -0.00000000000E+00 -0.00000000000E+00 -0.97478352084E+02  0.97478352119E+02  0.26000000000E-02 0.  1.
       1023    2    1    2    0    0  0.00000000000E+00  0.00000000000E+00 -0.96452301982E+02  0.98504405514E+02  0.20001783620E+02 0.  0.
        -11    1    3    3    0    0 -0.93339520095E+01 -0.35908548729E+01 -0.48376973221E+02  0.49399882966E+02  0.51100000000E-03 0. -1.
         11    1    3    3    0    0  0.93339520095E+01  0.35908548729E+01 -0.48075328762E+02  0.49104522548E+02  0.51100000000E-03 0.  1.
<mgrwt>
<rscale>  0 0.20001784E+02</rscale>
<asrwt>0</asrwt>
<pdfrwt beam="1">  1        2 0.15785419E-03 0.20001784E+02</pdfrwt>
<pdfrwt beam="2">  1       -2 0.14996663E-01 0.20001784E+02</pdfrwt>
<totfact> 0.29909262E+06</totfact>
</mgrwt>
</event>
<event>
 4    1  0.4046313E-006  0.2001273E+02  0.7818608E-02  0.1745075E+00
          2   -1    0    0  501    0  0.00000000000E+00  0.00000000000E+00  0.10925152683E+03  0.10925152686E+03  0.26000000000E-02 0. -1.
         -2   -1    0    0    0  501 -0.00000000000E+00 -0.00000000000E+00 -0.91648286625E+00  0.91648655425E+00  0.26000000000E-02 0.  1.
        -11    1    1    2    0    0 -0.88822360031E+01 -0.45944286515E+01  0.56109634992E+02  0.56993806946E+02  0.51100000000E-03 0. -1.
         11    1    1    2    0    0  0.88822360031E+01  0.45944286515E+01  0.52225408968E+02  0.53174206465E+02  0.51100000000E-03 0.  1.
<mgrwt>
<rscale>  0 0.20012732E+02</rscale>
<asrwt>0</asrwt>
<pdfrwt beam="1">  1        2 0.16807915E-01 0.20012732E+02</pdfrwt>
<pdfrwt beam="2">  1       -2 0.14099775E-03 0.20012732E+02</pdfrwt>
<totfact> 0.53776700E+06</totfact>
</mgrwt>
</event>
<event>
 5    1  0.4046313E-006  0.2000425E+02  0.7818608E-02  0.1745244E+00
          2   -1    0    0  501    0  0.00000000000E+00  0.00000000000E+00  0.67924381275E+02  0.67924381325E+02  0.26000000000E-02 0. -1.
         -2   -1    0    0    0  501 -0.00000000000E+00 -0.00000000000E+00 -0.14728501042E+01  0.14728523990E+01  0.26000000000E-02 0.  1.
       1023    2    1    2    0    0  0.00000000000E+00  0.00000000000E+00  0.66451531171E+02  0.69397233724E+02  0.20004250887E+02 0.  0.
        -11    1    3    3    0    0  0.76563804245E+01 -0.64357732919E+01  0.33030319225E+02  0.34511466608E+02  0.51100000000E-03 0.  1.
         11    1    3    3    0    0 -0.76563804245E+01  0.64357732919E+01  0.33421211946E+02  0.34885767116E+02  0.51100000000E-03 0. -1.
<mgrwt>
<rscale>  0 0.20004251E+02</rscale>
<asrwt>0</asrwt>
<pdfrwt beam="1">  1        2 0.10449906E-01 0.20004251E+02</pdfrwt>
<pdfrwt beam="2">  1       -2 0.22659248E-03 0.20004251E+02</pdfrwt>
<totfact> 0.48726046E+06</totfact>
</mgrwt>
</event>
<event>
 4    1  0.4046313E-006  0.2003209E+02  0.7818608E-02  0.1744691E+00
          2   -1    0    0  501    0  0.00000000000E+00  0.00000000000E+00  0.27253112024E+02  0.27253112148E+02  0.26000000000E-02 0. -1.
         -2   -1    0    0    0  501 -0.00000000000E+00 -0.00000000000E+00 -0.36810890562E+01  0.36810899744E+01  0.26000000000E-02 0.  1.
        -11    1    1    2    0    0 -0.98449419208E+01 -0.18077206683E+01  0.12343675791E+02  0.15892044165E+02  0.51100000000E-03 0. -1.
         11    1    1    2    0    0  0.98449419208E+01  0.18077206683E+01  0.11228347177E+02  0.15042157958E+02  0.51100000000E-03 0.  1.
<mgrwt>
<rscale>  0 0.20032089E+02</rscale>
<asrwt>0</asrwt>
<pdfrwt beam="1">  1        2 0.41927865E-02 0.20032089E+02</pdfrwt>
<pdfrwt beam="2">  1       -2 0.56632148E-03 0.20032089E+02</pdfrwt>
<totfact> 0.42776676E+06</totfact>
</mgrwt>
</event>
<event>
 5    1  0.4046313E-006  0.2001141E+02  0.7818608E-02  0.1745101E+00
         -2   -1    0    0    0  501 -0.00000000000E+00  0.00000000000E+00  0.92188000365E+01  0.92188004031E+01  0.26000000000E-02 0.  1.
          2   -1    0    0  501    0  0.00000000000E+00 -0.00000000000E+00 -0.10859783059E+02  0.10859783370E+02  0.26000000000E-02 0. -1.
       1023    2    1    2    0    0  0.00000000000E+00  0.00000000000E+00 -0.16409830221E+01  0.20078583773E+02  0.20011414269E+02 0.  0.
        -11    1    3    3    0    0 -0.28760168619E+00 -0.99968292189E+01 -0.51145469428E+00  0.10014034917E+02  0.51100000000E-03 0. -1.
         11    1    3    3    0    0  0.28760168619E+00  0.99968292189E+01 -0.11295283279E+01  0.10064548856E+02  0.51100000000E-03 0.  1.
<mgrwt>
<rscale>  0 0.20011414E+02</rscale>
<asrwt>0</asrwt>
<pdfrwt beam="2">  1        2 0.16707359E-02 0.20011414E+02</pdfrwt>
<pdfrwt beam="1">  1       -2 0.14182770E-02 0.20011414E+02</pdfrwt>
<totfact> 0.39651579E+06</totfact>
</mgrwt>
</event>
<event>
 5    1  0.4046313E-006  0.2000138E+02  0.7818608E-02  0.1745301E+00
          2   -1    0    0  501    0  0.00000000000E+00  0.00000000000E+00  0.12816058584E+01  0.12816084958E+01  0.26000000000E-02 0. -1.
         -2   -1    0    0    0  501 -0.00000000000E+00 -0.00000000000E+00 -0.78037807866E+02  0.78037807909E+02  0.26000000000E-02 0.  1.
       1023    2    1    2    0    0  0.00000000000E+00  0.00000000000E+00 -0.76756202007E+02  0.79319416405E+02  0.20001381758E+02 0.  0.
        -11    1    3    3    0    0  0.52469207025E+01 -0.85136751472E+01 -0.38254181997E+02  0.39539793650E+02  0.51100000000E-03 0.  1.
         11    1    3    3    0    0 -0.52469207025E+01  0.85136751472E+01 -0.38502020010E+02  0.39779622754E+02  0.51100000000E-03 0. -1.
<mgrwt>
<rscale>  0 0.20001382E+02</rscale>
<asrwt>0</asrwt>
<pdfrwt beam="1">  1        2 0.19717040E-03 0.20001382E+02</pdfrwt>
<pdfrwt beam="2">  1       -2 0.12005813E-01 0.20001382E+02</pdfrwt>
<totfact> 0.31411377E+06</totfact>
</mgrwt>
</event>
<event>
 5    1  0.4046313E-006  0.2000020E+02  0.7818608E-02  0.1745324E+00
         -2   -1    0    0    0  501 -0.00000000000E+00  0.00000000000E+00  0.62527079020E+01  0.62527084425E+01  0.26000000000E-02 0. -1.
          2   -1    0    0  501    0  0.00000000000E+00 -0.00000000000E+00 -0.15993390728E+02  0.15993390940E+02  0.26000000000E-02 0.  1.
       1023    2    1    2    0    0  0.00000000000E+00  0.00000000000E+00 -0.97406828263E+01  0.22246099382E+02  0.20000200894E+02 0.  0.
        -11    1    3    3    0    0 -0.48570900516E+01 -0.87413177815E+01 -0.48626062243E+01  0.11119662759E+02  0.51100000000E-03 0.  1.
         11    1    3    3    0    0  0.48570900516E+01  0.87413177815E+01 -0.48780766020E+01  0.11126436623E+02  0.51100000000E-03 0. -1.
<mgrwt>
<rscale>  0 0.20000201E+02</rscale>
<asrwt>0</asrwt>
<pdfrwt beam="2">  1        2 0.24605217E-02 0.20000201E+02</pdfrwt>
<pdfrwt beam="1">  1       -2 0.96195512E-03 0.20000201E+02</pdfrwt>
<totfact> 0.40897752E+06</totfact>
</mgrwt>
</event>
<event>
 5    1  0.4046313E-006  0.2000126E+02  0.7818608E-02  0.1745303E+00
         -2   -1    0    0    0  501 -0.00000000000E+00  0.00000000000E+00  0.16243801747E+02  0.16243801955E+02  0.26000000000E-02 0. -1.
          2   -1    0    0  501    0  0.00000000000E+00 -0.00000000000E+00 -0.61569713181E+01  0.61569718670E+01  0.26000000000E-02 0.  1.
       1023    2    1    2    0    0  0.00000000000E+00  0.00000000000E+00  0.10086830429E+02  0.22400773822E+02  0.20001262953E+02 0.  0.
        -11    1    3    3    0    0  0.69754124801E+01 -0.71658505573E+01  0.49508148393E+01  0.11158689946E+02  0.51100000000E-03 0.  1.
         11    1    3    3    0    0 -0.69754124801E+01  0.71658505573E+01  0.51360155893E+01  0.11242083876E+02  0.51100000000E-03 0. -1.
<mgrwt>
<rscale>  0 0.20001263E+02</rscale>
<asrwt>0</asrwt>
<pdfrwt beam="2">  1        2 0.94722643E-03 0.20001263E+02</pdfrwt>
<pdfrwt beam="1">  1       -2 0.24990464E-02 0.20001263E+02</pdfrwt>
<totfact> 0.38058975E+06</totfact>
</mgrwt>
</event>
<event>
 5    1  0.4046313E-006  0.2000010E+02  0.7818608E-02  0.1745326E+00
          2   -1    0    0  501    0  0.00000000000E+00  0.00000000000E+00  0.11219016291E+03  0.11219016294E+03  0.26000000000E-02 0. -1.
         -2   -1    0    0    0  501 -0.00000000000E+00 -0.00000000000E+00 -0.89135100089E+00  0.89135479288E+00  0.26000000000E-02 0.  1.
       1023    2    1    2    0    0  0.00000000000E+00  0.00000000000E+00  0.11129881191E+03  0.11308151774E+03  0.20000103011E+02 0.  0.
        -11    1    3    3    0    0 -0.29805451812E+00 -0.99955715210E+01  0.55803557337E+02  0.56692480085E+02  0.51100000000E-03 0. -1.
         11    1    3    3    0    0  0.29805451812E+00  0.99955715210E+01  0.55495254577E+02  0.56389037652E+02  0.51100000000E-03 0.  1.
<mgrwt>
<rscale>  0 0.20000103E+02</rscale>
<asrwt>0</asrwt>
<pdfrwt beam="1">  1        2 0.17260026E-01 0.20000103E+02</pdfrwt>
<pdfrwt beam="2">  1       -2 0.13713121E-03 0.20000103E+02</pdfrwt>
<totfact> 0.54193775E+06</totfact>
</mgrwt>
</event>
<event>
 5    1  0.4046313E-006  0.2000095E+02  0.7818608E-02  0.1745309E+00
         -2   -1    0    0    0  501 -0.00000000000E+00  0.00000000000E+00  0.32305685917E+02  0.32305686021E+02  0.26000000000E-02 0.  1.
          2   -1    0    0  501    0  0.00000000000E+00 -0.00000000000E+00 -0.30957228927E+01  0.30957239845E+01  0.26000000000E-02 0. -1.
       1023    2    1    2    0    0  0.00000000000E+00  0.00000000000E+00  0.29209963024E+02  0.35401410006E+02  0.20000947241E+02 0.  0.
        -11    1    3    3    0    0 -0.32242920823E+01 -0.94660724538E+01  0.14458112707E+02  0.17579522475E+02  0.51100000000E-03 0. -1.
         11    1    3    3    0    0  0.32242920823E+01  0.94660724538E+01  0.14751850317E+02  0.17821887531E+02  0.51100000000E-03 0.  1.
<mgrwt>
<rscale>  0 0.20000947E+02</rscale>
<asrwt>0</asrwt>
<pdfrwt beam="2">  1        2 0.47626516E-03 0.20000947E+02</pdfrwt>
<pdfrwt beam="1">  1       -2 0.49701056E-02 0.20000947E+02</pdfrwt>
<totfact> 0.35782313E+06</totfact>
</mgrwt>
</event>
<event>
 5    1  0.4046313E-006  0.2000823E+02  0.7818608E-02  0.1745165E+00
          2   -1    0    0  501    0  0.00000000000E+00  0.00000000000E+00  0.59428217984E+02  0.59428218041E+02  0.26000000000E-02 0. -1.
         -2   -1    0    0    0  501 -0.00000000000E+00 -0.00000000000E+00 -0.16840856191E+01  0.16840876261E+01  0.26000000000E-02 0.  1.
       1023    2    1    2    0    0  0.00000000000E+00  0.00000000000E+00  0.57744132365E+02  0.61112305667E+02  0.20008225343E+02 0.  0.
        -11    1    3    3    0    0 -0.27716062945E+01 -0.96116622674E+01  0.28480713650E+02  0.30186369494E+02  0.51100000000E-03 0. -1.
         11    1    3    3    0    0  0.27716062945E+01  0.96116622674E+01  0.29263418716E+02  0.30925936173E+02  0.51100000000E-03 0.  1.
<mgrwt>
<rscale>  0 0.20008225E+02</rscale>
<asrwt>0</asrwt>
<pdfrwt beam="1">  1        2 0.91428014E-02 0.20008225E+02</pdfrwt>
<pdfrwt beam="2">  1       -2 0.25909030E-03 0.20008225E+02</pdfrwt>
<totfact> 0.47577251E+06</totfact>
</mgrwt>
</event>
<event>
 5    1  0.4046313E-006  0.2000205E+02  0.7818608E-02  0.1745287E+00
          2   -1    0    0  501    0  0.00000000000E+00  0.00000000000E+00  0.78218533621E+01  0.78218537942E+01  0.26000000000E-02 0. -1.
         -2   -1    0    0    0  501 -0.00000000000E+00 -0.00000000000E+00 -0.12787312152E+02  0.12787312416E+02  0.26000000000E-02 0.  1.
       1023    2    1    2    0    0  0.00000000000E+00  0.00000000000E+00 -0.49654587894E+01  0.20609166210E+02  0.20002048667E+02 0.  0.
        -11    1    3    3    0    0 -0.48018361818E+01 -0.87721825347E+01 -0.23714211455E+01  0.10277765110E+02  0.51100000000E-03 0. -1.
         11    1    3    3    0    0  0.48018361818E+01  0.87721825347E+01 -0.25940376439E+01  0.10331401100E+02  0.51100000000E-03 0.  1.
<mgrwt>
<rscale>  0 0.20002049E+02</rscale>
<asrwt>0</asrwt>
<pdfrwt beam="1">  1        2 0.12033621E-02 0.20002049E+02</pdfrwt>
<pdfrwt beam="2">  1       -2 0.19672788E-02 0.20002049E+02</pdfrwt>
<totfact> 0.38749464E+06</totfact>
</mgrwt>
</event>
<event>
 5    1  0.4046313E-006  0.2000018E+02  0.7818608E-02  0.1745324E+00
          2   -1    0    0  501    0  0.00000000000E+00  0.00000000000E+00  0.30337885704E+02  0.30337885816E+02  0.26000000000E-02 0. -1.
         -2   -1    0    0    0  501 -0.00000000000E+00 -0.00000000000E+00 -0.32962684093E+01  0.32962694347E+01  0.26000000000E-02 0.  1.
       1023    2    1    2    0    0  0.00000000000E+00  0.00000000000E+00  0.27041617295E+02  0.33634155250E+02  0.20000183336E+02 0.  0.
        -11    1    3    3    0    0  0.99506943700E+00  0.99504463752E+01  0.13549291281E+02  0.16839977456E+02  0.51100000000E-03 0.  1.
         11    1    3    3    0    0 -0.99506943700E+00 -0.99504463752E+01  0.13492326014E+02  0.16794177794E+02  0.51100000000E-03 0. -1.
<mgrwt>
<rscale>  0 0.20000183E+02</rscale>
<asrwt>0</asrwt>
<pdfrwt beam="1">  1        2 0.46673673E-02 0.20000183E+02</pdfrwt>
<pdfrwt beam="2">  1       -2 0.50711828E-03 0.20000183E+02</pdfrwt>
<totfact> 0.43425866E+06</totfact>
</mgrwt>
</event>
<event>
 5    1  0.4046313E-006  0.2000068E+02  0.7818608E-02  0.1745315E+00
          2   -1    0    0  501    0  0.00000000000E+00  0.00000000000E+00  0.71591857757E+01  0.71591862478E+01  0.26000000000E-02 0. -1.
         -2   -1    0    0    0  501 -0.00000000000E+00 -0.00000000000E+00 -0.13969012743E+02  0.13969012985E+02  0.26000000000E-02 0.  1.
       1023    2    1    2    0    0  0.00000000000E+00  0.00000000000E+00 -0.68098269671E+01  0.21128199233E+02  0.20000676476E+02 0.  0.
        -11    1    3    3    0    0 -0.98727560780E+01  0.15923077739E+01 -0.34019277591E+01  0.10563137288E+02  0.51100000000E-03 0. -1.
         11    1    3    3    0    0  0.98727560780E+01 -0.15923077739E+01 -0.34078992080E+01  0.10565061945E+02  0.51100000000E-03 0.  1.
<mgrwt>
<rscale>  0 0.20000676E+02</rscale>
<asrwt>0</asrwt>
<pdfrwt beam="1">  1        2 0.11014133E-02 0.20000676E+02</pdfrwt>
<pdfrwt beam="2">  1       -2 0.21490789E-02 0.20000676E+02</pdfrwt>
<totfact> 0.38501156E+06</totfact>
</mgrwt>
</event>
<event>
 5    1  0.4046313E-006  0.2000619E+02  0.7818608E-02  0.1745205E+00
         -2   -1    0    0    0  501 -0.00000000000E+00  0.00000000000E+00  0.81535649940E+01  0.81535654086E+01  0.26000000000E-02 0.  1.
          2   -1    0    0  501    0  0.00000000000E+00 -0.00000000000E+00 -0.12272163776E+02  0.12272164051E+02  0.26000000000E-02 0. -1.
       1023    2    1    2    0    0  0.00000000000E+00  0.00000000000E+00 -0.41185987818E+01  0.20425729460E+02  0.20006188244E+02 0.  0.
        -11    1    3    3    0    0  0.13405297882E+01 -0.99126551108E+01 -0.19936049448E+01  0.10199618248E+02  0.51100000000E-03 0. -1.
         11    1    3    3    0    0 -0.13405297882E+01  0.99126551108E+01 -0.21249938370E+01  0.10226111212E+02  0.51100000000E-03 0.  1.
<mgrwt>
<rscale>  0 0.20006188E+02</rscale>
<asrwt>0</asrwt>
<pdfrwt beam="2">  1        2 0.18880253E-02 0.20006188E+02</pdfrwt>
<pdfrwt beam="1">  1       -2 0.12543947E-02 0.20006188E+02</pdfrwt>
<totfact> 0.40037914E+06</totfact>
</mgrwt>
</event>
<event>
 5    1  0.4046313E-006  0.2000102E+02  0.7818608E-02  0.1745308E+00
         -2   -1    0    0    0  501 -0.00000000000E+00  0.00000000000E+00  0.29343267438E+01  0.29343278956E+01  0.26000000000E-02 0.  1.
          2   -1    0    0  501    0  0.00000000000E+00 -0.00000000000E+00 -0.34082833754E+02  0.34082833853E+02  0.26000000000E-02 0. -1.
       1023    2    1    2    0    0  0.00000000000E+00  0.00000000000E+00 -0.31148507010E+02  0.37017161749E+02  0.20001019348E+02 0.  0.
        -11    1    3    3    0    0 -0.88900100881E+01 -0.45798464626E+01 -0.15474235247E+02  0.18424419386E+02  0.51100000000E-03 0.  1.
         11    1    3    3    0    0  0.88900100881E+01  0.45798464626E+01 -0.15674271763E+02  0.18592742363E+02  0.51100000000E-03 0. -1.
<mgrwt>
<rscale>  0 0.20001019E+02</rscale>
<asrwt>0</asrwt>
<pdfrwt beam="2">  1        2 0.52435127E-02 0.20001019E+02</pdfrwt>
<pdfrwt beam="1">  1       -2 0.45143500E-03 0.20001019E+02</pdfrwt>
<totfact> 0.44004122E+06</totfact>
</mgrwt>
</event>
<event>
 5    1  0.4046313E-006  0.2000125E+02  0.7818608E-02  0.1745303E+00
         -2   -1    0    0    0  501 -0.00000000000E+00  0.00000000000E+00  0.26549288003E+02  0.26549288130E+02  0.26000000000E-02 0. -1.
          2   -1    0    0  501    0  0.00000000000E+00 -0.00000000000E+00 -0.37670506590E+01  0.37670515563E+01  0.26000000000E-02 0.  1.
       1023    2    1    2    0    0  0.00000000000E+00  0.00000000000E+00  0.22782237343E+02  0.30316339686E+02  0.20001252801E+02 0.  0.
        -11    1    3    3    0    0  0.20962933937E+01  0.97782882236E+01  0.11476344311E+02  0.15222215528E+02  0.51100000000E-03 0.  1.
         11    1    3    3    0    0 -0.20962933937E+01 -0.97782882236E+01  0.11305893032E+02  0.15094124158E+02  0.51100000000E-03 0. -1.
<mgrwt>
<rscale>  0 0.20001253E+02</rscale>
<asrwt>0</asrwt>
<pdfrwt beam="2">  1        2 0.57954632E-03 0.20001253E+02</pdfrwt>
<pdfrwt beam="1">  1       -2 0.40845060E-02 0.20001253E+02</pdfrwt>
<totfact> 0.36497375E+06</totfact>
</mgrwt>
</event>
<event>
 5    1  0.4046313E-006  0.2000070E+02  0.7818608E-02  0.1745314E+00
         -2   -1    0    0    0  501 -0.00000000000E+00  0.00000000000E+00  0.31489097893E+02  0.31489098001E+02  0.26000000000E-02 0.  1.
          2   -1    0    0  501    0  0.00000000000E+00 -0.00000000000E+00 -0.31759234004E+01  0.31759244647E+01  0.26000000000E-02 0. -1.
       1023    2    1    2    0    0  0.00000000000E+00  0.00000000000E+00  0.28313174493E+02  0.34665022465E+02  0.20000698304E+02 0.  0.
        -11    1    3    3    0    0 -0.57001694478E+01 -0.82165978612E+01  0.14068709907E+02  0.17260736104E+02  0.51100000000E-03 0.  1.
         11    1    3    3    0    0  0.57001694478E+01  0.82165978612E+01  0.14244464586E+02  0.17404286361E+02  0.51100000000E-03 0. -1.
<mgrwt>
<rscale>  0 0.20000698E+02</rscale>
<asrwt>0</asrwt>
<pdfrwt beam="2">  1        2 0.48860371E-03 0.20000698E+02</pdfrwt>
<pdfrwt beam="1">  1       -2 0.48444765E-02 0.20000698E+02</pdfrwt>
<totfact> 0.35880675E+06</totfact>
</mgrwt>
</event>
<event>
 5    1  0.4046313E-006  0.2000004E+02  0.7818608E-02  0.1745327E+00
         -2   -1    0    0    0  501 -0.00000000000E+00  0.00000000000E+00  0.96842062531E+01  0.96842066021E+01  0.26000000000E-02 0.  1.
          2   -1    0    0  501    0  0.00000000000E+00 -0.00000000000E+00 -0.10326130548E+02  0.10326130876E+02  0.26000000000E-02 0. -1.
       1023    2    1    2    0    0  0.00000000000E+00  0.00000000000E+00 -0.64192429531E+00  0.20010337478E+02  0.20000038479E+02 0.  0.
        -11    1    3    3    0    0  0.64198135393E+01 -0.76672064811E+01 -0.30296876184E+00  0.10004591518E+02  0.51100000000E-03 0. -1.
         11    1    3    3    0    0 -0.64198135393E+01  0.76672064811E+01 -0.33895553347E+00  0.10005745960E+02  0.51100000000E-03 0.  1.
<mgrwt>
<rscale>  0 0.20000038E+02</rscale>
<asrwt>0</asrwt>
<pdfrwt beam="2">  1        2 0.15886355E-02 0.20000038E+02</pdfrwt>
<pdfrwt beam="1">  1       -2 0.14898779E-02 0.20000038E+02</pdfrwt>
<totfact> 0.39556009E+06</totfact>
</mgrwt>
</event>
<event>
 5    1  0.4083452E-006  0.2000072E+02  0.7818608E-02  0.1745314E+00
         -2   -1    0    0    0  501 -0.00000000000E+00  0.00000000000E+00  0.17887380251E+01  0.17887399147E+01  0.26000000000E-02 0. -1.
          2   -1    0    0  501    0  0.00000000000E+00 -0.00000000000E+00 -0.55909319555E+02  0.55909319616E+02  0.26000000000E-02 0.  1.
       1023    2    1    2    0    0  0.00000000000E+00  0.00000000000E+00 -0.54120581530E+02  0.57698059530E+02  0.20000718197E+02 0.  0.
        -11    1    3    3    0    0  0.87238495787E+01  0.48886038060E+01 -0.27223050618E+02  0.29001697948E+02  0.51100000000E-03 0.  1.
         11    1    3    3    0    0 -0.87238495787E+01 -0.48886038060E+01 -0.26897530912E+02  0.28696361582E+02  0.51100000000E-03 0. -1.
<mgrwt>
<rscale>  0 0.20000718E+02</rscale>
<asrwt>0</asrwt>
<pdfrwt beam="2">  1        2 0.86014326E-02 0.20000718E+02</pdfrwt>
<pdfrwt beam="1">  1       -2 0.27519066E-03 0.20000718E+02</pdfrwt>
<totfact> 0.47139948E+06</totfact>
</mgrwt>
</event>
<event>
 5    1  0.4046313E-006  0.2000063E+02  0.7818608E-02  0.1745316E+00
          2   -1    0    0  501    0  0.00000000000E+00  0.00000000000E+00  0.61367545170E+01  0.61367550678E+01  0.26000000000E-02 0.  1.
         -2   -1    0    0    0  501 -0.00000000000E+00 -0.00000000000E+00 -0.16296281284E+02  0.16296281491E+02  0.26000000000E-02 0. -1.
       1023    2    1    2    0    0  0.00000000000E+00  0.00000000000E+00 -0.10159526767E+02  0.22433036559E+02  0.20000628619E+02 0.  0.
        -11    1    3    3    0    0 -0.24947330912E+01  0.96841410339E+01 -0.50823362854E+01  0.11217683502E+02  0.51100000000E-03 0.  1.
         11    1    3    3    0    0  0.24947330912E+01 -0.96841410339E+01 -0.50771904817E+01  0.11215353058E+02  0.51100000000E-03 0. -1.
<mgrwt>
<rscale>  0 0.20000629E+02</rscale>
<asrwt>0</asrwt>
<pdfrwt beam="1">  1        2 0.94411615E-03 0.20000629E+02</pdfrwt>
<pdfrwt beam="2">  1       -2 0.25071202E-02 0.20000629E+02</pdfrwt>
<totfact> 0.38052056E+06</totfact>
</mgrwt>
</event>
<event>
 5    1  0.4046313E-006  0.2000197E+02  0.7818608E-02  0.1745289E+00
          2   -1    0    0  501    0  0.00000000000E+00  0.00000000000E+00  0.41096390785E+01  0.41096399010E+01  0.26000000000E-02 0.  1.
         -2   -1    0    0    0  501 -0.00000000000E+00 -0.00000000000E+00 -0.24337819359E+02  0.24337819498E+02  0.26000000000E-02 0. -1.
       1023    2    1    2    0    0  0.00000000000E+00  0.00000000000E+00 -0.20228180280E+02  0.28447459399E+02  0.20001966623E+02 0.  0.
        -11    1    3    3    0    0  0.78497613118E+01 -0.61960680214E+01 -0.10253841153E+02  0.14323102675E+02  0.51100000000E-03 0.  1.
         11    1    3    3    0    0 -0.78497613118E+01  0.61960680214E+01 -0.99743391274E+01  0.14124356724E+02  0.51100000000E-03 0. -1.
<mgrwt>
<rscale>  0 0.20001967E+02</rscale>
<asrwt>0</asrwt>
<pdfrwt beam="1">  1        2 0.63225225E-03 0.20001967E+02</pdfrwt>
<pdfrwt beam="2">  1       -2 0.37442799E-02 0.20001967E+02</pdfrwt>
<totfact> 0.36791625E+06</totfact>
</mgrwt>
</event>
<event>
 5    1  0.4046313E-006  0.2000491E+02  0.7818608E-02  0.1745230E+00
         -2   -1    0    0    0  501 -0.00000000000E+00  0.00000000000E+00  0.33241670140E+01  0.33241680308E+01  0.26000000000E-02 0.  1.
          2   -1    0    0  501    0  0.00000000000E+00 -0.00000000000E+00 -0.30097497097E+02  0.30097497209E+02  0.26000000000E-02 0. -1.
       1023    2    1    2    0    0  0.00000000000E+00  0.00000000000E+00 -0.26773330083E+02  0.33421665240E+02  0.20004911989E+02 0.  0.
        -11    1    3    3    0    0  0.55346789309E+01 -0.83314681942E+01 -0.13293758180E+02  0.16636407063E+02  0.51100000000E-03 0.  1.
         11    1    3    3    0    0 -0.55346789309E+01  0.83314681942E+01 -0.13479571903E+02  0.16785258178E+02  0.51100000000E-03 0. -1.
<mgrwt>
<rscale>  0 0.20004912E+02</rscale>
<asrwt>0</asrwt>
<pdfrwt beam="2">  1        2 0.46303841E-02 0.20004912E+02</pdfrwt>
<pdfrwt beam="1">  1       -2 0.51141042E-03 0.20004912E+02</pdfrwt>
<totfact> 0.43364818E+06</totfact>
</mgrwt>
</event>
<event>
 5    1  0.4046313E-006  0.2001145E+02  0.7818608E-02  0.1745101E+00
         -2   -1    0    0    0  501 -0.00000000000E+00  0.00000000000E+00  0.76449254689E+02  0.76449254734E+02  0.26000000000E-02 0.  1.
          2   -1    0    0  501    0  0.00000000000E+00 -0.00000000000E+00 -0.13095534249E+01  0.13095560059E+01  0.26000000000E-02 0. -1.
       1023    2    1    2    0    0  0.00000000000E+00  0.00000000000E+00  0.75139701264E+02  0.77758810739E+02  0.20011445263E+02 0.  0.
        -11    1    3    3    0    0 -0.99930825432E+01 -0.42810373872E+00  0.36545364673E+02  0.37889426636E+02  0.51100000000E-03 0. -1.
         11    1    3    3    0    0  0.99930825432E+01  0.42810373872E+00  0.38594336592E+02  0.39869384103E+02  0.51100000000E-03 0.  1.
<mgrwt>
<rscale>  0 0.20011445E+02</rscale>
<asrwt>0</asrwt>
<pdfrwt beam="2">  1        2 0.20146993E-03 0.20011445E+02</pdfrwt>
<pdfrwt beam="1">  1       -2 0.11761426E-01 0.20011445E+02</pdfrwt>
<totfact> 0.31506152E+06</totfact>
</mgrwt>
</event>
<event>
 4    1  0.4046313E-006  0.2229521E+02  0.7818608E-02  0.1703196E+00
         -2   -1    0    0    0  501 -0.00000000000E+00  0.00000000000E+00  0.11483212172E+02  0.11483212466E+02  0.26000000000E-02 0.  1.
          2   -1    0    0  501    0  0.00000000000E+00 -0.00000000000E+00 -0.10821806164E+02  0.10821806476E+02  0.26000000000E-02 0. -1.
        -11    1    1    2    0    0 -0.99314622463E+01 -0.49957696528E+01  0.11541361729E+01  0.11176926561E+02  0.51100000000E-03 0.  1.
         11    1    1    2    0    0  0.99314622463E+01  0.49957696528E+01 -0.49273016468E+00  0.11128092381E+02  0.51100000000E-03 0. -1.
<mgrwt>
<rscale>  0 0.22295211E+02</rscale>
<asrwt>0</asrwt>
<pdfrwt beam="2">  1        2 0.16648933E-02 0.22295211E+02</pdfrwt>
<pdfrwt beam="1">  1       -2 0.17666481E-02 0.22295211E+02</pdfrwt>
<totfact> 0.30889668E+06</totfact>
</mgrwt>
</event>
<event>
 5    1  0.4046313E-006  0.2000023E+02  0.7818608E-02  0.1745324E+00
          2   -1    0    0  501    0  0.00000000000E+00  0.00000000000E+00  0.22150996273E+01  0.22151011532E+01  0.26000000000E-02 0. -1.
         -2   -1    0    0    0  501 -0.00000000000E+00 -0.00000000000E+00 -0.45145706767E+02  0.45145706842E+02  0.26000000000E-02 0.  1.
       1023    2    1    2    0    0  0.00000000000E+00  0.00000000000E+00 -0.42930607139E+02  0.47360807995E+02  0.20000227613E+02 0.  0.
        -11    1    3    3    0    0  0.60816513826E+01  0.79381921661E+01 -0.21394362905E+02  0.23616099229E+02  0.51100000000E-03 0. -1.
         11    1    3    3    0    0 -0.60816513826E+01 -0.79381921661E+01 -0.21536244234E+02  0.23744708766E+02  0.51100000000E-03 0.  1.
<mgrwt>
<rscale>  0 0.20000228E+02</rscale>
<asrwt>0</asrwt>
<pdfrwt beam="1">  1        2 0.34078471E-03 0.20000228E+02</pdfrwt>
<pdfrwt beam="2">  1       -2 0.69454928E-02 0.20000228E+02</pdfrwt>
<totfact> 0.34381627E+06</totfact>
</mgrwt>
</event>
<event>
 5    1  0.4046313E-006  0.2000575E+02  0.7818608E-02  0.1745214E+00
         -2   -1    0    0    0  501 -0.00000000000E+00  0.00000000000E+00  0.21110792681E+01  0.21110808692E+01  0.26000000000E-02 0.  1.
          2   -1    0    0  501    0  0.00000000000E+00 -0.00000000000E+00 -0.47396336239E+02  0.47396336310E+02  0.26000000000E-02 0. -1.
       1023    2    1    2    0    0  0.00000000000E+00  0.00000000000E+00 -0.45285256970E+02  0.49507417179E+02  0.20005745596E+02 0.  0.
        -11    1    3    3    0    0  0.96827957561E+01  0.25079542845E+01 -0.22903298476E+02  0.24992147760E+02  0.51100000000E-03 0. -1.
         11    1    3    3    0    0 -0.96827957561E+01 -0.25079542845E+01 -0.22381958495E+02  0.24515269419E+02  0.51100000000E-03 0.  1.
<mgrwt>
<rscale>  0 0.20005746E+02</rscale>
<asrwt>0</asrwt>
<pdfrwt beam="2">  1        2 0.72917433E-02 0.20005746E+02</pdfrwt>
<pdfrwt beam="1">  1       -2 0.32478159E-03 0.20005746E+02</pdfrwt>
<totfact> 0.45932722E+06</totfact>
</mgrwt>
</event>
<event>
 5    1  0.4066416E-006  0.2000072E+02  0.7818608E-02  0.1745314E+00
          2   -1    0    0  501    0  0.00000000000E+00  0.00000000000E+00  0.27217708120E+02  0.27217708244E+02  0.26000000000E-02 0.  1.
         -2   -1    0    0    0  501 -0.00000000000E+00 -0.00000000000E+00 -0.36743431536E+01  0.36743440735E+01  0.26000000000E-02 0. -1.
       1023    2    1    2    0    0  0.00000000000E+00  0.00000000000E+00  0.23543364966E+02  0.30892052318E+02  0.20000721548E+02 0.  0.
        -11    1    3    3    0    0 -0.65853514870E+01  0.75257534445E+01  0.11861694421E+02  0.15514625806E+02  0.51100000000E-03 0.  1.
         11    1    3    3    0    0  0.65853514870E+01 -0.75257534445E+01  0.11681670545E+02  0.15377426511E+02  0.51100000000E-03 0. -1.
<mgrwt>
<rscale>  0 0.20000722E+02</rscale>
<asrwt>0</asrwt>
<pdfrwt beam="1">  1        2 0.41873399E-02 0.20000722E+02</pdfrwt>
<pdfrwt beam="2">  1       -2 0.56528362E-03 0.20000722E+02</pdfrwt>
<totfact> 0.42921608E+06</totfact>
</mgrwt>
</event>
<event>
 5    1  0.4046313E-006  0.2000115E+02  0.7818608E-02  0.1745305E+00
         -2   -1    0    0    0  501 -0.00000000000E+00  0.00000000000E+00  0.31625429393E+02  0.31625429500E+02  0.26000000000E-02 0. -1.
          2   -1    0    0  501    0  0.00000000000E+00 -0.00000000000E+00 -0.31623739199E+01  0.31623749887E+01  0.26000000000E-02 0.  1.
       1023    2    1    2    0    0  0.00000000000E+00  0.00000000000E+00  0.28463055473E+02  0.34787804489E+02  0.20001145324E+02 0.  0.
        -11    1    3    3    0    0 -0.83987300775E+01 -0.54280981617E+01  0.14070826884E+02  0.17262418314E+02  0.51100000000E-03 0. -1.
         11    1    3    3    0    0  0.83987300775E+01  0.54280981617E+01  0.14392228589E+02  0.17525386175E+02  0.51100000000E-03 0.  1.
<mgrwt>
<rscale>  0 0.20001145E+02</rscale>
<asrwt>0</asrwt>
<pdfrwt beam="2">  1        2 0.48651915E-03 0.20001145E+02</pdfrwt>
<pdfrwt beam="1">  1       -2 0.48654508E-02 0.20001145E+02</pdfrwt>
<totfact> 0.35862581E+06</totfact>
</mgrwt>
</event>
<event>
 5    1  0.4046313E-006  0.2000059E+02  0.7818608E-02  0.1745316E+00
          2   -1    0    0  501    0  0.00000000000E+00  0.00000000000E+00  0.42220813118E+02  0.42220813198E+02  0.26000000000E-02 0.  1.
         -2   -1    0    0    0  501 -0.00000000000E+00 -0.00000000000E+00 -0.23686388882E+01  0.23686403152E+01  0.26000000000E-02 0. -1.
       1023    2    1    2    0    0  0.00000000000E+00  0.00000000000E+00  0.39852174229E+02  0.44589453513E+02  0.20000589335E+02 0.  0.
        -11    1    3    3    0    0  0.95664804772E+01  0.29131320147E+01  0.19826227477E+02  0.22205476421E+02  0.51100000000E-03 0. -1.
         11    1    3    3    0    0 -0.95664804772E+01 -0.29131320147E+01  0.20025946752E+02  0.22383977092E+02  0.51100000000E-03 0.  1.
<mgrwt>
<rscale>  0 0.20000589E+02</rscale>
<asrwt>0</asrwt>
<pdfrwt beam="1">  1        2 0.64955101E-02 0.20000589E+02</pdfrwt>
<pdfrwt beam="2">  1       -2 0.36440608E-03 0.20000589E+02</pdfrwt>
<totfact> 0.45217829E+06</totfact>
</mgrwt>
</event>
<event>
 5    1  0.4046313E-006  0.2000165E+02  0.7818608E-02  0.1745295E+00
          2   -1    0    0  501    0  0.00000000000E+00  0.00000000000E+00  0.96234616803E+00  0.96234968027E+00  0.26000000000E-02 0. -1.
         -2   -1    0    0    0  501 -0.00000000000E+00 -0.00000000000E+00 -0.10392970365E+03  0.10392970368E+03  0.26000000000E-02 0.  1.
       1023    2    1    2    0    0  0.00000000000E+00  0.00000000000E+00 -0.10296735748E+03  0.10489205336E+03  0.20001653727E+02 0.  0.
        -11    1    3    3    0    0  0.88511775275E+01  0.46537622790E+01 -0.52140577113E+02  0.53090871427E+02  0.51100000000E-03 0. -1.
         11    1    3    3    0    0 -0.88511775275E+01 -0.46537622790E+01 -0.50826780367E+02  0.51801181933E+02  0.51100000000E-03 0.  1.
<mgrwt>
<rscale>  0 0.20001654E+02</rscale>
<asrwt>0</asrwt>
<pdfrwt beam="1">  1        2 0.14805361E-03 0.20001654E+02</pdfrwt>
<pdfrwt beam="2">  1       -2 0.15989177E-01 0.20001654E+02</pdfrwt>
<totfact> 0.29442512E+06</totfact>
</mgrwt>
</event>
<event>
 5    1  0.4046313E-006  0.2000115E+02  0.7818608E-02  0.1745305E+00
         -2   -1    0    0    0  501 -0.00000000000E+00  0.00000000000E+00  0.21459051892E+01  0.21459067643E+01  0.26000000000E-02 0.  1.
          2   -1    0    0  501    0  0.00000000000E+00 -0.00000000000E+00 -0.46605719717E+02  0.46605719790E+02  0.26000000000E-02 0. -1.
       1023    2    1    2    0    0  0.00000000000E+00  0.00000000000E+00 -0.44459814528E+02  0.48751626554E+02  0.20001149562E+02 0.  0.
        -11    1    3    3    0    0 -0.80497750190E+01  0.59337716554E+01 -0.22097032607E+02  0.24254636138E+02  0.51100000000E-03 0. -1.
         11    1    3    3    0    0  0.80497750190E+01 -0.59337716554E+01 -0.22362781922E+02  0.24496990416E+02  0.51100000000E-03 0.  1.
<mgrwt>
<rscale>  0 0.20001150E+02</rscale>
<asrwt>0</asrwt>
<pdfrwt beam="2">  1        2 0.71701101E-02 0.20001150E+02</pdfrwt>
<pdfrwt beam="1">  1       -2 0.33013942E-03 0.20001150E+02</pdfrwt>
<totfact> 0.45844255E+06</totfact>
</mgrwt>
</event>
<event>
 5    1  0.4046313E-006  0.2000035E+02  0.7818608E-02  0.1745321E+00
          2   -1    0    0  501    0  0.00000000000E+00  0.00000000000E+00  0.33681136648E+01  0.33681146683E+01  0.26000000000E-02 0. -1.
         -2   -1    0    0    0  501 -0.00000000000E+00 -0.00000000000E+00 -0.29691256646E+02  0.29691256760E+02  0.26000000000E-02 0.  1.
       1023    2    1    2    0    0  0.00000000000E+00  0.00000000000E+00 -0.26323142981E+02  0.33059371428E+02  0.20000354567E+02 0.  0.
        -11    1    3    3    0    0 -0.70939206400E+00  0.99749795777E+01 -0.13177319177E+02  0.16542224627E+02  0.51100000000E-03 0.  1.
         11    1    3    3    0    0  0.70939206400E+00 -0.99749795777E+01 -0.13145823804E+02  0.16517146801E+02  0.51100000000E-03 0. -1.
<mgrwt>
<rscale>  0 0.20000355E+02</rscale>
<asrwt>0</asrwt>
<pdfrwt beam="1">  1        2 0.51817144E-03 0.20000355E+02</pdfrwt>
<pdfrwt beam="2">  1       -2 0.45678855E-02 0.20000355E+02</pdfrwt>
<totfact> 0.36101029E+06</totfact>
</mgrwt>
</event>
<event>
 5    1  0.4046313E-006  0.2000015E+02  0.7818608E-02  0.1745325E+00
         -2   -1    0    0    0  501 -0.00000000000E+00  0.00000000000E+00  0.64043256257E+02  0.64043256310E+02  0.26000000000E-02 0.  1.
          2   -1    0    0  501    0  0.00000000000E+00 -0.00000000000E+00 -0.15614669443E+01  0.15614691089E+01  0.26000000000E-02 0. -1.
       1023    2    1    2    0    0  0.00000000000E+00  0.00000000000E+00  0.62481789313E+02  0.65604725419E+02  0.20000150038E+02 0.  0.
        -11    1    3    3    0    0 -0.77858702679E+01 -0.62754619363E+01  0.31297878441E+02  0.32856633934E+02  0.51100000000E-03 0.  1.
         11    1    3    3    0    0  0.77858702679E+01  0.62754619363E+01  0.31183910873E+02  0.32748091485E+02  0.51100000000E-03 0. -1.
<mgrwt>
<rscale>  0 0.20000150E+02</rscale>
<asrwt>0</asrwt>
<pdfrwt beam="2">  1        2 0.24022583E-03 0.20000150E+02</pdfrwt>
<pdfrwt beam="1">  1       -2 0.98528100E-02 0.20000150E+02</pdfrwt>
<totfact> 0.32598071E+06</totfact>
</mgrwt>
</event>
<event>
 5    1  0.4046313E-006  0.2000086E+02  0.7818608E-02  0.1745311E+00
         -2   -1    0    0    0  501 -0.00000000000E+00  0.00000000000E+00  0.48678792928E+01  0.48678799872E+01  0.26000000000E-02 0. -1.
          2   -1    0    0  501    0  0.00000000000E+00 -0.00000000000E+00 -0.20544597878E+02  0.20544598043E+02  0.26000000000E-02 0.  1.
       1023    2    1    2    0    0  0.00000000000E+00  0.00000000000E+00 -0.15676718585E+02  0.25412478030E+02  0.20000863332E+02 0.  0.
        -11    1    3    3    0    0 -0.93236251801E+01  0.36163611754E+01 -0.78689214973E+01  0.12725092551E+02  0.51100000000E-03 0.  1.
         11    1    3    3    0    0  0.93236251801E+01 -0.36163611754E+01 -0.78077970879E+01  0.12687385478E+02  0.51100000000E-03 0. -1.
<mgrwt>
<rscale>  0 0.20000863E+02</rscale>
<asrwt>0</asrwt>
<pdfrwt beam="2">  1        2 0.31607074E-02 0.20000863E+02</pdfrwt>
<pdfrwt beam="1">  1       -2 0.74890458E-03 0.20000863E+02</pdfrwt>
<totfact> 0.41773681E+06</totfact>
</mgrwt>
</event>
<event>
 5    1  0.4046313E-006  0.2000064E+02  0.7818608E-02  0.1745315E+00
          2   -1    0    0  501    0  0.00000000000E+00  0.00000000000E+00  0.19663609930E+01  0.19663627119E+01  0.26000000000E-02 0.  1.
         -2   -1    0    0    0  501 -0.00000000000E+00 -0.00000000000E+00 -0.50858607795E+02  0.50858607862E+02  0.26000000000E-02 0. -1.
       1023    2    1    2    0    0  0.00000000000E+00  0.00000000000E+00 -0.48892246802E+02  0.52824970574E+02  0.20000642958E+02 0.  0.
        -11    1    3    3    0    0  0.79035538925E+00 -0.99688619487E+01 -0.24603693325E+02  0.26558324414E+02  0.51100000000E-03 0. -1.
         11    1    3    3    0    0 -0.79035538925E+00  0.99688619487E+01 -0.24288553478E+02  0.26266646160E+02  0.51100000000E-03 0.  1.
<mgrwt>
<rscale>  0 0.20000643E+02</rscale>
<asrwt>0</asrwt>
<pdfrwt beam="1">  1        2 0.30251725E-03 0.20000643E+02</pdfrwt>
<pdfrwt beam="2">  1       -2 0.78244003E-02 0.20000643E+02</pdfrwt>
<totfact> 0.33812829E+06</totfact>
</mgrwt>
</event>
<event>
 5    1  0.4046313E-006  0.2000233E+02  0.7818608E-02  0.1745282E+00
          2   -1    0    0  501    0  0.00000000000E+00  0.00000000000E+00  0.37047293683E+02  0.37047293774E+02  0.26000000000E-02 0. -1.
         -2   -1    0    0    0  501 -0.00000000000E+00 -0.00000000000E+00 -0.26998793977E+01  0.26998806497E+01  0.26000000000E-02 0.  1.
       1023    2    1    2    0    0  0.00000000000E+00  0.00000000000E+00  0.34347414285E+02  0.39747174423E+02  0.20002325030E+02 0.  0.
        -11    1    3    3    0    0 -0.29927097141E+01  0.95418040143E+01  0.16886320738E+02  0.19625243021E+02  0.51100000000E-03 0. -1.
         11    1    3    3    0    0  0.29927097141E+01 -0.95418040143E+01  0.17461093547E+02  0.20121931403E+02  0.51100000000E-03 0.  1.
<mgrwt>
<rscale>  0 0.20002325E+02</rscale>
<asrwt>0</asrwt>
<pdfrwt beam="1">  1        2 0.56995836E-02 0.20002325E+02</pdfrwt>
<pdfrwt beam="2">  1       -2 0.41536618E-03 0.20002325E+02</pdfrwt>
<totfact> 0.44446536E+06</totfact>
</mgrwt>
</event>
<event>
 5    1  0.4046313E-006  0.2000482E+02  0.7818608E-02  0.1745232E+00
         -2   -1    0    0    0  501 -0.00000000000E+00  0.00000000000E+00  0.10963897602E+02  0.10963897910E+02  0.26000000000E-02 0.  1.
          2   -1    0    0  501    0  0.00000000000E+00 -0.00000000000E+00 -0.91252363295E+01  0.91252366999E+01  0.26000000000E-02 0. -1.
       1023    2    1    2    0    0  0.00000000000E+00  0.00000000000E+00  0.18386612722E+01  0.20089134610E+02  0.20004815773E+02 0.  0.
        -11    1    3    3    0    0  0.65003710011E+01  0.76016418784E+01  0.82739770995E+00  0.10036153129E+02  0.51100000000E-03 0.  1.
         11    1    3    3    0    0 -0.65003710011E+01 -0.76016418784E+01  0.10112635622E+01  0.10052981481E+02  0.51100000000E-03 0. -1.
<mgrwt>
<rscale>  0 0.20004816E+02</rscale>
<asrwt>0</asrwt>
<pdfrwt beam="2">  1        2 0.14038826E-02 0.20004816E+02</pdfrwt>
<pdfrwt beam="1">  1       -2 0.16867535E-02 0.20004816E+02</pdfrwt>
<totfact> 0.39178146E+06</totfact>
</mgrwt>
</event>
<event>
 5    1  0.4046313E-006  0.2000355E+02  0.7818608E-02  0.1745257E+00
         -2   -1    0    0    0  501 -0.00000000000E+00  0.00000000000E+00  0.17410946883E+01  0.17410966297E+01  0.26000000000E-02 0. -1.
          2   -1    0    0  501    0  0.00000000000E+00 -0.00000000000E+00 -0.57455491771E+02  0.57455491830E+02  0.26000000000E-02 0.  1.
       1023    2    1    2    0    0  0.00000000000E+00  0.00000000000E+00 -0.55714397083E+02  0.59196588460E+02  0.20003550759E+02 0.  0.
        -11    1    3    3    0    0 -0.34107060727E+00 -0.99946511498E+01 -0.27378836277E+02  0.29148071238E+02  0.51100000000E-03 0.  1.
         11    1    3    3    0    0  0.34107060727E+00  0.99946511498E+01 -0.28335560806E+02  0.30048517222E+02  0.51100000000E-03 0. -1.
<mgrwt>
<rscale>  0 0.20003551E+02</rscale>
<asrwt>0</asrwt>
<pdfrwt beam="2">  1        2 0.88393051E-02 0.20003551E+02</pdfrwt>
<pdfrwt beam="1">  1       -2 0.26786092E-03 0.20003551E+02</pdfrwt>
<totfact> 0.47335287E+06</totfact>
</mgrwt>
</event>
<event>
 5    1  0.4046313E-006  0.2000218E+02  0.7818608E-02  0.1745285E+00
          2   -1    0    0  501    0  0.00000000000E+00  0.00000000000E+00  0.73990245566E+01  0.73990250134E+01  0.26000000000E-02 0.  1.
         -2   -1    0    0    0  501 -0.00000000000E+00 -0.00000000000E+00 -0.13518234783E+02  0.13518235033E+02  0.26000000000E-02 0. -1.
       1023    2    1    2    0    0  0.00000000000E+00  0.00000000000E+00 -0.61192102263E+01  0.20917260046E+02  0.20002175733E+02 0.  0.
        -11    1    3    3    0    0 -0.16703979788E+01 -0.98606028161E+01 -0.30662968753E+01  0.10460587655E+02  0.51100000000E-03 0.  1.
         11    1    3    3    0    0  0.16703979788E+01  0.98606028161E+01 -0.30529133511E+01  0.10456672391E+02  0.51100000000E-03 0. -1.
<mgrwt>
<rscale>  0 0.20002176E+02</rscale>
<asrwt>0</asrwt>
<pdfrwt beam="1">  1        2 0.11383115E-02 0.20002176E+02</pdfrwt>
<pdfrwt beam="2">  1       -2 0.20797285E-02 0.20002176E+02</pdfrwt>
<totfact> 0.38589417E+06</totfact>
</mgrwt>
</event>
<event>
 5    1  0.4251655E-006  0.2000058E+02  0.7818608E-02  0.1745317E+00
          2   -1    0    0  501    0  0.00000000000E+00  0.00000000000E+00  0.63564209593E+02  0.63564209646E+02  0.26000000000E-02 0. -1.
         -2   -1    0    0    0  501 -0.00000000000E+00 -0.00000000000E+00 -0.15733022551E+01  0.15733044035E+01  0.26000000000E-02 0.  1.
       1023    2    1    2    0    0  0.00000000000E+00  0.00000000000E+00  0.61990907337E+02  0.65137514049E+02  0.20000578591E+02 0.  0.
        -11    1    3    3    0    0 -0.86247553052E+01  0.50611003298E+01  0.31217419853E+02  0.32780000658E+02  0.51100000000E-03 0.  1.
         11    1    3    3    0    0  0.86247553052E+01 -0.50611003298E+01  0.30773487485E+02  0.32357513391E+02  0.51100000000E-03 0. -1.
<mgrwt>
<rscale>  0 0.20000579E+02</rscale>
<asrwt>0</asrwt>
<pdfrwt beam="1">  1        2 0.97791082E-02 0.20000579E+02</pdfrwt>
<pdfrwt beam="2">  1       -2 0.24204670E-03 0.20000579E+02</pdfrwt>
<totfact> 0.48171012E+06</totfact>
</mgrwt>
</event>
<event>
 5    1  0.4046313E-006  0.2000023E+02  0.7818608E-02  0.1745324E+00
         -2   -1    0    0    0  501 -0.00000000000E+00  0.00000000000E+00  0.16229171702E+02  0.16229171911E+02  0.26000000000E-02 0.  1.
          2   -1    0    0  501    0  0.00000000000E+00 -0.00000000000E+00 -0.61618847651E+01  0.61618853136E+01  0.26000000000E-02 0. -1.
       1023    2    1    2    0    0  0.00000000000E+00  0.00000000000E+00  0.10067286937E+02  0.22391057224E+02  0.20000229432E+02 0.  0.
        -11    1    3    3    0    0  0.26638640266E+01 -0.96387504447E+01  0.50613481019E+01  0.11207984946E+02  0.51100000000E-03 0. -1.
         11    1    3    3    0    0 -0.26638640266E+01  0.96387504447E+01  0.50059388354E+01  0.11183072278E+02  0.51100000000E-03 0.  1.
<mgrwt>
<rscale>  0 0.20000229E+02</rscale>
<asrwt>0</asrwt>
<pdfrwt beam="2">  1        2 0.94798232E-03 0.20000229E+02</pdfrwt>
<pdfrwt beam="1">  1       -2 0.24967957E-02 0.20000229E+02</pdfrwt>
<totfact> 0.38065889E+06</totfact>
</mgrwt>
</event>
<event>
 5    1  0.4046313E-006  0.2000121E+02  0.7818608E-02  0.1745304E+00
          2   -1    0    0  501    0  0.00000000000E+00  0.00000000000E+00  0.35280342454E+01  0.35280352034E+01  0.26000000000E-02 0.  1.
         -2   -1    0    0    0  501 -0.00000000000E+00 -0.00000000000E+00 -0.28347827419E+02  0.28347827538E+02  0.26000000000E-02 0. -1.
       1023    2    1    2    0    0  0.00000000000E+00  0.00000000000E+00 -0.24819793174E+02  0.31875862742E+02  0.20001212272E+02 0.  0.
        -11    1    3    3    0    0  0.67220524318E+00 -0.99775148758E+01 -0.12254890952E+02  0.15817237923E+02  0.51100000000E-03 0. -1.
         11    1    3    3    0    0 -0.67220524318E+00  0.99775148758E+01 -0.12564902221E+02  0.16058624819E+02  0.51100000000E-03 0.  1.
<mgrwt>
<rscale>  0 0.20001212E+02</rscale>
<asrwt>0</asrwt>
<pdfrwt beam="1">  1        2 0.54277460E-03 0.20001212E+02</pdfrwt>
<pdfrwt beam="2">  1       -2 0.43612042E-02 0.20001212E+02</pdfrwt>
<totfact> 0.36265795E+06</totfact>
</mgrwt>
</event>
<event>
 4    1  0.4046313E-006  0.2009893E+02  0.7818608E-02  0.1743368E+00
         -2   -1    0    0    0  501 -0.00000000000E+00  0.00000000000E+00  0.10077028504E+03  0.10077028507E+03  0.26000000000E-02 0.  1.
          2   -1    0    0  501    0  0.00000000000E+00 -0.00000000000E+00 -0.10021957691E+01  0.10021991417E+01  0.26000000000E-02 0. -1.
        -11    1    1    2    0    0  0.35228529502E+01 -0.93763551988E+01  0.45754211438E+02  0.46837745401E+02  0.51100000000E-03 0. -1.
         11    1    1    2    0    0 -0.35228529502E+01  0.93763551988E+01  0.54013877832E+02  0.54934738812E+02  0.51100000000E-03 0.  1.
<mgrwt>
<rscale>  0 0.20098928E+02</rscale>
<asrwt>0</asrwt>
<pdfrwt beam="2">  1        2 0.15418417E-03 0.20098928E+02</pdfrwt>
<pdfrwt beam="1">  1       -2 0.15503127E-01 0.20098928E+02</pdfrwt>
<totfact> 0.29357068E+06</totfact>
</mgrwt>
</event>
<event>
 4    1  0.4046313E-006  0.2001364E+02  0.7818608E-02  0.1745057E+00
         -2   -1    0    0    0  501 -0.00000000000E+00  0.00000000000E+00  0.28734954379E+01  0.28734966141E+01  0.26000000000E-02 0.  1.
          2   -1    0    0  501    0  0.00000000000E+00 -0.00000000000E+00 -0.34848285466E+02  0.34848285563E+02  0.26000000000E-02 0. -1.
        -11    1    1    2    0    0 -0.95246393644E+01  0.30675062670E+01 -0.15818146978E+02  0.18717428343E+02  0.51100000000E-03 0.  1.
         11    1    1    2    0    0  0.95246393644E+01 -0.30675062670E+01 -0.16156643050E+02  0.19004353834E+02  0.51100000000E-03 0. -1.
<mgrwt>
<rscale>  0 0.20013637E+02</rscale>
<asrwt>0</asrwt>
<pdfrwt beam="2">  1        2 0.53612745E-02 0.20013637E+02</pdfrwt>
<pdfrwt beam="1">  1       -2 0.44207634E-03 0.20013637E+02</pdfrwt>
<totfact> 0.44058763E+06</totfact>
</mgrwt>
</event>
<event>
 5    1  0.4046313E-006  0.2000019E+02  0.7818608E-02  0.1745324E+00
          2   -1    0    0  501    0  0.00000000000E+00  0.00000000000E+00  0.52134860211E+01  0.52134866695E+01  0.26000000000E-02 0. -1.
         -2   -1    0    0    0  501 -0.00000000000E+00 -0.00000000000E+00 -0.19181383080E+02  0.19181383257E+02  0.26000000000E-02 0.  1.
       1023    2    1    2    0    0  0.00000000000E+00  0.00000000000E+00 -0.13967897059E+02  0.24394869926E+02  0.20000188260E+02 0.  0.
        -11    1    3    3    0    0  0.20016063886E+01  0.97976945855E+01 -0.70146854511E+01  0.12215034161E+02  0.51100000000E-03 0.  1.
         11    1    3    3    0    0 -0.20016063886E+01 -0.97976945855E+01 -0.69532116081E+01  0.12179835765E+02  0.51100000000E-03 0. -1.
<mgrwt>
<rscale>  0 0.20000188E+02</rscale>
<asrwt>0</asrwt>
<pdfrwt beam="1">  1        2 0.80207485E-03 0.20000188E+02</pdfrwt>
<pdfrwt beam="2">  1       -2 0.29509820E-02 0.20000188E+02</pdfrwt>
<totfact> 0.37562767E+06</totfact>
</mgrwt>
</event>
<event>
 4    1  0.4046313E-006  0.2238320E+02  0.7818608E-02  0.1701708E+00
          2   -1    0    0  501    0  0.00000000000E+00  0.00000000000E+00  0.41180704995E+02  0.41180705077E+02  0.26000000000E-02 0.  1.
         -2   -1    0    0    0  501 -0.00000000000E+00 -0.00000000000E+00 -0.30415187785E+01  0.30415198898E+01  0.26000000000E-02 0. -1.
        -11    1    1    2    0    0  0.76643833070E+01  0.81550722636E+01  0.18945602652E+02  0.22004177676E+02  0.51100000000E-03 0.  1.
         11    1    1    2    0    0 -0.76643833070E+01 -0.81550722636E+01  0.19193583565E+02  0.22218047291E+02  0.51100000000E-03 0. -1.
<mgrwt>
<rscale>  0 0.22383200E+02</rscale>
<asrwt>0</asrwt>
<pdfrwt beam="1">  1        2 0.63354928E-02 0.22383200E+02</pdfrwt>
<pdfrwt beam="2">  1       -2 0.46792608E-03 0.22383200E+02</pdfrwt>
<totfact> 0.34956449E+06</totfact>
</mgrwt>
</event>
<event>
 4    1  0.4046313E-006  0.2001822E+02  0.7818608E-02  0.1744966E+00
          2   -1    0    0  501    0  0.00000000000E+00  0.00000000000E+00  0.67187891623E+01  0.67187896654E+01  0.26000000000E-02 0. -1.
         -2   -1    0    0    0  501 -0.00000000000E+00 -0.00000000000E+00 -0.14910760710E+02  0.14910760936E+02  0.26000000000E-02 0.  1.
        -11    1    1    2    0    0 -0.62495987009E+01 -0.78181054567E+01 -0.41444062890E+01  0.10833114077E+02  0.51100000000E-03 0.  1.
         11    1    1    2    0    0  0.62495987009E+01  0.78181054567E+01 -0.40475652585E+01  0.10796436525E+02  0.51100000000E-03 0. -1.
<mgrwt>
<rscale>  0 0.20018218E+02</rscale>
<asrwt>0</asrwt>
<pdfrwt beam="1">  1        2 0.10336599E-02 0.20018218E+02</pdfrwt>
<pdfrwt beam="2">  1       -2 0.22939632E-02 0.20018218E+02</pdfrwt>
<totfact> 0.38239760E+06</totfact>
</mgrwt>
</event>
<event>
 4    1  0.4046313E-006  0.2001894E+02  0.7818608E-02  0.1744952E+00
          2   -1    0    0  501    0  0.00000000000E+00  0.00000000000E+00  0.22153343760E+02  0.22153343913E+02  0.26000000000E-02 0.  1.
         -2   -1    0    0    0  501 -0.00000000000E+00 -0.00000000000E+00 -0.45225434945E+01  0.45225442419E+01  0.26000000000E-02 0. -1.
        -11    1    1    2    0    0 -0.97623757938E+00 -0.99617389921E+01  0.88337139662E+01  0.13350048174E+02  0.51100000000E-03 0.  1.
         11    1    1    2    0    0  0.97623757938E+00  0.99617389921E+01  0.87970862993E+01  0.13325839980E+02  0.51100000000E-03 0. -1.
<mgrwt>
<rscale>  0 0.20018938E+02</rscale>
<asrwt>0</asrwt>
<pdfrwt beam="1">  1        2 0.34082068E-02 0.20018938E+02</pdfrwt>
<pdfrwt beam="2">  1       -2 0.69577599E-03 0.20018938E+02</pdfrwt>
<totfact> 0.41976504E+06</totfact>
</mgrwt>
</event>
<event>
 5    1  0.4046313E-006  0.2000093E+02  0.7818608E-02  0.1745310E+00
          2   -1    0    0  501    0  0.00000000000E+00  0.00000000000E+00  0.32456731985E+02  0.32456732089E+02  0.26000000000E-02 0. -1.
         -2   -1    0    0    0  501 -0.00000000000E+00 -0.00000000000E+00 -0.30813109526E+01  0.30813120496E+01  0.26000000000E-02 0.  1.
       1023    2    1    2    0    0  0.00000000000E+00  0.00000000000E+00  0.29375421032E+02  0.35538044139E+02  0.20000930488E+02 0.  0.
        -11    1    3    3    0    0 -0.51926060408E+01 -0.85462360389E+01  0.14528817682E+02  0.17637682711E+02  0.51100000000E-03 0.  1.
         11    1    3    3    0    0  0.51926060408E+01  0.85462360389E+01  0.14846603351E+02  0.17900361428E+02  0.51100000000E-03 0. -1.
<mgrwt>
<rscale>  0 0.20000930E+02</rscale>
<asrwt>0</asrwt>
<pdfrwt beam="1">  1        2 0.49933434E-02 0.20000930E+02</pdfrwt>
<pdfrwt beam="2">  1       -2 0.47404793E-03 0.20000930E+02</pdfrwt>
<totfact> 0.43754021E+06</totfact>
</mgrwt>
</event>
<event>
 5    1  0.4046313E-006  0.2000296E+02  0.7818608E-02  0.1745269E+00
          2   -1    0    0  501    0  0.00000000000E+00  0.00000000000E+00  0.10180239599E+01  0.10180272800E+01  0.26000000000E-02 0. -1.
         -2   -1    0    0    0  501 -0.00000000000E+00 -0.00000000000E+00 -0.98258448596E+02  0.98258448631E+02  0.26000000000E-02 0.  1.
       1023    2    1    2    0    0  0.00000000000E+00  0.00000000000E+00 -0.97240424637E+02  0.99276475911E+02  0.20002961925E+02 0.  0.
        -11    1    3    3    0    0 -0.52022741523E+01  0.85404976662E+01 -0.47822027239E+02  0.48856422773E+02  0.51100000000E-03 0.  1.
         11    1    3    3    0    0  0.52022741523E+01 -0.85404976662E+01 -0.49418397398E+02  0.50420053137E+02  0.51100000000E-03 0. -1.
<mgrwt>
<rscale>  0 0.20002962E+02</rscale>
<asrwt>0</asrwt>
<pdfrwt beam="1">  1        2 0.15661941E-03 0.20002962E+02</pdfrwt>
<pdfrwt beam="2">  1       -2 0.15116677E-01 0.20002962E+02</pdfrwt>
<totfact> 0.29848173E+06</totfact>
</mgrwt>
</event>
<event>
 5    1  0.4046313E-006  0.2000504E+02  0.7818608E-02  0.1745228E+00
          2   -1    0    0  501    0  0.00000000000E+00  0.00000000000E+00  0.90297324815E+02  0.90297324852E+02  0.26000000000E-02 0. -1.
         -2   -1    0    0    0  501 -0.00000000000E+00 -0.00000000000E+00 -0.11080090844E+01  0.11080121349E+01  0.26000000000E-02 0.  1.
       1023    2    1    2    0    0  0.00000000000E+00  0.00000000000E+00  0.89189315731E+02  0.91405336987E+02  0.20005039097E+02 0.  0.
        -11    1    3    3    0    0 -0.77971885706E+01 -0.62625747279E+01  0.45442166977E+02  0.46529630684E+02  0.51100000000E-03 0.  1.
         11    1    3    3    0    0  0.77971885706E+01  0.62625747279E+01  0.43747148754E+02  0.44875706303E+02  0.51100000000E-03 0. -1.
<mgrwt>
<rscale>  0 0.20005039E+02</rscale>
<asrwt>0</asrwt>
<pdfrwt beam="1">  1        2 0.13891893E-01 0.20005039E+02</pdfrwt>
<pdfrwt beam="2">  1       -2 0.17046321E-03 0.20005039E+02</pdfrwt>
<totfact> 0.51552549E+06</totfact>
</mgrwt>
</event>
<event>
 5    1  0.4046313E-006  0.2000128E+02  0.7818608E-02  0.1745303E+00
          2   -1    0    0  501    0  0.00000000000E+00  0.00000000000E+00  0.36627499919E+01  0.36627509147E+01  0.26000000000E-02 0. -1.
         -2   -1    0    0    0  501 -0.00000000000E+00 -0.00000000000E+00 -0.27305376117E+02  0.27305376241E+02  0.26000000000E-02 0.  1.
       1023    2    1    2    0    0  0.00000000000E+00  0.00000000000E+00 -0.23642626126E+02  0.30968127156E+02  0.20001278195E+02 0.  0.
        -11    1    3    3    0    0 -0.99373806589E+01 -0.11175480248E+01 -0.11649359257E+02  0.15352785393E+02  0.51100000000E-03 0.  1.
         11    1    3    3    0    0  0.99373806589E+01  0.11175480248E+01 -0.11993266868E+02  0.15615341763E+02  0.51100000000E-03 0. -1.
<mgrwt>
<rscale>  0 0.20001278E+02</rscale>
<asrwt>0</asrwt>
<pdfrwt beam="1">  1        2 0.56350010E-03 0.20001278E+02</pdfrwt>
<pdfrwt beam="2">  1       -2 0.42008270E-02 0.20001278E+02</pdfrwt>
<totfact> 0.36398905E+06</totfact>
</mgrwt>
</event>
<event>
 5    1  0.4046313E-006  0.2000255E+02  0.7818608E-02  0.1745277E+00
          2   -1    0    0  501    0  0.00000000000E+00  0.00000000000E+00  0.83382474448E+01  0.83382478501E+01  0.26000000000E-02 0.  1.
         -2   -1    0    0    0  501 -0.00000000000E+00 -0.00000000000E+00 -0.11995980059E+02  0.11995980340E+02  0.26000000000E-02 0. -1.
       1023    2    1    2    0    0  0.00000000000E+00  0.00000000000E+00 -0.36577326139E+01  0.20334228191E+02  0.20002545544E+02 0.  0.
        -11    1    3    3    0    0 -0.58789264308E+01  0.80902396233E+01 -0.17188889760E+01  0.10147331310E+02  0.51100000000E-03 0. -1.
         11    1    3    3    0    0  0.58789264308E+01 -0.80902396233E+01 -0.19388436379E+01  0.10186896881E+02  0.51100000000E-03 0.  1.
<mgrwt>
<rscale>  0 0.20002546E+02</rscale>
<asrwt>0</asrwt>
<pdfrwt beam="1">  1        2 0.12828074E-02 0.20002546E+02</pdfrwt>
<pdfrwt beam="2">  1       -2 0.18455354E-02 0.20002546E+02</pdfrwt>
<totfact> 0.38930158E+06</totfact>
</mgrwt>
</event>
<event>
 5    1  0.4210233E-006  0.2000089E+02  0.7818608E-02  0.1745310E+00
         -2   -1    0    0    0  501 -0.00000000000E+00  0.00000000000E+00  0.11180363894E+01  0.11180394126E+01  0.26000000000E-02 0.  1.
          2   -1    0    0  501    0  0.00000000000E+00 -0.00000000000E+00 -0.89450392644E+02  0.89450392682E+02  0.26000000000E-02 0. -1.
       1023    2    1    2    0    0  0.00000000000E+00  0.00000000000E+00 -0.88332356255E+02  0.90568432095E+02  0.20000893244E+02 0.  0.
        -11    1    3    3    0    0  0.99591060912E+01 -0.90653357857E+00 -0.43904671593E+02  0.45029165940E+02  0.51100000000E-03 0.  1.
         11    1    3    3    0    0 -0.99591060912E+01  0.90653357857E+00 -0.44427684662E+02  0.45539266155E+02  0.51100000000E-03 0. -1.
<mgrwt>
<rscale>  0 0.20000893E+02</rscale>
<asrwt>0</asrwt>
<pdfrwt beam="2">  1        2 0.13761593E-01 0.20000893E+02</pdfrwt>
<pdfrwt beam="1">  1       -2 0.17200590E-03 0.20000893E+02</pdfrwt>
<totfact> 0.51472022E+06</totfact>
</mgrwt>
</event>
<event>
 5    1  0.4046313E-006  0.2000276E+02  0.7818608E-02  0.1745273E+00
          2   -1    0    0  501    0  0.00000000000E+00  0.00000000000E+00  0.39177712947E+01  0.39177721574E+01  0.26000000000E-02 0.  1.
         -2   -1    0    0    0  501 -0.00000000000E+00 -0.00000000000E+00 -0.25531767143E+02  0.25531767276E+02  0.26000000000E-02 0. -1.
       1023    2    1    2    0    0  0.00000000000E+00  0.00000000000E+00 -0.21613995849E+02  0.29449539433E+02  0.20002763716E+02 0.  0.
        -11    1    3    3    0    0 -0.26889217754E+01  0.96329712412E+01 -0.10890328622E+02  0.14785928885E+02  0.51100000000E-03 0.  1.
         11    1    3    3    0    0  0.26889217754E+01 -0.96329712412E+01 -0.10723667227E+02  0.14663610548E+02  0.51100000000E-03 0. -1.
<mgrwt>
<rscale>  0 0.20002764E+02</rscale>
<asrwt>0</asrwt>
<pdfrwt beam="1">  1        2 0.60273414E-03 0.20002764E+02</pdfrwt>
<pdfrwt beam="2">  1       -2 0.39279642E-02 0.20002764E+02</pdfrwt>
<totfact> 0.36626225E+06</totfact>
</mgrwt>
</event>
<event>
 5    1  0.4046313E-006  0.2000078E+02  0.7818608E-02  0.1745313E+00
          2   -1    0    0  501    0  0.00000000000E+00  0.00000000000E+00  0.22088500610E+01  0.22088515912E+01  0.26000000000E-02 0. -1.
         -2   -1    0    0    0  501 -0.00000000000E+00 -0.00000000000E+00 -0.45275919645E+02  0.45275919720E+02  0.26000000000E-02 0.  1.
       1023    2    1    2    0    0  0.00000000000E+00  0.00000000000E+00 -0.43067069584E+02  0.47484771311E+02  0.20000775582E+02 0.  0.
        -11    1    3    3    0    0 -0.91382950686E+01 -0.40618342406E+01 -0.21465485162E+02  0.23680666960E+02  0.51100000000E-03 0. -1.
         11    1    3    3    0    0  0.91382950686E+01  0.40618342406E+01 -0.21601584422E+02  0.23804104351E+02  0.51100000000E-03 0.  1.
<mgrwt>
<rscale>  0 0.20000776E+02</rscale>
<asrwt>0</asrwt>
<pdfrwt beam="1">  1        2 0.33982324E-03 0.20000776E+02</pdfrwt>
<pdfrwt beam="2">  1       -2 0.69655255E-02 0.20000776E+02</pdfrwt>
<totfact> 0.34366311E+06</totfact>
</mgrwt>
</event>
<event>
 5    1  0.4151432E-006  0.2000063E+02  0.7818608E-02  0.1745315E+00
          2   -1    0    0  501    0  0.00000000000E+00  0.00000000000E+00  0.67791941798E+02  0.67791941848E+02  0.26000000000E-02 0. -1.
         -2   -1    0    0    0  501 -0.00000000000E+00 -0.00000000000E+00 -0.14751939515E+01  0.14751962427E+01  0.26000000000E-02 0.  1.
       1023    2    1    2    0    0  0.00000000000E+00  0.00000000000E+00  0.66316747846E+02  0.69267138090E+02  0.20000634348E+02 0.  0.
        -11    1    3    3    0    0  0.93503137660E+01  0.35461777049E+01  0.33334947933E+02  0.34802621996E+02  0.51100000000E-03 0. -1.
         11    1    3    3    0    0 -0.93503137660E+01 -0.35461777049E+01  0.32981799914E+02  0.34464516095E+02  0.51100000000E-03 0.  1.
<mgrwt>
<rscale>  0 0.20000634E+02</rscale>
<asrwt>0</asrwt>
<pdfrwt beam="1">  1        2 0.10429532E-01 0.20000634E+02</pdfrwt>
<pdfrwt beam="2">  1       -2 0.22695305E-03 0.20000634E+02</pdfrwt>
<totfact> 0.48728254E+06</totfact>
</mgrwt>
</event>
<event>
 5    1  0.4046313E-006  0.2000114E+02  0.7818608E-02  0.1745305E+00
          2   -1    0    0  501    0  0.00000000000E+00  0.00000000000E+00  0.21668259837E+02  0.21668259993E+02  0.26000000000E-02 0.  1.
         -2   -1    0    0    0  501 -0.00000000000E+00 -0.00000000000E+00 -0.46155697563E+01  0.46155704886E+01  0.26000000000E-02 0. -1.
       1023    2    1    2    0    0  0.00000000000E+00  0.00000000000E+00  0.17052690081E+02  0.26283830482E+02  0.20001137613E+02 0.  0.
        -11    1    3    3    0    0  0.64476707050E+01 -0.76439268726E+01  0.83996118904E+01  0.13059692023E+02  0.51100000000E-03 0.  1.
         11    1    3    3    0    0 -0.64476707050E+01  0.76439268726E+01  0.86530781902E+01  0.13224138459E+02  0.51100000000E-03 0. -1.
<mgrwt>
<rscale>  0 0.20001138E+02</rscale>
<asrwt>0</asrwt>
<pdfrwt beam="1">  1        2 0.33335786E-02 0.20001138E+02</pdfrwt>
<pdfrwt beam="2">  1       -2 0.71008771E-03 0.20001138E+02</pdfrwt>
<totfact> 0.41974665E+06</totfact>
</mgrwt>
</event>
<event>
 4    1  0.4046313E-006  0.2006117E+02  0.7818608E-02  0.1744114E+00
         -2   -1    0    0    0  501 -0.00000000000E+00  0.00000000000E+00  0.39454580954E+02  0.39454581040E+02  0.26000000000E-02 0. -1.
          2   -1    0    0  501    0  0.00000000000E+00 -0.00000000000E+00 -0.25500876803E+01  0.25500890058E+01  0.26000000000E-02 0.  1.
        -11    1    1    2    0    0  0.14129012729E+01 -0.99222279094E+01  0.19304755307E+02  0.21751332704E+02  0.51100000000E-03 0. -1.
         11    1    1    2    0    0 -0.14129012729E+01  0.99222279094E+01  0.17599737967E+02  0.20253337341E+02  0.51100000000E-03 0.  1.
<mgrwt>
<rscale>  0 0.20061173E+02</rscale>
<asrwt>0</asrwt>
<pdfrwt beam="2">  1        2 0.39232127E-03 0.20061173E+02</pdfrwt>
<pdfrwt beam="1">  1       -2 0.60699359E-02 0.20061173E+02</pdfrwt>
<totfact> 0.34746686E+06</totfact>
</mgrwt>
</event>
<event>
 4    1  0.4046313E-006  0.2003283E+02  0.7818608E-02  0.1744676E+00
         -2   -1    0    0    0  501 -0.00000000000E+00  0.00000000000E+00  0.10226540684E+01  0.10226573735E+01  0.26000000000E-02 0. -1.
          2   -1    0    0  501    0  0.00000000000E+00 -0.00000000000E+00 -0.98105921136E+02  0.98105921171E+02  0.26000000000E-02 0.  1.
        -11    1    1    2    0    0  0.92463291284E+01  0.38300502461E+01 -0.50549800986E+02  0.51531022377E+02  0.51100000000E-03 0. -1.
         11    1    1    2    0    0 -0.92463291284E+01 -0.38300502461E+01 -0.46533466081E+02  0.47597556167E+02  0.51100000000E-03 0.  1.
<mgrwt>
<rscale>  0 0.20032832E+02</rscale>
<asrwt>0</asrwt>
<pdfrwt beam="2">  1        2 0.15093212E-01 0.20032832E+02</pdfrwt>
<pdfrwt beam="1">  1       -2 0.15733173E-03 0.20032832E+02</pdfrwt>
<totfact> 0.52340712E+06</totfact>
</mgrwt>
</event>
<event>
 5    1  0.4046313E-006  0.2000786E+02  0.7818608E-02  0.1745172E+00
          2   -1    0    0  501    0  0.00000000000E+00  0.00000000000E+00  0.11821810876E+02  0.11821811162E+02  0.26000000000E-02 0.  1.
         -2   -1    0    0    0  501 -0.00000000000E+00 -0.00000000000E+00 -0.84655942064E+01  0.84655946057E+01  0.26000000000E-02 0. -1.
       1023    2    1    2    0    0  0.00000000000E+00  0.00000000000E+00  0.33562166693E+01  0.20287405767E+02  0.20007864515E+02 0.  0.
        -11    1    3    3    0    0 -0.43085007110E+01 -0.90282493637E+01  0.15982977667E+01  0.10130499542E+02  0.51100000000E-03 0.  1.
         11    1    3    3    0    0  0.43085007110E+01  0.90282493637E+01  0.17579189026E+01  0.10156906226E+02  0.51100000000E-03 0. -1.
<mgrwt>
<rscale>  0 0.20007865E+02</rscale>
<asrwt>0</asrwt>
<pdfrwt beam="1">  1        2 0.18187402E-02 0.20007865E+02</pdfrwt>
<pdfrwt beam="2">  1       -2 0.13023992E-02 0.20007865E+02</pdfrwt>
<totfact> 0.39918290E+06</totfact>
</mgrwt>
</event>
<event>
 5    1  0.4046313E-006  0.2001204E+02  0.7818608E-02  0.1745089E+00
         -2   -1    0    0    0  501 -0.00000000000E+00  0.00000000000E+00  0.36029084371E+02  0.36029084465E+02  0.26000000000E-02 0.  1.
          2   -1    0    0  501    0  0.00000000000E+00 -0.00000000000E+00 -0.27788777183E+01  0.27788789346E+01  0.26000000000E-02 0. -1.
       1023    2    1    2    0    0  0.00000000000E+00  0.00000000000E+00  0.33250206653E+02  0.38807963399E+02  0.20012040894E+02 0.  0.
        -11    1    3    3    0    0  0.93547717502E+01  0.35505759185E+01  0.16713992836E+02  0.19480141186E+02  0.51100000000E-03 0. -1.
         11    1    3    3    0    0 -0.93547717502E+01 -0.35505759185E+01  0.16536213817E+02  0.19327822214E+02  0.51100000000E-03 0.  1.
<mgrwt>
<rscale>  0 0.20012041E+02</rscale>
<asrwt>0</asrwt>
<pdfrwt beam="2">  1        2 0.42751978E-03 0.20012041E+02</pdfrwt>
<pdfrwt beam="1">  1       -2 0.55429358E-02 0.20012041E+02</pdfrwt>
<totfact> 0.35309992E+06</totfact>
</mgrwt>
</event>
<event>
 5    1  0.4046313E-006  0.2000021E+02  0.7818608E-02  0.1745324E+00
          2   -1    0    0  501    0  0.00000000000E+00  0.00000000000E+00  0.12088599743E+01  0.12088627703E+01  0.26000000000E-02 0. -1.
         -2   -1    0    0    0  501 -0.00000000000E+00 -0.00000000000E+00 -0.82724202905E+02  0.82724202946E+02  0.26000000000E-02 0.  1.
       1023    2    1    2    0    0  0.00000000000E+00  0.00000000000E+00 -0.81515342930E+02  0.83933065716E+02  0.20000209684E+02 0.  0.
        -11    1    3    3    0    0  0.99263032324E+01 -0.12120038280E+01 -0.40928006821E+02  0.42131961641E+02  0.51100000000E-03 0.  1.
         11    1    3    3    0    0 -0.99263032324E+01  0.12120038280E+01 -0.40587336110E+02  0.41801104075E+02  0.51100000000E-03 0. -1.
<mgrwt>
<rscale>  0 0.20000210E+02</rscale>
<asrwt>0</asrwt>
<pdfrwt beam="1">  1        2 0.18597874E-03 0.20000210E+02</pdfrwt>
<pdfrwt beam="2">  1       -2 0.12726796E-01 0.20000210E+02</pdfrwt>
<totfact> 0.31040167E+06</totfact>
</mgrwt>
</event>
<event>
 5    1  0.4046313E-006  0.2000104E+02  0.7818608E-02  0.1745307E+00
         -2   -1    0    0    0  501 -0.00000000000E+00  0.00000000000E+00  0.96735930113E+02  0.96735930148E+02  0.26000000000E-02 0. -1.
          2   -1    0    0  501    0  0.00000000000E+00 -0.00000000000E+00 -0.10338479619E+01  0.10338512312E+01  0.26000000000E-02 0.  1.
       1023    2    1    2    0    0  0.00000000000E+00  0.00000000000E+00  0.95702082151E+02  0.97769781379E+02  0.20001040545E+02 0.  0.
        -11    1    3    3    0    0  0.62783270861E+01 -0.77841039375E+01  0.47984046825E+02  0.49015083547E+02  0.51100000000E-03 0. -1.
         11    1    3    3    0    0 -0.62783270861E+01  0.77841039375E+01  0.47718035326E+02  0.48754697833E+02  0.51100000000E-03 0.  1.
<mgrwt>
<rscale>  0 0.20001041E+02</rscale>
<asrwt>0</asrwt>
<pdfrwt beam="2">  1        2 0.15905373E-03 0.20001041E+02</pdfrwt>
<pdfrwt beam="1">  1       -2 0.14882456E-01 0.20001041E+02</pdfrwt>
<totfact> 0.29966373E+06</totfact>
</mgrwt>
</event>
<event>
 5    1  0.4046313E-006  0.2000055E+02  0.7818608E-02  0.1745317E+00
          2   -1    0    0  501    0  0.00000000000E+00  0.00000000000E+00  0.45156274673E+02  0.45156274748E+02  0.26000000000E-02 0.  1.
         -2   -1    0    0    0  501 -0.00000000000E+00 -0.00000000000E+00 -0.22146518676E+01  0.22146533937E+01  0.26000000000E-02 0. -1.
       1023    2    1    2    0    0  0.00000000000E+00  0.00000000000E+00  0.42941622806E+02  0.47370928142E+02  0.20000546588E+02 0.  0.
        -11    1    3    3    0    0 -0.34784178329E+01  0.93758027489E+01  0.21518055922E+02  0.23728291104E+02  0.51100000000E-03 0.  1.
         11    1    3    3    0    0  0.34784178329E+01 -0.93758027489E+01  0.21423566884E+02  0.23642637038E+02  0.51100000000E-03 0. -1.
<mgrwt>
<rscale>  0 0.20000547E+02</rscale>
<asrwt>0</asrwt>
<pdfrwt beam="1">  1        2 0.69471189E-02 0.20000547E+02</pdfrwt>
<pdfrwt beam="2">  1       -2 0.34071582E-03 0.20000547E+02</pdfrwt>
<totfact> 0.45640883E+06</totfact>
</mgrwt>
</event>
<event>
 5    1  0.4046313E-006  0.2000162E+02  0.7818608E-02  0.1745296E+00
         -2   -1    0    0    0  501 -0.00000000000E+00  0.00000000000E+00  0.77778682453E+01  0.77778686798E+01  0.26000000000E-02 0.  1.
          2   -1    0    0  501    0  0.00000000000E+00 -0.00000000000E+00 -0.12859074015E+02  0.12859074278E+02  0.26000000000E-02 0. -1.
       1023    2    1    2    0    0  0.00000000000E+00  0.00000000000E+00 -0.50812057699E+01  0.20636942958E+02  0.20001618999E+02 0.  0.
        -11    1    3    3    0    0 -0.59416235578E+01  0.80443921482E+01 -0.25741128802E+01  0.10326722274E+02  0.51100000000E-03 0.  1.
         11    1    3    3    0    0  0.59416235578E+01 -0.80443921482E+01 -0.25070928897E+01  0.10310220684E+02  0.51100000000E-03 0. -1.
<mgrwt>
<rscale>  0 0.20001619E+02</rscale>
<asrwt>0</asrwt>
<pdfrwt beam="2">  1        2 0.19783191E-02 0.20001619E+02</pdfrwt>
<pdfrwt beam="1">  1       -2 0.11965952E-02 0.20001619E+02</pdfrwt>
<totfact> 0.40200348E+06</totfact>
</mgrwt>
</event>
<event>
 5    1  0.4046313E-006  0.2000497E+02  0.7818608E-02  0.1745229E+00
         -2   -1    0    0    0  501 -0.00000000000E+00  0.00000000000E+00  0.49237774297E+01  0.49237781161E+01  0.26000000000E-02 0. -1.
          2   -1    0    0  501    0  0.00000000000E+00 -0.00000000000E+00 -0.20319695177E+02  0.20319695343E+02  0.26000000000E-02 0.  1.
       1023    2    1    2    0    0  0.00000000000E+00  0.00000000000E+00 -0.15395917747E+02  0.25243473459E+02  0.20004966109E+02 0.  0.
        -11    1    3    3    0    0 -0.95857105585E+01  0.28559945934E+01 -0.78043971056E+01  0.12686653084E+02  0.51100000000E-03 0. -1.
         11    1    3    3    0    0  0.95857105585E+01 -0.28559945934E+01 -0.75915206416E+01  0.12556820375E+02  0.51100000000E-03 0.  1.
<mgrwt>
<rscale>  0 0.20004966E+02</rscale>
<asrwt>0</asrwt>
<pdfrwt beam="2">  1        2 0.31261070E-02 0.20004966E+02</pdfrwt>
<pdfrwt beam="1">  1       -2 0.75750430E-03 0.20004966E+02</pdfrwt>
<totfact> 0.41713347E+06</totfact>
</mgrwt>
</event>
<event>
 5    1  0.4046313E-006  0.2000031E+02  0.7818608E-02  0.1745322E+00
          2   -1    0    0  501    0  0.00000000000E+00  0.00000000000E+00  0.50953897688E+02  0.50953897754E+02  0.26000000000E-02 0. -1.
         -2   -1    0    0    0  501 -0.00000000000E+00 -0.00000000000E+00 -0.19626191585E+01  0.19626208807E+01  0.26000000000E-02 0.  1.
       1023    2    1    2    0    0  0.00000000000E+00  0.00000000000E+00  0.48991278530E+02  0.52916518635E+02  0.20000314310E+02 0.  0.
        -11    1    3    3    0    0 -0.95942982349E+01 -0.28198295218E+01  0.24406083759E+02  0.26375346857E+02  0.51100000000E-03 0.  1.
         11    1    3    3    0    0  0.95942982349E+01  0.28198295218E+01  0.24585194771E+02  0.26541171778E+02  0.51100000000E-03 0. -1.
<mgrwt>
<rscale>  0 0.20000314E+02</rscale>
<asrwt>0</asrwt>
<pdfrwt beam="1">  1        2 0.78390606E-02 0.20000314E+02</pdfrwt>
<pdfrwt beam="2">  1       -2 0.30194157E-03 0.20000314E+02</pdfrwt>
<totfact> 0.46459505E+06</totfact>
</mgrwt>
</event>
<event>
 5    1  0.4046313E-006  0.2000053E+02  0.7818608E-02  0.1745318E+00
         -2   -1    0    0    0  501 -0.00000000000E+00  0.00000000000E+00  0.21080675152E+01  0.21080691186E+01  0.26000000000E-02 0.  1.
          2   -1    0    0  501    0  0.00000000000E+00 -0.00000000000E+00 -0.47439287234E+02  0.47439287305E+02  0.26000000000E-02 0. -1.
       1023    2    1    2    0    0  0.00000000000E+00  0.00000000000E+00 -0.45331219718E+02  0.49547356423E+02  0.20000526178E+02 0.  0.
        -11    1    3    3    0    0 -0.75421498481E+01  0.65666731988E+01 -0.22681347423E+02  0.24788076618E+02  0.51100000000E-03 0.  1.
         11    1    3    3    0    0  0.75421498481E+01 -0.65666731988E+01 -0.22649872296E+02  0.24759279806E+02  0.51100000000E-03 0. -1.
<mgrwt>
<rscale>  0 0.20000526E+02</rscale>
<asrwt>0</asrwt>
<pdfrwt beam="2">  1        2 0.72983512E-02 0.20000526E+02</pdfrwt>
<pdfrwt beam="1">  1       -2 0.32431824E-03 0.20000526E+02</pdfrwt>
<totfact> 0.45965515E+06</totfact>
</mgrwt>
</event>
<event>
 4    1  0.4046313E-006  0.2002146E+02  0.7818608E-02  0.1744902E+00
          2   -1    0    0  501    0  0.00000000000E+00  0.00000000000E+00  0.20419300246E+01  0.20419316799E+01  0.26000000000E-02 0. -1.
         -2   -1    0    0    0  501 -0.00000000000E+00 -0.00000000000E+00 -0.49078402984E+02  0.49078403053E+02  0.26000000000E-02 0.  1.
        -11    1    1    2    0    0 -0.13839213633E+01 -0.99045623265E+01 -0.22378904807E+02  0.24511853742E+02  0.51100000000E-03 0.  1.
         11    1    1    2    0    0  0.13839213633E+01  0.99045623265E+01 -0.24657568152E+02  0.26608480991E+02  0.51100000000E-03 0. -1.
<mgrwt>
<rscale>  0 0.20021459E+02</rscale>
<asrwt>0</asrwt>
<pdfrwt beam="1">  1        2 0.31414325E-03 0.20021459E+02</pdfrwt>
<pdfrwt beam="2">  1       -2 0.75505227E-02 0.20021459E+02</pdfrwt>
<totfact> 0.33909398E+06</totfact>
</mgrwt>
</event>
<event>
 5    1  0.4165967E-006  0.2000098E+02  0.7818608E-02  0.1745309E+00
          2   -1    0    0  501    0  0.00000000000E+00  0.00000000000E+00  0.71109911613E+02  0.71109911661E+02  0.26000000000E-02 0.  1.
         -2   -1    0    0    0  501 -0.00000000000E+00 -0.00000000000E+00 -0.14064098955E+01  0.14064122988E+01  0.26000000000E-02 0. -1.
       1023    2    1    2    0    0  0.00000000000E+00  0.00000000000E+00  0.69703501718E+02  0.72516323959E+02  0.20000977198E+02 0.  0.
        -11    1    3    3    0    0  0.87081874266E+01  0.49170350308E+01  0.34863335927E+02  0.36269297677E+02  0.51100000000E-03 0.  1.
         11    1    3    3    0    0 -0.87081874266E+01 -0.49170350308E+01  0.34840165791E+02  0.36247026283E+02  0.51100000000E-03 0. -1.
<mgrwt>
<rscale>  0 0.20000977E+02</rscale>
<asrwt>0</asrwt>
<pdfrwt beam="1">  1        2 0.10939987E-01 0.20000977E+02</pdfrwt>
<pdfrwt beam="2">  1       -2 0.21637093E-03 0.20000977E+02</pdfrwt>
<totfact> 0.49158568E+06</totfact>
</mgrwt>
</event>
<event>
 5    1  0.4046313E-006  0.2000024E+02  0.7818608E-02  0.1745323E+00
          2   -1    0    0  501    0  0.00000000000E+00  0.00000000000E+00  0.21939507087E+02  0.21939507241E+02  0.26000000000E-02 0. -1.
         -2   -1    0    0    0  501 -0.00000000000E+00 -0.00000000000E+00 -0.45580964749E+01  0.45580972165E+01  0.26000000000E-02 0.  1.
       1023    2    1    2    0    0  0.00000000000E+00  0.00000000000E+00  0.17381410612E+02  0.26497604457E+02  0.20000240176E+02 0.  0.
        -11    1    3    3    0    0  0.97598441765E+01  0.21785281471E+01  0.87478172579E+01  0.13286265475E+02  0.51100000000E-03 0. -1.
         11    1    3    3    0    0 -0.97598441765E+01 -0.21785281471E+01  0.86335933538E+01  0.13211338982E+02  0.51100000000E-03 0.  1.
<mgrwt>
<rscale>  0 0.20000240E+02</rscale>
<asrwt>0</asrwt>
<pdfrwt beam="1">  1        2 0.33753088E-02 0.20000240E+02</pdfrwt>
<pdfrwt beam="2">  1       -2 0.70124569E-03 0.20000240E+02</pdfrwt>
<totfact> 0.42027077E+06</totfact>
</mgrwt>
</event>
<event>
 5    1  0.4046313E-006  0.2000053E+02  0.7818608E-02  0.1745317E+00
          2   -1    0    0  501    0  0.00000000000E+00  0.00000000000E+00  0.24135880901E+01  0.24135894905E+01  0.26000000000E-02 0.  1.
         -2   -1    0    0    0  501 -0.00000000000E+00 -0.00000000000E+00 -0.41434288144E+02  0.41434288226E+02  0.26000000000E-02 0. -1.
       1023    2    1    2    0    0  0.00000000000E+00  0.00000000000E+00 -0.39020700054E+02  0.43847877716E+02  0.20000533681E+02 0.  0.
        -11    1    3    3    0    0  0.87736359554E+01 -0.47987920229E+01 -0.19544585516E+02  0.21954405389E+02  0.51100000000E-03 0. -1.
         11    1    3    3    0    0 -0.87736359554E+01  0.47987920229E+01 -0.19476114538E+02  0.21893472327E+02  0.51100000000E-03 0.  1.
<mgrwt>
<rscale>  0 0.20000534E+02</rscale>
<asrwt>0</asrwt>
<pdfrwt beam="1">  1        2 0.37132139E-03 0.20000534E+02</pdfrwt>
<pdfrwt beam="2">  1       -2 0.63745055E-02 0.20000534E+02</pdfrwt>
<totfact> 0.34765625E+06</totfact>
</mgrwt>
</event>
<event>
 5    1  0.4046313E-006  0.2000135E+02  0.7818608E-02  0.1745301E+00
          2   -1    0    0  501    0  0.00000000000E+00  0.00000000000E+00  0.83948248770E+01  0.83948252797E+01  0.26000000000E-02 0. -1.
         -2   -1    0    0    0  501 -0.00000000000E+00 -0.00000000000E+00 -0.11913708035E+02  0.11913708319E+02  0.26000000000E-02 0.  1.
       1023    2    1    2    0    0  0.00000000000E+00  0.00000000000E+00 -0.35188831584E+01  0.20308533599E+02  0.20001349911E+02 0.  0.
        -11    1    3    3    0    0  0.73763777977E+01 -0.67528793115E+01 -0.17941854041E+01  0.10160286902E+02  0.51100000000E-03 0.  1.
         11    1    3    3    0    0 -0.73763777977E+01  0.67528793115E+01 -0.17246977543E+01  0.10148246697E+02  0.51100000000E-03 0. -1.
<mgrwt>
<rscale>  0 0.20001350E+02</rscale>
<asrwt>0</asrwt>
<pdfrwt beam="1">  1        2 0.12915116E-02 0.20001350E+02</pdfrwt>
<pdfrwt beam="2">  1       -2 0.18328782E-02 0.20001350E+02</pdfrwt>
<totfact> 0.38954841E+06</totfact>
</mgrwt>
</event>
<event>
 5    1  0.4046313E-006  0.2000914E+02  0.7818608E-02  0.1745146E+00
          2   -1    0    0  501    0  0.00000000000E+00  0.00000000000E+00  0.47278323343E+01  0.47278330492E+01  0.26000000000E-02 0. -1.
         -2   -1    0    0    0  501 -0.00000000000E+00 -0.00000000000E+00 -0.21170684913E+02  0.21170685073E+02  0.26000000000E-02 0.  1.
       1023    2    1    2    0    0  0.00000000000E+00  0.00000000000E+00 -0.16442852579E+02  0.25898518122E+02  0.20009143909E+02 0.  0.
        -11    1    3    3    0    0  0.75144250579E+01  0.65981105580E+01 -0.78335299846E+01  0.12702985443E+02  0.51100000000E-03 0.  1.
         11    1    3    3    0    0 -0.75144250579E+01 -0.65981105580E+01 -0.86093225941E+01  0.13195532679E+02  0.51100000000E-03 0. -1.
<mgrwt>
<rscale>  0 0.20009144E+02</rscale>
<asrwt>0</asrwt>
<pdfrwt beam="1">  1        2 0.72735890E-03 0.20009144E+02</pdfrwt>
<pdfrwt beam="2">  1       -2 0.32570285E-02 0.20009144E+02</pdfrwt>
<totfact> 0.37217683E+06</totfact>
</mgrwt>
</event>
<event>
 5    1  0.4046313E-006  0.2000047E+02  0.7818608E-02  0.1745319E+00
          2   -1    0    0  501    0  0.00000000000E+00  0.00000000000E+00  0.23875064485E+01  0.23875078642E+01  0.26000000000E-02 0.  1.
         -2   -1    0    0    0  501 -0.00000000000E+00 -0.00000000000E+00 -0.41886657042E+02  0.41886657123E+02  0.26000000000E-02 0. -1.
       1023    2    1    2    0    0  0.00000000000E+00  0.00000000000E+00 -0.39499150594E+02  0.44274164987E+02  0.20000469687E+02 0.  0.
        -11    1    3    3    0    0  0.74271605648E+01 -0.66960967748E+01 -0.19894237147E+02  0.22266142414E+02  0.51100000000E-03 0.  1.
         11    1    3    3    0    0 -0.74271605648E+01  0.66960967748E+01 -0.19604913447E+02  0.22008022573E+02  0.51100000000E-03 0. -1.
<mgrwt>
<rscale>  0 0.20000470E+02</rscale>
<asrwt>0</asrwt>
<pdfrwt beam="1">  1        2 0.36730883E-03 0.20000470E+02</pdfrwt>
<pdfrwt beam="2">  1       -2 0.64441007E-02 0.20000470E+02</pdfrwt>
<totfact> 0.34718142E+06</totfact>
</mgrwt>
</event>
<event>
 5    1  0.4046313E-006  0.2000032E+02  0.7818608E-02  0.1745322E+00
         -2   -1    0    0    0  501 -0.00000000000E+00  0.00000000000E+00  0.19622837045E+01  0.19622854270E+01  0.26000000000E-02 0.  1.
          2   -1    0    0  501    0  0.00000000000E+00 -0.00000000000E+00 -0.50962638857E+02  0.50962638923E+02  0.26000000000E-02 0. -1.
       1023    2    1    2    0    0  0.00000000000E+00  0.00000000000E+00 -0.49000355152E+02  0.52924924350E+02  0.20000320308E+02 0.  0.
        -11    1    3    3    0    0 -0.28270935904E+01 -0.95922178924E+01 -0.24526716262E+02  0.26487032924E+02  0.51100000000E-03 0. -1.
         11    1    3    3    0    0  0.28270935904E+01  0.95922178924E+01 -0.24473638891E+02  0.26437891427E+02  0.51100000000E-03 0.  1.
<mgrwt>
<rscale>  0 0.20000320E+02</rscale>
<asrwt>0</asrwt>
<pdfrwt beam="2">  1        2 0.78404051E-02 0.20000320E+02</pdfrwt>
<pdfrwt beam="1">  1       -2 0.30188998E-03 0.20000320E+02</pdfrwt>
<totfact> 0.46460690E+06</totfact>
</mgrwt>
</event>
<event>
 5    1  0.4046313E-006  0.2000024E+02  0.7818608E-02  0.1745323E+00
          2   -1    0    0  501    0  0.00000000000E+00  0.00000000000E+00  0.57441903883E+01  0.57441909767E+01  0.26000000000E-02 0.  1.
         -2   -1    0    0    0  501 -0.00000000000E+00 -0.00000000000E+00 -0.17409311078E+02  0.17409311272E+02  0.26000000000E-02 0. -1.
       1023    2    1    2    0    0  0.00000000000E+00  0.00000000000E+00 -0.11665120690E+02  0.23153502249E+02  0.20000240641E+02 0.  0.
        -11    1    3    3    0    0 -0.39240008815E+01  0.91980607632E+01 -0.58124610035E+01  0.11566624741E+02  0.51100000000E-03 0.  1.
         11    1    3    3    0    0  0.39240008815E+01 -0.91980607632E+01 -0.58526596865E+01  0.11586877508E+02  0.51100000000E-03 0. -1.
<mgrwt>
<rscale>  0 0.20000241E+02</rscale>
<asrwt>0</asrwt>
<pdfrwt beam="1">  1        2 0.88372167E-03 0.20000241E+02</pdfrwt>
<pdfrwt beam="2">  1       -2 0.26783556E-02 0.20000241E+02</pdfrwt>
<totfact> 0.37856999E+06</totfact>
</mgrwt>
</event>
<event>
 5    1  0.4046313E-006  0.2000413E+02  0.7818608E-02  0.1745246E+00
          2   -1    0    0  501    0  0.00000000000E+00  0.00000000000E+00  0.15072045706E+01  0.15072068131E+01  0.26000000000E-02 0.  1.
         -2   -1    0    0    0  501 -0.00000000000E+00 -0.00000000000E+00 -0.66375359796E+02  0.66375359847E+02  0.26000000000E-02 0. -1.
       1023    2    1    2    0    0  0.00000000000E+00  0.00000000000E+00 -0.64868155226E+02  0.67882566660E+02  0.20004131923E+02 0.  0.
        -11    1    3    3    0    0  0.31388620216E+01  0.94963167224E+01 -0.32115074571E+02  0.33636446023E+02  0.51100000000E-03 0. -1.
         11    1    3    3    0    0 -0.31388620216E+01 -0.94963167224E+01 -0.32753080654E+02  0.34246120637E+02  0.51100000000E-03 0.  1.
<mgrwt>
<rscale>  0 0.20004132E+02</rscale>
<asrwt>0</asrwt>
<pdfrwt beam="1">  1        2 0.23187785E-03 0.20004132E+02</pdfrwt>
<pdfrwt beam="2">  1       -2 0.10211592E-01 0.20004132E+02</pdfrwt>
<totfact> 0.32379904E+06</totfact>
</mgrwt>
</event>
<event>
 5    1  0.4046313E-006  0.2000110E+02  0.7818608E-02  0.1745306E+00
          2   -1    0    0  501    0  0.00000000000E+00  0.00000000000E+00  0.15538479480E+02  0.15538479697E+02  0.26000000000E-02 0.  1.
         -2   -1    0    0    0  501 -0.00000000000E+00 -0.00000000000E+00 -0.64363423060E+01  0.64363428311E+01  0.26000000000E-02 0. -1.
       1023    2    1    2    0    0  0.00000000000E+00  0.00000000000E+00  0.91021371736E+01  0.21974822528E+02  0.20001098070E+02 0.  0.
        -11    1    3    3    0    0  0.99530193876E+01 -0.97189876492E+00  0.44833537866E+01  0.10959363283E+02  0.51100000000E-03 0. -1.
         11    1    3    3    0    0 -0.99530193876E+01  0.97189876492E+00  0.46187833870E+01  0.11015459245E+02  0.51100000000E-03 0.  1.
<mgrwt>
<rscale>  0 0.20001098E+02</rscale>
<asrwt>0</asrwt>
<pdfrwt beam="1">  1        2 0.23905353E-02 0.20001098E+02</pdfrwt>
<pdfrwt beam="2">  1       -2 0.99020659E-03 0.20001098E+02</pdfrwt>
<totfact> 0.40798820E+06</totfact>
</mgrwt>
</event>
<event>
 5    1  0.4046313E-006  0.2000071E+02  0.7818608E-02  0.1745314E+00
          2   -1    0    0  501    0  0.00000000000E+00  0.00000000000E+00  0.16336890041E+01  0.16336910730E+01  0.26000000000E-02 0.  1.
         -2   -1    0    0    0  501 -0.00000000000E+00 -0.00000000000E+00 -0.61215459628E+02  0.61215459684E+02  0.26000000000E-02 0. -1.
       1023    2    1    2    0    0  0.00000000000E+00  0.00000000000E+00 -0.59581770624E+02  0.62849150757E+02  0.20000708990E+02 0.  0.
        -11    1    3    3    0    0  0.22436701948E+01 -0.97453536988E+01 -0.29895818337E+02  0.31524053181E+02  0.51100000000E-03 0.  1.
         11    1    3    3    0    0 -0.22436701948E+01  0.97453536988E+01 -0.29685952288E+02  0.31325097576E+02  0.51100000000E-03 0. -1.
<mgrwt>
<rscale>  0 0.20000709E+02</rscale>
<asrwt>0</asrwt>
<pdfrwt beam="1">  1        2 0.25133698E-03 0.20000709E+02</pdfrwt>
<pdfrwt beam="2">  1       -2 0.94177615E-02 0.20000709E+02</pdfrwt>
<totfact> 0.32847760E+06</totfact>
</mgrwt>
</event>
<event>
 5    1  0.4046313E-006  0.2000292E+02  0.7818608E-02  0.1745270E+00
          2   -1    0    0  501    0  0.00000000000E+00  0.00000000000E+00  0.59264173915E+02  0.59264173972E+02  0.26000000000E-02 0. -1.
         -2   -1    0    0    0  501 -0.00000000000E+00 -0.00000000000E+00 -0.16878513255E+01  0.16878533280E+01  0.26000000000E-02 0.  1.
       1023    2    1    2    0    0  0.00000000000E+00  0.00000000000E+00  0.57576322589E+02  0.60952027300E+02  0.20002917513E+02 0.  0.
        -11    1    3    3    0    0 -0.84496494307E+00 -0.99656938087E+01  0.28826482429E+02  0.30512212446E+02  0.51100000000E-03 0.  1.
         11    1    3    3    0    0  0.84496494307E+00  0.99656938087E+01  0.28749840160E+02  0.30439814854E+02  0.51100000000E-03 0. -1.
<mgrwt>
<rscale>  0 0.20002918E+02</rscale>
<asrwt>0</asrwt>
<pdfrwt beam="1">  1        2 0.91175648E-02 0.20002918E+02</pdfrwt>
<pdfrwt beam="2">  1       -2 0.25966961E-03 0.20002918E+02</pdfrwt>
<totfact> 0.47583203E+06</totfact>
</mgrwt>
</event>
<event>
 5    1  0.4046313E-006  0.2000020E+02  0.7818608E-02  0.1745324E+00
          2   -1    0    0  501    0  0.00000000000E+00  0.00000000000E+00  0.19748122646E+02  0.19748122817E+02  0.26000000000E-02 0.  1.
         -2   -1    0    0    0  501 -0.00000000000E+00 -0.00000000000E+00 -0.50638709114E+01  0.50638715789E+01  0.26000000000E-02 0. -1.
       1023    2    1    2    0    0  0.00000000000E+00  0.00000000000E+00  0.14684251734E+02  0.24811994396E+02  0.20000195421E+02 0.  0.
        -11    1    3    3    0    0 -0.80653315752E+01  0.59119369644E+01  0.72960087981E+01  0.12378704162E+02  0.51100000000E-03 0. -1.
         11    1    3    3    0    0  0.80653315752E+01 -0.59119369644E+01  0.73882429362E+01  0.12433290234E+02  0.51100000000E-03 0.  1.
<mgrwt>
<rscale>  0 0.20000195E+02</rscale>
<asrwt>0</asrwt>
<pdfrwt beam="1">  1        2 0.30381727E-02 0.20000195E+02</pdfrwt>
<pdfrwt beam="2">  1       -2 0.77905714E-03 0.20000195E+02</pdfrwt>
<totfact> 0.41630522E+06</totfact>
</mgrwt>
</event>
<event>
 5    1  0.4046313E-006  0.2000282E+02  0.7818608E-02  0.1745272E+00
         -2   -1    0    0    0  501 -0.00000000000E+00  0.00000000000E+00  0.23600675106E+01  0.23600689427E+01  0.26000000000E-02 0.  1.
          2   -1    0    0  501    0  0.00000000000E+00 -0.00000000000E+00 -0.42383605270E+02  0.42383605350E+02  0.26000000000E-02 0. -1.
       1023    2    1    2    0    0  0.00000000000E+00  0.00000000000E+00 -0.40023537759E+02  0.44743674292E+02  0.20002820161E+02 0.  0.
        -11    1    3    3    0    0 -0.31831721924E+01  0.94801233326E+01 -0.20350118659E+02  0.22674493452E+02  0.51100000000E-03 0.  1.
         11    1    3    3    0    0  0.31831721924E+01 -0.94801233326E+01 -0.19673419100E+02  0.22069180840E+02  0.51100000000E-03 0. -1.
<mgrwt>
<rscale>  0 0.20002820E+02</rscale>
<asrwt>0</asrwt>
<pdfrwt beam="2">  1        2 0.65205542E-02 0.20002820E+02</pdfrwt>
<pdfrwt beam="1">  1       -2 0.36308746E-03 0.20002820E+02</pdfrwt>
<totfact> 0.45230192E+06</totfact>
</mgrwt>
</event>
<event>
 5    1  0.4046313E-006  0.2000081E+02  0.7818608E-02  0.1745312E+00
         -2   -1    0    0    0  501 -0.00000000000E+00  0.00000000000E+00  0.16387241134E+01  0.16387261760E+01  0.26000000000E-02 0.  1.
          2   -1    0    0  501    0  0.00000000000E+00 -0.00000000000E+00 -0.61028003637E+02  0.61028003693E+02  0.26000000000E-02 0. -1.
       1023    2    1    2    0    0  0.00000000000E+00  0.00000000000E+00 -0.59389279524E+02  0.62666729869E+02  0.20000812735E+02 0.  0.
        -11    1    3    3    0    0 -0.99646874856E+01 -0.83997611357E+00 -0.29422019970E+02  0.31075003072E+02  0.51100000000E-03 0. -1.
         11    1    3    3    0    0  0.99646874856E+01  0.83997611357E+00 -0.29967259553E+02  0.31591726796E+02  0.51100000000E-03 0.  1.
<mgrwt>
<rscale>  0 0.20000813E+02</rscale>
<asrwt>0</asrwt>
<pdfrwt beam="2">  1        2 0.93889220E-02 0.20000813E+02</pdfrwt>
<pdfrwt beam="1">  1       -2 0.25211161E-03 0.20000813E+02</pdfrwt>
<totfact> 0.47831424E+06</totfact>
</mgrwt>
</event>
<event>
 5    1  0.4046313E-006  0.2000005E+02  0.7818608E-02  0.1745327E+00
         -2   -1    0    0    0  501 -0.00000000000E+00  0.00000000000E+00  0.25374195098E+01  0.25374208419E+01  0.26000000000E-02 0.  1.
          2   -1    0    0  501    0  0.00000000000E+00 -0.00000000000E+00 -0.39410315402E+02  0.39410315488E+02  0.26000000000E-02 0. -1.
       1023    2    1    2    0    0  0.00000000000E+00  0.00000000000E+00 -0.36872895893E+02  0.41947736330E+02  0.20000053293E+02 0.  0.
        -11    1    3    3    0    0  0.79299104829E+01 -0.60923435402E+01 -0.18478531040E+02  0.21010860043E+02  0.51100000000E-03 0.  1.
         11    1    3    3    0    0 -0.79299104829E+01  0.60923435402E+01 -0.18394364852E+02  0.20936876287E+02  0.51100000000E-03 0. -1.
<mgrwt>
<rscale>  0 0.20000053E+02</rscale>
<asrwt>0</asrwt>
<pdfrwt beam="2">  1        2 0.60631251E-02 0.20000053E+02</pdfrwt>
<pdfrwt beam="1">  1       -2 0.39037237E-03 0.20000053E+02</pdfrwt>
<totfact> 0.44809178E+06</totfact>
</mgrwt>
</event>
<event>
 5    1  0.4046313E-006  0.2000038E+02  0.7818608E-02  0.1745321E+00
         -2   -1    0    0    0  501 -0.00000000000E+00  0.00000000000E+00  0.54789368971E+01  0.54789375140E+01  0.26000000000E-02 0. -1.
          2   -1    0    0  501    0  0.00000000000E+00 -0.00000000000E+00 -0.18252408170E+02  0.18252408355E+02  0.26000000000E-02 0.  1.
       1023    2    1    2    0    0  0.00000000000E+00  0.00000000000E+00 -0.12773471273E+02  0.23731345869E+02  0.20000380206E+02 0.  0.
        -11    1    3    3    0    0 -0.30985068228E+01  0.95080426943E+01 -0.63707532325E+01  0.11857070356E+02  0.51100000000E-03 0.  1.
         11    1    3    3    0    0  0.30985068228E+01 -0.95080426943E+01 -0.64027180405E+01  0.11874275514E+02  0.51100000000E-03 0. -1.
<mgrwt>
<rscale>  0 0.20000380E+02</rscale>
<asrwt>0</asrwt>
<pdfrwt beam="2">  1        2 0.28080628E-02 0.20000380E+02</pdfrwt>
<pdfrwt beam="1">  1       -2 0.84291344E-03 0.20000380E+02</pdfrwt>
<totfact> 0.41347119E+06</totfact>
</mgrwt>
</event>
<event>
 5    1  0.4046313E-006  0.2000013E+02  0.7818608E-02  0.1745326E+00
         -2   -1    0    0    0  501 -0.00000000000E+00  0.00000000000E+00  0.33952532660E+01  0.33952542615E+01  0.26000000000E-02 0.  1.
          2   -1    0    0  501    0  0.00000000000E+00 -0.00000000000E+00 -0.29453257942E+02  0.29453258057E+02  0.26000000000E-02 0. -1.
       1023    2    1    2    0    0  0.00000000000E+00  0.00000000000E+00 -0.26058004676E+02  0.32848512318E+02  0.20000128845E+02 0.  0.
        -11    1    3    3    0    0  0.91594898075E+01  0.40130554236E+01 -0.12995309614E+02  0.16397528460E+02  0.51100000000E-03 0.  1.
         11    1    3    3    0    0 -0.91594898075E+01 -0.40130554236E+01 -0.13062695062E+02  0.16450983859E+02  0.51100000000E-03 0. -1.
<mgrwt>
<rscale>  0 0.20000129E+02</rscale>
<asrwt>0</asrwt>
<pdfrwt beam="2">  1        2 0.45312704E-02 0.20000129E+02</pdfrwt>
<pdfrwt beam="1">  1       -2 0.52234676E-03 0.20000129E+02</pdfrwt>
<totfact> 0.43285605E+06</totfact>
</mgrwt>
</event>
<event>
 5    1  0.4046313E-006  0.2000183E+02  0.7818608E-02  0.1745292E+00
         -2   -1    0    0    0  501 -0.00000000000E+00  0.00000000000E+00  0.31038030274E+01  0.31038041164E+01  0.26000000000E-02 0.  1.
          2   -1    0    0  501    0  0.00000000000E+00 -0.00000000000E+00 -0.32224421416E+02  0.32224421521E+02  0.26000000000E-02 0. -1.
       1023    2    1    2    0    0  0.00000000000E+00  0.00000000000E+00 -0.29120618389E+02  0.35328225638E+02  0.20001827700E+02 0.  0.
        -11    1    3    3    0    0  0.95608866502E+01  0.29338879586E+01 -0.14569225536E+02  0.17671462449E+02  0.51100000000E-03 0.  1.
         11    1    3    3    0    0 -0.95608866502E+01 -0.29338879586E+01 -0.14551392853E+02  0.17656763189E+02  0.51100000000E-03 0. -1.
<mgrwt>
<rscale>  0 0.20001828E+02</rscale>
<asrwt>0</asrwt>
<pdfrwt beam="2">  1        2 0.49576032E-02 0.20001828E+02</pdfrwt>
<pdfrwt beam="1">  1       -2 0.47750827E-03 0.20001828E+02</pdfrwt>
<totfact> 0.43713559E+06</totfact>
</mgrwt>
</event>
<event>
 4    1  0.4046313E-006  0.2002143E+02  0.7818608E-02  0.1744902E+00
          2   -1    0    0  501    0  0.00000000000E+00  0.00000000000E+00  0.45828286486E+01  0.45828293862E+01  0.26000000000E-02 0.  1.
         -2   -1    0    0    0  501 -0.00000000000E+00 -0.00000000000E+00 -0.21867361733E+02  0.21867361888E+02  0.26000000000E-02 0. -1.
        -11    1    1    2    0    0  0.93757438621E+01 -0.34852186809E+01 -0.81087977434E+01  0.12876487228E+02  0.51100000000E-03 0.  1.
         11    1    1    2    0    0 -0.93757438621E+01  0.34852186809E+01 -0.91757353412E+01  0.13573704046E+02  0.51100000000E-03 0. -1.
<mgrwt>
<rscale>  0 0.20021427E+02</rscale>
<asrwt>0</asrwt>
<pdfrwt beam="1">  1        2 0.70505065E-03 0.20021427E+02</pdfrwt>
<pdfrwt beam="2">  1       -2 0.33642095E-02 0.20021427E+02</pdfrwt>
<totfact> 0.37064715E+06</totfact>
</mgrwt>
</event>
<event>
 5    1  0.4240725E-006  0.2000145E+02  0.7818608E-02  0.1745299E+00
         -2   -1    0    0    0  501 -0.00000000000E+00  0.00000000000E+00  0.11090989732E+01  0.11091020207E+01  0.26000000000E-02 0.  1.
          2   -1    0    0  501    0  0.00000000000E+00 -0.00000000000E+00 -0.90176241307E+02  0.90176241345E+02  0.26000000000E-02 0. -1.
       1023    2    1    2    0    0  0.00000000000E+00  0.00000000000E+00 -0.89067142334E+02  0.91285343365E+02  0.20001451692E+02 0.  0.
        -11    1    3    3    0    0  0.99585688510E+01 -0.91729018490E+00 -0.44526590161E+02  0.45635860313E+02  0.51100000000E-03 0. -1.
         11    1    3    3    0    0 -0.99585688510E+01  0.91729018490E+00 -0.44540552173E+02  0.45649483053E+02  0.51100000000E-03 0.  1.
<mgrwt>
<rscale>  0 0.20001452E+02</rscale>
<asrwt>0</asrwt>
<pdfrwt beam="2">  1        2 0.13873262E-01 0.20001452E+02</pdfrwt>
<pdfrwt beam="1">  1       -2 0.17063092E-03 0.20001452E+02</pdfrwt>
<totfact> 0.51558108E+06</totfact>
</mgrwt>
</event>
<event>
 4    1  0.4046313E-006  0.2001284E+02  0.7818608E-02  0.1745073E+00
         -2   -1    0    0    0  501 -0.00000000000E+00  0.00000000000E+00  0.17680482575E+01  0.17680501692E+01  0.26000000000E-02 0. -1.
          2   -1    0    0  501    0  0.00000000000E+00 -0.00000000000E+00 -0.56632145658E+02  0.56632145717E+02  0.26000000000E-02 0.  1.
        -11    1    1    2    0    0  0.41627788376E+00  0.99934981747E+01 -0.26580619097E+02  0.28400221916E+02  0.51100000000E-03 0. -1.
         11    1    1    2    0    0 -0.41627788376E+00 -0.99934981747E+01 -0.28283478303E+02  0.29999973971E+02  0.51100000000E-03 0.  1.
<mgrwt>
<rscale>  0 0.20012838E+02</rscale>
<asrwt>0</asrwt>
<pdfrwt beam="2">  1        2 0.87126365E-02 0.20012838E+02</pdfrwt>
<pdfrwt beam="1">  1       -2 0.27200762E-03 0.20012838E+02</pdfrwt>
<totfact> 0.47174794E+06</totfact>
</mgrwt>
</event>
<event>
 4    1  0.4046313E-006  0.2005153E+02  0.7818608E-02  0.1744305E+00
          2   -1    0    0  501    0  0.00000000000E+00  0.00000000000E+00  0.64339685403E+01  0.64339690656E+01  0.26000000000E-02 0.  1.
         -2   -1    0    0    0  501 -0.00000000000E+00 -0.00000000000E+00 -0.15622701950E+02  0.15622702166E+02  0.26000000000E-02 0. -1.
        -11    1    1    2    0    0 -0.22136003898E+01  0.97541500429E+01 -0.38382333576E+01  0.10713333063E+02  0.51100000000E-03 0. -1.
         11    1    1    2    0    0  0.22136003898E+01 -0.97541500429E+01 -0.53505000517E+01  0.11343338169E+02  0.51100000000E-03 0.  1.
<mgrwt>
<rscale>  0 0.20051532E+02</rscale>
<asrwt>0</asrwt>
<pdfrwt beam="1">  1        2 0.98984137E-03 0.20051532E+02</pdfrwt>
<pdfrwt beam="2">  1       -2 0.24034927E-02 0.20051532E+02</pdfrwt>
<totfact> 0.37967115E+06</totfact>
</mgrwt>
</event>
<event>
 5    1  0.4046313E-006  0.2000174E+02  0.7818608E-02  0.1745294E+00
          2   -1    0    0  501    0  0.00000000000E+00  0.00000000000E+00  0.14409109379E+01  0.14409132836E+01  0.26000000000E-02 0. -1.
         -2   -1    0    0    0  501 -0.00000000000E+00 -0.00000000000E+00 -0.69412544010E+02  0.69412544059E+02  0.26000000000E-02 0.  1.
       1023    2    1    2    0    0  0.00000000000E+00  0.00000000000E+00 -0.67971633072E+02  0.70853457342E+02  0.20001737796E+02 0.  0.
        -11    1    3    3    0    0 -0.64814258240E-01 -0.10000080469E+02 -0.33604815774E+02  0.35061224362E+02  0.51100000000E-03 0.  1.
         11    1    3    3    0    0  0.64814258240E-01  0.10000080469E+02 -0.34366817298E+02  0.35792232981E+02  0.51100000000E-03 0. -1.
<mgrwt>
<rscale>  0 0.20001738E+02</rscale>
<asrwt>0</asrwt>
<pdfrwt beam="1">  1        2 0.22167884E-03 0.20001738E+02</pdfrwt>
<pdfrwt beam="2">  1       -2 0.10678850E-01 0.20001738E+02</pdfrwt>
<totfact> 0.32127112E+06</totfact>
</mgrwt>
</event>
<event>
 4    1  0.4046313E-006  0.2001679E+02  0.7818608E-02  0.1744994E+00
         -2   -1    0    0    0  501 -0.00000000000E+00  0.00000000000E+00  0.38619507218E+02  0.38619507305E+02  0.26000000000E-02 0. -1.
          2   -1    0    0  501    0  0.00000000000E+00 -0.00000000000E+00 -0.25937125284E+01  0.25937138315E+01  0.26000000000E-02 0.  1.
        -11    1    1    2    0    0 -0.93441230449E+01 -0.35837475957E+01  0.17786922537E+02  0.20409078762E+02  0.51100000000E-03 0. -1.
         11    1    1    2    0    0  0.93441230449E+01  0.35837475957E+01  0.18238872152E+02  0.20804142375E+02  0.51100000000E-03 0.  1.
<mgrwt>
<rscale>  0 0.20016786E+02</rscale>
<asrwt>0</asrwt>
<pdfrwt beam="2">  1        2 0.39903278E-03 0.20016786E+02</pdfrwt>
<pdfrwt beam="1">  1       -2 0.59414631E-02 0.20016786E+02</pdfrwt>
<totfact> 0.35005568E+06</totfact>
</mgrwt>
</event>
<event>
 5    1  0.4046313E-006  0.2000016E+02  0.7818608E-02  0.1745325E+00
         -2   -1    0    0    0  501 -0.00000000000E+00  0.00000000000E+00  0.83804846700E+01  0.83804850733E+01  0.26000000000E-02 0.  1.
          2   -1    0    0  501    0  0.00000000000E+00 -0.00000000000E+00 -0.11932679776E+02  0.11932680059E+02  0.26000000000E-02 0. -1.
       1023    2    1    2    0    0  0.00000000000E+00  0.00000000000E+00 -0.35521951056E+01  0.20313165132E+02  0.20000164690E+02 0.  0.
        -11    1    3    3    0    0  0.94702414643E+01 -0.32118306573E+01 -0.17941829841E+01  0.10159745194E+02  0.51100000000E-03 0.  1.
         11    1    3    3    0    0 -0.94702414643E+01  0.32118306573E+01 -0.17580121216E+01  0.10153419938E+02  0.51100000000E-03 0. -1.
<mgrwt>
<rscale>  0 0.20000165E+02</rscale>
<asrwt>0</asrwt>
<pdfrwt beam="2">  1        2 0.18357969E-02 0.20000165E+02</pdfrwt>
<pdfrwt beam="1">  1       -2 0.12893054E-02 0.20000165E+02</pdfrwt>
<totfact> 0.39981145E+06</totfact>
</mgrwt>
</event>
<event>
 5    1  0.4046313E-006  0.2000065E+02  0.7818608E-02  0.1745315E+00
          2   -1    0    0  501    0  0.00000000000E+00  0.00000000000E+00  0.12961886028E+01  0.12961912105E+01  0.26000000000E-02 0.  1.
         -2   -1    0    0    0  501 -0.00000000000E+00 -0.00000000000E+00 -0.77154169033E+02  0.77154169077E+02  0.26000000000E-02 0. -1.
       1023    2    1    2    0    0  0.00000000000E+00  0.00000000000E+00 -0.75857980430E+02  0.78450360287E+02  0.20000645846E+02 0.  0.
        -11    1    3    3    0    0 -0.93713212096E+01  0.34902666698E+01 -0.38137861251E+02  0.39427149069E+02  0.51100000000E-03 0. -1.
         11    1    3    3    0    0  0.93713212096E+01 -0.34902666698E+01 -0.37720119178E+02  0.39023211218E+02  0.51100000000E-03 0.  1.
<mgrwt>
<rscale>  0 0.20000646E+02</rscale>
<asrwt>0</asrwt>
<pdfrwt beam="1">  1        2 0.19941390E-03 0.20000646E+02</pdfrwt>
<pdfrwt beam="2">  1       -2 0.11869869E-01 0.20000646E+02</pdfrwt>
<totfact> 0.31485743E+06</totfact>
</mgrwt>
</event>
<event>
 5    1  0.4046313E-006  0.2000250E+02  0.7818608E-02  0.1745278E+00
         -2   -1    0    0    0  501 -0.00000000000E+00  0.00000000000E+00  0.37265988182E+01  0.37265997252E+01  0.26000000000E-02 0.  1.
          2   -1    0    0  501    0  0.00000000000E+00 -0.00000000000E+00 -0.26840834628E+02  0.26840834754E+02  0.26000000000E-02 0. -1.
       1023    2    1    2    0    0  0.00000000000E+00  0.00000000000E+00 -0.23114235809E+02  0.30567434479E+02  0.20002503682E+02 0.  0.
        -11    1    3    3    0    0  0.15409672609E+01 -0.98806230268E+01 -0.11321626193E+02  0.15105645018E+02  0.51100000000E-03 0.  1.
         11    1    3    3    0    0 -0.15409672609E+01  0.98806230268E+01 -0.11792609616E+02  0.15461789460E+02  0.51100000000E-03 0. -1.
<mgrwt>
<rscale>  0 0.20002504E+02</rscale>
<asrwt>0</asrwt>
<pdfrwt beam="2">  1        2 0.41293591E-02 0.20002504E+02</pdfrwt>
<pdfrwt beam="1">  1       -2 0.57332299E-03 0.20002504E+02</pdfrwt>
<totfact> 0.42851168E+06</totfact>
</mgrwt>
</event>
<event>
 5    1  0.4046313E-006  0.2000065E+02  0.7818608E-02  0.1745315E+00
          2   -1    0    0  501    0  0.00000000000E+00  0.00000000000E+00  0.48093571306E+01  0.48093578334E+01  0.26000000000E-02 0. -1.
         -2   -1    0    0    0  501 -0.00000000000E+00 -0.00000000000E+00 -0.20794143583E+02  0.20794143746E+02  0.26000000000E-02 0.  1.
       1023    2    1    2    0    0  0.00000000000E+00  0.00000000000E+00 -0.15984786453E+02  0.25603501579E+02  0.20000647369E+02 0.  0.
        -11    1    3    3    0    0  0.99688859821E+01  0.78976520457E+00 -0.80739281071E+01  0.12852654673E+02  0.51100000000E-03 0. -1.
         11    1    3    3    0    0 -0.99688859821E+01 -0.78976520457E+00 -0.79108583457E+01  0.12750846906E+02  0.51100000000E-03 0.  1.
<mgrwt>
<rscale>  0 0.20000647E+02</rscale>
<asrwt>0</asrwt>
<pdfrwt beam="1">  1        2 0.73990118E-03 0.20000647E+02</pdfrwt>
<pdfrwt beam="2">  1       -2 0.31990990E-02 0.20000647E+02</pdfrwt>
<totfact> 0.37308944E+06</totfact>
</mgrwt>
</event>
<event>
 5    1  0.4046313E-006  0.2000049E+02  0.7818608E-02  0.1745318E+00
         -2   -1    0    0    0  501 -0.00000000000E+00  0.00000000000E+00  0.15125609724E+01  0.15125632070E+01  0.26000000000E-02 0.  1.
          2   -1    0    0  501    0  0.00000000000E+00 -0.00000000000E+00 -0.66116232638E+02  0.66116232690E+02  0.26000000000E-02 0. -1.
       1023    2    1    2    0    0  0.00000000000E+00  0.00000000000E+00 -0.64603671666E+02  0.67628795897E+02  0.20000491036E+02 0.  0.
        -11    1    3    3    0    0 -0.99983313659E+01 -0.19083818723E+00 -0.32447699138E+02  0.33953736598E+02  0.51100000000E-03 0. -1.
         11    1    3    3    0    0  0.99983313659E+01  0.19083818723E+00 -0.32155972528E+02  0.33675059299E+02  0.51100000000E-03 0.  1.
<mgrwt>
<rscale>  0 0.20000491E+02</rscale>
<asrwt>0</asrwt>
<pdfrwt beam="2">  1        2 0.10171726E-01 0.20000491E+02</pdfrwt>
<pdfrwt beam="1">  1       -2 0.23270192E-03 0.20000491E+02</pdfrwt>
<totfact> 0.48508977E+06</totfact>
</mgrwt>
</event>
<event>
 4    1  0.4046313E-006  0.2029485E+02  0.7818608E-02  0.1739527E+00
         -2   -1    0    0    0  501 -0.00000000000E+00  0.00000000000E+00  0.93649983903E+00  0.93650344821E+00  0.26000000000E-02 0. -1.
          2   -1    0    0  501    0  0.00000000000E+00 -0.00000000000E+00 -0.10995201107E+03  0.10995201110E+03  0.26000000000E-02 0.  1.
        -11    1    1    2    0    0  0.81972340044E+01  0.59360043623E+01 -0.50494692948E+02  0.51498978720E+02  0.51100000000E-03 0.  1.
         11    1    1    2    0    0 -0.81972340044E+01 -0.59360043623E+01 -0.58520818282E+02  0.59389535827E+02  0.51100000000E-03 0. -1.
<mgrwt>
<rscale>  0 0.20294851E+02</rscale>
<asrwt>0</asrwt>
<pdfrwt beam="2">  1        2 0.16915684E-01 0.20294851E+02</pdfrwt>
<pdfrwt beam="1">  1       -2 0.14407726E-03 0.20294851E+02</pdfrwt>
<totfact> 0.52220319E+06</totfact>
</mgrwt>
</event>
<event>
 5    1  0.4046313E-006  0.2000726E+02  0.7818608E-02  0.1745184E+00
          2   -1    0    0  501    0  0.00000000000E+00  0.00000000000E+00  0.40738019038E+01  0.40738027335E+01  0.26000000000E-02 0.  1.
         -2   -1    0    0    0  501 -0.00000000000E+00 -0.00000000000E+00 -0.24564915130E+02  0.24564915267E+02  0.26000000000E-02 0. -1.
       1023    2    1    2    0    0  0.00000000000E+00  0.00000000000E+00 -0.20491113226E+02  0.28638718001E+02  0.20007259870E+02 0.  0.
        -11    1    3    3    0    0 -0.93694055071E+01 -0.34956902583E+01 -0.10616074164E+02  0.14584465738E+02  0.51100000000E-03 0.  1.
         11    1    3    3    0    0  0.93694055071E+01  0.34956902583E+01 -0.98750390614E+01  0.14054252263E+02  0.51100000000E-03 0. -1.
<mgrwt>
<rscale>  0 0.20007260E+02</rscale>
<asrwt>0</asrwt>
<pdfrwt beam="1">  1        2 0.62673884E-03 0.20007260E+02</pdfrwt>
<pdfrwt beam="2">  1       -2 0.37792177E-02 0.20007260E+02</pdfrwt>
<totfact> 0.36739262E+06</totfact>
</mgrwt>
</event>
<event>
 5    1  0.4046313E-006  0.2000123E+02  0.7818608E-02  0.1745304E+00
         -2   -1    0    0    0  501 -0.00000000000E+00  0.00000000000E+00  0.97295454088E+02  0.97295454123E+02  0.26000000000E-02 0. -1.
          2   -1    0    0  501    0  0.00000000000E+00 -0.00000000000E+00 -0.10279218547E+01  0.10279251428E+01  0.26000000000E-02 0.  1.
       1023    2    1    2    0    0  0.00000000000E+00  0.00000000000E+00  0.96267532233E+02  0.98323379266E+02  0.20001228660E+02 0.  0.
        -11    1    3    3    0    0  0.76913746653E+01 -0.63914814275E+01  0.48444969449E+02  0.49466386004E+02  0.51100000000E-03 0. -1.
         11    1    3    3    0    0 -0.76913746653E+01  0.63914814275E+01  0.47822562784E+02  0.48856993262E+02  0.51100000000E-03 0.  1.
<mgrwt>
<rscale>  0 0.20001229E+02</rscale>
<asrwt>0</asrwt>
<pdfrwt beam="2">  1        2 0.15814207E-03 0.20001229E+02</pdfrwt>
<pdfrwt beam="1">  1       -2 0.14968532E-01 0.20001229E+02</pdfrwt>
<totfact> 0.29924524E+06</totfact>
</mgrwt>
</event>
<event>
 5    1  0.4046313E-006  0.2000167E+02  0.7818608E-02  0.1745295E+00
          2   -1    0    0  501    0  0.00000000000E+00  0.00000000000E+00  0.18641422107E+01  0.18641440239E+01  0.26000000000E-02 0. -1.
         -2   -1    0    0    0  501 -0.00000000000E+00 -0.00000000000E+00 -0.53652911871E+02  0.53652911934E+02  0.26000000000E-02 0.  1.
       1023    2    1    2    0    0  0.00000000000E+00  0.00000000000E+00 -0.51788769661E+02  0.55517055958E+02  0.20001670913E+02 0.  0.
        -11    1    3    3    0    0  0.39577111445E+01 -0.91836797352E+01 -0.26213986254E+02  0.28056666348E+02  0.51100000000E-03 0. -1.
         11    1    3    3    0    0 -0.39577111445E+01  0.91836797352E+01 -0.25574783407E+02  0.27460389610E+02  0.51100000000E-03 0.  1.
<mgrwt>
<rscale>  0 0.20001671E+02</rscale>
<asrwt>0</asrwt>
<pdfrwt beam="1">  1        2 0.28679129E-03 0.20001671E+02</pdfrwt>
<pdfrwt beam="2">  1       -2 0.82542931E-02 0.20001671E+02</pdfrwt>
<totfact> 0.33541444E+06</totfact>
</mgrwt>
</event>
<event>
 5    1  0.4046313E-006  0.2000066E+02  0.7818608E-02  0.1745315E+00
         -2   -1    0    0    0  501 -0.00000000000E+00  0.00000000000E+00  0.26637441147E+01  0.26637453836E+01  0.26000000000E-02 0. -1.
          2   -1    0    0  501    0  0.00000000000E+00 -0.00000000000E+00 -0.37543626761E+02  0.37543626851E+02  0.26000000000E-02 0.  1.
       1023    2    1    2    0    0  0.00000000000E+00  0.00000000000E+00 -0.34879882646E+02  0.40207372235E+02  0.20000664204E+02 0.  0.
        -11    1    3    3    0    0  0.26531978426E+01  0.96417813800E+01 -0.17325602750E+02  0.20004497441E+02  0.51100000000E-03 0.  1.
         11    1    3    3    0    0 -0.26531978426E+01 -0.96417813800E+01 -0.17554279896E+02  0.20202874793E+02  0.51100000000E-03 0. -1.
<mgrwt>
<rscale>  0 0.20000664E+02</rscale>
<asrwt>0</asrwt>
<pdfrwt beam="2">  1        2 0.57759423E-02 0.20000664E+02</pdfrwt>
<pdfrwt beam="1">  1       -2 0.40980692E-03 0.20000664E+02</pdfrwt>
<totfact> 0.44529033E+06</totfact>
</mgrwt>
</event>
<event>
 5    1  0.4046313E-006  0.2000050E+02  0.7818608E-02  0.1745318E+00
         -2   -1    0    0    0  501 -0.00000000000E+00  0.00000000000E+00  0.58062186898E+02  0.58062186956E+02  0.26000000000E-02 0.  1.
          2   -1    0    0  501    0  0.00000000000E+00 -0.00000000000E+00 -0.17223763669E+01  0.17223783293E+01  0.26000000000E-02 0. -1.
       1023    2    1    2    0    0  0.00000000000E+00  0.00000000000E+00  0.56339810531E+02  0.59784565285E+02  0.20000499886E+02 0.  0.
        -11    1    3    3    0    0 -0.51158862016E+01 -0.85925513279E+01  0.28252781471E+02  0.29970383566E+02  0.51100000000E-03 0. -1.
         11    1    3    3    0    0  0.51158862016E+01  0.85925513279E+01  0.28087029060E+02  0.29814181720E+02  0.51100000000E-03 0.  1.
<mgrwt>
<rscale>  0 0.20000500E+02</rscale>
<asrwt>0</asrwt>
<pdfrwt beam="2">  1        2 0.26498114E-03 0.20000500E+02</pdfrwt>
<pdfrwt beam="1">  1       -2 0.89326441E-02 0.20000500E+02</pdfrwt>
<totfact> 0.33134949E+06</totfact>
</mgrwt>
</event>
<event>
 5    1  0.4046313E-006  0.2000822E+02  0.7818608E-02  0.1745165E+00
         -2   -1    0    0    0  501 -0.00000000000E+00  0.00000000000E+00  0.12654120116E+01  0.12654146827E+01  0.26000000000E-02 0.  1.
          2   -1    0    0  501    0  0.00000000000E+00 -0.00000000000E+00 -0.79090491809E+02  0.79090491851E+02  0.26000000000E-02 0. -1.
       1023    2    1    2    0    0  0.00000000000E+00  0.00000000000E+00 -0.77825079797E+02  0.80355906534E+02  0.20008215050E+02 0.  0.
        -11    1    3    3    0    0  0.89632442149E+01  0.44369751999E+01 -0.39860140354E+02  0.41095708840E+02  0.51100000000E-03 0.  1.
         11    1    3    3    0    0 -0.89632442149E+01 -0.44369751999E+01 -0.37964939443E+02  0.39260197694E+02  0.51100000000E-03 0. -1.
<mgrwt>
<rscale>  0 0.20008215E+02</rscale>
<asrwt>0</asrwt>
<pdfrwt beam="2">  1        2 0.12167764E-01 0.20008215E+02</pdfrwt>
<pdfrwt beam="1">  1       -2 0.19467904E-03 0.20008215E+02</pdfrwt>
<totfact> 0.50139166E+06</totfact>
</mgrwt>
</event>
<event>
 5    1  0.4046313E-006  0.2001083E+02  0.7818608E-02  0.1745113E+00
         -2   -1    0    0    0  501 -0.00000000000E+00  0.00000000000E+00  0.11727150872E+03  0.11727150875E+03  0.26000000000E-02 0. -1.
          2   -1    0    0  501    0  0.00000000000E+00 -0.00000000000E+00 -0.85364411642E+00  0.85364807591E+00  0.26000000000E-02 0.  1.
       1023    2    1    2    0    0  0.00000000000E+00  0.00000000000E+00  0.11641786460E+03  0.11812515682E+03  0.20010833966E+02 0.  0.
        -11    1    3    3    0    0  0.85092090908E+01 -0.52618775085E+01  0.57501193230E+02  0.58365068469E+02  0.51100000000E-03 0. -1.
         11    1    3    3    0    0 -0.85092090908E+01  0.52618775085E+01  0.58916671370E+02  0.59760088352E+02  0.51100000000E-03 0.  1.
<mgrwt>
<rscale>  0 0.20010834E+02</rscale>
<asrwt>0</asrwt>
<pdfrwt beam="2">  1        2 0.13133019E-03 0.20010834E+02</pdfrwt>
<pdfrwt beam="1">  1       -2 0.18041768E-01 0.20010834E+02</pdfrwt>
<totfact> 0.28489851E+06</totfact>
</mgrwt>
</event>
<event>
 5    1  0.4046313E-006  0.2000050E+02  0.7818608E-02  0.1745318E+00
          2   -1    0    0  501    0  0.00000000000E+00  0.00000000000E+00  0.11799145396E+03  0.11799145399E+03  0.26000000000E-02 0.  1.
         -2   -1    0    0    0  501 -0.00000000000E+00 -0.00000000000E+00 -0.84755957306E+00  0.84756356097E+00  0.26000000000E-02 0. -1.
       1023    2    1    2    0    0  0.00000000000E+00  0.00000000000E+00  0.11714389439E+03  0.11883901755E+03  0.20000502494E+02 0.  0.
        -11    1    3    3    0    0 -0.95329748611E+01 -0.30211144999E+01  0.58472128186E+02  0.59321113588E+02  0.51100000000E-03 0.  1.
         11    1    3    3    0    0  0.95329748611E+01  0.30211144999E+01  0.58671766203E+02  0.59517903963E+02  0.51100000000E-03 0. -1.
<mgrwt>
<rscale>  0 0.20000502E+02</rscale>
<asrwt>0</asrwt>
<pdfrwt beam="1">  1        2 0.18152525E-01 0.20000502E+02</pdfrwt>
<pdfrwt beam="2">  1       -2 0.13039414E-03 0.20000502E+02</pdfrwt>
<totfact> 0.54859890E+06</totfact>
</mgrwt>
</event>
<event>
 5    1  0.4046313E-006  0.2000015E+02  0.7818608E-02  0.1745325E+00
         -2   -1    0    0    0  501 -0.00000000000E+00  0.00000000000E+00  0.74751465113E+02  0.74751465158E+02  0.26000000000E-02 0. -1.
          2   -1    0    0  501    0  0.00000000000E+00 -0.00000000000E+00 -0.13377846733E+01  0.13377871999E+01  0.26000000000E-02 0.  1.
       1023    2    1    2    0    0  0.00000000000E+00  0.00000000000E+00  0.73413680440E+02  0.76089252358E+02  0.20000146217E+02 0.  0.
        -11    1    3    3    0    0  0.75556175319E+01  0.65508853105E+01  0.36696577926E+02  0.38034724744E+02  0.51100000000E-03 0.  1.
         11    1    3    3    0    0 -0.75556175319E+01 -0.65508853105E+01  0.36717102514E+02  0.38054527614E+02  0.51100000000E-03 0. -1.
<mgrwt>
<rscale>  0 0.20000146E+02</rscale>
<asrwt>0</asrwt>
<pdfrwt beam="2">  1        2 0.20581322E-03 0.20000146E+02</pdfrwt>
<pdfrwt beam="1">  1       -2 0.11500226E-01 0.20000146E+02</pdfrwt>
<totfact> 0.31684644E+06</totfact>
</mgrwt>
</event>
<event>
 5    1  0.4074431E-006  0.2000066E+02  0.7818608E-02  0.1745315E+00
          2   -1    0    0  501    0  0.00000000000E+00  0.00000000000E+00  0.61900339823E+02  0.61900339878E+02  0.26000000000E-02 0.  1.
         -2   -1    0    0    0  501 -0.00000000000E+00 -0.00000000000E+00 -0.16156049155E+01  0.16156070076E+01  0.26000000000E-02 0. -1.
       1023    2    1    2    0    0  0.00000000000E+00  0.00000000000E+00  0.60284734908E+02  0.63515946886E+02  0.20000656136E+02 0.  0.
        -11    1    3    3    0    0  0.81093562144E+01 -0.58518791168E+01  0.30206967088E+02  0.31819286735E+02  0.51100000000E-03 0. -1.
         11    1    3    3    0    0 -0.81093562144E+01  0.58518791168E+01  0.30077767820E+02  0.31696660150E+02  0.51100000000E-03 0.  1.
<mgrwt>
<rscale>  0 0.20000656E+02</rscale>
<asrwt>0</asrwt>
<pdfrwt beam="1">  1        2 0.95231291E-02 0.20000656E+02</pdfrwt>
<pdfrwt beam="2">  1       -2 0.24855477E-03 0.20000656E+02</pdfrwt>
<totfact> 0.47948969E+06</totfact>
</mgrwt>
</event>
<event>
 4    1  0.4315533E-006  0.2001285E+02  0.7818608E-02  0.1745073E+00
         -2   -1    0    0    0  501 -0.00000000000E+00  0.00000000000E+00  0.10205469591E+01  0.10205502711E+01  0.26000000000E-02 0.  1.
          2   -1    0    0  501    0  0.00000000000E+00 -0.00000000000E+00 -0.98112474119E+02  0.98112474153E+02  0.26000000000E-02 0. -1.
        -11    1    1    2    0    0 -0.10005594545E+02  0.66042497049E-01 -0.49094634999E+02  0.50103886773E+02  0.51100000000E-03 0. -1.
         11    1    1    2    0    0  0.10005594545E+02 -0.66042497049E-01 -0.47997292161E+02  0.49029137651E+02  0.51100000000E-03 0.  1.
<mgrwt>
<rscale>  0 0.20012851E+02</rscale>
<asrwt>0</asrwt>
<pdfrwt beam="2">  1        2 0.15094220E-01 0.20012851E+02</pdfrwt>
<pdfrwt beam="1">  1       -2 0.15700756E-03 0.20012851E+02</pdfrwt>
<totfact> 0.52456936E+06</totfact>
</mgrwt>
</event>
<event>
 5    1  0.4046313E-006  0.2000294E+02  0.7818608E-02  0.1745270E+00
          2   -1    0    0  501    0  0.00000000000E+00  0.00000000000E+00  0.15885694108E+02  0.15885694321E+02  0.26000000000E-02 0.  1.
         -2   -1    0    0    0  501 -0.00000000000E+00 -0.00000000000E+00 -0.62968193469E+01  0.62968198836E+01  0.26000000000E-02 0. -1.
       1023    2    1    2    0    0  0.00000000000E+00  0.00000000000E+00  0.95888747614E+01  0.22182514205E+02  0.20002935216E+02 0.  0.
        -11    1    3    3    0    0  0.81759615817E+01 -0.57604608428E+01  0.47835072811E+01  0.11086532329E+02  0.51100000000E-03 0.  1.
         11    1    3    3    0    0 -0.81759615817E+01  0.57604608428E+01  0.48053674803E+01  0.11095981876E+02  0.51100000000E-03 0. -1.
<mgrwt>
<rscale>  0 0.20002935E+02</rscale>
<asrwt>0</asrwt>
<pdfrwt beam="1">  1        2 0.24439530E-02 0.20002935E+02</pdfrwt>
<pdfrwt beam="2">  1       -2 0.96874151E-03 0.20002935E+02</pdfrwt>
<totfact> 0.40862812E+06</totfact>
</mgrwt>
</event>
<event>
 5    1  0.4046313E-006  0.2000643E+02  0.7818608E-02  0.1745200E+00
         -2   -1    0    0    0  501 -0.00000000000E+00  0.00000000000E+00  0.10146371051E+02  0.10146371385E+02  0.26000000000E-02 0. -1.
          2   -1    0    0  501    0  0.00000000000E+00 -0.00000000000E+00 -0.98620757053E+01  0.98620760480E+01  0.26000000000E-02 0.  1.
       1023    2    1    2    0    0  0.00000000000E+00  0.00000000000E+00  0.28429534616E+00  0.20008447433E+02  0.20006427588E+02 0.  0.
        -11    1    3    3    0    0  0.63721702345E+01 -0.77076376183E+01  0.37032589755E+00  0.10007465847E+02  0.51100000000E-03 0. -1.
         11    1    3    3    0    0 -0.63721702345E+01  0.77076376183E+01 -0.86030551396E-01  0.10000981585E+02  0.51100000000E-03 0.  1.
<mgrwt>
<rscale>  0 0.20006428E+02</rscale>
<asrwt>0</asrwt>
<pdfrwt beam="2">  1        2 0.15172425E-02 0.20006428E+02</pdfrwt>
<pdfrwt beam="1">  1       -2 0.15609802E-02 0.20006428E+02</pdfrwt>
<totfact> 0.39394099E+06</totfact>
</mgrwt>
</event>
<event>
 5    1  0.4046313E-006  0.2000126E+02  0.7818608E-02  0.1745303E+00
          2   -1    0    0  501    0  0.00000000000E+00  0.00000000000E+00  0.19531766033E+01  0.19531783338E+01  0.26000000000E-02 0. -1.
         -2   -1    0    0    0  501 -0.00000000000E+00 -0.00000000000E+00 -0.51205059178E+02  0.51205059244E+02  0.26000000000E-02 0.  1.
       1023    2    1    2    0    0  0.00000000000E+00  0.00000000000E+00 -0.49251882575E+02  0.53158237578E+02  0.20001257091E+02 0.  0.
        -11    1    3    3    0    0 -0.41155158388E+01  0.91140338405E+01 -0.24367065728E+02  0.26339266806E+02  0.51100000000E-03 0. -1.
         11    1    3    3    0    0  0.41155158388E+01 -0.91140338405E+01 -0.24884816847E+02  0.26818970772E+02  0.51100000000E-03 0.  1.
<mgrwt>
<rscale>  0 0.20001257E+02</rscale>
<asrwt>0</asrwt>
<pdfrwt beam="1">  1        2 0.30048889E-03 0.20001257E+02</pdfrwt>
<pdfrwt beam="2">  1       -2 0.78777005E-02 0.20001257E+02</pdfrwt>
<totfact> 0.33777053E+06</totfact>
</mgrwt>
</event>
<event>
 5    1  0.4046313E-006  0.2000229E+02  0.7818608E-02  0.1745283E+00
          2   -1    0    0  501    0  0.00000000000E+00  0.00000000000E+00  0.58626848764E+01  0.58626854529E+01  0.26000000000E-02 0. -1.
         -2   -1    0    0    0  501 -0.00000000000E+00 -0.00000000000E+00 -0.17060930609E+02  0.17060930807E+02  0.26000000000E-02 0.  1.
       1023    2    1    2    0    0  0.00000000000E+00  0.00000000000E+00 -0.11198245733E+02  0.22923616260E+02  0.20002286743E+02 0.  0.
        -11    1    3    3    0    0 -0.66340599449E+01 -0.74831448438E+01 -0.54603591433E+01  0.11394021693E+02  0.51100000000E-03 0.  1.
         11    1    3    3    0    0  0.66340599449E+01  0.74831448438E+01 -0.57378865894E+01  0.11529594567E+02  0.51100000000E-03 0. -1.
<mgrwt>
<rscale>  0 0.20002287E+02</rscale>
<asrwt>0</asrwt>
<pdfrwt beam="1">  1        2 0.90195158E-03 0.20002287E+02</pdfrwt>
<pdfrwt beam="2">  1       -2 0.26247586E-02 0.20002287E+02</pdfrwt>
<totfact> 0.37909082E+06</totfact>
</mgrwt>
</event>
<event>
 5    1  0.4135563E-006  0.2000100E+02  0.7818608E-02  0.1745308E+00
          2   -1    0    0  501    0  0.00000000000E+00  0.00000000000E+00  0.67532340954E+02  0.67532341004E+02  0.26000000000E-02 0.  1.
         -2   -1    0    0    0  501 -0.00000000000E+00 -0.00000000000E+00 -0.14809189164E+01  0.14809211988E+01  0.26000000000E-02 0. -1.
       1023    2    1    2    0    0  0.00000000000E+00  0.00000000000E+00  0.66051422038E+02  0.69013262203E+02  0.20001000142E+02 0.  0.
        -11    1    3    3    0    0 -0.93610954912E+01 -0.35172523746E+01  0.33349916647E+02  0.34816922806E+02  0.51100000000E-03 0. -1.
         11    1    3    3    0    0  0.93610954912E+01  0.35172523746E+01  0.32701505391E+02  0.34196339397E+02  0.51100000000E-03 0.  1.
<mgrwt>
<rscale>  0 0.20001000E+02</rscale>
<asrwt>0</asrwt>
<pdfrwt beam="1">  1        2 0.10389590E-01 0.20001000E+02</pdfrwt>
<pdfrwt beam="2">  1       -2 0.22783387E-03 0.20001000E+02</pdfrwt>
<totfact> 0.48692266E+06</totfact>
</mgrwt>
</event>
<event>
 5    1  0.4046313E-006  0.2000081E+02  0.7818608E-02  0.1745312E+00
          2   -1    0    0  501    0  0.00000000000E+00  0.00000000000E+00  0.24726324224E+02  0.24726324360E+02  0.26000000000E-02 0. -1.
         -2   -1    0    0    0  501 -0.00000000000E+00 -0.00000000000E+00 -0.40445986101E+01  0.40445994458E+01  0.26000000000E-02 0.  1.
       1023    2    1    2    0    0  0.00000000000E+00  0.00000000000E+00  0.20681725613E+02  0.28770923806E+02  0.20000807041E+02 0.  0.
        -11    1    3    3    0    0 -0.11977414300E+01  0.99282670691E+01  0.10262089519E+02  0.14328836418E+02  0.51100000000E-03 0. -1.
         11    1    3    3    0    0  0.11977414300E+01 -0.99282670691E+01  0.10419636094E+02  0.14442087388E+02  0.51100000000E-03 0.  1.
<mgrwt>
<rscale>  0 0.20000807E+02</rscale>
<asrwt>0</asrwt>
<pdfrwt beam="1">  1        2 0.38040500E-02 0.20000807E+02</pdfrwt>
<pdfrwt beam="2">  1       -2 0.62224601E-03 0.20000807E+02</pdfrwt>
<totfact> 0.42506559E+06</totfact>
</mgrwt>
</event>
<event>
 4    1  0.4046313E-006  0.2001389E+02  0.7818608E-02  0.1745052E+00
          2   -1    0    0  501    0  0.00000000000E+00  0.00000000000E+00  0.26521844414E+02  0.26521844542E+02  0.26000000000E-02 0.  1.
         -2   -1    0    0    0  501 -0.00000000000E+00 -0.00000000000E+00 -0.37757163642E+01  0.37757172594E+01  0.26000000000E-02 0. -1.
        -11    1    1    2    0    0  0.99951949055E+01 -0.48466740621E+00  0.11354308522E+02  0.15134700062E+02  0.51100000000E-03 0.  1.
         11    1    1    2    0    0 -0.99951949055E+01  0.48466740621E+00  0.11391819528E+02  0.15162861739E+02  0.51100000000E-03 0. -1.
<mgrwt>
<rscale>  0 0.20013893E+02</rscale>
<asrwt>0</asrwt>
<pdfrwt beam="1">  1        2 0.40802838E-02 0.20013893E+02</pdfrwt>
<pdfrwt beam="2">  1       -2 0.58087952E-03 0.20013893E+02</pdfrwt>
<totfact> 0.42743923E+06</totfact>
</mgrwt>
</event>
<event>
 5    1  0.4116839E-006  0.2000375E+02  0.7818608E-02  0.1745254E+00
          2   -1    0    0  501    0  0.00000000000E+00  0.00000000000E+00  0.10578100027E+03  0.10578100030E+03  0.26000000000E-02 0.  1.
         -2   -1    0    0    0  501 -0.00000000000E+00 -0.00000000000E+00 -0.94570162392E+00  0.94570519798E+00  0.26000000000E-02 0. -1.
       1023    2    1    2    0    0  0.00000000000E+00  0.00000000000E+00  0.10483529865E+03  0.10672670550E+03  0.20003745266E+02 0.  0.
        -11    1    3    3    0    0 -0.43598371956E+01 -0.90002352281E+01  0.51573360912E+02  0.52534026788E+02  0.51100000000E-03 0.  1.
         11    1    3    3    0    0  0.43598371956E+01  0.90002352281E+01  0.53261937734E+02  0.54192678712E+02  0.51100000000E-03 0. -1.
<mgrwt>
<rscale>  0 0.20003745E+02</rscale>
<asrwt>0</asrwt>
<pdfrwt beam="1">  1        2 0.16273989E-01 0.20003745E+02</pdfrwt>
<pdfrwt beam="2">  1       -2 0.14549293E-03 0.20003745E+02</pdfrwt>
<totfact> 0.53422793E+06</totfact>
</mgrwt>
</event>
<event>
 5    1  0.4046313E-006  0.2000204E+02  0.7818608E-02  0.1745288E+00
         -2   -1    0    0    0  501 -0.00000000000E+00  0.00000000000E+00  0.33557626467E+01  0.33557636540E+01  0.26000000000E-02 0. -1.
          2   -1    0    0  501    0  0.00000000000E+00 -0.00000000000E+00 -0.29805548319E+02  0.29805548432E+02  0.26000000000E-02 0.  1.
       1023    2    1    2    0    0  0.00000000000E+00  0.00000000000E+00 -0.26449785672E+02  0.33161312086E+02  0.20002036326E+02 0.  0.
        -11    1    3    3    0    0  0.87372879930E+01 -0.48661797779E+01 -0.13260331891E+02  0.16608922579E+02  0.51100000000E-03 0. -1.
         11    1    3    3    0    0 -0.87372879930E+01  0.48661797779E+01 -0.13189453780E+02  0.16552389507E+02  0.51100000000E-03 0.  1.
<mgrwt>
<rscale>  0 0.20002036E+02</rscale>
<asrwt>0</asrwt>
<pdfrwt beam="2">  1        2 0.45854689E-02 0.20002036E+02</pdfrwt>
<pdfrwt beam="1">  1       -2 0.51627128E-03 0.20002036E+02</pdfrwt>
<totfact> 0.43332452E+06</totfact>
</mgrwt>
</event>
<event>
 5    1  0.4046313E-006  0.2000156E+02  0.7818608E-02  0.1745297E+00
         -2   -1    0    0    0  501 -0.00000000000E+00  0.00000000000E+00  0.73978716900E+02  0.73978716946E+02  0.26000000000E-02 0.  1.
          2   -1    0    0  501    0  0.00000000000E+00 -0.00000000000E+00 -0.13519498637E+01  0.13519523638E+01  0.26000000000E-02 0. -1.
       1023    2    1    2    0    0  0.00000000000E+00  0.00000000000E+00  0.72626767037E+02  0.75330669310E+02  0.20001561151E+02 0.  0.
        -11    1    3    3    0    0 -0.93548221435E+01  0.35357947106E+01  0.36436596829E+02  0.37784125374E+02  0.51100000000E-03 0. -1.
         11    1    3    3    0    0  0.93548221435E+01 -0.35357947106E+01  0.36190170208E+02  0.37546543936E+02  0.51100000000E-03 0.  1.
<mgrwt>
<rscale>  0 0.20001561E+02</rscale>
<asrwt>0</asrwt>
<pdfrwt beam="2">  1        2 0.20799252E-03 0.20001561E+02</pdfrwt>
<pdfrwt beam="1">  1       -2 0.11381339E-01 0.20001561E+02</pdfrwt>
<totfact> 0.31743740E+06</totfact>
</mgrwt>
</event>
<event>
 5    1  0.4046313E-006  0.2000111E+02  0.7818608E-02  0.1745306E+00
         -2   -1    0    0    0  501 -0.00000000000E+00  0.00000000000E+00  0.11823974105E+02  0.11823974391E+02  0.26000000000E-02 0.  1.
          2   -1    0    0  501    0  0.00000000000E+00 -0.00000000000E+00 -0.84583279194E+01  0.84583283190E+01  0.26000000000E-02 0. -1.
       1023    2    1    2    0    0  0.00000000000E+00  0.00000000000E+00  0.33656461857E+01  0.20282302710E+02  0.20001105694E+02 0.  0.
        -11    1    3    3    0    0 -0.54516913341E+01  0.83838796512E+01  0.17092776801E+01  0.10145541230E+02  0.51100000000E-03 0. -1.
         11    1    3    3    0    0  0.54516913341E+01 -0.83838796512E+01  0.16563685057E+01  0.10136761480E+02  0.51100000000E-03 0.  1.
<mgrwt>
<rscale>  0 0.20001106E+02</rscale>
<asrwt>0</asrwt>
<pdfrwt beam="2">  1        2 0.13012813E-02 0.20001106E+02</pdfrwt>
<pdfrwt beam="1">  1       -2 0.18190730E-02 0.20001106E+02</pdfrwt>
<totfact> 0.38977489E+06</totfact>
</mgrwt>
</event>
<event>
 5    1  0.4046313E-006  0.2000038E+02  0.7818608E-02  0.1745321E+00
          2   -1    0    0  501    0  0.00000000000E+00  0.00000000000E+00  0.45554194295E+02  0.45554194369E+02  0.26000000000E-02 0.  1.
         -2   -1    0    0    0  501 -0.00000000000E+00 -0.00000000000E+00 -0.21952703415E+01  0.21952718812E+01  0.26000000000E-02 0. -1.
       1023    2    1    2    0    0  0.00000000000E+00  0.00000000000E+00  0.43358923953E+02  0.47749466250E+02  0.20000381016E+02 0.  0.
        -11    1    3    3    0    0  0.98274965241E+01 -0.18500321195E+01  0.21586899861E+02  0.23790682055E+02  0.51100000000E-03 0.  1.
         11    1    3    3    0    0 -0.98274965241E+01  0.18500321195E+01  0.21772024092E+02  0.23958784195E+02  0.51100000000E-03 0. -1.
<mgrwt>
<rscale>  0 0.20000381E+02</rscale>
<asrwt>0</asrwt>
<pdfrwt beam="1">  1        2 0.70083375E-02 0.20000381E+02</pdfrwt>
<pdfrwt beam="2">  1       -2 0.33773403E-03 0.20000381E+02</pdfrwt>
<totfact> 0.45698552E+06</totfact>
</mgrwt>
</event>
<event>
 5    1  0.4046313E-006  0.2000475E+02  0.7818608E-02  0.1745234E+00
          2   -1    0    0  501    0  0.00000000000E+00  0.00000000000E+00  0.71475489209E+02  0.71475489256E+02  0.26000000000E-02 0.  1.
         -2   -1    0    0    0  501 -0.00000000000E+00 -0.00000000000E+00 -0.13997448324E+01  0.13997472471E+01  0.26000000000E-02 0. -1.
       1023    2    1    2    0    0  0.00000000000E+00  0.00000000000E+00  0.70075744377E+02  0.72875236504E+02  0.20004753073E+02 0.  0.
        -11    1    3    3    0    0  0.98442561358E+01  0.17611133714E+01  0.35735150841E+02  0.37108111042E+02  0.51100000000E-03 0. -1.
         11    1    3    3    0    0 -0.98442561358E+01 -0.17611133714E+01  0.34340593535E+02  0.35767125462E+02  0.51100000000E-03 0.  1.
<mgrwt>
<rscale>  0 0.20004753E+02</rscale>
<asrwt>0</asrwt>
<pdfrwt beam="1">  1        2 0.10996230E-01 0.20004753E+02</pdfrwt>
<pdfrwt beam="2">  1       -2 0.21534553E-03 0.20004753E+02</pdfrwt>
<totfact> 0.49185316E+06</totfact>
</mgrwt>
</event>
<event>
 5    1  0.4046313E-006  0.2000029E+02  0.7818608E-02  0.1745322E+00
         -2   -1    0    0    0  501 -0.00000000000E+00  0.00000000000E+00  0.27335753060E+01  0.27335765425E+01  0.26000000000E-02 0. -1.
          2   -1    0    0  501    0  0.00000000000E+00 -0.00000000000E+00 -0.36583175517E+02  0.36583175609E+02  0.26000000000E-02 0.  1.
       1023    2    1    2    0    0  0.00000000000E+00  0.00000000000E+00 -0.33849600211E+02  0.39316752152E+02  0.20000289131E+02 0.  0.
        -11    1    3    3    0    0  0.24433607106E+01 -0.96970531901E+01 -0.16912533725E+02  0.19647815385E+02  0.51100000000E-03 0.  1.
         11    1    3    3    0    0 -0.24433607106E+01  0.96970531901E+01 -0.16937066486E+02  0.19668936767E+02  0.51100000000E-03 0. -1.
<mgrwt>
<rscale>  0 0.20000289E+02</rscale>
<asrwt>0</asrwt>
<pdfrwt beam="2">  1        2 0.56281806E-02 0.20000289E+02</pdfrwt>
<pdfrwt beam="1">  1       -2 0.42055017E-03 0.20000289E+02</pdfrwt>
<totfact> 0.44386996E+06</totfact>
</mgrwt>
</event>
<event>
 5    1  0.4046313E-006  0.2000038E+02  0.7818608E-02  0.1745321E+00
          2   -1    0    0  501    0  0.00000000000E+00  0.00000000000E+00  0.16059294948E+01  0.16059315995E+01  0.26000000000E-02 0. -1.
         -2   -1    0    0    0  501 -0.00000000000E+00 -0.00000000000E+00 -0.62271549209E+02  0.62271549263E+02  0.26000000000E-02 0.  1.
       1023    2    1    2    0    0  0.00000000000E+00  0.00000000000E+00 -0.60665619714E+02  0.63877480863E+02  0.20000378648E+02 0.  0.
        -11    1    3    3    0    0 -0.93998604310E+01 -0.34125439861E+01 -0.30234179580E+02  0.31845069441E+02  0.51100000000E-03 0. -1.
         11    1    3    3    0    0  0.93998604310E+01  0.34125439861E+01 -0.30431440134E+02  0.32032411421E+02  0.51100000000E-03 0.  1.
<mgrwt>
<rscale>  0 0.20000379E+02</rscale>
<asrwt>0</asrwt>
<pdfrwt beam="1">  1        2 0.24706629E-03 0.20000379E+02</pdfrwt>
<pdfrwt beam="2">  1       -2 0.95802367E-02 0.20000379E+02</pdfrwt>
<totfact> 0.32754391E+06</totfact>
</mgrwt>
</event>
<event>
 5    1  0.4046313E-006  0.2000013E+02  0.7818608E-02  0.1745326E+00
          2   -1    0    0  501    0  0.00000000000E+00  0.00000000000E+00  0.24106428885E+02  0.24106429025E+02  0.26000000000E-02 0.  1.
         -2   -1    0    0    0  501 -0.00000000000E+00 -0.00000000000E+00 -0.41483236222E+01  0.41483244370E+01  0.26000000000E-02 0. -1.
       1023    2    1    2    0    0  0.00000000000E+00  0.00000000000E+00  0.19958105263E+02  0.28254753462E+02  0.20000128188E+02 0.  0.
        -11    1    3    3    0    0  0.97584508900E+01  0.21847953950E+01  0.10013278301E+02  0.14151552469E+02  0.51100000000E-03 0.  1.
         11    1    3    3    0    0 -0.97584508900E+01 -0.21847953950E+01  0.99448269618E+01  0.14103200993E+02  0.51100000000E-03 0. -1.
<mgrwt>
<rscale>  0 0.20000128E+02</rscale>
<asrwt>0</asrwt>
<pdfrwt beam="1">  1        2 0.37086814E-02 0.20000128E+02</pdfrwt>
<pdfrwt beam="2">  1       -2 0.63820371E-03 0.20000128E+02</pdfrwt>
<totfact> 0.42404381E+06</totfact>
</mgrwt>
</event>
<event>
 5    1  0.4046313E-006  0.2000709E+02  0.7818608E-02  0.1745187E+00
          2   -1    0    0  501    0  0.00000000000E+00  0.00000000000E+00  0.41279177541E+01  0.41279185729E+01  0.26000000000E-02 0. -1.
         -2   -1    0    0    0  501 -0.00000000000E+00 -0.00000000000E+00 -0.24242458182E+02  0.24242458321E+02  0.26000000000E-02 0.  1.
       1023    2    1    2    0    0  0.00000000000E+00  0.00000000000E+00 -0.20114540428E+02  0.28370376894E+02  0.20007087457E+02 0.  0.
        -11    1    3    3    0    0  0.99985292912E+01 -0.30745724361E+00 -0.10164973372E+02  0.14261549770E+02  0.51100000000E-03 0.  1.
         11    1    3    3    0    0 -0.99985292912E+01  0.30745724361E+00 -0.99495670561E+01  0.14108827124E+02  0.51100000000E-03 0. -1.
<mgrwt>
<rscale>  0 0.20007087E+02</rscale>
<asrwt>0</asrwt>
<pdfrwt beam="1">  1        2 0.63506436E-03 0.20007087E+02</pdfrwt>
<pdfrwt beam="2">  1       -2 0.37296089E-02 0.20007087E+02</pdfrwt>
<totfact> 0.36784291E+06</totfact>
</mgrwt>
</event>
<event>
 4    1  0.4046313E-006  0.2002304E+02  0.7818608E-02  0.1744870E+00
          2   -1    0    0  501    0  0.00000000000E+00  0.00000000000E+00  0.10442180957E+03  0.10442180960E+03  0.26000000000E-02 0.  1.
         -2   -1    0    0    0  501 -0.00000000000E+00 -0.00000000000E+00 -0.95986071870E+00  0.95986424004E+00  0.26000000000E-02 0. -1.
        -11    1    1    2    0    0 -0.92747056042E+01  0.37632523469E+01  0.50573733583E+02  0.51554677393E+02  0.51100000000E-03 0.  1.
         11    1    1    2    0    0  0.92747056042E+01 -0.37632523469E+01  0.52888215265E+02  0.53826996447E+02  0.51100000000E-03 0. -1.
<mgrwt>
<rscale>  0 0.20023045E+02</rscale>
<asrwt>0</asrwt>
<pdfrwt beam="1">  1        2 0.16064891E-01 0.20023045E+02</pdfrwt>
<pdfrwt beam="2">  1       -2 0.14767118E-03 0.20023045E+02</pdfrwt>
<totfact> 0.53149234E+06</totfact>
</mgrwt>
</event>
<event>
 4    1  0.4046313E-006  0.2001552E+02  0.7818608E-02  0.1745020E+00
          2   -1    0    0  501    0  0.00000000000E+00  0.00000000000E+00  0.98767124050E+00  0.98767466269E+00  0.26000000000E-02 0. -1.
         -2   -1    0    0    0  501 -0.00000000000E+00 -0.00000000000E+00 -0.10140532556E+03  0.10140532559E+03  0.26000000000E-02 0.  1.
        -11    1    1    2    0    0 -0.83881736216E+01 -0.54545949467E+01 -0.49169984014E+02  0.50177698143E+02  0.51100000000E-03 0.  1.
         11    1    1    2    0    0  0.83881736216E+01  0.54545949467E+01 -0.51247670303E+02  0.52215302110E+02  0.51100000000E-03 0. -1.
<mgrwt>
<rscale>  0 0.20015524E+02</rscale>
<asrwt>0</asrwt>
<pdfrwt beam="1">  1        2 0.15194977E-03 0.20015524E+02</pdfrwt>
<pdfrwt beam="2">  1       -2 0.15600811E-01 0.20015524E+02</pdfrwt>
<totfact> 0.29578870E+06</totfact>
</mgrwt>
</event>
<event>
 5    1  0.4046313E-006  0.2000032E+02  0.7818608E-02  0.1745322E+00
          2   -1    0    0  501    0  0.00000000000E+00  0.00000000000E+00  0.32866768659E+02  0.32866768762E+02  0.26000000000E-02 0.  1.
         -2   -1    0    0    0  501 -0.00000000000E+00 -0.00000000000E+00 -0.30426831400E+01  0.30426842508E+01  0.26000000000E-02 0. -1.
       1023    2    1    2    0    0  0.00000000000E+00  0.00000000000E+00  0.29824085519E+02  0.35909453013E+02  0.20000318463E+02 0.  0.
        -11    1    3    3    0    0 -0.50110878219E+01  0.86539714097E+01  0.14967732705E+02  0.18000978999E+02  0.51100000000E-03 0. -1.
         11    1    3    3    0    0  0.50110878219E+01 -0.86539714097E+01  0.14856352814E+02  0.17908474014E+02  0.51100000000E-03 0.  1.
<mgrwt>
<rscale>  0 0.20000318E+02</rscale>
<asrwt>0</asrwt>
<pdfrwt beam="1">  1        2 0.50564257E-02 0.20000318E+02</pdfrwt>
<pdfrwt beam="2">  1       -2 0.46810522E-03 0.20000318E+02</pdfrwt>
<totfact> 0.43820514E+06</totfact>
</mgrwt>
</event>
<event>
 5    1  0.4046313E-006  0.2000069E+02  0.7818608E-02  0.1745314E+00
         -2   -1    0    0    0  501 -0.00000000000E+00  0.00000000000E+00  0.27868604139E+01  0.27868616267E+01  0.26000000000E-02 0. -1.
          2   -1    0    0  501    0  0.00000000000E+00 -0.00000000000E+00 -0.35885148606E+02  0.35885148700E+02  0.26000000000E-02 0.  1.
       1023    2    1    2    0    0  0.00000000000E+00  0.00000000000E+00 -0.33098288192E+02  0.38672010327E+02  0.20000692525E+02 0.  0.
        -11    1    3    3    0    0 -0.94266227040E+01  0.33382963957E+01 -0.16474591933E+02  0.19272198060E+02  0.51100000000E-03 0.  1.
         11    1    3    3    0    0  0.94266227040E+01 -0.33382963957E+01 -0.16623696259E+02  0.19399812267E+02  0.51100000000E-03 0. -1.
<mgrwt>
<rscale>  0 0.20000693E+02</rscale>
<asrwt>0</asrwt>
<pdfrwt beam="2">  1        2 0.55207919E-02 0.20000693E+02</pdfrwt>
<pdfrwt beam="1">  1       -2 0.42874788E-03 0.20000693E+02</pdfrwt>
<totfact> 0.44279811E+06</totfact>
</mgrwt>
</event>
<event>
 5    1  0.4046313E-006  0.2000086E+02  0.7818608E-02  0.1745311E+00
          2   -1    0    0  501    0  0.00000000000E+00  0.00000000000E+00  0.25231387836E+02  0.25231387970E+02  0.26000000000E-02 0. -1.
         -2   -1    0    0    0  501 -0.00000000000E+00 -0.00000000000E+00 -0.39636566511E+01  0.39636575038E+01  0.26000000000E-02 0.  1.
       1023    2    1    2    0    0  0.00000000000E+00  0.00000000000E+00  0.21267731185E+02  0.29195045474E+02  0.20000857243E+02 0.  0.
        -11    1    3    3    0    0  0.75562938661E+01  0.65501327776E+01  0.10513886921E+02  0.14510121806E+02  0.51100000000E-03 0. -1.
         11    1    3    3    0    0 -0.75562938661E+01 -0.65501327776E+01  0.10753844264E+02  0.14684923667E+02  0.51100000000E-03 0.  1.
<mgrwt>
<rscale>  0 0.20000857E+02</rscale>
<asrwt>0</asrwt>
<pdfrwt beam="1">  1        2 0.38817520E-02 0.20000857E+02</pdfrwt>
<pdfrwt beam="2">  1       -2 0.60979341E-03 0.20000857E+02</pdfrwt>
<totfact> 0.42591503E+06</totfact>
</mgrwt>
</event>
<event>
 5    1  0.4046313E-006  0.2000014E+02  0.7818608E-02  0.1745325E+00
         -2   -1    0    0    0  501 -0.00000000000E+00  0.00000000000E+00  0.26261538756E+01  0.26261551626E+01  0.26000000000E-02 0. -1.
          2   -1    0    0  501    0  0.00000000000E+00 -0.00000000000E+00 -0.38079032802E+02  0.38079032891E+02  0.26000000000E-02 0.  1.
       1023    2    1    2    0    0  0.00000000000E+00  0.00000000000E+00 -0.35452878926E+02  0.40705188053E+02  0.20000142757E+02 0.  0.
        -11    1    3    3    0    0 -0.41306362753E+01 -0.91070930448E+01 -0.17703454189E+02  0.20332574610E+02  0.51100000000E-03 0. -1.
         11    1    3    3    0    0  0.41306362753E+01  0.91070930448E+01 -0.17749424737E+02  0.20372613444E+02  0.51100000000E-03 0.  1.
<mgrwt>
<rscale>  0 0.20000143E+02</rscale>
<asrwt>0</asrwt>
<pdfrwt beam="2">  1        2 0.58583125E-02 0.20000143E+02</pdfrwt>
<pdfrwt beam="1">  1       -2 0.40402381E-03 0.20000143E+02</pdfrwt>
<totfact> 0.44611448E+06</totfact>
</mgrwt>
</event>
<event>
 5    1  0.4046313E-006  0.2000160E+02  0.7818608E-02  0.1745296E+00
         -2   -1    0    0    0  501 -0.00000000000E+00  0.00000000000E+00  0.64172747807E+01  0.64172753074E+01  0.26000000000E-02 0. -1.
          2   -1    0    0  501    0  0.00000000000E+00 -0.00000000000E+00 -0.15585430020E+02  0.15585430237E+02  0.26000000000E-02 0.  1.
       1023    2    1    2    0    0  0.00000000000E+00  0.00000000000E+00 -0.91681552395E+01  0.22002705544E+02  0.20001599456E+02 0.  0.
        -11    1    3    3    0    0 -0.37080197915E+01  0.92879395785E+01 -0.46144545613E+01  0.11014010330E+02  0.51100000000E-03 0.  1.
         11    1    3    3    0    0  0.37080197915E+01 -0.92879395785E+01 -0.45537006782E+01  0.10988695214E+02  0.51100000000E-03 0. -1.
<mgrwt>
<rscale>  0 0.20001599E+02</rscale>
<asrwt>0</asrwt>
<pdfrwt beam="2">  1        2 0.23977585E-02 0.20001599E+02</pdfrwt>
<pdfrwt beam="1">  1       -2 0.98727311E-03 0.20001599E+02</pdfrwt>
<totfact> 0.40806360E+06</totfact>
</mgrwt>
</event>
<event>
 5    1  0.4046313E-006  0.2000028E+02  0.7818608E-02  0.1745322E+00
          2   -1    0    0  501    0  0.00000000000E+00  0.00000000000E+00  0.64775674270E+01  0.64775679488E+01  0.26000000000E-02 0. -1.
         -2   -1    0    0    0  501 -0.00000000000E+00 -0.00000000000E+00 -0.15438330681E+02  0.15438330900E+02  0.26000000000E-02 0.  1.
       1023    2    1    2    0    0  0.00000000000E+00  0.00000000000E+00 -0.89607632536E+01  0.21915898848E+02  0.20000283604E+02 0.  0.
        -11    1    3    3    0    0  0.40292143165E+01  0.91524501909E+01 -0.44470855017E+01  0.10944335623E+02  0.51100000000E-03 0. -1.
         11    1    3    3    0    0 -0.40292143165E+01 -0.91524501909E+01 -0.45136777519E+01  0.10971563226E+02  0.51100000000E-03 0.  1.
<mgrwt>
<rscale>  0 0.20000284E+02</rscale>
<asrwt>0</asrwt>
<pdfrwt beam="1">  1        2 0.99654889E-03 0.20000284E+02</pdfrwt>
<pdfrwt beam="2">  1       -2 0.23751278E-02 0.20000284E+02</pdfrwt>
<totfact> 0.38212426E+06</totfact>
</mgrwt>
</event>
<event>
 5    1  0.4046313E-006  0.2000070E+02  0.7818608E-02  0.1745314E+00
          2   -1    0    0  501    0  0.00000000000E+00  0.00000000000E+00  0.10676158855E+01  0.10676190514E+01  0.26000000000E-02 0.  1.
         -2   -1    0    0    0  501 -0.00000000000E+00 -0.00000000000E+00 -0.93673104954E+02  0.93673104990E+02  0.26000000000E-02 0. -1.
       1023    2    1    2    0    0  0.00000000000E+00  0.00000000000E+00 -0.92605489069E+02  0.94740724042E+02  0.20000704645E+02 0.  0.
        -11    1    3    3    0    0 -0.34930495614E+01 -0.93701487254E+01 -0.46668556524E+02  0.47727929461E+02  0.51100000000E-03 0. -1.
         11    1    3    3    0    0  0.34930495614E+01  0.93701487254E+01 -0.45936932545E+02  0.47012794580E+02  0.51100000000E-03 0.  1.
<mgrwt>
<rscale>  0 0.20000705E+02</rscale>
<asrwt>0</asrwt>
<pdfrwt beam="1">  1        2 0.16424892E-03 0.20000705E+02</pdfrwt>
<pdfrwt beam="2">  1       -2 0.14411241E-01 0.20000705E+02</pdfrwt>
<totfact> 0.30195228E+06</totfact>
</mgrwt>
</event>
<event>
 5    1  0.4046313E-006  0.2000568E+02  0.7818608E-02  0.1745215E+00
          2   -1    0    0  501    0  0.00000000000E+00  0.00000000000E+00  0.29305648506E+01  0.29305660039E+01  0.26000000000E-02 0.  1.
         -2   -1    0    0    0  501 -0.00000000000E+00 -0.00000000000E+00 -0.34142475198E+02  0.34142475297E+02  0.26000000000E-02 0. -1.
       1023    2    1    2    0    0  0.00000000000E+00  0.00000000000E+00 -0.31211910348E+02  0.37073041301E+02  0.20005675289E+02 0.  0.
        -11    1    3    3    0    0 -0.47982044191E+01 -0.87762808919E+01 -0.15412583080E+02  0.18373720075E+02  0.51100000000E-03 0. -1.
         11    1    3    3    0    0  0.47982044191E+01  0.87762808919E+01 -0.15799327267E+02  0.18699321226E+02  0.51100000000E-03 0.  1.
<mgrwt>
<rscale>  0 0.20005675E+02</rscale>
<asrwt>0</asrwt>
<pdfrwt beam="1">  1        2 0.45085625E-03 0.20005675E+02</pdfrwt>
<pdfrwt beam="2">  1       -2 0.52526883E-02 0.20005675E+02</pdfrwt>
<totfact> 0.35549242E+06</totfact>
</mgrwt>
</event>
<event>
 5    1  0.4046313E-006  0.2000071E+02  0.7818608E-02  0.1745314E+00
          2   -1    0    0  501    0  0.00000000000E+00  0.00000000000E+00  0.14334402237E+02  0.14334402473E+02  0.26000000000E-02 0. -1.
         -2   -1    0    0    0  501 -0.00000000000E+00 -0.00000000000E+00 -0.69767168226E+01  0.69767173070E+01  0.26000000000E-02 0.  1.
       1023    2    1    2    0    0  0.00000000000E+00  0.00000000000E+00  0.73576854146E+01  0.21311119780E+02  0.20000707278E+02 0.  0.
        -11    1    3    3    0    0 -0.10920751582E+01 -0.99402833119E+01  0.37557681944E+01  0.10682118491E+02  0.51100000000E-03 0. -1.
         11    1    3    3    0    0  0.10920751582E+01  0.99402833119E+01  0.36019172201E+01  0.10629001289E+02  0.51100000000E-03 0.  1.
<mgrwt>
<rscale>  0 0.20000707E+02</rscale>
<asrwt>0</asrwt>
<pdfrwt beam="1">  1        2 0.22052927E-02 0.20000707E+02</pdfrwt>
<pdfrwt beam="2">  1       -2 0.10733411E-02 0.20000707E+02</pdfrwt>
<totfact> 0.40541565E+06</totfact>
</mgrwt>
</event>
<event>
 5    1  0.4046313E-006  0.2000030E+02  0.7818608E-02  0.1745322E+00
          2   -1    0    0  501    0  0.00000000000E+00  0.00000000000E+00  0.88767141582E+00  0.88767522353E+00  0.26000000000E-02 0.  1.
         -2   -1    0    0    0  501 -0.00000000000E+00 -0.00000000000E+00 -0.11265741197E+03  0.11265741200E+03  0.26000000000E-02 0. -1.
       1023    2    1    2    0    0  0.00000000000E+00  0.00000000000E+00 -0.11176974056E+03  0.11354508722E+03  0.20000298224E+02 0.  0.
        -11    1    3    3    0    0  0.99999394829E+01 -0.63324044091E-01 -0.55808195649E+02  0.56697067839E+02  0.51100000000E-03 0. -1.
         11    1    3    3    0    0 -0.99999394829E+01  0.63324044091E-01 -0.55961544906E+02  0.56848019386E+02  0.51100000000E-03 0.  1.
<mgrwt>
<rscale>  0 0.20000298E+02</rscale>
<asrwt>0</asrwt>
<pdfrwt beam="1">  1        2 0.13656522E-03 0.20000298E+02</pdfrwt>
<pdfrwt beam="2">  1       -2 0.17331898E-01 0.20000298E+02</pdfrwt>
<totfact> 0.28835985E+06</totfact>
</mgrwt>
</event>
<event>
 5    1  0.4046313E-006  0.2000040E+02  0.7818608E-02  0.1745320E+00
         -2   -1    0    0    0  501 -0.00000000000E+00  0.00000000000E+00  0.15235393060E+02  0.15235393282E+02  0.26000000000E-02 0. -1.
          2   -1    0    0  501    0  0.00000000000E+00 -0.00000000000E+00 -0.65639284330E+01  0.65639289480E+01  0.26000000000E-02 0.  1.
       1023    2    1    2    0    0  0.00000000000E+00  0.00000000000E+00  0.86714646272E+01  0.21799322230E+02  0.20000403769E+02 0.  0.
        -11    1    3    3    0    0 -0.11267951677E+01 -0.99364960154E+01  0.43579909971E+01  0.10908515307E+02  0.51100000000E-03 0.  1.
         11    1    3    3    0    0  0.11267951677E+01  0.99364960154E+01  0.43134736301E+01  0.10890806923E+02  0.51100000000E-03 0. -1.
<mgrwt>
<rscale>  0 0.20000404E+02</rscale>
<asrwt>0</asrwt>
<pdfrwt beam="2">  1        2 0.10098352E-02 0.20000404E+02</pdfrwt>
<pdfrwt beam="1">  1       -2 0.23439067E-02 0.20000404E+02</pdfrwt>
<totfact> 0.38250585E+06</totfact>
</mgrwt>
</event>
<event>
 5    1  0.4046313E-006  0.2000029E+02  0.7818608E-02  0.1745322E+00
          2   -1    0    0  501    0  0.00000000000E+00  0.00000000000E+00  0.41443103598E+01  0.41443111753E+01  0.26000000000E-02 0. -1.
         -2   -1    0    0    0  501 -0.00000000000E+00 -0.00000000000E+00 -0.24130157910E+02  0.24130158050E+02  0.26000000000E-02 0.  1.
       1023    2    1    2    0    0  0.00000000000E+00  0.00000000000E+00 -0.19985847550E+02  0.28274469225E+02  0.20000287690E+02 0.  0.
        -11    1    3    3    0    0  0.79933683736E+01  0.60090704915E+01 -0.99883365162E+01  0.14133992102E+02  0.51100000000E-03 0.  1.
         11    1    3    3    0    0 -0.79933683736E+01 -0.60090704915E+01 -0.99975110337E+01  0.14140477123E+02  0.51100000000E-03 0. -1.
<mgrwt>
<rscale>  0 0.20000288E+02</rscale>
<asrwt>0</asrwt>
<pdfrwt beam="1">  1        2 0.63758630E-03 0.20000288E+02</pdfrwt>
<pdfrwt beam="2">  1       -2 0.37123320E-02 0.20000288E+02</pdfrwt>
<totfact> 0.36827035E+06</totfact>
</mgrwt>
</event>
<event>
 5    1  0.4046313E-006  0.2000148E+02  0.7818608E-02  0.1745299E+00
          2   -1    0    0  501    0  0.00000000000E+00  0.00000000000E+00  0.11988058399E+02  0.11988058681E+02  0.26000000000E-02 0. -1.
         -2   -1    0    0    0  501 -0.00000000000E+00 -0.00000000000E+00 -0.83428677753E+01  0.83428681804E+01  0.26000000000E-02 0.  1.
       1023    2    1    2    0    0  0.00000000000E+00  0.00000000000E+00  0.36451906234E+01  0.20330926861E+02  0.20001479254E+02 0.  0.
        -11    1    3    3    0    0  0.59836732563E+01 -0.80128996359E+01  0.17592257554E+01  0.10154101720E+02  0.51100000000E-03 0.  1.
         11    1    3    3    0    0 -0.59836732563E+01  0.80128996359E+01  0.18859648679E+01  0.10176825141E+02  0.51100000000E-03 0. -1.
<mgrwt>
<rscale>  0 0.20001479E+02</rscale>
<asrwt>0</asrwt>
<pdfrwt beam="1">  1        2 0.18443167E-02 0.20001479E+02</pdfrwt>
<pdfrwt beam="2">  1       -2 0.12835182E-02 0.20001479E+02</pdfrwt>
<totfact> 0.39989019E+06</totfact>
</mgrwt>
</event>
<event>
 5    1  0.4046313E-006  0.2000188E+02  0.7818608E-02  0.1745291E+00
          2   -1    0    0  501    0  0.00000000000E+00  0.00000000000E+00  0.55035725982E+01  0.55035732124E+01  0.26000000000E-02 0. -1.
         -2   -1    0    0    0  501 -0.00000000000E+00 -0.00000000000E+00 -0.18173433039E+02  0.18173433225E+02  0.26000000000E-02 0.  1.
       1023    2    1    2    0    0  0.00000000000E+00  0.00000000000E+00 -0.12669860441E+02  0.23677006438E+02  0.20001881668E+02 0.  0.
        -11    1    3    3    0    0 -0.45508271066E+01  0.89053718174E+01 -0.62685696140E+01  0.11802992833E+02  0.51100000000E-03 0. -1.
         11    1    3    3    0    0  0.45508271066E+01 -0.89053718174E+01 -0.64012908269E+01  0.11874013604E+02  0.51100000000E-03 0.  1.
<mgrwt>
<rscale>  0 0.20001882E+02</rscale>
<asrwt>0</asrwt>
<pdfrwt beam="1">  1        2 0.84670354E-03 0.20001882E+02</pdfrwt>
<pdfrwt beam="2">  1       -2 0.27959128E-02 0.20001882E+02</pdfrwt>
<totfact> 0.37720778E+06</totfact>
</mgrwt>
</event>
<event>
 5    1  0.4046313E-006  0.2000025E+02  0.7818608E-02  0.1745323E+00
         -2   -1    0    0    0  501 -0.00000000000E+00  0.00000000000E+00  0.53648552828E+01  0.53648559128E+01  0.26000000000E-02 0.  1.
          2   -1    0    0  501    0  0.00000000000E+00 -0.00000000000E+00 -0.18640297478E+02  0.18640297659E+02  0.26000000000E-02 0. -1.
       1023    2    1    2    0    0  0.00000000000E+00  0.00000000000E+00 -0.13275442195E+02  0.24005153572E+02  0.20000250812E+02 0.  0.
        -11    1    3    3    0    0  0.20623232951E+01 -0.97850534312E+01 -0.66921947632E+01  0.12032702067E+02  0.51100000000E-03 0.  1.
         11    1    3    3    0    0 -0.20623232951E+01  0.97850534312E+01 -0.65832474318E+01  0.11972451505E+02  0.51100000000E-03 0. -1.
<mgrwt>
<rscale>  0 0.20000251E+02</rscale>
<asrwt>0</asrwt>
<pdfrwt beam="2">  1        2 0.28677381E-02 0.20000251E+02</pdfrwt>
<pdfrwt beam="1">  1       -2 0.82536242E-03 0.20000251E+02</pdfrwt>
<totfact> 0.41422095E+06</totfact>
</mgrwt>
</event>
<event>
 5    1  0.4046313E-006  0.2000030E+02  0.7818608E-02  0.1745322E+00
          2   -1    0    0  501    0  0.00000000000E+00  0.00000000000E+00  0.13305873383E+01  0.13305898785E+01  0.26000000000E-02 0. -1.
         -2   -1    0    0    0  501 -0.00000000000E+00 -0.00000000000E+00 -0.75156966547E+02  0.75156966592E+02  0.26000000000E-02 0.  1.
       1023    2    1    2    0    0  0.00000000000E+00  0.00000000000E+00 -0.73826379209E+02  0.76487556470E+02  0.20000300692E+02 0.  0.
        -11    1    3    3    0    0  0.96684732844E+01 -0.25537566004E+01 -0.37082423943E+02  0.38407124524E+02  0.51100000000E-03 0. -1.
         11    1    3    3    0    0 -0.96684732844E+01  0.25537566004E+01 -0.36743955265E+02  0.38080431946E+02  0.51100000000E-03 0.  1.
<mgrwt>
<rscale>  0 0.20000301E+02</rscale>
<asrwt>0</asrwt>
<pdfrwt beam="1">  1        2 0.20470600E-03 0.20000301E+02</pdfrwt>
<pdfrwt beam="2">  1       -2 0.11562607E-01 0.20000301E+02</pdfrwt>
<totfact> 0.31650642E+06</totfact>
</mgrwt>
</event>
<event>
 5    1  0.4046313E-006  0.2000302E+02  0.7818608E-02  0.1745268E+00
          2   -1    0    0  501    0  0.00000000000E+00  0.00000000000E+00  0.43493068184E+02  0.43493068262E+02  0.26000000000E-02 0. -1.
         -2   -1    0    0    0  501 -0.00000000000E+00 -0.00000000000E+00 -0.22999096564E+01  0.22999111260E+01  0.26000000000E-02 0.  1.
       1023    2    1    2    0    0  0.00000000000E+00  0.00000000000E+00  0.41193158528E+02  0.45792979388E+02  0.20003016066E+02 0.  0.
        -11    1    3    3    0    0 -0.99896096662E+01  0.46396652005E+00  0.20252448437E+02  0.22586926178E+02  0.51100000000E-03 0.  1.
         11    1    3    3    0    0  0.99896096662E+01 -0.46396652005E+00  0.20940710090E+02  0.23206053209E+02  0.51100000000E-03 0. -1.
<mgrwt>
<rscale>  0 0.20003016E+02</rscale>
<asrwt>0</asrwt>
<pdfrwt beam="1">  1        2 0.66912414E-02 0.20003016E+02</pdfrwt>
<pdfrwt beam="2">  1       -2 0.35383237E-03 0.20003016E+02</pdfrwt>
<totfact> 0.45389608E+06</totfact>
</mgrwt>
</event>
<event>
 4    1  0.4046313E-006  0.2012833E+02  0.7818608E-02  0.1742788E+00
         -2   -1    0    0    0  501 -0.00000000000E+00  0.00000000000E+00  0.10430350613E+01  0.10430383018E+01  0.26000000000E-02 0.  1.
          2   -1    0    0  501    0  0.00000000000E+00 -0.00000000000E+00 -0.97108222113E+02  0.97108222148E+02  0.26000000000E-02 0. -1.
        -11    1    1    2    0    0  0.46195170622E+01  0.89353472872E+01 -0.49628199839E+02  0.50637324066E+02  0.51100000000E-03 0. -1.
         11    1    1    2    0    0 -0.46195170622E+01 -0.89353472872E+01 -0.46436987213E+02  0.47513936384E+02  0.51100000000E-03 0.  1.
<mgrwt>
<rscale>  0 0.20128332E+02</rscale>
<asrwt>0</asrwt>
<pdfrwt beam="2">  1        2 0.14939720E-01 0.20128332E+02</pdfrwt>
<pdfrwt beam="1">  1       -2 0.16046726E-03 0.20128332E+02</pdfrwt>
<totfact> 0.51675126E+06</totfact>
</mgrwt>
</event>
<event>
 5    1  0.4046313E-006  0.2000070E+02  0.7818608E-02  0.1745314E+00
         -2   -1    0    0    0  501 -0.00000000000E+00  0.00000000000E+00  0.13373397332E+01  0.13373422606E+01  0.26000000000E-02 0. -1.
          2   -1    0    0  501    0  0.00000000000E+00 -0.00000000000E+00 -0.74780472808E+02  0.74780472853E+02  0.26000000000E-02 0.  1.
       1023    2    1    2    0    0  0.00000000000E+00  0.00000000000E+00 -0.73443133075E+02  0.76117815114E+02  0.20000699534E+02 0.  0.
        -11    1    3    3    0    0 -0.30019693533E+01  0.95390199362E+01 -0.36540088877E+02  0.37883806788E+02  0.51100000000E-03 0. -1.
         11    1    3    3    0    0  0.30019693533E+01 -0.95390199362E+01 -0.36903044198E+02  0.38234008326E+02  0.51100000000E-03 0.  1.
<mgrwt>
<rscale>  0 0.20000700E+02</rscale>
<asrwt>0</asrwt>
<pdfrwt beam="2">  1        2 0.11504685E-01 0.20000700E+02</pdfrwt>
<pdfrwt beam="1">  1       -2 0.20574483E-03 0.20000700E+02</pdfrwt>
<totfact> 0.49632638E+06</totfact>
</mgrwt>
</event>
<event>
 5    1  0.4046313E-006  0.2000273E+02  0.7818608E-02  0.1745274E+00
          2   -1    0    0  501    0  0.00000000000E+00  0.00000000000E+00  0.39575783816E+01  0.39575792356E+01  0.26000000000E-02 0. -1.
         -2   -1    0    0    0  501 -0.00000000000E+00 -0.00000000000E+00 -0.25274867212E+02  0.25274867346E+02  0.26000000000E-02 0.  1.
       1023    2    1    2    0    0  0.00000000000E+00  0.00000000000E+00 -0.21317288830E+02  0.29232446581E+02  0.20002728065E+02 0.  0.
        -11    1    3    3    0    0  0.95804672519E+01  0.28686690374E+01 -0.10823127168E+02  0.14736169678E+02  0.51100000000E-03 0. -1.
         11    1    3    3    0    0 -0.95804672519E+01 -0.28686690374E+01 -0.10494161662E+02  0.14496276903E+02  0.51100000000E-03 0.  1.
<mgrwt>
<rscale>  0 0.20002728E+02</rscale>
<asrwt>0</asrwt>
<pdfrwt beam="1">  1        2 0.60885830E-03 0.20002728E+02</pdfrwt>
<pdfrwt beam="2">  1       -2 0.38884411E-02 0.20002728E+02</pdfrwt>
<totfact> 0.36660894E+06</totfact>
</mgrwt>
</event>
<event>
 5    1  0.4055114E-006  0.2000173E+02  0.7818608E-02  0.1745294E+00
          2   -1    0    0  501    0  0.00000000000E+00  0.00000000000E+00  0.48966211809E+02  0.48966211878E+02  0.26000000000E-02 0. -1.
         -2   -1    0    0    0  501 -0.00000000000E+00 -0.00000000000E+00 -0.20425773930E+01  0.20425790478E+01  0.26000000000E-02 0.  1.
       1023    2    1    2    0    0  0.00000000000E+00  0.00000000000E+00  0.46923634416E+02  0.51008790926E+02  0.20001732048E+02 0.  0.
        -11    1    3    3    0    0 -0.72173842208E+01 -0.69224698201E+01  0.23660955876E+02  0.25687585652E+02  0.51100000000E-03 0. -1.
         11    1    3    3    0    0  0.72173842208E+01  0.69224698201E+01  0.23262678539E+02  0.25321205273E+02  0.51100000000E-03 0.  1.
<mgrwt>
<rscale>  0 0.20001732E+02</rscale>
<asrwt>0</asrwt>
<pdfrwt beam="1">  1        2 0.75332630E-02 0.20001732E+02</pdfrwt>
<pdfrwt beam="2">  1       -2 0.31424283E-03 0.20001732E+02</pdfrwt>
<totfact> 0.46174409E+06</totfact>
</mgrwt>
</event>
<event>
 5    1  0.4046313E-006  0.2000193E+02  0.7818608E-02  0.1745290E+00
          2   -1    0    0  501    0  0.00000000000E+00  0.00000000000E+00  0.73930391194E+01  0.73930395766E+01  0.26000000000E-02 0. -1.
         -2   -1    0    0    0  501 -0.00000000000E+00 -0.00000000000E+00 -0.13528851854E+02  0.13528852104E+02  0.26000000000E-02 0.  1.
       1023    2    1    2    0    0  0.00000000000E+00  0.00000000000E+00 -0.61358127349E+01  0.20921891681E+02  0.20001933746E+02 0.  0.
        -11    1    3    3    0    0  0.52984885122E+01 -0.84812571254E+01 -0.31900468419E+01  0.10496766267E+02  0.51100000000E-03 0.  1.
         11    1    3    3    0    0 -0.52984885122E+01  0.84812571254E+01 -0.29457658930E+01  0.10425125414E+02  0.51100000000E-03 0. -1.
<mgrwt>
<rscale>  0 0.20001934E+02</rscale>
<asrwt>0</asrwt>
<pdfrwt beam="1">  1        2 0.11373907E-02 0.20001934E+02</pdfrwt>
<pdfrwt beam="2">  1       -2 0.20813619E-02 0.20001934E+02</pdfrwt>
<totfact> 0.38588165E+06</totfact>
</mgrwt>
</event>
<event>
 5    1  0.4046313E-006  0.2000177E+02  0.7818608E-02  0.1745293E+00
         -2   -1    0    0    0  501 -0.00000000000E+00  0.00000000000E+00  0.76631712610E+01  0.76631717020E+01  0.26000000000E-02 0.  1.
          2   -1    0    0  501    0  0.00000000000E+00 -0.00000000000E+00 -0.13051737208E+02  0.13051737467E+02  0.26000000000E-02 0. -1.
       1023    2    1    2    0    0  0.00000000000E+00  0.00000000000E+00 -0.53885659473E+01  0.20714909169E+02  0.20001770395E+02 0.  0.
        -11    1    3    3    0    0  0.17373643379E+01 -0.98487468407E+01 -0.26547745091E+01  0.10347177254E+02  0.51100000000E-03 0.  1.
         11    1    3    3    0    0 -0.17373643379E+01  0.98487468407E+01 -0.27337914382E+01  0.10367731915E+02  0.51100000000E-03 0. -1.
<mgrwt>
<rscale>  0 0.20001770E+02</rscale>
<asrwt>0</asrwt>
<pdfrwt beam="2">  1        2 0.20079596E-02 0.20001770E+02</pdfrwt>
<pdfrwt beam="1">  1       -2 0.11789495E-02 0.20001770E+02</pdfrwt>
<totfact> 0.40245157E+06</totfact>
</mgrwt>
</event>
<event>
 5    1  0.4046313E-006  0.2000478E+02  0.7818608E-02  0.1745233E+00
         -2   -1    0    0    0  501 -0.00000000000E+00  0.00000000000E+00  0.13467669380E+02  0.13467669631E+02  0.26000000000E-02 0.  1.
          2   -1    0    0  501    0  0.00000000000E+00 -0.00000000000E+00 -0.74287416479E+01  0.74287421029E+01  0.26000000000E-02 0. -1.
       1023    2    1    2    0    0  0.00000000000E+00  0.00000000000E+00  0.60389277322E+01  0.20896411734E+02  0.20004783808E+02 0.  0.
        -11    1    3    3    0    0  0.47077901959E+01 -0.88252126421E+01  0.30333544151E+01  0.10452220146E+02  0.51100000000E-03 0. -1.
         11    1    3    3    0    0 -0.47077901959E+01  0.88252126421E+01  0.30055733170E+01  0.10444191588E+02  0.51100000000E-03 0.  1.
<mgrwt>
<rscale>  0 0.20004784E+02</rscale>
<asrwt>0</asrwt>
<pdfrwt beam="2">  1        2 0.11428834E-02 0.20004784E+02</pdfrwt>
<pdfrwt beam="1">  1       -2 0.20719492E-02 0.20004784E+02</pdfrwt>
<totfact> 0.38589355E+06</totfact>
</mgrwt>
</event>
<event>
 5    1  0.4049340E-006  0.2000030E+02  0.7818608E-02  0.1745322E+00
         -2   -1    0    0    0  501 -0.00000000000E+00  0.00000000000E+00  0.96932696664E+00  0.96933045359E+00  0.26000000000E-02 0.  1.
          2   -1    0    0  501    0  0.00000000000E+00 -0.00000000000E+00 -0.10316726637E+03  0.10316726640E+03  0.26000000000E-02 0. -1.
       1023    2    1    2    0    0  0.00000000000E+00  0.00000000000E+00 -0.10219793940E+03  0.10413659685E+03  0.20000299661E+02 0.  0.
        -11    1    3    3    0    0 -0.17119318682E+01  0.98525268639E+01 -0.51097892245E+02  0.52067241030E+02  0.51100000000E-03 0. -1.
         11    1    3    3    0    0  0.17119318682E+01 -0.98525268639E+01 -0.51100047156E+02  0.52069355824E+02  0.51100000000E-03 0.  1.
<mgrwt>
<rscale>  0 0.20000300E+02</rscale>
<asrwt>0</asrwt>
<pdfrwt beam="2">  1        2 0.15871879E-01 0.20000300E+02</pdfrwt>
<pdfrwt beam="1">  1       -2 0.14912758E-03 0.20000300E+02</pdfrwt>
<totfact> 0.53133943E+06</totfact>
</mgrwt>
</event>
<event>
 5    1  0.4046313E-006  0.2000213E+02  0.7818608E-02  0.1745286E+00
          2   -1    0    0  501    0  0.00000000000E+00  0.00000000000E+00  0.63151078634E+02  0.63151078687E+02  0.26000000000E-02 0. -1.
         -2   -1    0    0    0  501 -0.00000000000E+00 -0.00000000000E+00 -0.15838401749E+01  0.15838423089E+01  0.26000000000E-02 0.  1.
       1023    2    1    2    0    0  0.00000000000E+00  0.00000000000E+00  0.61567238459E+02  0.64734920996E+02  0.20002128510E+02 0.  0.
        -11    1    3    3    0    0 -0.34489985819E+01 -0.93874920655E+01  0.30698761722E+02  0.32286755335E+02  0.51100000000E-03 0. -1.
         11    1    3    3    0    0  0.34489985819E+01  0.93874920655E+01  0.30868476737E+02  0.32448165661E+02  0.51100000000E-03 0.  1.
<mgrwt>
<rscale>  0 0.20002129E+02</rscale>
<asrwt>0</asrwt>
<pdfrwt beam="1">  1        2 0.97155506E-02 0.20002129E+02</pdfrwt>
<pdfrwt beam="2">  1       -2 0.24366789E-03 0.20002129E+02</pdfrwt>
<totfact> 0.48107824E+06</totfact>
</mgrwt>
</event>
<event>
 5    1  0.4046313E-006  0.2001084E+02  0.7818608E-02  0.1745113E+00
          2   -1    0    0  501    0  0.00000000000E+00  0.00000000000E+00  0.84179159125E+02  0.84179159165E+02  0.26000000000E-02 0. -1.
         -2   -1    0    0    0  501 -0.00000000000E+00 -0.00000000000E+00 -0.11892287925E+01  0.11892316347E+01  0.26000000000E-02 0.  1.
       1023    2    1    2    0    0  0.00000000000E+00  0.00000000000E+00  0.82989930332E+02  0.85368390799E+02  0.20010837343E+02 0.  0.
        -11    1    3    3    0    0 -0.26878718133E+01  0.96366074237E+01  0.42091381828E+02  0.43263995216E+02  0.51100000000E-03 0.  1.
         11    1    3    3    0    0  0.26878718133E+01 -0.96366074237E+01  0.40898548504E+02  0.42104395584E+02  0.51100000000E-03 0. -1.
<mgrwt>
<rscale>  0 0.20010837E+02</rscale>
<asrwt>0</asrwt>
<pdfrwt beam="1">  1        2 0.12950643E-01 0.20010837E+02</pdfrwt>
<pdfrwt beam="2">  1       -2 0.18295846E-03 0.20010837E+02</pdfrwt>
<totfact> 0.50762641E+06</totfact>
</mgrwt>
</event>
<event>
 5    1  0.4046313E-006  0.2000043E+02  0.7818608E-02  0.1745320E+00
          2   -1    0    0  501    0  0.00000000000E+00  0.00000000000E+00  0.42783941414E+02  0.42783941493E+02  0.26000000000E-02 0. -1.
         -2   -1    0    0    0  501 -0.00000000000E+00 -0.00000000000E+00 -0.23374245756E+01  0.23374260217E+01  0.26000000000E-02 0.  1.
       1023    2    1    2    0    0  0.00000000000E+00  0.00000000000E+00  0.40446516838E+02  0.45121367515E+02  0.20000427046E+02 0.  0.
        -11    1    3    3    0    0  0.99869572365E+01 -0.51408249143E+00  0.20281854042E+02  0.22613208514E+02  0.51100000000E-03 0.  1.
         11    1    3    3    0    0 -0.99869572365E+01  0.51408249143E+00  0.20164662797E+02  0.22508159001E+02  0.51100000000E-03 0. -1.
<mgrwt>
<rscale>  0 0.20000427E+02</rscale>
<asrwt>0</asrwt>
<pdfrwt beam="1">  1        2 0.65821446E-02 0.20000427E+02</pdfrwt>
<pdfrwt beam="2">  1       -2 0.35960392E-03 0.20000427E+02</pdfrwt>
<totfact> 0.45300278E+06</totfact>
</mgrwt>
</event>
<event>
 4    1  0.4046313E-006  0.2004897E+02  0.7818608E-02  0.1744356E+00
         -2   -1    0    0    0  501 -0.00000000000E+00  0.00000000000E+00  0.13037335035E+02  0.13037335295E+02  0.26000000000E-02 0. -1.
          2   -1    0    0  501    0  0.00000000000E+00 -0.00000000000E+00 -0.77078861659E+01  0.77078866044E+01  0.26000000000E-02 0.  1.
        -11    1    1    2    0    0 -0.93147488814E+01  0.36897711024E+01  0.30099946225E+01  0.10461310883E+02  0.51100000000E-03 0.  1.
         11    1    1    2    0    0  0.93147488814E+01 -0.36897711024E+01  0.23194542471E+01  0.10283911016E+02  0.51100000000E-03 0. -1.
<mgrwt>
<rscale>  0 0.20048970E+02</rscale>
<asrwt>0</asrwt>
<pdfrwt beam="2">  1        2 0.11858287E-02 0.20048970E+02</pdfrwt>
<pdfrwt beam="1">  1       -2 0.20057439E-02 0.20048970E+02</pdfrwt>
<totfact> 0.38499304E+06</totfact>
</mgrwt>
</event>
<event>
 5    1  0.4046313E-006  0.2000674E+02  0.7818608E-02  0.1745194E+00
          2   -1    0    0  501    0  0.00000000000E+00  0.00000000000E+00  0.97279648230E+01  0.97279651705E+01  0.26000000000E-02 0. -1.
         -2   -1    0    0    0  501 -0.00000000000E+00 -0.00000000000E+00 -0.10286575952E+02  0.10286576281E+02  0.26000000000E-02 0.  1.
       1023    2    1    2    0    0  0.00000000000E+00  0.00000000000E+00 -0.55861112922E+00  0.20014541451E+02  0.20006744441E+02 0.  0.
        -11    1    3    3    0    0 -0.98252750186E+01  0.18663946546E+01 -0.60137277186E-01  0.10001153681E+02  0.51100000000E-03 0.  1.
         11    1    3    3    0    0  0.98252750186E+01 -0.18663946546E+01 -0.49847385203E+00  0.10013387770E+02  0.51100000000E-03 0. -1.
<mgrwt>
<rscale>  0 0.20006744E+02</rscale>
<asrwt>0</asrwt>
<pdfrwt beam="1">  1        2 0.14966100E-02 0.20006744E+02</pdfrwt>
<pdfrwt beam="2">  1       -2 0.15825502E-02 0.20006744E+02</pdfrwt>
<totfact> 0.39353198E+06</totfact>
</mgrwt>
</event>
<event>
 5    1  0.4046313E-006  0.2000046E+02  0.7818608E-02  0.1745319E+00
         -2   -1    0    0    0  501 -0.00000000000E+00  0.00000000000E+00  0.76056636766E+01  0.76056641210E+01  0.26000000000E-02 0. -1.
          2   -1    0    0  501    0  0.00000000000E+00 -0.00000000000E+00 -0.13148698104E+02  0.13148698362E+02  0.26000000000E-02 0.  1.
       1023    2    1    2    0    0  0.00000000000E+00  0.00000000000E+00 -0.55430344279E+01  0.20754362483E+02  0.20000458279E+02 0.  0.
        -11    1    3    3    0    0  0.96416439671E+01  0.26536369583E+01 -0.27313933131E+01  0.10366465029E+02  0.51100000000E-03 0.  1.
         11    1    3    3    0    0 -0.96416439671E+01 -0.26536369583E+01 -0.28116411148E+01  0.10387897454E+02  0.51100000000E-03 0. -1.
<mgrwt>
<rscale>  0 0.20000458E+02</rscale>
<asrwt>0</asrwt>
<pdfrwt beam="2">  1        2 0.20228767E-02 0.20000458E+02</pdfrwt>
<pdfrwt beam="1">  1       -2 0.11701022E-02 0.20000458E+02</pdfrwt>
<totfact> 0.40273845E+06</totfact>
</mgrwt>
</event>
<event>
 5    1  0.4046313E-006  0.2000102E+02  0.7818608E-02  0.1745308E+00
          2   -1    0    0  501    0  0.00000000000E+00  0.00000000000E+00  0.20891908065E+02  0.20891908226E+02  0.26000000000E-02 0.  1.
         -2   -1    0    0    0  501 -0.00000000000E+00 -0.00000000000E+00 -0.47870307077E+01  0.47870314137E+01  0.26000000000E-02 0. -1.
       1023    2    1    2    0    0  0.00000000000E+00  0.00000000000E+00  0.16104877357E+02  0.25678939640E+02  0.20001021633E+02 0.  0.
        -11    1    3    3    0    0 -0.99762059728E+01 -0.69678663787E+00  0.80468279692E+01  0.12835950992E+02  0.51100000000E-03 0.  1.
         11    1    3    3    0    0  0.99762059728E+01  0.69678663787E+00  0.80580493876E+01  0.12842988649E+02  0.51100000000E-03 0. -1.
<mgrwt>
<rscale>  0 0.20001022E+02</rscale>
<asrwt>0</asrwt>
<pdfrwt beam="1">  1        2 0.32141397E-02 0.20001022E+02</pdfrwt>
<pdfrwt beam="2">  1       -2 0.73646635E-03 0.20001022E+02</pdfrwt>
<totfact> 0.41835948E+06</totfact>
</mgrwt>
</event>
<event>
 5    1  0.4046313E-006  0.2000326E+02  0.7818608E-02  0.1745263E+00
         -2   -1    0    0    0  501 -0.00000000000E+00  0.00000000000E+00  0.43386767233E+01  0.43386775023E+01  0.26000000000E-02 0. -1.
          2   -1    0    0  501    0  0.00000000000E+00 -0.00000000000E+00 -0.23056014347E+02  0.23056014493E+02  0.26000000000E-02 0.  1.
       1023    2    1    2    0    0  0.00000000000E+00  0.00000000000E+00 -0.18717337623E+02  0.27394691996E+02  0.20003260280E+02 0.  0.
        -11    1    3    3    0    0 -0.13191622529E+01 -0.99126116036E+01 -0.96057407363E+01  0.13866157117E+02  0.51100000000E-03 0.  1.
         11    1    3    3    0    0  0.13191622529E+01  0.99126116036E+01 -0.91115968871E+01  0.13528534878E+02  0.51100000000E-03 0. -1.
<mgrwt>
<rscale>  0 0.20003260E+02</rscale>
<asrwt>0</asrwt>
<pdfrwt beam="2">  1        2 0.35470791E-02 0.20003260E+02</pdfrwt>
<pdfrwt beam="1">  1       -2 0.66748881E-03 0.20003260E+02</pdfrwt>
<totfact> 0.42208565E+06</totfact>
</mgrwt>
</event>
<event>
 5    1  0.4046313E-006  0.2000013E+02  0.7818608E-02  0.1745325E+00
         -2   -1    0    0    0  501 -0.00000000000E+00  0.00000000000E+00  0.11209809370E+03  0.11209809373E+03  0.26000000000E-02 0.  1.
          2   -1    0    0  501    0  0.00000000000E+00 -0.00000000000E+00 -0.89208556358E+00  0.89208935245E+00  0.26000000000E-02 0. -1.
       1023    2    1    2    0    0  0.00000000000E+00  0.00000000000E+00  0.11120600813E+03  0.11299018308E+03  0.20000130684E+02 0.  0.
        -11    1    3    3    0    0 -0.75857578399E+01  0.65159407585E+01  0.55546335934E+02  0.56439318227E+02  0.51100000000E-03 0.  1.
         11    1    3    3    0    0  0.75857578399E+01 -0.65159407585E+01  0.55659672200E+02  0.56550864853E+02  0.51100000000E-03 0. -1.
<mgrwt>
<rscale>  0 0.20000131E+02</rscale>
<asrwt>0</asrwt>
<pdfrwt beam="2">  1        2 0.13724437E-03 0.20000131E+02</pdfrwt>
<pdfrwt beam="1">  1       -2 0.17245842E-01 0.20000131E+02</pdfrwt>
<totfact> 0.28874944E+06</totfact>
</mgrwt>
</event>
<event>
 5    1  0.4046313E-006  0.2000267E+02  0.7818608E-02  0.1745275E+00
          2   -1    0    0  501    0  0.00000000000E+00  0.00000000000E+00  0.23444378599E+02  0.23444378744E+02  0.26000000000E-02 0.  1.
         -2   -1    0    0    0  501 -0.00000000000E+00 -0.00000000000E+00 -0.42665540112E+01  0.42665548034E+01  0.26000000000E-02 0. -1.
       1023    2    1    2    0    0  0.00000000000E+00  0.00000000000E+00  0.19177824588E+02  0.27710933547E+02  0.20002671874E+02 0.  0.
        -11    1    3    3    0    0 -0.18491890435E+00 -0.99992848026E+01  0.94744316062E+01  0.13776238459E+02  0.51100000000E-03 0. -1.
         11    1    3    3    0    0  0.18491890435E+00  0.99992848026E+01  0.97033929820E+01  0.13934695088E+02  0.51100000000E-03 0.  1.
<mgrwt>
<rscale>  0 0.20002672E+02</rscale>
<asrwt>0</asrwt>
<pdfrwt beam="1">  1        2 0.36068275E-02 0.20002672E+02</pdfrwt>
<pdfrwt beam="2">  1       -2 0.65639301E-03 0.20002672E+02</pdfrwt>
<totfact> 0.42278590E+06</totfact>
</mgrwt>
</event>
<event>
 5    1  0.4046313E-006  0.2000155E+02  0.7818608E-02  0.1745297E+00
         -2   -1    0    0    0  501 -0.00000000000E+00  0.00000000000E+00  0.34680115680E+02  0.34680115777E+02  0.26000000000E-02 0. -1.
          2   -1    0    0  501    0  0.00000000000E+00 -0.00000000000E+00 -0.28839438685E+01  0.28839450405E+01  0.26000000000E-02 0.  1.
       1023    2    1    2    0    0  0.00000000000E+00  0.00000000000E+00  0.31796171811E+02  0.37564060818E+02  0.20001553021E+02 0.  0.
        -11    1    3    3    0    0  0.33126237461E+01 -0.94358841079E+01  0.16045313783E+02  0.18906651730E+02  0.51100000000E-03 0.  1.
         11    1    3    3    0    0 -0.33126237461E+01  0.94358841079E+01  0.15750858028E+02  0.18657409087E+02  0.51100000000E-03 0. -1.
<mgrwt>
<rscale>  0 0.20001553E+02</rscale>
<asrwt>0</asrwt>
<pdfrwt beam="2">  1        2 0.44368377E-03 0.20001553E+02</pdfrwt>
<pdfrwt beam="1">  1       -2 0.53354025E-02 0.20001553E+02</pdfrwt>
<totfact> 0.35503452E+06</totfact>
</mgrwt>
</event>
<event>
 5    1  0.4046313E-006  0.2000405E+02  0.7818608E-02  0.1745248E+00
         -2   -1    0    0    0  501 -0.00000000000E+00  0.00000000000E+00  0.95940152921E+00  0.95940505224E+00  0.26000000000E-02 0. -1.
          2   -1    0    0  501    0  0.00000000000E+00 -0.00000000000E+00 -0.10427368483E+03  0.10427368486E+03  0.26000000000E-02 0.  1.
       1023    2    1    2    0    0  0.00000000000E+00  0.00000000000E+00 -0.10331428330E+03  0.10523308992E+03  0.20004051565E+02 0.  0.
        -11    1    3    3    0    0 -0.60851685679E+01  0.79376192506E+01 -0.51269010392E+02  0.52235490834E+02  0.51100000000E-03 0.  1.
         11    1    3    3    0    0  0.60851685679E+01 -0.79376192506E+01 -0.52045272910E+02  0.52997599081E+02  0.51100000000E-03 0. -1.
<mgrwt>
<rscale>  0 0.20004052E+02</rscale>
<asrwt>0</asrwt>
<pdfrwt beam="2">  1        2 0.16042097E-01 0.20004052E+02</pdfrwt>
<pdfrwt beam="1">  1       -2 0.14760059E-03 0.20004052E+02</pdfrwt>
<totfact> 0.53243063E+06</totfact>
</mgrwt>
</event>
<event>
 5    1  0.4046313E-006  0.2000931E+02  0.7818608E-02  0.1745143E+00
         -2   -1    0    0    0  501 -0.00000000000E+00  0.00000000000E+00  0.69911304467E+02  0.69911304516E+02  0.26000000000E-02 0.  1.
          2   -1    0    0  501    0  0.00000000000E+00 -0.00000000000E+00 -0.14317152622E+01  0.14317176230E+01  0.26000000000E-02 0. -1.
       1023    2    1    2    0    0  0.00000000000E+00  0.00000000000E+00  0.68479589205E+02  0.71343022139E+02  0.20009314585E+02 0.  0.
        -11    1    3    3    0    0 -0.23584332295E+01  0.97222879086E+01  0.34560248810E+02  0.35979103485E+02  0.51100000000E-03 0.  1.
         11    1    3    3    0    0  0.23584332295E+01 -0.97222879086E+01  0.33919340395E+02  0.35363918654E+02  0.51100000000E-03 0. -1.
<mgrwt>
<rscale>  0 0.20009315E+02</rscale>
<asrwt>0</asrwt>
<pdfrwt beam="2">  1        2 0.22026413E-03 0.20009315E+02</pdfrwt>
<pdfrwt beam="1">  1       -2 0.10755583E-01 0.20009315E+02</pdfrwt>
<totfact> 0.32058144E+06</totfact>
</mgrwt>
</event>
<event>
 5    1  0.4046313E-006  0.2000190E+02  0.7818608E-02  0.1745290E+00
          2   -1    0    0  501    0  0.00000000000E+00  0.00000000000E+00  0.26620347332E+02  0.26620347459E+02  0.26000000000E-02 0.  1.
         -2   -1    0    0    0  501 -0.00000000000E+00 -0.00000000000E+00 -0.37572385189E+01  0.37572394185E+01  0.26000000000E-02 0. -1.
       1023    2    1    2    0    0  0.00000000000E+00  0.00000000000E+00  0.22863108813E+02  0.30377586877E+02  0.20001900907E+02 0.  0.
        -11    1    3    3    0    0  0.28003211341E+01 -0.96002911911E+01  0.11267838538E+02  0.15065575827E+02  0.51100000000E-03 0. -1.
         11    1    3    3    0    0 -0.28003211341E+01  0.96002911911E+01  0.11595270275E+02  0.15312011051E+02  0.51100000000E-03 0.  1.
<mgrwt>
<rscale>  0 0.20001901E+02</rscale>
<asrwt>0</asrwt>
<pdfrwt beam="1">  1        2 0.40954381E-02 0.20001901E+02</pdfrwt>
<pdfrwt beam="2">  1       -2 0.57803678E-03 0.20001901E+02</pdfrwt>
<totfact> 0.42817742E+06</totfact>
</mgrwt>
</event>
<event>
 5    1  0.4046313E-006  0.2000092E+02  0.7818608E-02  0.1745310E+00
          2   -1    0    0  501    0  0.00000000000E+00  0.00000000000E+00  0.96629834316E+01  0.96629837814E+01  0.26000000000E-02 0. -1.
         -2   -1    0    0    0  501 -0.00000000000E+00 -0.00000000000E+00 -0.10349719167E+02  0.10349719494E+02  0.26000000000E-02 0.  1.
       1023    2    1    2    0    0  0.00000000000E+00  0.00000000000E+00 -0.68673573549E+00  0.20012703275E+02  0.20000917139E+02 0.  0.
        -11    1    3    3    0    0  0.97790302129E+01  0.20915885693E+01 -0.27263892937E+00  0.10003924575E+02  0.51100000000E-03 0. -1.
         11    1    3    3    0    0 -0.97790302129E+01 -0.20915885693E+01 -0.41409680611E+00  0.10008778700E+02  0.51100000000E-03 0.  1.
<mgrwt>
<rscale>  0 0.20000917E+02</rscale>
<asrwt>0</asrwt>
<pdfrwt beam="1">  1        2 0.14866129E-02 0.20000917E+02</pdfrwt>
<pdfrwt beam="2">  1       -2 0.15922645E-02 0.20000917E+02</pdfrwt>
<totfact> 0.39360100E+06</totfact>
</mgrwt>
</event>
<event>
 5    1  0.4046313E-006  0.2000008E+02  0.7818608E-02  0.1745326E+00
         -2   -1    0    0    0  501 -0.00000000000E+00  0.00000000000E+00  0.12963356696E+01  0.12963382769E+01  0.26000000000E-02 0.  1.
          2   -1    0    0  501    0  0.00000000000E+00 -0.00000000000E+00 -0.77141067693E+02  0.77141067737E+02  0.26000000000E-02 0. -1.
       1023    2    1    2    0    0  0.00000000000E+00  0.00000000000E+00 -0.75844732023E+02  0.78437406014E+02  0.20000082161E+02 0.  0.
        -11    1    3    3    0    0  0.23330348315E+01  0.97240816199E+01 -0.37932348735E+02  0.39228355761E+02  0.51100000000E-03 0.  1.
         11    1    3    3    0    0 -0.23330348315E+01 -0.97240816199E+01 -0.37912383288E+02  0.39209050253E+02  0.51100000000E-03 0. -1.
<mgrwt>
<rscale>  0 0.20000082E+02</rscale>
<asrwt>0</asrwt>
<pdfrwt beam="2">  1        2 0.11867853E-01 0.20000082E+02</pdfrwt>
<pdfrwt beam="1">  1       -2 0.19943652E-03 0.20000082E+02</pdfrwt>
<totfact> 0.49937182E+06</totfact>
</mgrwt>
</event>
<event>
 5    1  0.4046313E-006  0.2000058E+02  0.7818608E-02  0.1745317E+00
         -2   -1    0    0    0  501 -0.00000000000E+00  0.00000000000E+00  0.20402743146E+02  0.20402743312E+02  0.26000000000E-02 0. -1.
          2   -1    0    0  501    0  0.00000000000E+00 -0.00000000000E+00 -0.49015864548E+01  0.49015871443E+01  0.26000000000E-02 0.  1.
       1023    2    1    2    0    0  0.00000000000E+00  0.00000000000E+00  0.15501156691E+02  0.25304330456E+02  0.20000582018E+02 0.  0.
        -11    1    3    3    0    0 -0.51378796628E+01  0.85794080758E+01  0.78038008457E+01  0.12684768751E+02  0.51100000000E-03 0. -1.
         11    1    3    3    0    0  0.51378796628E+01 -0.85794080758E+01  0.76973558457E+01  0.12619561705E+02  0.51100000000E-03 0.  1.
<mgrwt>
<rscale>  0 0.20000582E+02</rscale>
<asrwt>0</asrwt>
<pdfrwt beam="2">  1        2 0.75409030E-03 0.20000582E+02</pdfrwt>
<pdfrwt beam="1">  1       -2 0.31388836E-02 0.20000582E+02</pdfrwt>
<totfact> 0.37369102E+06</totfact>
</mgrwt>
</event>
<event>
 5    1  0.4046313E-006  0.2000053E+02  0.7818608E-02  0.1745317E+00
         -2   -1    0    0    0  501 -0.00000000000E+00  0.00000000000E+00  0.66632528358E+01  0.66632533430E+01  0.26000000000E-02 0. -1.
          2   -1    0    0  501    0  0.00000000000E+00 -0.00000000000E+00 -0.15008484606E+02  0.15008484831E+02  0.26000000000E-02 0.  1.
       1023    2    1    2    0    0  0.00000000000E+00  0.00000000000E+00 -0.83452317702E+01  0.21671738174E+02  0.20000533548E+02 0.  0.
        -11    1    3    3    0    0  0.61729908992E+01  0.78675488195E+01 -0.41351708484E+01  0.10821449962E+02  0.51100000000E-03 0. -1.
         11    1    3    3    0    0 -0.61729908992E+01 -0.78675488195E+01 -0.42100609218E+01  0.10850288212E+02  0.51100000000E-03 0.  1.
<mgrwt>
<rscale>  0 0.20000534E+02</rscale>
<asrwt>0</asrwt>
<pdfrwt beam="2">  1        2 0.23089977E-02 0.20000534E+02</pdfrwt>
<pdfrwt beam="1">  1       -2 0.10251159E-02 0.20000534E+02</pdfrwt>
<totfact> 0.40688941E+06</totfact>
</mgrwt>
</event>
<event>
 5    1  0.4046313E-006  0.2000551E+02  0.7818608E-02  0.1745219E+00
          2   -1    0    0  501    0  0.00000000000E+00  0.00000000000E+00  0.47697644281E+02  0.47697644352E+02  0.26000000000E-02 0.  1.
         -2   -1    0    0    0  501 -0.00000000000E+00 -0.00000000000E+00 -0.20976932831E+01  0.20976948944E+01  0.26000000000E-02 0. -1.
       1023    2    1    2    0    0  0.00000000000E+00  0.00000000000E+00  0.45599950998E+02  0.49795339246E+02  0.20005506233E+02 0.  0.
        -11    1    3    3    0    0 -0.49131268649E+00  0.99904633128E+01  0.22963655822E+02  0.25047559449E+02  0.51100000000E-03 0. -1.
         11    1    3    3    0    0  0.49131268649E+00 -0.99904633128E+01  0.22636295176E+02  0.24747779798E+02  0.51100000000E-03 0.  1.
<mgrwt>
<rscale>  0 0.20005506E+02</rscale>
<asrwt>0</asrwt>
<pdfrwt beam="1">  1        2 0.73380995E-02 0.20005506E+02</pdfrwt>
<pdfrwt beam="2">  1       -2 0.32272216E-03 0.20005506E+02</pdfrwt>
<totfact> 0.45976500E+06</totfact>
</mgrwt>
</event>
<event>
 5    1  0.4046313E-006  0.2000026E+02  0.7818608E-02  0.1745323E+00
         -2   -1    0    0    0  501 -0.00000000000E+00  0.00000000000E+00  0.13243302971E+01  0.13243328493E+01  0.26000000000E-02 0. -1.
          2   -1    0    0  501    0  0.00000000000E+00 -0.00000000000E+00 -0.75511776244E+02  0.75511776289E+02  0.26000000000E-02 0.  1.
       1023    2    1    2    0    0  0.00000000000E+00  0.00000000000E+00 -0.74187445947E+02  0.76836109138E+02  0.20000263282E+02 0.  0.
        -11    1    3    3    0    0 -0.81657025573E+01 -0.57726158051E+01 -0.36982306227E+02  0.38310478535E+02  0.51100000000E-03 0. -1.
         11    1    3    3    0    0  0.81657025573E+01  0.57726158051E+01 -0.37205139720E+02  0.38525630603E+02  0.51100000000E-03 0.  1.
<mgrwt>
<rscale>  0 0.20000263E+02</rscale>
<asrwt>0</asrwt>
<pdfrwt beam="2">  1        2 0.11617193E-01 0.20000263E+02</pdfrwt>
<pdfrwt beam="1">  1       -2 0.20374338E-03 0.20000263E+02</pdfrwt>
<totfact> 0.49728556E+06</totfact>
</mgrwt>
</event>
<event>
 5    1  0.4046313E-006  0.2000247E+02  0.7818608E-02  0.1745279E+00
          2   -1    0    0  501    0  0.00000000000E+00  0.00000000000E+00  0.47632106059E+02  0.47632106130E+02  0.26000000000E-02 0. -1.
         -2   -1    0    0    0  501 -0.00000000000E+00 -0.00000000000E+00 -0.20999422933E+01  0.20999439029E+01  0.26000000000E-02 0.  1.
       1023    2    1    2    0    0  0.00000000000E+00  0.00000000000E+00  0.45532163765E+02  0.49732050033E+02  0.20002471429E+02 0.  0.
        -11    1    3    3    0    0  0.94378696487E+01  0.33072721981E+01  0.22479535287E+02  0.24603677365E+02  0.51100000000E-03 0. -1.
         11    1    3    3    0    0 -0.94378696487E+01 -0.33072721981E+01  0.23052628479E+02  0.25128372668E+02  0.51100000000E-03 0.  1.
<mgrwt>
<rscale>  0 0.20002471E+02</rscale>
<asrwt>0</asrwt>
<pdfrwt beam="1">  1        2 0.73280164E-02 0.20002471E+02</pdfrwt>
<pdfrwt beam="2">  1       -2 0.32306818E-03 0.20002471E+02</pdfrwt>
<totfact> 0.45982794E+06</totfact>
</mgrwt>
</event>
<event>
 5    1  0.4046313E-006  0.2000042E+02  0.7818608E-02  0.1745320E+00
          2   -1    0    0  501    0  0.00000000000E+00  0.00000000000E+00  0.15629462798E+02  0.15629463014E+02  0.26000000000E-02 0.  1.
         -2   -1    0    0    0  501 -0.00000000000E+00 -0.00000000000E+00 -0.63984410108E+01  0.63984415390E+01  0.26000000000E-02 0. -1.
       1023    2    1    2    0    0  0.00000000000E+00  0.00000000000E+00  0.92310217868E+01  0.22027904553E+02  0.20000420390E+02 0.  0.
        -11    1    3    3    0    0  0.52701470531E+01 -0.84987720636E+01  0.45879297287E+01  0.11002394103E+02  0.51100000000E-03 0.  1.
         11    1    3    3    0    0 -0.52701470531E+01  0.84987720636E+01  0.46430920580E+01  0.11025510449E+02  0.51100000000E-03 0. -1.
<mgrwt>
<rscale>  0 0.20000420E+02</rscale>
<asrwt>0</asrwt>
<pdfrwt beam="1">  1        2 0.24045328E-02 0.20000420E+02</pdfrwt>
<pdfrwt beam="2">  1       -2 0.98437559E-03 0.20000420E+02</pdfrwt>
<totfact> 0.40821032E+06</totfact>
</mgrwt>
</event>
<event>
 5    1  0.4046313E-006  0.2000721E+02  0.7818608E-02  0.1745185E+00
         -2   -1    0    0    0  501 -0.00000000000E+00  0.00000000000E+00  0.28826828135E+01  0.28826839860E+01  0.26000000000E-02 0.  1.
          2   -1    0    0  501    0  0.00000000000E+00 -0.00000000000E+00 -0.34714922082E+02  0.34714922180E+02  0.26000000000E-02 0. -1.
       1023    2    1    2    0    0  0.00000000000E+00  0.00000000000E+00 -0.31832239269E+02  0.37597606166E+02  0.20007212013E+02 0.  0.
        -11    1    3    3    0    0  0.31174982719E+01 -0.95054238956E+01 -0.15946066747E+02  0.18824157986E+02  0.51100000000E-03 0.  1.
         11    1    3    3    0    0 -0.31174982719E+01  0.95054238956E+01 -0.15886172522E+02  0.18773448180E+02  0.51100000000E-03 0. -1.
<mgrwt>
<rscale>  0 0.20007212E+02</rscale>
<asrwt>0</asrwt>
<pdfrwt beam="2">  1        2 0.53407571E-02 0.20007212E+02</pdfrwt>
<pdfrwt beam="1">  1       -2 0.44348978E-03 0.20007212E+02</pdfrwt>
<totfact> 0.44070129E+06</totfact>
</mgrwt>
</event>
<event>
 5    1  0.4046313E-006  0.2000100E+02  0.7818608E-02  0.1745308E+00
          2   -1    0    0  501    0  0.00000000000E+00  0.00000000000E+00  0.10156818798E+01  0.10156852076E+01  0.26000000000E-02 0. -1.
         -2   -1    0    0    0  501 -0.00000000000E+00 -0.00000000000E+00 -0.98465680819E+02  0.98465680854E+02  0.26000000000E-02 0.  1.
       1023    2    1    2    0    0  0.00000000000E+00  0.00000000000E+00 -0.97449998940E+02  0.99481366061E+02  0.20000997477E+02 0.  0.
        -11    1    3    3    0    0 -0.52790367935E+01  0.84935978296E+01 -0.48609289656E+02  0.49627335962E+02  0.51100000000E-03 0. -1.
         11    1    3    3    0    0  0.52790367935E+01 -0.84935978296E+01 -0.48840709283E+02  0.49854030099E+02  0.51100000000E-03 0.  1.
<mgrwt>
<rscale>  0 0.20000997E+02</rscale>
<asrwt>0</asrwt>
<pdfrwt beam="1">  1        2 0.15625909E-03 0.20000997E+02</pdfrwt>
<pdfrwt beam="2">  1       -2 0.15148559E-01 0.20000997E+02</pdfrwt>
<totfact> 0.29839394E+06</totfact>
</mgrwt>
</event>
<event>
 5    1  0.4099319E-006  0.2000255E+02  0.7818608E-02  0.1745277E+00
         -2   -1    0    0    0  501 -0.00000000000E+00  0.00000000000E+00  0.10692280675E+01  0.10692312287E+01  0.26000000000E-02 0. -1.
          2   -1    0    0  501    0  0.00000000000E+00 -0.00000000000E+00 -0.93549078676E+02  0.93549078712E+02  0.26000000000E-02 0.  1.
       1023    2    1    2    0    0  0.00000000000E+00  0.00000000000E+00 -0.92479850609E+02  0.94618309941E+02  0.20002545025E+02 0.  0.
        -11    1    3    3    0    0 -0.96982027263E+01 -0.24411548501E+01 -0.46737811651E+02  0.47795788636E+02  0.51100000000E-03 0. -1.
         11    1    3    3    0    0  0.96982027263E+01  0.24411548501E+01 -0.45742038957E+02  0.46822521305E+02  0.51100000000E-03 0.  1.
<mgrwt>
<rscale>  0 0.20002545E+02</rscale>
<asrwt>0</asrwt>
<pdfrwt beam="2">  1        2 0.14392160E-01 0.20002545E+02</pdfrwt>
<pdfrwt beam="1">  1       -2 0.16449694E-03 0.20002545E+02</pdfrwt>
<totfact> 0.51964352E+06</totfact>
</mgrwt>
</event>
<event>
 5    1  0.4046313E-006  0.2000184E+02  0.7818608E-02  0.1745292E+00
         -2   -1    0    0    0  501 -0.00000000000E+00  0.00000000000E+00  0.37116516629E+01  0.37116525736E+01  0.26000000000E-02 0. -1.
          2   -1    0    0  501    0  0.00000000000E+00 -0.00000000000E+00 -0.26947126198E+02  0.26947126324E+02  0.26000000000E-02 0.  1.
       1023    2    1    2    0    0  0.00000000000E+00  0.00000000000E+00 -0.23235474535E+02  0.30658778897E+02  0.20001836080E+02 0.  0.
        -11    1    3    3    0    0  0.29614879084E+01 -0.95518002931E+01 -0.11456524239E+02  0.15207210374E+02  0.51100000000E-03 0.  1.
         11    1    3    3    0    0 -0.29614879084E+01  0.95518002931E+01 -0.11778950296E+02  0.15451568523E+02  0.51100000000E-03 0. -1.
<mgrwt>
<rscale>  0 0.20001836E+02</rscale>
<asrwt>0</asrwt>
<pdfrwt beam="2">  1        2 0.41457117E-02 0.20001836E+02</pdfrwt>
<pdfrwt beam="1">  1       -2 0.57102343E-03 0.20001836E+02</pdfrwt>
<totfact> 0.42871855E+06</totfact>
</mgrwt>
</event>
<event>
 5    1  0.4046313E-006  0.2000137E+02  0.7818608E-02  0.1745301E+00
         -2   -1    0    0    0  501 -0.00000000000E+00  0.00000000000E+00  0.25762707088E+01  0.25762720207E+01  0.26000000000E-02 0. -1.
          2   -1    0    0  501    0  0.00000000000E+00 -0.00000000000E+00 -0.38821103957E+02  0.38821104044E+02  0.26000000000E-02 0.  1.
       1023    2    1    2    0    0  0.00000000000E+00  0.00000000000E+00 -0.36244833248E+02  0.41397376064E+02  0.20001370149E+02 0.  0.
        -11    1    3    3    0    0 -0.93687364029E+01  0.34984111194E+01 -0.18039639038E+02  0.20626213395E+02  0.51100000000E-03 0.  1.
         11    1    3    3    0    0  0.93687364029E+01 -0.34984111194E+01 -0.18205194210E+02  0.20771162669E+02  0.51100000000E-03 0. -1.
<mgrwt>
<rscale>  0 0.20001370E+02</rscale>
<asrwt>0</asrwt>
<pdfrwt beam="2">  1        2 0.59724772E-02 0.20001370E+02</pdfrwt>
<pdfrwt beam="1">  1       -2 0.39634948E-03 0.20001370E+02</pdfrwt>
<totfact> 0.44715489E+06</totfact>
</mgrwt>
</event>
<event>
 5    1  0.4046313E-006  0.2000081E+02  0.7818608E-02  0.1745312E+00
         -2   -1    0    0    0  501 -0.00000000000E+00  0.00000000000E+00  0.94183222217E+01  0.94183225805E+01  0.26000000000E-02 0.  1.
          2   -1    0    0  501    0  0.00000000000E+00 -0.00000000000E+00 -0.10618466666E+02  0.10618466984E+02  0.26000000000E-02 0. -1.
       1023    2    1    2    0    0  0.00000000000E+00  0.00000000000E+00 -0.12001444443E+01  0.20036789565E+02  0.20000814718E+02 0.  0.
        -11    1    3    3    0    0  0.10000032279E+02 -0.16835487787E-01 -0.51496019076E+00  0.10013296823E+02  0.51100000000E-03 0.  1.
         11    1    3    3    0    0 -0.10000032279E+02  0.16835487787E-01 -0.68518425353E+00  0.10023492741E+02  0.51100000000E-03 0. -1.
<mgrwt>
<rscale>  0 0.20000815E+02</rscale>
<asrwt>0</asrwt>
<pdfrwt beam="2">  1        2 0.16336103E-02 0.20000815E+02</pdfrwt>
<pdfrwt beam="1">  1       -2 0.14489727E-02 0.20000815E+02</pdfrwt>
<totfact> 0.39633788E+06</totfact>
</mgrwt>
</event>
<event>
 5    1  0.4046313E-006  0.2000491E+02  0.7818608E-02  0.1745230E+00
          2   -1    0    0  501    0  0.00000000000E+00  0.00000000000E+00  0.41856617775E+02  0.41856617856E+02  0.26000000000E-02 0.  1.
         -2   -1    0    0    0  501 -0.00000000000E+00 -0.00000000000E+00 -0.23902817274E+01  0.23902831415E+01  0.26000000000E-02 0. -1.
       1023    2    1    2    0    0  0.00000000000E+00  0.00000000000E+00  0.39466336048E+02  0.44246900998E+02  0.20004913567E+02 0.  0.
        -11    1    3    3    0    0 -0.67856462665E+01  0.73474279696E+01  0.19424715443E+02  0.21848324039E+02  0.51100000000E-03 0.  1.
         11    1    3    3    0    0  0.67856462665E+01 -0.73474279696E+01  0.20041620605E+02  0.22398576959E+02  0.51100000000E-03 0. -1.
<mgrwt>
<rscale>  0 0.20004914E+02</rscale>
<asrwt>0</asrwt>
<pdfrwt beam="1">  1        2 0.64394799E-02 0.20004914E+02</pdfrwt>
<pdfrwt beam="2">  1       -2 0.36773576E-03 0.20004914E+02</pdfrwt>
<totfact> 0.45143110E+06</totfact>
</mgrwt>
</event>
<event>
 5    1  0.4046313E-006  0.2000050E+02  0.7818608E-02  0.1745318E+00
         -2   -1    0    0    0  501 -0.00000000000E+00  0.00000000000E+00  0.14275951666E+01  0.14275975342E+01  0.26000000000E-02 0. -1.
          2   -1    0    0  501    0  0.00000000000E+00 -0.00000000000E+00 -0.70051294715E+02  0.70051294763E+02  0.26000000000E-02 0.  1.
       1023    2    1    2    0    0  0.00000000000E+00  0.00000000000E+00 -0.68623699548E+02  0.71478892297E+02  0.20000497603E+02 0.  0.
        -11    1    3    3    0    0  0.69553557660E+01  0.71852152193E+01 -0.34405335311E+02  0.35829197447E+02  0.51100000000E-03 0. -1.
         11    1    3    3    0    0 -0.69553557660E+01 -0.71852152193E+01 -0.34218364237E+02  0.35649694850E+02  0.51100000000E-03 0.  1.
<mgrwt>
<rscale>  0 0.20000498E+02</rscale>
<asrwt>0</asrwt>
<pdfrwt beam="2">  1        2 0.10777120E-01 0.20000498E+02</pdfrwt>
<pdfrwt beam="1">  1       -2 0.21963027E-03 0.20000498E+02</pdfrwt>
<totfact> 0.49023784E+06</totfact>
</mgrwt>
</event>
<event>
 5    1  0.4046313E-006  0.2000175E+02  0.7818608E-02  0.1745293E+00
          2   -1    0    0  501    0  0.00000000000E+00  0.00000000000E+00  0.46899505085E+02  0.46899505157E+02  0.26000000000E-02 0. -1.
         -2   -1    0    0    0  501 -0.00000000000E+00 -0.00000000000E+00 -0.21325906859E+01  0.21325922708E+01  0.26000000000E-02 0.  1.
       1023    2    1    2    0    0  0.00000000000E+00  0.00000000000E+00  0.44766914399E+02  0.49032097428E+02  0.20001748758E+02 0.  0.
        -11    1    3    3    0    0  0.61905476969E+01  0.78544279069E+01  0.22507719915E+02  0.24629502118E+02  0.51100000000E-03 0.  1.
         11    1    3    3    0    0 -0.61905476969E+01 -0.78544279069E+01  0.22259194484E+02  0.24402595310E+02  0.51100000000E-03 0. -1.
<mgrwt>
<rscale>  0 0.20001749E+02</rscale>
<asrwt>0</asrwt>
<pdfrwt beam="1">  1        2 0.72153084E-02 0.20001749E+02</pdfrwt>
<pdfrwt beam="2">  1       -2 0.32809101E-03 0.20001749E+02</pdfrwt>
<totfact> 0.45882857E+06</totfact>
</mgrwt>
</event>
<event>
 5    1  0.4046313E-006  0.2000026E+02  0.7818608E-02  0.1745323E+00
          2   -1    0    0  501    0  0.00000000000E+00  0.00000000000E+00  0.87351725668E+02  0.87351725707E+02  0.26000000000E-02 0.  1.
         -2   -1    0    0    0  501 -0.00000000000E+00 -0.00000000000E+00 -0.11448249780E+01  0.11448279304E+01  0.26000000000E-02 0. -1.
       1023    2    1    2    0    0  0.00000000000E+00  0.00000000000E+00  0.86206900690E+02  0.88496553637E+02  0.20000256975E+02 0.  0.
        -11    1    3    3    0    0  0.74974867836E+01  0.66174029614E+01  0.43034975946E+02  0.44181574044E+02  0.51100000000E-03 0. -1.
         11    1    3    3    0    0 -0.74974867836E+01 -0.66174029614E+01  0.43171924744E+02  0.44314979593E+02  0.51100000000E-03 0.  1.
<mgrwt>
<rscale>  0 0.20000257E+02</rscale>
<asrwt>0</asrwt>
<pdfrwt beam="1">  1        2 0.13438721E-01 0.20000257E+02</pdfrwt>
<pdfrwt beam="2">  1       -2 0.17612723E-03 0.20000257E+02</pdfrwt>
<totfact> 0.51216541E+06</totfact>
</mgrwt>
</event>
<event>
 5    1  0.4046313E-006  0.2000048E+02  0.7818608E-02  0.1745319E+00
         -2   -1    0    0    0  501 -0.00000000000E+00  0.00000000000E+00  0.81508416738E+02  0.81508416779E+02  0.26000000000E-02 0.  1.
          2   -1    0    0  501    0  0.00000000000E+00 -0.00000000000E+00 -0.12269242859E+01  0.12269270407E+01  0.26000000000E-02 0. -1.
       1023    2    1    2    0    0  0.00000000000E+00  0.00000000000E+00  0.80281492452E+02  0.82735343820E+02  0.20000477162E+02 0.  0.
        -11    1    3    3    0    0 -0.88268931596E+01 -0.47000084144E+01  0.40035324716E+02  0.41265377101E+02  0.51100000000E-03 0.  1.
         11    1    3    3    0    0  0.88268931596E+01  0.47000084144E+01  0.40246167736E+02  0.41469966718E+02  0.51100000000E-03 0. -1.
<mgrwt>
<rscale>  0 0.20000477E+02</rscale>
<asrwt>0</asrwt>
<pdfrwt beam="2">  1        2 0.18875776E-03 0.20000477E+02</pdfrwt>
<pdfrwt beam="1">  1       -2 0.12539759E-01 0.20000477E+02</pdfrwt>
<totfact> 0.31135683E+06</totfact>
</mgrwt>
</event>
<event>
 5    1  0.4046313E-006  0.2000833E+02  0.7818608E-02  0.1745162E+00
          2   -1    0    0  501    0  0.00000000000E+00  0.00000000000E+00  0.10700697596E+02  0.10700697912E+02  0.26000000000E-02 0.  1.
         -2   -1    0    0    0  501 -0.00000000000E+00 -0.00000000000E+00 -0.93529710277E+01  0.93529713891E+01  0.26000000000E-02 0. -1.
       1023    2    1    2    0    0  0.00000000000E+00  0.00000000000E+00  0.13477265682E+01  0.20053669301E+02  0.20008330403E+02 0.  0.
        -11    1    3    3    0    0  0.33569687918E+01 -0.94238948775E+01  0.73948675201E+00  0.10031244940E+02  0.51100000000E-03 0. -1.
         11    1    3    3    0    0 -0.33569687918E+01  0.94238948775E+01  0.60823981616E+00  0.10022424361E+02  0.51100000000E-03 0.  1.
<mgrwt>
<rscale>  0 0.20008330E+02</rscale>
<asrwt>0</asrwt>
<pdfrwt beam="1">  1        2 0.16462612E-02 0.20008330E+02</pdfrwt>
<pdfrwt beam="2">  1       -2 0.14389187E-02 0.20008330E+02</pdfrwt>
<totfact> 0.39622355E+06</totfact>
</mgrwt>
</event>
<event>
 5    1  0.4081928E-006  0.2000084E+02  0.7818608E-02  0.1745311E+00
          2   -1    0    0  501    0  0.00000000000E+00  0.00000000000E+00  0.91847842153E+02  0.91847842190E+02  0.26000000000E-02 0.  1.
         -2   -1    0    0    0  501 -0.00000000000E+00 -0.00000000000E+00 -0.10888472000E+01  0.10888503042E+01  0.26000000000E-02 0. -1.
       1023    2    1    2    0    0  0.00000000000E+00  0.00000000000E+00  0.90758994953E+02  0.92936692494E+02  0.20000841153E+02 0.  0.
        -11    1    3    3    0    0  0.34922118463E+01  0.93705672182E+01  0.45040010347E+02  0.46136813998E+02  0.51100000000E-03 0.  1.
         11    1    3    3    0    0 -0.34922118463E+01 -0.93705672182E+01  0.45718984607E+02  0.46799878497E+02  0.51100000000E-03 0. -1.
<mgrwt>
<rscale>  0 0.20000841E+02</rscale>
<asrwt>0</asrwt>
<pdfrwt beam="1">  1        2 0.14130443E-01 0.20000841E+02</pdfrwt>
<pdfrwt beam="2">  1       -2 0.16751513E-03 0.20000841E+02</pdfrwt>
<totfact> 0.51766517E+06</totfact>
</mgrwt>
</event>
<event>
 5    1  0.4182204E-006  0.2000043E+02  0.7818608E-02  0.1745320E+00
         -2   -1    0    0    0  501 -0.00000000000E+00  0.00000000000E+00  0.89691774646E+00  0.89692151492E+00  0.26000000000E-02 0. -1.
          2   -1    0    0  501    0  0.00000000000E+00 -0.00000000000E+00 -0.11149747054E+03  0.11149747057E+03  0.26000000000E-02 0.  1.
       1023    2    1    2    0    0  0.00000000000E+00  0.00000000000E+00 -0.11060055279E+03  0.11239439208E+03  0.20000427344E+02 0.  0.
        -11    1    3    3    0    0  0.99852925023E+01 -0.54288242788E+00 -0.54968503799E+02  0.55870718609E+02  0.51100000000E-03 0.  1.
         11    1    3    3    0    0 -0.99852925023E+01  0.54288242788E+00 -0.55632048990E+02  0.56523673472E+02  0.51100000000E-03 0. -1.
<mgrwt>
<rscale>  0 0.20000427E+02</rscale>
<asrwt>0</asrwt>
<pdfrwt beam="2">  1        2 0.17153446E-01 0.20000427E+02</pdfrwt>
<pdfrwt beam="1">  1       -2 0.13798773E-03 0.20000427E+02</pdfrwt>
<totfact> 0.54111389E+06</totfact>
</mgrwt>
</event>
<event>
 5    1  0.4046313E-006  0.2000089E+02  0.7818608E-02  0.1745310E+00
         -2   -1    0    0    0  501 -0.00000000000E+00  0.00000000000E+00  0.39268973110E+02  0.39268973196E+02  0.26000000000E-02 0.  1.
          2   -1    0    0  501    0  0.00000000000E+00 -0.00000000000E+00 -0.25467665143E+01  0.25467678415E+01  0.26000000000E-02 0. -1.
       1023    2    1    2    0    0  0.00000000000E+00  0.00000000000E+00  0.36722206596E+02  0.41815741038E+02  0.20000893512E+02 0.  0.
        -11    1    3    3    0    0  0.29101108029E+01 -0.95675261397E+01  0.18468397554E+02  0.21002095367E+02  0.51100000000E-03 0. -1.
         11    1    3    3    0    0 -0.29101108029E+01  0.95675261397E+01  0.18253809042E+02  0.20813645671E+02  0.51100000000E-03 0.  1.
<mgrwt>
<rscale>  0 0.20000894E+02</rscale>
<asrwt>0</asrwt>
<pdfrwt beam="2">  1        2 0.39181034E-03 0.20000894E+02</pdfrwt>
<pdfrwt beam="1">  1       -2 0.60413806E-02 0.20000894E+02</pdfrwt>
<totfact> 0.34995845E+06</totfact>
</mgrwt>
</event>
<event>
 5    1  0.4046313E-006  0.2000105E+02  0.7818608E-02  0.1745307E+00
          2   -1    0    0  501    0  0.00000000000E+00  0.00000000000E+00  0.31283585722E+01  0.31283596526E+01  0.26000000000E-02 0. -1.
         -2   -1    0    0    0  501 -0.00000000000E+00 -0.00000000000E+00 -0.31968982617E+02  0.31968982723E+02  0.26000000000E-02 0.  1.
       1023    2    1    2    0    0  0.00000000000E+00  0.00000000000E+00 -0.28840624045E+02  0.35097342376E+02  0.20001046136E+02 0.  0.
        -11    1    3    3    0    0  0.99226405322E+01  0.12451598365E+01 -0.14358439825E+02  0.17497828798E+02  0.51100000000E-03 0. -1.
         11    1    3    3    0    0 -0.99226405322E+01 -0.12451598365E+01 -0.14482184220E+02  0.17599513578E+02  0.51100000000E-03 0.  1.
<mgrwt>
<rscale>  0 0.20001046E+02</rscale>
<asrwt>0</asrwt>
<pdfrwt beam="1">  1        2 0.48128605E-03 0.20001046E+02</pdfrwt>
<pdfrwt beam="2">  1       -2 0.49183049E-02 0.20001046E+02</pdfrwt>
<totfact> 0.35821933E+06</totfact>
</mgrwt>
</event>
<event>
 5    1  0.4046313E-006  0.2000077E+02  0.7818608E-02  0.1745313E+00
          2   -1    0    0  501    0  0.00000000000E+00  0.00000000000E+00  0.40746947558E+02  0.40746947641E+02  0.26000000000E-02 0.  1.
         -2   -1    0    0    0  501 -0.00000000000E+00 -0.00000000000E+00 -0.24543605533E+01  0.24543619304E+01  0.26000000000E-02 0. -1.
       1023    2    1    2    0    0  0.00000000000E+00  0.00000000000E+00  0.38292587005E+02  0.43201309571E+02  0.20000773214E+02 0.  0.
        -11    1    3    3    0    0 -0.37074961827E+01  0.92874258133E+01  0.18980019096E+02  0.21453273207E+02  0.51100000000E-03 0. -1.
         11    1    3    3    0    0  0.37074961827E+01 -0.92874258133E+01  0.19312567909E+02  0.21748036364E+02  0.51100000000E-03 0.  1.
<mgrwt>
<rscale>  0 0.20000773E+02</rscale>
<asrwt>0</asrwt>
<pdfrwt beam="1">  1        2 0.62687606E-02 0.20000773E+02</pdfrwt>
<pdfrwt beam="2">  1       -2 0.37759408E-03 0.20000773E+02</pdfrwt>
<totfact> 0.45002033E+06</totfact>
</mgrwt>
</event>
<event>
 5    1  0.4046313E-006  0.2000018E+02  0.7818608E-02  0.1745324E+00
         -2   -1    0    0    0  501 -0.00000000000E+00  0.00000000000E+00  0.25872809275E+02  0.25872809406E+02  0.26000000000E-02 0.  1.
          2   -1    0    0  501    0  0.00000000000E+00 -0.00000000000E+00 -0.38651305726E+01  0.38651314471E+01  0.26000000000E-02 0. -1.
       1023    2    1    2    0    0  0.00000000000E+00  0.00000000000E+00  0.22007678702E+02  0.29737940853E+02  0.20000180107E+02 0.  0.
        -11    1    3    3    0    0 -0.98465984233E+01 -0.17453560975E+01  0.11012302380E+02  0.14875233524E+02  0.51100000000E-03 0.  1.
         11    1    3    3    0    0  0.98465984233E+01  0.17453560975E+01  0.10995376323E+02  0.14862707329E+02  0.51100000000E-03 0. -1.
<mgrwt>
<rscale>  0 0.20000180E+02</rscale>
<asrwt>0</asrwt>
<pdfrwt beam="2">  1        2 0.59463555E-03 0.20000180E+02</pdfrwt>
<pdfrwt beam="1">  1       -2 0.39804323E-02 0.20000180E+02</pdfrwt>
<totfact> 0.36590982E+06</totfact>
</mgrwt>
</event>
<event>
 5    1  0.4462690E-006  0.2000136E+02  0.7818608E-02  0.1745301E+00
         -2   -1    0    0    0  501 -0.00000000000E+00  0.00000000000E+00  0.92275819527E+00  0.92276185819E+00  0.26000000000E-02 0.  1.
          2   -1    0    0  501    0  0.00000000000E+00 -0.00000000000E+00 -0.10838529784E+03  0.10838529787E+03  0.26000000000E-02 0. -1.
       1023    2    1    2    0    0  0.00000000000E+00  0.00000000000E+00 -0.10746253964E+03  0.10930805973E+03  0.20001362326E+02 0.  0.
        -11    1    3    3    0    0  0.56790003021E+01  0.82315193656E+01 -0.54104654469E+02  0.55021110412E+02  0.51100000000E-03 0. -1.
         11    1    3    3    0    0 -0.56790003021E+01 -0.82315193656E+01 -0.53357885174E+02  0.54286949315E+02  0.51100000000E-03 0.  1.
<mgrwt>
<rscale>  0 0.20001362E+02</rscale>
<asrwt>0</asrwt>
<pdfrwt beam="2">  1        2 0.16674651E-01 0.20001362E+02</pdfrwt>
<pdfrwt beam="1">  1       -2 0.14196317E-03 0.20001362E+02</pdfrwt>
<totfact> 0.53742767E+06</totfact>
</mgrwt>
</event>
<event>
 5    1  0.4046313E-006  0.2000058E+02  0.7818608E-02  0.1745317E+00
         -2   -1    0    0    0  501 -0.00000000000E+00  0.00000000000E+00  0.24576139756E+01  0.24576153509E+01  0.26000000000E-02 0.  1.
          2   -1    0    0  501    0  0.00000000000E+00 -0.00000000000E+00 -0.40692225773E+02  0.40692225856E+02  0.26000000000E-02 0. -1.
       1023    2    1    2    0    0  0.00000000000E+00  0.00000000000E+00 -0.38234611797E+02  0.43149841207E+02  0.20000581414E+02 0.  0.
        -11    1    3    3    0    0 -0.27511672909E+01  0.96143761494E+01 -0.19172888799E+02  0.21624172016E+02  0.51100000000E-03 0.  1.
         11    1    3    3    0    0  0.27511672909E+01 -0.96143761494E+01 -0.19061722998E+02  0.21525669191E+02  0.51100000000E-03 0. -1.
<mgrwt>
<rscale>  0 0.20000581E+02</rscale>
<asrwt>0</asrwt>
<pdfrwt beam="2">  1        2 0.62603421E-02 0.20000581E+02</pdfrwt>
<pdfrwt beam="1">  1       -2 0.37809460E-03 0.20000581E+02</pdfrwt>
<totfact> 0.44994984E+06</totfact>
</mgrwt>
</event>
<event>
 5    1  0.4046313E-006  0.2000242E+02  0.7818608E-02  0.1745280E+00
          2   -1    0    0  501    0  0.00000000000E+00  0.00000000000E+00  0.64507783788E+02  0.64507783840E+02  0.26000000000E-02 0. -1.
         -2   -1    0    0    0  501 -0.00000000000E+00 -0.00000000000E+00 -0.15505744120E+01  0.15505765918E+01  0.26000000000E-02 0.  1.
       1023    2    1    2    0    0  0.00000000000E+00  0.00000000000E+00  0.62957209376E+02  0.66058360432E+02  0.20002419118E+02 0.  0.
        -11    1    3    3    0    0  0.86245617659E+01  0.50636815237E+01  0.31425748336E+02  0.32978805239E+02  0.51100000000E-03 0.  1.
         11    1    3    3    0    0 -0.86245617659E+01 -0.50636815237E+01  0.31531461039E+02  0.33079555193E+02  0.51100000000E-03 0. -1.
<mgrwt>
<rscale>  0 0.20002419E+02</rscale>
<asrwt>0</asrwt>
<pdfrwt beam="1">  1        2 0.99242775E-02 0.20002419E+02</pdfrwt>
<pdfrwt beam="2">  1       -2 0.23855001E-03 0.20002419E+02</pdfrwt>
<totfact> 0.48286275E+06</totfact>
</mgrwt>
</event>
<event>
 5    1  0.4046313E-006  0.2000037E+02  0.7818608E-02  0.1745321E+00
          2   -1    0    0  501    0  0.00000000000E+00  0.00000000000E+00  0.11849758911E+03  0.11849758913E+03  0.26000000000E-02 0.  1.
         -2   -1    0    0    0  501 -0.00000000000E+00 -0.00000000000E+00 -0.84392844385E+00  0.84393244892E+00  0.26000000000E-02 0. -1.
       1023    2    1    2    0    0  0.00000000000E+00  0.00000000000E+00  0.11765366066E+03  0.11934152158E+03  0.20000372663E+02 0.  0.
        -11    1    3    3    0    0  0.54931870887E+01 -0.83563324190E+01  0.58935309846E+02  0.59777706068E+02  0.51100000000E-03 0. -1.
         11    1    3    3    0    0 -0.54931870887E+01  0.83563324190E+01  0.58718350816E+02  0.59563815515E+02  0.51100000000E-03 0.  1.
<mgrwt>
<rscale>  0 0.20000373E+02</rscale>
<asrwt>0</asrwt>
<pdfrwt beam="1">  1        2 0.18230404E-01 0.20000373E+02</pdfrwt>
<pdfrwt beam="2">  1       -2 0.12983542E-03 0.20000373E+02</pdfrwt>
<totfact> 0.54918575E+06</totfact>
</mgrwt>
</event>
<event>
 5    1  0.4153811E-006  0.2000112E+02  0.7818608E-02  0.1745306E+00
         -2   -1    0    0    0  501 -0.00000000000E+00  0.00000000000E+00  0.20428851211E+01  0.20428867757E+01  0.26000000000E-02 0.  1.
          2   -1    0    0  501    0  0.00000000000E+00 -0.00000000000E+00 -0.48955815740E+02  0.48955815809E+02  0.26000000000E-02 0. -1.
       1023    2    1    2    0    0  0.00000000000E+00  0.00000000000E+00 -0.46912930619E+02  0.50998702585E+02  0.20001115121E+02 0.  0.
        -11    1    3    3    0    0 -0.85360440420E-01 -0.10000052210E+02 -0.23591884336E+02  0.25623921195E+02  0.51100000000E-03 0.  1.
         11    1    3    3    0    0  0.85360440420E-01  0.10000052210E+02 -0.23321046283E+02  0.25374781390E+02  0.51100000000E-03 0. -1.
<mgrwt>
<rscale>  0 0.20001115E+02</rscale>
<asrwt>0</asrwt>
<pdfrwt beam="2">  1        2 0.75316632E-02 0.20001115E+02</pdfrwt>
<pdfrwt beam="1">  1       -2 0.31429019E-03 0.20001115E+02</pdfrwt>
<totfact> 0.46176122E+06</totfact>
</mgrwt>
</event>
<event>
 5    1  0.4046313E-006  0.2000109E+02  0.7818608E-02  0.1745306E+00
         -2   -1    0    0    0  501 -0.00000000000E+00  0.00000000000E+00  0.46474447840E+02  0.46474447913E+02  0.26000000000E-02 0.  1.
          2   -1    0    0  501    0  0.00000000000E+00 -0.00000000000E+00 -0.21519538140E+01  0.21519553847E+01  0.26000000000E-02 0. -1.
       1023    2    1    2    0    0  0.00000000000E+00  0.00000000000E+00  0.44322494026E+02  0.48626403297E+02  0.20001090494E+02 0.  0.
        -11    1    3    3    0    0  0.88065142766E+01  0.47379724812E+01  0.22376349338E+02  0.24509265327E+02  0.51100000000E-03 0.  1.
         11    1    3    3    0    0 -0.88065142766E+01 -0.47379724812E+01  0.21946144688E+02  0.24117137970E+02  0.51100000000E-03 0. -1.
<mgrwt>
<rscale>  0 0.20001090E+02</rscale>
<asrwt>0</asrwt>
<pdfrwt beam="2">  1        2 0.33106996E-03 0.20001090E+02</pdfrwt>
<pdfrwt beam="1">  1       -2 0.71499147E-02 0.20001090E+02</pdfrwt>
<totfact> 0.34243858E+06</totfact>
</mgrwt>
</event>
<event>
 5    1  0.4046313E-006  0.2000062E+02  0.7818608E-02  0.1745316E+00
         -2   -1    0    0    0  501 -0.00000000000E+00  0.00000000000E+00  0.12834619655E+02  0.12834619918E+02  0.26000000000E-02 0. -1.
          2   -1    0    0  501    0  0.00000000000E+00 -0.00000000000E+00 -0.77919106004E+01  0.77919110341E+01  0.26000000000E-02 0.  1.
       1023    2    1    2    0    0  0.00000000000E+00  0.00000000000E+00  0.50427090548E+01  0.20626530953E+02  0.20000621604E+02 0.  0.
        -11    1    3    3    0    0  0.88220861184E+01  0.47091906357E+01  0.24974795091E+01  0.10307428587E+02  0.51100000000E-03 0. -1.
         11    1    3    3    0    0 -0.88220861184E+01 -0.47091906357E+01  0.25452295457E+01  0.10319102365E+02  0.51100000000E-03 0.  1.
<mgrwt>
<rscale>  0 0.20000622E+02</rscale>
<asrwt>0</asrwt>
<pdfrwt beam="2">  1        2 0.11987556E-02 0.20000622E+02</pdfrwt>
<pdfrwt beam="1">  1       -2 0.19745569E-02 0.20000622E+02</pdfrwt>
<totfact> 0.38744836E+06</totfact>
</mgrwt>
</event>
<event>
 5    1  0.4046313E-006  0.2000073E+02  0.7818608E-02  0.1745314E+00
          2   -1    0    0  501    0  0.00000000000E+00  0.00000000000E+00  0.12108444985E+02  0.12108445265E+02  0.26000000000E-02 0. -1.
         -2   -1    0    0    0  501 -0.00000000000E+00 -0.00000000000E+00 -0.82592997613E+01  0.82593001705E+01  0.26000000000E-02 0.  1.
       1023    2    1    2    0    0  0.00000000000E+00  0.00000000000E+00  0.38491452241E+01  0.20367745435E+02  0.20000728366E+02 0.  0.
        -11    1    3    3    0    0  0.27126389698E+01 -0.96252021168E+01  0.19917957474E+01  0.10196576706E+02  0.51100000000E-03 0.  1.
         11    1    3    3    0    0 -0.27126389698E+01  0.96252021168E+01  0.18573494768E+01  0.10171168729E+02  0.51100000000E-03 0. -1.
<mgrwt>
<rscale>  0 0.20000728E+02</rscale>
<asrwt>0</asrwt>
<pdfrwt beam="1">  1        2 0.18628377E-02 0.20000728E+02</pdfrwt>
<pdfrwt beam="2">  1       -2 0.12706616E-02 0.20000728E+02</pdfrwt>
<totfact> 0.40022385E+06</totfact>
</mgrwt>
</event>
<event>
 5    1  0.4046313E-006  0.2000055E+02  0.7818608E-02  0.1745317E+00
         -2   -1    0    0    0  501 -0.00000000000E+00  0.00000000000E+00  0.38642296275E+01  0.38642305022E+01  0.26000000000E-02 0.  1.
          2   -1    0    0  501    0  0.00000000000E+00 -0.00000000000E+00 -0.25879805334E+02  0.25879805465E+02  0.26000000000E-02 0. -1.
       1023    2    1    2    0    0  0.00000000000E+00  0.00000000000E+00 -0.22015575707E+02  0.29744035967E+02  0.20000552540E+02 0.  0.
        -11    1    3    3    0    0 -0.98647206193E+01  0.16409563362E+01 -0.10994941032E+02  0.14862509181E+02  0.51100000000E-03 0.  1.
         11    1    3    3    0    0  0.98647206193E+01 -0.16409563362E+01 -0.11020634675E+02  0.14881526786E+02  0.51100000000E-03 0. -1.
<mgrwt>
<rscale>  0 0.20000553E+02</rscale>
<asrwt>0</asrwt>
<pdfrwt beam="2">  1        2 0.39815085E-02 0.20000553E+02</pdfrwt>
<pdfrwt beam="1">  1       -2 0.59449696E-03 0.20000553E+02</pdfrwt>
<totfact> 0.42701453E+06</totfact>
</mgrwt>
</event>
<event>
 5    1  0.4046313E-006  0.2000104E+02  0.7818608E-02  0.1745307E+00
         -2   -1    0    0    0  501 -0.00000000000E+00  0.00000000000E+00  0.56968751705E+01  0.56968757638E+01  0.26000000000E-02 0.  1.
          2   -1    0    0  501    0  0.00000000000E+00 -0.00000000000E+00 -0.17555308385E+02  0.17555308578E+02  0.26000000000E-02 0. -1.
       1023    2    1    2    0    0  0.00000000000E+00  0.00000000000E+00 -0.11858433215E+02  0.23252184342E+02  0.20001040932E+02 0.  0.
        -11    1    3    3    0    0 -0.54634532152E+01 -0.83757797223E+01 -0.58291946065E+01  0.11575081728E+02  0.51100000000E-03 0. -1.
         11    1    3    3    0    0  0.54634532152E+01  0.83757797223E+01 -0.60292386084E+01  0.11677102614E+02  0.51100000000E-03 0.  1.
<mgrwt>
<rscale>  0 0.20001041E+02</rscale>
<asrwt>0</asrwt>
<pdfrwt beam="2">  1        2 0.27008167E-02 0.20001041E+02</pdfrwt>
<pdfrwt beam="1">  1       -2 0.87644240E-03 0.20001041E+02</pdfrwt>
<totfact> 0.41208389E+06</totfact>
</mgrwt>
</event>
<event>
 4    1  0.4046313E-006  0.2007131E+02  0.7818608E-02  0.1743914E+00
          2   -1    0    0  501    0  0.00000000000E+00  0.00000000000E+00  0.35953240996E+02  0.35953241090E+02  0.26000000000E-02 0. -1.
         -2   -1    0    0    0  501 -0.00000000000E+00 -0.00000000000E+00 -0.28012580330E+01  0.28012592396E+01  0.26000000000E-02 0.  1.
        -11    1    1    2    0    0  0.11694922122E+01  0.99654948749E+01  0.16939943271E+02  0.19688587517E+02  0.51100000000E-03 0. -1.
         11    1    1    2    0    0 -0.11694922122E+01 -0.99654948749E+01  0.16212039693E+02  0.19065912813E+02  0.51100000000E-03 0.  1.
<mgrwt>
<rscale>  0 0.20071306E+02</rscale>
<asrwt>0</asrwt>
<pdfrwt beam="1">  1        2 0.55312680E-02 0.20071306E+02</pdfrwt>
<pdfrwt beam="2">  1       -2 0.43096287E-03 0.20071306E+02</pdfrwt>
<totfact> 0.43942268E+06</totfact>
</mgrwt>
</event>
<event>
 5    1  0.4046313E-006  0.2000175E+02  0.7818608E-02  0.1745293E+00
         -2   -1    0    0    0  501 -0.00000000000E+00  0.00000000000E+00  0.47464032880E+01  0.47464040001E+01  0.26000000000E-02 0. -1.
          2   -1    0    0  501    0  0.00000000000E+00 -0.00000000000E+00 -0.21072259584E+02  0.21072259745E+02  0.26000000000E-02 0.  1.
       1023    2    1    2    0    0  0.00000000000E+00  0.00000000000E+00 -0.16325856296E+02  0.25818663745E+02  0.20001745268E+02 0.  0.
        -11    1    3    3    0    0 -0.60074487546E+01 -0.79954937909E+01 -0.81752877399E+01  0.12917147185E+02  0.51100000000E-03 0. -1.
         11    1    3    3    0    0  0.60074487546E+01  0.79954937909E+01 -0.81505685566E+01  0.12901516560E+02  0.51100000000E-03 0.  1.
<mgrwt>
<rscale>  0 0.20001745E+02</rscale>
<asrwt>0</asrwt>
<pdfrwt beam="2">  1        2 0.32418861E-02 0.20001745E+02</pdfrwt>
<pdfrwt beam="1">  1       -2 0.73021597E-03 0.20001745E+02</pdfrwt>
<totfact> 0.41865080E+06</totfact>
</mgrwt>
</event>
<event>
 5    1  0.4046313E-006  0.2000033E+02  0.7818608E-02  0.1745322E+00
         -2   -1    0    0    0  501 -0.00000000000E+00  0.00000000000E+00  0.15579446186E+01  0.15579467881E+01  0.26000000000E-02 0. -1.
          2   -1    0    0  501    0  0.00000000000E+00 -0.00000000000E+00 -0.64189184759E+02  0.64189184811E+02  0.26000000000E-02 0.  1.
       1023    2    1    2    0    0  0.00000000000E+00  0.00000000000E+00 -0.62631240140E+02  0.65747131599E+02  0.20000326799E+02 0.  0.
        -11    1    3    3    0    0 -0.95129198306E+01  0.30831190894E+01 -0.31168580529E+02  0.32733494765E+02  0.51100000000E-03 0.  1.
         11    1    3    3    0    0  0.95129198306E+01 -0.30831190894E+01 -0.31462659611E+02  0.33013636835E+02  0.51100000000E-03 0. -1.
<mgrwt>
<rscale>  0 0.20000327E+02</rscale>
<asrwt>0</asrwt>
<pdfrwt beam="2">  1        2 0.98752573E-02 0.20000327E+02</pdfrwt>
<pdfrwt beam="1">  1       -2 0.23968401E-03 0.20000327E+02</pdfrwt>
<totfact> 0.48255280E+06</totfact>
</mgrwt>
</event>
<event>
 5    1  0.4046313E-006  0.2000076E+02  0.7818608E-02  0.1745313E+00
          2   -1    0    0  501    0  0.00000000000E+00  0.00000000000E+00  0.49804990505E+01  0.49804997291E+01  0.26000000000E-02 0.  1.
         -2   -1    0    0    0  501 -0.00000000000E+00 -0.00000000000E+00 -0.20079841128E+02  0.20079841297E+02  0.26000000000E-02 0. -1.
       1023    2    1    2    0    0  0.00000000000E+00  0.00000000000E+00 -0.15099342078E+02  0.25060341026E+02  0.20000764014E+02 0.  0.
        -11    1    3    3    0    0 -0.89621840382E+01 -0.44365244900E+01 -0.76303659472E+01  0.12578790762E+02  0.51100000000E-03 0.  1.
         11    1    3    3    0    0  0.89621840382E+01  0.44365244900E+01 -0.74689761306E+01  0.12481550264E+02  0.51100000000E-03 0. -1.
<mgrwt>
<rscale>  0 0.20000764E+02</rscale>
<asrwt>0</asrwt>
<pdfrwt beam="1">  1        2 0.76623070E-03 0.20000764E+02</pdfrwt>
<pdfrwt beam="2">  1       -2 0.30892064E-02 0.20000764E+02</pdfrwt>
<totfact> 0.37418357E+06</totfact>
</mgrwt>
</event>
<event>
 5    1  0.4046313E-006  0.2000019E+02  0.7818608E-02  0.1745324E+00
          2   -1    0    0  501    0  0.00000000000E+00  0.00000000000E+00  0.19536763659E+01  0.19536780960E+01  0.26000000000E-02 0.  1.
         -2   -1    0    0    0  501 -0.00000000000E+00 -0.00000000000E+00 -0.51186477502E+02  0.51186477568E+02  0.26000000000E-02 0. -1.
       1023    2    1    2    0    0  0.00000000000E+00  0.00000000000E+00 -0.49232801136E+02  0.53140155664E+02  0.20000185906E+02 0.  0.
        -11    1    3    3    0    0 -0.42878078051E+01  0.90341694220E+01 -0.24566985518E+02  0.26524296232E+02  0.51100000000E-03 0.  1.
         11    1    3    3    0    0  0.42878078051E+01 -0.90341694220E+01 -0.24665815618E+02  0.26615859432E+02  0.51100000000E-03 0. -1.
<mgrwt>
<rscale>  0 0.20000186E+02</rscale>
<asrwt>0</asrwt>
<pdfrwt beam="1">  1        2 0.30056577E-03 0.20000186E+02</pdfrwt>
<pdfrwt beam="2">  1       -2 0.78748418E-02 0.20000186E+02</pdfrwt>
<totfact> 0.33782801E+06</totfact>
</mgrwt>
</event>
<event>
 5    1  0.4046313E-006  0.2000031E+02  0.7818608E-02  0.1745322E+00
          2   -1    0    0  501    0  0.00000000000E+00  0.00000000000E+00  0.94967680353E+01  0.94967683912E+01  0.26000000000E-02 0. -1.
         -2   -1    0    0    0  501 -0.00000000000E+00 -0.00000000000E+00 -0.10530221786E+02  0.10530222107E+02  0.26000000000E-02 0.  1.
       1023    2    1    2    0    0  0.00000000000E+00  0.00000000000E+00 -0.10334537512E+01  0.20026990499E+02  0.20000308042E+02 0.  0.
        -11    1    3    3    0    0  0.65788169568E+01 -0.75313177917E+01 -0.47794599630E+00  0.10011494038E+02  0.51100000000E-03 0. -1.
         11    1    3    3    0    0 -0.65788169568E+01  0.75313177917E+01 -0.55550775486E+00  0.10015496461E+02  0.51100000000E-03 0.  1.
<mgrwt>
<rscale>  0 0.20000308E+02</rscale>
<asrwt>0</asrwt>
<pdfrwt beam="1">  1        2 0.14610413E-02 0.20000308E+02</pdfrwt>
<pdfrwt beam="2">  1       -2 0.16200342E-02 0.20000308E+02</pdfrwt>
<totfact> 0.39312912E+06</totfact>
</mgrwt>
</event>
<event>
 5    1  0.4046313E-006  0.2000009E+02  0.7818608E-02  0.1745326E+00
         -2   -1    0    0    0  501 -0.00000000000E+00  0.00000000000E+00  0.35953583305E+02  0.35953583399E+02  0.26000000000E-02 0.  1.
          2   -1    0    0  501    0  0.00000000000E+00 -0.00000000000E+00 -0.27813884445E+01  0.27813896597E+01  0.26000000000E-02 0. -1.
       1023    2    1    2    0    0  0.00000000000E+00  0.00000000000E+00  0.33172194861E+02  0.38734973059E+02  0.20000090650E+02 0.  0.
        -11    1    3    3    0    0  0.49457845635E+01 -0.86913616580E+01  0.16622527628E+02  0.19398684940E+02  0.51100000000E-03 0.  1.
         11    1    3    3    0    0 -0.49457845635E+01  0.86913616580E+01  0.16549667233E+02  0.19336288118E+02  0.51100000000E-03 0. -1.
<mgrwt>
<rscale>  0 0.20000091E+02</rscale>
<asrwt>0</asrwt>
<pdfrwt beam="2">  1        2 0.42790601E-03 0.20000091E+02</pdfrwt>
<pdfrwt beam="1">  1       -2 0.55313207E-02 0.20000091E+02</pdfrwt>
<totfact> 0.35364551E+06</totfact>
</mgrwt>
</event>
<event>
 5    1  0.4046313E-006  0.2000050E+02  0.7818608E-02  0.1745318E+00
         -2   -1    0    0    0  501 -0.00000000000E+00  0.00000000000E+00  0.10309553865E+02  0.10309554193E+02  0.26000000000E-02 0.  1.
          2   -1    0    0  501    0  0.00000000000E+00 -0.00000000000E+00 -0.97002236096E+01  0.97002239581E+01  0.26000000000E-02 0. -1.
       1023    2    1    2    0    0  0.00000000000E+00  0.00000000000E+00  0.60933025547E+00  0.20009778151E+02  0.20000498451E+02 0.  0.
        -11    1    3    3    0    0  0.95138632873E+01 -0.30806216647E+01  0.27059316506E+00  0.10003851529E+02  0.51100000000E-03 0. -1.
         11    1    3    3    0    0 -0.95138632873E+01  0.30806216647E+01  0.33873709041E+00  0.10005926622E+02  0.51100000000E-03 0.  1.
<mgrwt>
<rscale>  0 0.20000498E+02</rscale>
<asrwt>0</asrwt>
<pdfrwt beam="2">  1        2 0.14923422E-02 0.20000498E+02</pdfrwt>
<pdfrwt beam="1">  1       -2 0.15860852E-02 0.20000498E+02</pdfrwt>
<totfact> 0.39373065E+06</totfact>
</mgrwt>
</event>
<event>
 5    1  0.4046313E-006  0.2000119E+02  0.7818608E-02  0.1745304E+00
          2   -1    0    0  501    0  0.00000000000E+00  0.00000000000E+00  0.15938915576E+02  0.15938915788E+02  0.26000000000E-02 0. -1.
         -2   -1    0    0    0  501 -0.00000000000E+00 -0.00000000000E+00 -0.62746996259E+01  0.62747001646E+01  0.26000000000E-02 0.  1.
       1023    2    1    2    0    0  0.00000000000E+00  0.00000000000E+00  0.96642159502E+01  0.22213615953E+02  0.20001191559E+02 0.  0.
        -11    1    3    3    0    0  0.49785352585E+01 -0.86726426867E+01  0.49505392265E+01  0.11158332464E+02  0.51100000000E-03 0. -1.
         11    1    3    3    0    0 -0.49785352585E+01  0.86726426867E+01  0.47136767237E+01  0.11055283488E+02  0.51100000000E-03 0.  1.
<mgrwt>
<rscale>  0 0.20001192E+02</rscale>
<asrwt>0</asrwt>
<pdfrwt beam="1">  1        2 0.24521409E-02 0.20001192E+02</pdfrwt>
<pdfrwt beam="2">  1       -2 0.96533846E-03 0.20001192E+02</pdfrwt>
<totfact> 0.40881902E+06</totfact>
</mgrwt>
</event>
<event>
 5    1  0.4193202E-006  0.2000119E+02  0.7818608E-02  0.1745304E+00
         -2   -1    0    0    0  501 -0.00000000000E+00  0.00000000000E+00  0.15813245773E+01  0.15813267148E+01  0.26000000000E-02 0.  1.
          2   -1    0    0  501    0  0.00000000000E+00 -0.00000000000E+00 -0.63245604063E+02  0.63245604116E+02  0.26000000000E-02 0. -1.
       1023    2    1    2    0    0  0.00000000000E+00  0.00000000000E+00 -0.61664279485E+02  0.64826930831E+02  0.20001189877E+02 0.  0.
        -11    1    3    3    0    0  0.65047090759E+01 -0.75958437939E+01 -0.31032351781E+02  0.32603909894E+02  0.51100000000E-03 0. -1.
         11    1    3    3    0    0 -0.65047090759E+01  0.75958437939E+01 -0.30631927705E+02  0.32223020936E+02  0.51100000000E-03 0.  1.
<mgrwt>
<rscale>  0 0.20001190E+02</rscale>
<asrwt>0</asrwt>
<pdfrwt beam="2">  1        2 0.97300911E-02 0.20001190E+02</pdfrwt>
<pdfrwt beam="1">  1       -2 0.24328092E-03 0.20001190E+02</pdfrwt>
<totfact> 0.48125405E+06</totfact>
</mgrwt>
</event>
<event>
 5    1  0.4046313E-006  0.2000080E+02  0.7818608E-02  0.1745312E+00
         -2   -1    0    0    0  501 -0.00000000000E+00  0.00000000000E+00  0.48108878739E+02  0.48108878810E+02  0.26000000000E-02 0. -1.
          2   -1    0    0  501    0  0.00000000000E+00 -0.00000000000E+00 -0.20787839779E+01  0.20787856039E+01  0.26000000000E-02 0.  1.
       1023    2    1    2    0    0  0.00000000000E+00  0.00000000000E+00  0.46030094761E+02  0.50187664413E+02  0.20000800872E+02 0.  0.
        -11    1    3    3    0    0 -0.54071469803E+01 -0.84124088110E+01  0.23131348047E+02  0.25200498471E+02  0.51100000000E-03 0. -1.
         11    1    3    3    0    0  0.54071469803E+01  0.84124088110E+01  0.22898746714E+02  0.24987165942E+02  0.51100000000E-03 0.  1.
<mgrwt>
<rscale>  0 0.20000801E+02</rscale>
<asrwt>0</asrwt>
<pdfrwt beam="2">  1        2 0.31981306E-03 0.20000801E+02</pdfrwt>
<pdfrwt beam="1">  1       -2 0.74013658E-02 0.20000801E+02</pdfrwt>
<totfact> 0.34081693E+06</totfact>
</mgrwt>
</event>
<event>
 5    1  0.4046313E-006  0.2000489E+02  0.7818608E-02  0.1745231E+00
         -2   -1    0    0    0  501 -0.00000000000E+00  0.00000000000E+00  0.14707927650E+01  0.14707950631E+01  0.26000000000E-02 0.  1.
          2   -1    0    0  501    0  0.00000000000E+00 -0.00000000000E+00 -0.68023723544E+02  0.68023723594E+02  0.26000000000E-02 0. -1.
       1023    2    1    2    0    0  0.00000000000E+00  0.00000000000E+00 -0.66552930779E+02  0.69494518657E+02  0.20004887604E+02 0.  0.
        -11    1    3    3    0    0 -0.26019215294E+01  0.96564953949E+01 -0.33887934812E+02  0.35332846263E+02  0.51100000000E-03 0. -1.
         11    1    3    3    0    0  0.26019215294E+01 -0.96564953949E+01 -0.32664995967E+02  0.34161672394E+02  0.51100000000E-03 0.  1.
<mgrwt>
<rscale>  0 0.20004888E+02</rscale>
<asrwt>0</asrwt>
<pdfrwt beam="2">  1        2 0.10465186E-01 0.20004888E+02</pdfrwt>
<pdfrwt beam="1">  1       -2 0.22627604E-03 0.20004888E+02</pdfrwt>
<totfact> 0.48735598E+06</totfact>
</mgrwt>
</event>
<event>
 5    1  0.4046313E-006  0.2000066E+02  0.7818608E-02  0.1745315E+00
         -2   -1    0    0    0  501 -0.00000000000E+00  0.00000000000E+00  0.46907604046E+01  0.46907611252E+01  0.26000000000E-02 0.  1.
          2   -1    0    0  501    0  0.00000000000E+00 -0.00000000000E+00 -0.21319914462E+02  0.21319914620E+02  0.26000000000E-02 0. -1.
       1023    2    1    2    0    0  0.00000000000E+00  0.00000000000E+00 -0.16629154057E+02  0.26010675746E+02  0.20000662191E+02 0.  0.
        -11    1    3    3    0    0  0.92383279436E+01 -0.38281421835E+01 -0.84087705336E+01  0.13065557696E+02  0.51100000000E-03 0. -1.
         11    1    3    3    0    0 -0.92383279436E+01  0.38281421835E+01 -0.82203835236E+01  0.12945118049E+02  0.51100000000E-03 0.  1.
<mgrwt>
<rscale>  0 0.20000662E+02</rscale>
<asrwt>0</asrwt>
<pdfrwt beam="2">  1        2 0.32799868E-02 0.20000662E+02</pdfrwt>
<pdfrwt beam="1">  1       -2 0.72165553E-03 0.20000662E+02</pdfrwt>
<totfact> 0.41914684E+06</totfact>
</mgrwt>
</event>
<event>
 4    1  0.4046313E-006  0.2005089E+02  0.7818608E-02  0.1744318E+00
         -2   -1    0    0    0  501 -0.00000000000E+00  0.00000000000E+00  0.13177998623E+02  0.13177998880E+02  0.26000000000E-02 0. -1.
          2   -1    0    0  501    0  0.00000000000E+00 -0.00000000000E+00 -0.76270726885E+01  0.76270731317E+01  0.26000000000E-02 0.  1.
        -11    1    1    2    0    0 -0.99944435589E+01  0.65555012829E+00  0.32288327710E+01  0.10523497962E+02  0.51100000000E-03 0. -1.
         11    1    1    2    0    0  0.99944435589E+01 -0.65555012829E+00  0.23220931639E+01  0.10281574050E+02  0.51100000000E-03 0.  1.
<mgrwt>
<rscale>  0 0.20050891E+02</rscale>
<asrwt>0</asrwt>
<pdfrwt beam="2">  1        2 0.11733959E-02 0.20050891E+02</pdfrwt>
<pdfrwt beam="1">  1       -2 0.20273844E-02 0.20050891E+02</pdfrwt>
<totfact> 0.38460678E+06</totfact>
</mgrwt>
</event>
<event>
 5    1  0.4046313E-006  0.2000102E+02  0.7818608E-02  0.1745308E+00
          2   -1    0    0  501    0  0.00000000000E+00  0.00000000000E+00  0.15053756929E+01  0.15053779382E+01  0.26000000000E-02 0. -1.
         -2   -1    0    0    0  501 -0.00000000000E+00 -0.00000000000E+00 -0.66435357291E+02  0.66435357342E+02  0.26000000000E-02 0.  1.
       1023    2    1    2    0    0  0.00000000000E+00  0.00000000000E+00 -0.64929981598E+02  0.67940735280E+02  0.20001024975E+02 0.  0.
        -11    1    3    3    0    0 -0.45404392108E+01  0.89101520102E+01 -0.32675834017E+02  0.34171867465E+02  0.51100000000E-03 0. -1.
         11    1    3    3    0    0  0.45404392108E+01 -0.89101520102E+01 -0.32254147581E+02  0.33768867815E+02  0.51100000000E-03 0.  1.
<mgrwt>
<rscale>  0 0.20001025E+02</rscale>
<asrwt>0</asrwt>
<pdfrwt beam="1">  1        2 0.23159649E-03 0.20001025E+02</pdfrwt>
<pdfrwt beam="2">  1       -2 0.10220822E-01 0.20001025E+02</pdfrwt>
<totfact> 0.32385683E+06</totfact>
</mgrwt>
</event>
<event>
 5    1  0.4068145E-006  0.2000076E+02  0.7818608E-02  0.1745313E+00
         -2   -1    0    0    0  501 -0.00000000000E+00  0.00000000000E+00  0.13770159174E+01  0.13770183720E+01  0.26000000000E-02 0. -1.
          2   -1    0    0  501    0  0.00000000000E+00 -0.00000000000E+00 -0.72626261119E+02  0.72626261165E+02  0.26000000000E-02 0.  1.
       1023    2    1    2    0    0  0.00000000000E+00  0.00000000000E+00 -0.71249245201E+02  0.74003279537E+02  0.20000760998E+02 0.  0.
        -11    1    3    3    0    0  0.93843115859E+01  0.34549193532E+01 -0.35907334157E+02  0.37273830206E+02  0.51100000000E-03 0.  1.
         11    1    3    3    0    0 -0.93843115859E+01 -0.34549193532E+01 -0.35341911044E+02  0.36729449331E+02  0.51100000000E-03 0. -1.
<mgrwt>
<rscale>  0 0.20000761E+02</rscale>
<asrwt>0</asrwt>
<pdfrwt beam="2">  1        2 0.11173268E-01 0.20000761E+02</pdfrwt>
<pdfrwt beam="1">  1       -2 0.21184885E-03 0.20000761E+02</pdfrwt>
<totfact> 0.49355626E+06</totfact>
</mgrwt>
</event>
<event>
 5    1  0.4046313E-006  0.2000150E+02  0.7818608E-02  0.1745298E+00
          2   -1    0    0  501    0  0.00000000000E+00  0.00000000000E+00  0.18711289310E+02  0.18711289490E+02  0.26000000000E-02 0. -1.
         -2   -1    0    0    0  501 -0.00000000000E+00 -0.00000000000E+00 -0.53451686205E+01  0.53451692528E+01  0.26000000000E-02 0.  1.
       1023    2    1    2    0    0  0.00000000000E+00  0.00000000000E+00  0.13366120689E+02  0.24056458743E+02  0.20001500568E+02 0.  0.
        -11    1    3    3    0    0  0.47111772897E+01 -0.88214996749E+01  0.66458335861E+01  0.12007545640E+02  0.51100000000E-03 0.  1.
         11    1    3    3    0    0 -0.47111772897E+01  0.88214996749E+01  0.67202871032E+01  0.12048913104E+02  0.51100000000E-03 0. -1.
<mgrwt>
<rscale>  0 0.20001501E+02</rscale>
<asrwt>0</asrwt>
<pdfrwt beam="1">  1        2 0.28786600E-02 0.20001501E+02</pdfrwt>
<pdfrwt beam="2">  1       -2 0.82233370E-03 0.20001501E+02</pdfrwt>
<totfact> 0.41429784E+06</totfact>
</mgrwt>
</event>
<event>
 5    1  0.4046313E-006  0.2000138E+02  0.7818608E-02  0.1745301E+00
         -2   -1    0    0    0  501 -0.00000000000E+00  0.00000000000E+00  0.21717910003E+01  0.21717925566E+01  0.26000000000E-02 0.  1.
          2   -1    0    0  501    0  0.00000000000E+00 -0.00000000000E+00 -0.46051276106E+02  0.46051276179E+02  0.26000000000E-02 0. -1.
       1023    2    1    2    0    0  0.00000000000E+00  0.00000000000E+00 -0.43879485106E+02  0.48223068736E+02  0.20001378582E+02 0.  0.
        -11    1    3    3    0    0  0.56060154270E+01 -0.82816264391E+01 -0.21861968515E+02  0.24040765651E+02  0.51100000000E-03 0.  1.
         11    1    3    3    0    0 -0.56060154270E+01  0.82816264391E+01 -0.22017516591E+02  0.24182303086E+02  0.51100000000E-03 0. -1.
<mgrwt>
<rscale>  0 0.20001379E+02</rscale>
<asrwt>0</asrwt>
<pdfrwt beam="2">  1        2 0.70848111E-02 0.20001379E+02</pdfrwt>
<pdfrwt beam="1">  1       -2 0.33412185E-03 0.20001379E+02</pdfrwt>
<totfact> 0.45764292E+06</totfact>
</mgrwt>
</event>
<event>
 5    1  0.4046313E-006  0.2000258E+02  0.7818608E-02  0.1745277E+00
          2   -1    0    0  501    0  0.00000000000E+00  0.00000000000E+00  0.27431208990E+01  0.27431221311E+01  0.26000000000E-02 0. -1.
         -2   -1    0    0    0  501 -0.00000000000E+00 -0.00000000000E+00 -0.36464233504E+02  0.36464233597E+02  0.26000000000E-02 0.  1.
       1023    2    1    2    0    0  0.00000000000E+00  0.00000000000E+00 -0.33721112606E+02  0.39207355728E+02  0.20002582530E+02 0.  0.
        -11    1    3    3    0    0  0.76123252458E+01 -0.64867382937E+01 -0.16906831774E+02  0.19643478058E+02  0.51100000000E-03 0. -1.
         11    1    3    3    0    0 -0.76123252458E+01  0.64867382937E+01 -0.16814280832E+02  0.19563877670E+02  0.51100000000E-03 0.  1.
<mgrwt>
<rscale>  0 0.20002583E+02</rscale>
<asrwt>0</asrwt>
<pdfrwt beam="1">  1        2 0.42201873E-03 0.20002583E+02</pdfrwt>
<pdfrwt beam="2">  1       -2 0.56098818E-02 0.20002583E+02</pdfrwt>
<totfact> 0.35297657E+06</totfact>
</mgrwt>
</event>
<event>
 5    1  0.4046313E-006  0.2000020E+02  0.7818608E-02  0.1745324E+00
          2   -1    0    0  501    0  0.00000000000E+00  0.00000000000E+00  0.37225310809E+01  0.37225319888E+01  0.26000000000E-02 0.  1.
         -2   -1    0    0    0  501 -0.00000000000E+00 -0.00000000000E+00 -0.26863986153E+02  0.26863986279E+02  0.26000000000E-02 0. -1.
       1023    2    1    2    0    0  0.00000000000E+00  0.00000000000E+00 -0.23141455072E+02  0.30586518268E+02  0.20000203921E+02 0.  0.
        -11    1    3    3    0    0  0.97297022465E+01 -0.23095281098E+01 -0.11522051622E+02  0.15256431422E+02  0.51100000000E-03 0. -1.
         11    1    3    3    0    0 -0.97297022465E+01  0.23095281098E+01 -0.11619403450E+02  0.15330086845E+02  0.51100000000E-03 0.  1.
<mgrwt>
<rscale>  0 0.20000204E+02</rscale>
<asrwt>0</asrwt>
<pdfrwt beam="1">  1        2 0.57269719E-03 0.20000204E+02</pdfrwt>
<pdfrwt beam="2">  1       -2 0.41329209E-02 0.20000204E+02</pdfrwt>
<totfact> 0.36460411E+06</totfact>
</mgrwt>
</event>
<event>
 5    1  0.4200367E-006  0.2000094E+02  0.7818608E-02  0.1745309E+00
         -2   -1    0    0    0  501 -0.00000000000E+00  0.00000000000E+00  0.15073108771E+01  0.15073131195E+01  0.26000000000E-02 0.  1.
          2   -1    0    0  501    0  0.00000000000E+00 -0.00000000000E+00 -0.66349468584E+02  0.66349468635E+02  0.26000000000E-02 0. -1.
       1023    2    1    2    0    0  0.00000000000E+00  0.00000000000E+00 -0.64842157707E+02  0.67856781754E+02  0.20000935328E+02 0.  0.
        -11    1    3    3    0    0 -0.61320838303E+01  0.78997971904E+01 -0.32455923625E+02  0.33961687625E+02  0.51100000000E-03 0.  1.
         11    1    3    3    0    0  0.61320838303E+01 -0.78997971904E+01 -0.32386234082E+02  0.33895094129E+02  0.51100000000E-03 0. -1.
<mgrwt>
<rscale>  0 0.20000935E+02</rscale>
<asrwt>0</asrwt>
<pdfrwt beam="2">  1        2 0.10207608E-01 0.20000935E+02</pdfrwt>
<pdfrwt beam="1">  1       -2 0.23189421E-03 0.20000935E+02</pdfrwt>
<totfact> 0.48537285E+06</totfact>
</mgrwt>
</event>
<event>
 5    1  0.4046313E-006  0.2001084E+02  0.7818608E-02  0.1745113E+00
          2   -1    0    0  501    0  0.00000000000E+00  0.00000000000E+00  0.35348095119E+01  0.35348104681E+01  0.26000000000E-02 0.  1.
         -2   -1    0    0    0  501 -0.00000000000E+00 -0.00000000000E+00 -0.28320738607E+02  0.28320738726E+02  0.26000000000E-02 0. -1.
       1023    2    1    2    0    0  0.00000000000E+00  0.00000000000E+00 -0.24785929095E+02  0.31855549194E+02  0.20010840396E+02 0.  0.
        -11    1    3    3    0    0 -0.22772804551E+01 -0.97413311609E+01 -0.12122367041E+02  0.15717230099E+02  0.51100000000E-03 0. -1.
         11    1    3    3    0    0  0.22772804551E+01  0.97413311609E+01 -0.12663562054E+02  0.16138319095E+02  0.51100000000E-03 0.  1.
<mgrwt>
<rscale>  0 0.20010840E+02</rscale>
<asrwt>0</asrwt>
<pdfrwt beam="1">  1        2 0.54381695E-03 0.20010840E+02</pdfrwt>
<pdfrwt beam="2">  1       -2 0.43570366E-02 0.20010840E+02</pdfrwt>
<totfact> 0.36231217E+06</totfact>
</mgrwt>
</event>
<event>
 5    1  0.4046313E-006  0.2000037E+02  0.7818608E-02  0.1745321E+00
         -2   -1    0    0    0  501 -0.00000000000E+00  0.00000000000E+00  0.85779002041E+00  0.85779396076E+00  0.26000000000E-02 0. -1.
          2   -1    0    0  501    0  0.00000000000E+00 -0.00000000000E+00 -0.11658264860E+03  0.11658264863E+03  0.26000000000E-02 0.  1.
       1023    2    1    2    0    0  0.00000000000E+00  0.00000000000E+00 -0.11572485858E+03  0.11744044259E+03  0.20000366557E+02 0.  0.
        -11    1    3    3    0    0  0.82646999371E+01 -0.56299895742E+01 -0.57626258291E+02  0.58487500310E+02  0.51100000000E-03 0. -1.
         11    1    3    3    0    0 -0.82646999371E+01  0.56299895742E+01 -0.58098600286E+02  0.58952942277E+02  0.51100000000E-03 0.  1.
<mgrwt>
<rscale>  0 0.20000367E+02</rscale>
<asrwt>0</asrwt>
<pdfrwt beam="2">  1        2 0.17935780E-01 0.20000367E+02</pdfrwt>
<pdfrwt beam="1">  1       -2 0.13196809E-03 0.20000367E+02</pdfrwt>
<totfact> 0.54699204E+06</totfact>
</mgrwt>
</event>
<event>
 5    1  0.4046313E-006  0.2000065E+02  0.7818608E-02  0.1745315E+00
          2   -1    0    0  501    0  0.00000000000E+00  0.00000000000E+00  0.94991906645E+01  0.94991910203E+01  0.26000000000E-02 0. -1.
         -2   -1    0    0    0  501 -0.00000000000E+00 -0.00000000000E+00 -0.10527900373E+02  0.10527900694E+02  0.26000000000E-02 0.  1.
       1023    2    1    2    0    0  0.00000000000E+00  0.00000000000E+00 -0.10287097087E+01  0.20027091715E+02  0.20000653961E+02 0.  0.
        -11    1    3    3    0    0  0.92098806298E+01  0.38967468325E+01 -0.51589516766E+00  0.10013624977E+02  0.51100000000E-03 0.  1.
         11    1    3    3    0    0 -0.92098806298E+01 -0.38967468325E+01 -0.51281454105E+00  0.10013466738E+02  0.51100000000E-03 0. -1.
<mgrwt>
<rscale>  0 0.20000654E+02</rscale>
<asrwt>0</asrwt>
<pdfrwt beam="1">  1        2 0.14614140E-02 0.20000654E+02</pdfrwt>
<pdfrwt beam="2">  1       -2 0.16196770E-02 0.20000654E+02</pdfrwt>
<totfact> 0.39312090E+06</totfact>
</mgrwt>
</event>
<event>
 5    1  0.4046313E-006  0.2000868E+02  0.7818608E-02  0.1745156E+00
         -2   -1    0    0    0  501 -0.00000000000E+00  0.00000000000E+00  0.37311945765E+02  0.37311945856E+02  0.26000000000E-02 0.  1.
          2   -1    0    0  501    0  0.00000000000E+00 -0.00000000000E+00 -0.26824325026E+01  0.26824337627E+01  0.26000000000E-02 0. -1.
       1023    2    1    2    0    0  0.00000000000E+00  0.00000000000E+00  0.34629513262E+02  0.39994379618E+02  0.20008678424E+02 0.  0.
        -11    1    3    3    0    0 -0.94661144083E+01  0.32364641062E+01  0.17176547898E+02  0.19877520465E+02  0.51100000000E-03 0.  1.
         11    1    3    3    0    0  0.94661144083E+01 -0.32364641062E+01  0.17452965365E+02  0.20116859153E+02  0.51100000000E-03 0. -1.
<mgrwt>
<rscale>  0 0.20008678E+02</rscale>
<asrwt>0</asrwt>
<pdfrwt beam="2">  1        2 0.41268203E-03 0.20008678E+02</pdfrwt>
<pdfrwt beam="1">  1       -2 0.57402994E-02 0.20008678E+02</pdfrwt>
<totfact> 0.35179972E+06</totfact>
</mgrwt>
</event>
<event>
 5    1  0.4046313E-006  0.2000046E+02  0.7818608E-02  0.1745319E+00
          2   -1    0    0  501    0  0.00000000000E+00  0.00000000000E+00  0.42041273582E+02  0.42041273663E+02  0.26000000000E-02 0.  1.
         -2   -1    0    0    0  501 -0.00000000000E+00 -0.00000000000E+00 -0.23787241413E+01  0.23787255622E+01  0.26000000000E-02 0. -1.
       1023    2    1    2    0    0  0.00000000000E+00  0.00000000000E+00  0.39662549441E+02  0.44419999225E+02  0.20000462569E+02 0.  0.
        -11    1    3    3    0    0 -0.43331135208E+01 -0.90125464735E+01  0.19714621755E+02  0.22105840358E+02  0.51100000000E-03 0. -1.
         11    1    3    3    0    0  0.43331135208E+01  0.90125464735E+01  0.19947927686E+02  0.22314158867E+02  0.51100000000E-03 0.  1.
<mgrwt>
<rscale>  0 0.20000463E+02</rscale>
<asrwt>0</asrwt>
<pdfrwt beam="1">  1        2 0.64678887E-02 0.20000463E+02</pdfrwt>
<pdfrwt beam="2">  1       -2 0.36595766E-03 0.20000463E+02</pdfrwt>
<totfact> 0.45192389E+06</totfact>
</mgrwt>
</event>
<event>
 5    1  0.4046313E-006  0.2000071E+02  0.7818608E-02  0.1745314E+00
          2   -1    0    0  501    0  0.00000000000E+00  0.00000000000E+00  0.17547984684E+02  0.17547984877E+02  0.26000000000E-02 0. -1.
         -2   -1    0    0    0  501 -0.00000000000E+00 -0.00000000000E+00 -0.56990618404E+01  0.56990624335E+01  0.26000000000E-02 0.  1.
       1023    2    1    2    0    0  0.00000000000E+00  0.00000000000E+00  0.11848922844E+02  0.23247047310E+02  0.20000705890E+02 0.  0.
        -11    1    3    3    0    0 -0.26998354784E+01  0.96289709568E+01  0.58902676404E+01  0.11606095228E+02  0.51100000000E-03 0. -1.
         11    1    3    3    0    0  0.26998354784E+01 -0.96289709568E+01  0.59586552034E+01  0.11640952083E+02  0.51100000000E-03 0.  1.
<mgrwt>
<rscale>  0 0.20000706E+02</rscale>
<asrwt>0</asrwt>
<pdfrwt beam="1">  1        2 0.26996900E-02 0.20000706E+02</pdfrwt>
<pdfrwt beam="2">  1       -2 0.87677882E-03 0.20000706E+02</pdfrwt>
<totfact> 0.41208508E+06</totfact>
</mgrwt>
</event>
<event>
 5    1  0.4046313E-006  0.2000921E+02  0.7818608E-02  0.1745145E+00
          2   -1    0    0  501    0  0.00000000000E+00  0.00000000000E+00  0.21596106396E+02  0.21596106552E+02  0.26000000000E-02 0. -1.
         -2   -1    0    0    0  501 -0.00000000000E+00 -0.00000000000E+00 -0.46347314384E+01  0.46347321677E+01  0.26000000000E-02 0.  1.
       1023    2    1    2    0    0  0.00000000000E+00  0.00000000000E+00  0.16961374957E+02  0.26230838720E+02  0.20009214365E+02 0.  0.
        -11    1    3    3    0    0  0.20370552504E+01  0.97926221626E+01  0.81961151683E+01  0.12931409321E+02  0.51100000000E-03 0. -1.
         11    1    3    3    0    0 -0.20370552504E+01 -0.97926221626E+01  0.87652597891E+01  0.13299429399E+02  0.51100000000E-03 0.  1.
<mgrwt>
<rscale>  0 0.20009214E+02</rscale>
<asrwt>0</asrwt>
<pdfrwt beam="1">  1        2 0.33224780E-02 0.20009214E+02</pdfrwt>
<pdfrwt beam="2">  1       -2 0.71303567E-03 0.20009214E+02</pdfrwt>
<totfact> 0.41923685E+06</totfact>
</mgrwt>
</event>
<event>
 4    1  0.4046313E-006  0.2012088E+02  0.7818608E-02  0.1742935E+00
         -2   -1    0    0    0  501 -0.00000000000E+00  0.00000000000E+00  0.40195518135E+02  0.40195518219E+02  0.26000000000E-02 0.  1.
          2   -1    0    0  501    0  0.00000000000E+00 -0.00000000000E+00 -0.25180019538E+01  0.25180032962E+01  0.26000000000E-02 0. -1.
        -11    1    1    2    0    0 -0.77578837227E+01  0.63486295908E+01  0.20643259356E+02  0.22948507896E+02  0.51100000000E-03 0.  1.
         11    1    1    2    0    0  0.77578837227E+01 -0.63486295908E+01  0.17034256825E+02  0.19765013619E+02  0.51100000000E-03 0. -1.
<mgrwt>
<rscale>  0 0.20120877E+02</rscale>
<asrwt>0</asrwt>
<pdfrwt beam="2">  1        2 0.38738503E-03 0.20120877E+02</pdfrwt>
<pdfrwt beam="1">  1       -2 0.61839259E-02 0.20120877E+02</pdfrwt>
<totfact> 0.34443157E+06</totfact>
</mgrwt>
</event>
<event>
 5    1  0.4046313E-006  0.2000721E+02  0.7818608E-02  0.1745185E+00
         -2   -1    0    0    0  501 -0.00000000000E+00  0.00000000000E+00  0.56694920239E+01  0.56694926201E+01  0.26000000000E-02 0.  1.
          2   -1    0    0  501    0  0.00000000000E+00 -0.00000000000E+00 -0.17650985571E+02  0.17650985762E+02  0.26000000000E-02 0. -1.
       1023    2    1    2    0    0  0.00000000000E+00  0.00000000000E+00 -0.11981493547E+02  0.23320478382E+02  0.20007211809E+02 0.  0.
        -11    1    3    3    0    0  0.61015718352E+00  0.99816380266E+01 -0.62918728543E+01  0.11814950434E+02  0.51100000000E-03 0.  1.
         11    1    3    3    0    0 -0.61015718352E+00 -0.99816380266E+01 -0.56896206924E+01  0.11505527948E+02  0.51100000000E-03 0. -1.
<mgrwt>
<rscale>  0 0.20007212E+02</rscale>
<asrwt>0</asrwt>
<pdfrwt beam="2">  1        2 0.27155363E-02 0.20007212E+02</pdfrwt>
<pdfrwt beam="1">  1       -2 0.87222961E-03 0.20007212E+02</pdfrwt>
<totfact> 0.41198454E+06</totfact>
</mgrwt>
</event>
<event>
 5    1  0.4046313E-006  0.2000252E+02  0.7818608E-02  0.1745278E+00
         -2   -1    0    0    0  501 -0.00000000000E+00  0.00000000000E+00  0.79697707662E+02  0.79697707704E+02  0.26000000000E-02 0.  1.
          2   -1    0    0  501    0  0.00000000000E+00 -0.00000000000E+00 -0.12550555636E+01  0.12550582567E+01  0.26000000000E-02 0. -1.
       1023    2    1    2    0    0  0.00000000000E+00  0.00000000000E+00  0.78442652098E+02  0.80952765961E+02  0.20002516054E+02 0.  0.
        -11    1    3    3    0    0  0.65007958316E+01 -0.75991233680E+01  0.38676247315E+02  0.39948205580E+02  0.51100000000E-03 0.  1.
         11    1    3    3    0    0 -0.65007958316E+01  0.75991233680E+01  0.39766404783E+02  0.41004560381E+02  0.51100000000E-03 0. -1.
<mgrwt>
<rscale>  0 0.20002516E+02</rscale>
<asrwt>0</asrwt>
<pdfrwt beam="2">  1        2 0.19308561E-03 0.20002516E+02</pdfrwt>
<pdfrwt beam="1">  1       -2 0.12261191E-01 0.20002516E+02</pdfrwt>
<totfact> 0.31273512E+06</totfact>
</mgrwt>
</event>
<event>
 5    1  0.4046313E-006  0.2000140E+02  0.7818608E-02  0.1745300E+00
         -2   -1    0    0    0  501 -0.00000000000E+00  0.00000000000E+00  0.15773441706E+02  0.15773441920E+02  0.26000000000E-02 0. -1.
          2   -1    0    0  501    0  0.00000000000E+00 -0.00000000000E+00 -0.63406562734E+01  0.63406568065E+01  0.26000000000E-02 0.  1.
       1023    2    1    2    0    0  0.00000000000E+00  0.00000000000E+00  0.94327854321E+01  0.22114098726E+02  0.20001397988E+02 0.  0.
        -11    1    3    3    0    0 -0.53948530729E+01  0.84206615639E+01  0.46669567513E+01  0.11035962415E+02  0.51100000000E-03 0. -1.
         11    1    3    3    0    0  0.53948530729E+01 -0.84206615639E+01  0.47658286808E+01  0.11078136311E+02  0.51100000000E-03 0.  1.
<mgrwt>
<rscale>  0 0.20001398E+02</rscale>
<asrwt>0</asrwt>
<pdfrwt beam="2">  1        2 0.97548563E-03 0.20001398E+02</pdfrwt>
<pdfrwt beam="1">  1       -2 0.24266834E-02 0.20001398E+02</pdfrwt>
<totfact> 0.38144916E+06</totfact>
</mgrwt>
</event>
<event>
 5    1  0.4046313E-006  0.2000017E+02  0.7818608E-02  0.1745325E+00
          2   -1    0    0  501    0  0.00000000000E+00  0.00000000000E+00  0.10405212527E+02  0.10405212852E+02  0.26000000000E-02 0.  1.
         -2   -1    0    0    0  501 -0.00000000000E+00 -0.00000000000E+00 -0.96107304362E+01  0.96107307879E+01  0.26000000000E-02 0. -1.
       1023    2    1    2    0    0  0.00000000000E+00  0.00000000000E+00  0.79448209064E+00  0.20015943640E+02  0.20000169949E+02 0.  0.
        -11    1    3    3    0    0  0.68708584647E+01 -0.72658455826E+01  0.37506134692E+00  0.10007091453E+02  0.51100000000E-03 0. -1.
         11    1    3    3    0    0 -0.68708584647E+01  0.72658455826E+01  0.41942074372E+00  0.10008852187E+02  0.51100000000E-03 0.  1.
<mgrwt>
<rscale>  0 0.20000170E+02</rscale>
<asrwt>0</asrwt>
<pdfrwt beam="1">  1        2 0.16008020E-02 0.20000170E+02</pdfrwt>
<pdfrwt beam="2">  1       -2 0.14785740E-02 0.20000170E+02</pdfrwt>
<totfact> 0.39577593E+06</totfact>
</mgrwt>
</event>
<event>
 5    1  0.4046313E-006  0.2000125E+02  0.7818608E-02  0.1745303E+00
          2   -1    0    0  501    0  0.00000000000E+00  0.00000000000E+00  0.18646510020E+02  0.18646510202E+02  0.26000000000E-02 0.  1.
         -2   -1    0    0    0  501 -0.00000000000E+00 -0.00000000000E+00 -0.53636022742E+01  0.53636029044E+01  0.26000000000E-02 0. -1.
       1023    2    1    2    0    0  0.00000000000E+00  0.00000000000E+00  0.13282907746E+02  0.24010113106E+02  0.20001247290E+02 0.  0.
        -11    1    3    3    0    0 -0.52431505872E+01 -0.85155800044E+01  0.67400218938E+01  0.12059586489E+02  0.51100000000E-03 0. -1.
         11    1    3    3    0    0  0.52431505872E+01  0.85155800044E+01  0.65428858524E+01  0.11950526617E+02  0.51100000000E-03 0.  1.
<mgrwt>
<rscale>  0 0.20001247E+02</rscale>
<asrwt>0</asrwt>
<pdfrwt beam="1">  1        2 0.28686938E-02 0.20001247E+02</pdfrwt>
<pdfrwt beam="2">  1       -2 0.82516967E-03 0.20001247E+02</pdfrwt>
<totfact> 0.41418623E+06</totfact>
</mgrwt>
</event>
<event>
 5    1  0.4075354E-006  0.2000063E+02  0.7818608E-02  0.1745316E+00
         -2   -1    0    0    0  501 -0.00000000000E+00  0.00000000000E+00  0.13358354422E+01  0.13358379724E+01  0.26000000000E-02 0.  1.
          2   -1    0    0  501    0  0.00000000000E+00 -0.00000000000E+00 -0.74864162630E+02  0.74864162675E+02  0.26000000000E-02 0. -1.
       1023    2    1    2    0    0  0.00000000000E+00  0.00000000000E+00 -0.73528327188E+02  0.76200000648E+02  0.20000629981E+02 0.  0.
        -11    1    3    3    0    0 -0.92193298369E+01 -0.38735408002E+01 -0.36470563467E+02  0.37816694208E+02  0.51100000000E-03 0. -1.
         11    1    3    3    0    0  0.92193298369E+01  0.38735408002E+01 -0.37057763721E+02  0.38383306440E+02  0.51100000000E-03 0.  1.
<mgrwt>
<rscale>  0 0.20000630E+02</rscale>
<asrwt>0</asrwt>
<pdfrwt beam="2">  1        2 0.11517560E-01 0.20000630E+02</pdfrwt>
<pdfrwt beam="1">  1       -2 0.20551340E-03 0.20000630E+02</pdfrwt>
<totfact> 0.49643733E+06</totfact>
</mgrwt>
</event>
<event>
 4    1  0.4046313E-006  0.2003040E+02  0.7818608E-02  0.1744724E+00
         -2   -1    0    0    0  501 -0.00000000000E+00  0.00000000000E+00  0.18685094173E+02  0.18685094354E+02  0.26000000000E-02 0.  1.
          2   -1    0    0  501    0  0.00000000000E+00 -0.00000000000E+00 -0.53681429851E+01  0.53681436147E+01  0.26000000000E-02 0. -1.
        -11    1    1    2    0    0  0.32959055093E+01 -0.94554748207E+01  0.64329564544E+01  0.11901761475E+02  0.51100000000E-03 0. -1.
         11    1    1    2    0    0 -0.32959055093E+01  0.94554748207E+01  0.68839947333E+01  0.12151476493E+02  0.51100000000E-03 0.  1.
<mgrwt>
<rscale>  0 0.20030404E+02</rscale>
<asrwt>0</asrwt>
<pdfrwt beam="2">  1        2 0.82586821E-03 0.20030404E+02</pdfrwt>
<pdfrwt beam="1">  1       -2 0.28746299E-02 0.20030404E+02</pdfrwt>
<totfact> 0.37520215E+06</totfact>
</mgrwt>
</event>
<event>
 5    1  0.4046313E-006  0.2000188E+02  0.7818608E-02  0.1745291E+00
          2   -1    0    0  501    0  0.00000000000E+00  0.00000000000E+00  0.64581722075E+02  0.64581722127E+02  0.26000000000E-02 0.  1.
         -2   -1    0    0    0  501 -0.00000000000E+00 -0.00000000000E+00 -0.15487157795E+01  0.15487179620E+01  0.26000000000E-02 0. -1.
       1023    2    1    2    0    0  0.00000000000E+00  0.00000000000E+00  0.63033006295E+02  0.66130440089E+02  0.20001880505E+02 0.  0.
        -11    1    3    3    0    0  0.26807216172E+01  0.96349218862E+01  0.31421970036E+02  0.32975114698E+02  0.51100000000E-03 0. -1.
         11    1    3    3    0    0 -0.26807216172E+01 -0.96349218862E+01  0.31611036259E+02  0.33155325391E+02  0.51100000000E-03 0.  1.
<mgrwt>
<rscale>  0 0.20001881E+02</rscale>
<asrwt>0</asrwt>
<pdfrwt beam="1">  1        2 0.99356513E-02 0.20001881E+02</pdfrwt>
<pdfrwt beam="2">  1       -2 0.23826410E-03 0.20001881E+02</pdfrwt>
<totfact> 0.48298946E+06</totfact>
</mgrwt>
</event>
<event>
 5    1  0.4046313E-006  0.2000088E+02  0.7818608E-02  0.1745311E+00
         -2   -1    0    0    0  501 -0.00000000000E+00  0.00000000000E+00  0.48005639728E+01  0.48005646769E+01  0.26000000000E-02 0. -1.
          2   -1    0    0  501    0  0.00000000000E+00 -0.00000000000E+00 -0.20832715830E+02  0.20832715992E+02  0.26000000000E-02 0.  1.
       1023    2    1    2    0    0  0.00000000000E+00  0.00000000000E+00 -0.16032151857E+02  0.25633280669E+02  0.20000879598E+02 0.  0.
        -11    1    3    3    0    0  0.44480217654E+01 -0.89566914738E+01 -0.80669563325E+01  0.12848463119E+02  0.51100000000E-03 0.  1.
         11    1    3    3    0    0 -0.44480217654E+01  0.89566914738E+01 -0.79651955244E+01  0.12784817550E+02  0.51100000000E-03 0. -1.
<mgrwt>
<rscale>  0 0.20000880E+02</rscale>
<asrwt>0</asrwt>
<pdfrwt beam="2">  1        2 0.32050332E-02 0.20000880E+02</pdfrwt>
<pdfrwt beam="1">  1       -2 0.73854838E-03 0.20000880E+02</pdfrwt>
<totfact> 0.41825910E+06</totfact>
</mgrwt>
</event>
<event>
 4    1  0.4046313E-006  0.2037565E+02  0.7818608E-02  0.1737959E+00
          2   -1    0    0  501    0  0.00000000000E+00  0.00000000000E+00  0.51597266684E+02  0.51597266750E+02  0.26000000000E-02 0. -1.
         -2   -1    0    0    0  501 -0.00000000000E+00 -0.00000000000E+00 -0.20115736757E+01  0.20115753559E+01  0.26000000000E-02 0.  1.
        -11    1    1    2    0    0  0.94771358283E+01  0.36052078377E+01  0.22190760057E+02  0.24397611753E+02  0.51100000000E-03 0.  1.
         11    1    1    2    0    0 -0.94771358283E+01 -0.36052078377E+01  0.27394932952E+02  0.29211230353E+02  0.51100000000E-03 0. -1.
<mgrwt>
<rscale>  0 0.20375647E+02</rscale>
<asrwt>0</asrwt>
<pdfrwt beam="1">  1        2 0.79380414E-02 0.20375647E+02</pdfrwt>
<pdfrwt beam="2">  1       -2 0.30947300E-03 0.20375647E+02</pdfrwt>
<totfact> 0.44657704E+06</totfact>
</mgrwt>
</event>
<event>
 5    1  0.4046313E-006  0.2000259E+02  0.7818608E-02  0.1745277E+00
         -2   -1    0    0    0  501 -0.00000000000E+00  0.00000000000E+00  0.10036265356E+02  0.10036265693E+02  0.26000000000E-02 0.  1.
          2   -1    0    0  501    0  0.00000000000E+00 -0.00000000000E+00 -0.99664458852E+01  0.99664462243E+01  0.26000000000E-02 0. -1.
       1023    2    1    2    0    0  0.00000000000E+00  0.00000000000E+00  0.69819470627E-01  0.20002711917E+02  0.20002590064E+02 0.  0.
        -11    1    3    3    0    0 -0.97227061571E+01 -0.23418411823E+01  0.13819113186E+00  0.10001716462E+02  0.51100000000E-03 0.  1.
         11    1    3    3    0    0  0.97227061571E+01  0.23418411823E+01 -0.68371661237E-01  0.10000995455E+02  0.51100000000E-03 0. -1.
<mgrwt>
<rscale>  0 0.20002590E+02</rscale>
<asrwt>0</asrwt>
<pdfrwt beam="2">  1        2 0.15332994E-02 0.20002590E+02</pdfrwt>
<pdfrwt beam="1">  1       -2 0.15440409E-02 0.20002590E+02</pdfrwt>
<totfact> 0.39441777E+06</totfact>
</mgrwt>
</event>
<event>
 5    1  0.4046313E-006  0.2000114E+02  0.7818608E-02  0.1745305E+00
          2   -1    0    0  501    0  0.00000000000E+00  0.00000000000E+00  0.44022501341E+01  0.44022509019E+01  0.26000000000E-02 0. -1.
         -2   -1    0    0    0  501 -0.00000000000E+00 -0.00000000000E+00 -0.22718240184E+02  0.22718240332E+02  0.26000000000E-02 0.  1.
       1023    2    1    2    0    0  0.00000000000E+00  0.00000000000E+00 -0.18315990050E+02  0.27120491234E+02  0.20001138800E+02 0.  0.
        -11    1    3    3    0    0  0.51603045707E+01 -0.85661837014E+01 -0.92339957777E+01  0.13611573192E+02  0.51100000000E-03 0. -1.
         11    1    3    3    0    0 -0.51603045707E+01  0.85661837014E+01 -0.90819942718E+01  0.13508918043E+02  0.51100000000E-03 0.  1.
<mgrwt>
<rscale>  0 0.20001139E+02</rscale>
<asrwt>0</asrwt>
<pdfrwt beam="1">  1        2 0.67726934E-03 0.20001139E+02</pdfrwt>
<pdfrwt beam="2">  1       -2 0.34951139E-02 0.20001139E+02</pdfrwt>
<totfact> 0.37022741E+06</totfact>
</mgrwt>
</event>
<event>
 5    1  0.4046313E-006  0.2000042E+02  0.7818608E-02  0.1745320E+00
          2   -1    0    0  501    0  0.00000000000E+00  0.00000000000E+00  0.13294886612E+01  0.13294912036E+01  0.26000000000E-02 0.  1.
         -2   -1    0    0    0  501 -0.00000000000E+00 -0.00000000000E+00 -0.75220007981E+02  0.75220008026E+02  0.26000000000E-02 0. -1.
       1023    2    1    2    0    0  0.00000000000E+00  0.00000000000E+00 -0.73890519320E+02  0.76549499229E+02  0.20000424669E+02 0.  0.
        -11    1    3    3    0    0 -0.99866673093E+00  0.99502211476E+01 -0.36932947128E+02  0.38262864764E+02  0.51100000000E-03 0. -1.
         11    1    3    3    0    0  0.99866673093E+00 -0.99502211476E+01 -0.36957572192E+02  0.38286634465E+02  0.51100000000E-03 0.  1.
<mgrwt>
<rscale>  0 0.20000425E+02</rscale>
<asrwt>0</asrwt>
<pdfrwt beam="1">  1        2 0.20453698E-03 0.20000425E+02</pdfrwt>
<pdfrwt beam="2">  1       -2 0.11572306E-01 0.20000425E+02</pdfrwt>
<totfact> 0.31645018E+06</totfact>
</mgrwt>
</event>
<event>
 5    1  0.4046313E-006  0.2000252E+02  0.7818608E-02  0.1745278E+00
         -2   -1    0    0    0  501 -0.00000000000E+00  0.00000000000E+00  0.20365278165E+01  0.20365294762E+01  0.26000000000E-02 0.  1.
          2   -1    0    0  501    0  0.00000000000E+00 -0.00000000000E+00 -0.49115550369E+02  0.49115550438E+02  0.26000000000E-02 0. -1.
       1023    2    1    2    0    0  0.00000000000E+00  0.00000000000E+00 -0.47079022553E+02  0.51152079914E+02  0.20002522717E+02 0.  0.
        -11    1    3    3    0    0 -0.51410839046E+01 -0.85787204501E+01 -0.23523292420E+02  0.25561112550E+02  0.51100000000E-03 0. -1.
         11    1    3    3    0    0  0.51410839046E+01  0.85787204501E+01 -0.23555730133E+02  0.25590967364E+02  0.51100000000E-03 0.  1.
<mgrwt>
<rscale>  0 0.20002523E+02</rscale>
<asrwt>0</asrwt>
<pdfrwt beam="2">  1        2 0.75562377E-02 0.20002523E+02</pdfrwt>
<pdfrwt beam="1">  1       -2 0.31331214E-03 0.20002523E+02</pdfrwt>
<totfact> 0.46191295E+06</totfact>
</mgrwt>
</event>
<event>
 5    1  0.4046313E-006  0.2000189E+02  0.7818608E-02  0.1745291E+00
          2   -1    0    0  501    0  0.00000000000E+00  0.00000000000E+00  0.43302830960E+02  0.43302831038E+02  0.26000000000E-02 0.  1.
         -2   -1    0    0    0  501 -0.00000000000E+00 -0.00000000000E+00 -0.23097533048E+01  0.23097547682E+01  0.26000000000E-02 0. -1.
       1023    2    1    2    0    0  0.00000000000E+00  0.00000000000E+00  0.40993077655E+02  0.45612585806E+02  0.20001889118E+02 0.  0.
        -11    1    3    3    0    0 -0.85682686446E+01 -0.51577438875E+01  0.20412992333E+02  0.22731207751E+02  0.51100000000E-03 0. -1.
         11    1    3    3    0    0  0.85682686446E+01  0.51577438875E+01  0.20580085322E+02  0.22881378055E+02  0.51100000000E-03 0.  1.
<mgrwt>
<rscale>  0 0.20001889E+02</rscale>
<asrwt>0</asrwt>
<pdfrwt beam="1">  1        2 0.66619734E-02 0.20001889E+02</pdfrwt>
<pdfrwt beam="2">  1       -2 0.35534682E-03 0.20001889E+02</pdfrwt>
<totfact> 0.45367874E+06</totfact>
</mgrwt>
</event>
<event>
 5    1  0.4046313E-006  0.2000035E+02  0.7818608E-02  0.1745321E+00
         -2   -1    0    0    0  501 -0.00000000000E+00  0.00000000000E+00  0.16239644432E+02  0.16239644640E+02  0.26000000000E-02 0.  1.
          2   -1    0    0  501    0  0.00000000000E+00 -0.00000000000E+00 -0.61579841092E+01  0.61579846581E+01  0.26000000000E-02 0. -1.
       1023    2    1    2    0    0  0.00000000000E+00  0.00000000000E+00  0.10081660323E+02  0.22397629298E+02  0.20000348080E+02 0.  0.
        -11    1    3    3    0    0 -0.31887385170E+01 -0.94781509602E+01  0.50307132635E+01  0.11194260813E+02  0.51100000000E-03 0.  1.
         11    1    3    3    0    0  0.31887385170E+01  0.94781509602E+01  0.50509470593E+01  0.11203368485E+02  0.51100000000E-03 0. -1.
<mgrwt>
<rscale>  0 0.20000348E+02</rscale>
<asrwt>0</asrwt>
<pdfrwt beam="2">  1        2 0.94738222E-03 0.20000348E+02</pdfrwt>
<pdfrwt beam="1">  1       -2 0.24984069E-02 0.20000348E+02</pdfrwt>
<totfact> 0.38063496E+06</totfact>
</mgrwt>
</event>
<event>
 5    1  0.4046313E-006  0.2001176E+02  0.7818608E-02  0.1745094E+00
         -2   -1    0    0    0  501 -0.00000000000E+00  0.00000000000E+00  0.55774239129E+02  0.55774239190E+02  0.26000000000E-02 0. -1.
          2   -1    0    0  501    0  0.00000000000E+00 -0.00000000000E+00 -0.17950511005E+01  0.17950529835E+01  0.26000000000E-02 0.  1.
       1023    2    1    2    0    0  0.00000000000E+00  0.00000000000E+00  0.53979188029E+02  0.57569292173E+02  0.20011763068E+02 0.  0.
        -11    1    3    3    0    0  0.90936421537E+01 -0.41612679610E+01  0.27931429999E+02  0.29667747820E+02  0.51100000000E-03 0. -1.
         11    1    3    3    0    0 -0.90936421537E+01  0.41612679610E+01  0.26047758029E+02  0.27901544353E+02  0.51100000000E-03 0.  1.
<mgrwt>
<rscale>  0 0.20011763E+02</rscale>
<asrwt>0</asrwt>
<pdfrwt beam="2">  1        2 0.27616192E-03 0.20011763E+02</pdfrwt>
<pdfrwt beam="1">  1       -2 0.85806504E-02 0.20011763E+02</pdfrwt>
<totfact> 0.33305444E+06</totfact>
</mgrwt>
</event>
<event>
 5    1  0.4310505E-006  0.2000105E+02  0.7818608E-02  0.1745307E+00
          2   -1    0    0  501    0  0.00000000000E+00  0.00000000000E+00  0.86066861027E+02  0.86066861066E+02  0.26000000000E-02 0. -1.
         -2   -1    0    0    0  501 -0.00000000000E+00 -0.00000000000E+00 -0.11620073198E+01  0.11620102286E+01  0.26000000000E-02 0.  1.
       1023    2    1    2    0    0  0.00000000000E+00  0.00000000000E+00  0.84904853707E+02  0.87228871295E+02  0.20001045081E+02 0.  0.
        -11    1    3    3    0    0 -0.22641420263E+01 -0.97408471271E+01  0.42465475581E+02  0.43627136721E+02  0.51100000000E-03 0. -1.
         11    1    3    3    0    0  0.22641420263E+01  0.97408471271E+01  0.42439378126E+02  0.43601734574E+02  0.51100000000E-03 0.  1.
<mgrwt>
<rscale>  0 0.20001045E+02</rscale>
<asrwt>0</asrwt>
<pdfrwt beam="1">  1        2 0.13241062E-01 0.20001045E+02</pdfrwt>
<pdfrwt beam="2">  1       -2 0.17877050E-03 0.20001045E+02</pdfrwt>
<totfact> 0.51052747E+06</totfact>
</mgrwt>
</event>
<event>
 5    1  0.4046313E-006  0.2000026E+02  0.7818608E-02  0.1745323E+00
          2   -1    0    0  501    0  0.00000000000E+00  0.00000000000E+00  0.41895550575E+02  0.41895550655E+02  0.26000000000E-02 0.  1.
         -2   -1    0    0    0  501 -0.00000000000E+00 -0.00000000000E+00 -0.23869497502E+01  0.23869511662E+01  0.26000000000E-02 0. -1.
       1023    2    1    2    0    0  0.00000000000E+00  0.00000000000E+00  0.39508600825E+02  0.44282501822E+02  0.20000260710E+02 0.  0.
        -11    1    3    3    0    0 -0.98775491538E+01 -0.15609558376E+01  0.19769389345E+02  0.22154713173E+02  0.51100000000E-03 0. -1.
         11    1    3    3    0    0  0.98775491538E+01  0.15609558376E+01  0.19739211479E+02  0.22127788649E+02  0.51100000000E-03 0.  1.
<mgrwt>
<rscale>  0 0.20000261E+02</rscale>
<asrwt>0</asrwt>
<pdfrwt beam="1">  1        2 0.64454690E-02 0.20000261E+02</pdfrwt>
<pdfrwt beam="2">  1       -2 0.36722318E-03 0.20000261E+02</pdfrwt>
<totfact> 0.45172220E+06</totfact>
</mgrwt>
</event>
<event>
 5    1  0.4126042E-006  0.2000316E+02  0.7818608E-02  0.1745265E+00
          2   -1    0    0  501    0  0.00000000000E+00  0.00000000000E+00  0.10404455662E+03  0.10404455666E+03  0.26000000000E-02 0. -1.
         -2   -1    0    0    0  501 -0.00000000000E+00 -0.00000000000E+00 -0.96142823614E+00  0.96143175174E+00  0.26000000000E-02 0.  1.
       1023    2    1    2    0    0  0.00000000000E+00  0.00000000000E+00  0.10308312839E+03  0.10500598841E+03  0.20003155835E+02 0.  0.
        -11    1    3    3    0    0  0.92492515591E+01 -0.38056339223E+01  0.51502061930E+02  0.52464215302E+02  0.51100000000E-03 0. -1.
         11    1    3    3    0    0 -0.92492515591E+01  0.38056339223E+01  0.51581066458E+02  0.52541773107E+02  0.51100000000E-03 0.  1.
<mgrwt>
<rscale>  0 0.20003156E+02</rscale>
<asrwt>0</asrwt>
<pdfrwt beam="1">  1        2 0.16006844E-01 0.20003156E+02</pdfrwt>
<pdfrwt beam="2">  1       -2 0.14791241E-03 0.20003156E+02</pdfrwt>
<totfact> 0.53221211E+06</totfact>
</mgrwt>
</event>
<event>
 5    1  0.4046313E-006  0.2000037E+02  0.7818608E-02  0.1745321E+00
          2   -1    0    0  501    0  0.00000000000E+00  0.00000000000E+00  0.23171162849E+01  0.23171177436E+01  0.26000000000E-02 0.  1.
         -2   -1    0    0    0  501 -0.00000000000E+00 -0.00000000000E+00 -0.43158679671E+02  0.43158679749E+02  0.26000000000E-02 0. -1.
       1023    2    1    2    0    0  0.00000000000E+00  0.00000000000E+00 -0.40841563386E+02  0.45475797493E+02  0.20000371441E+02 0.  0.
        -11    1    3    3    0    0  0.74073026819E+01 -0.67183012750E+01 -0.20427657158E+02  0.22744073564E+02  0.51100000000E-03 0. -1.
         11    1    3    3    0    0 -0.74073026819E+01  0.67183012750E+01 -0.20413906227E+02  0.22731723928E+02  0.51100000000E-03 0.  1.
<mgrwt>
<rscale>  0 0.20000371E+02</rscale>
<asrwt>0</asrwt>
<pdfrwt beam="1">  1        2 0.35647958E-03 0.20000371E+02</pdfrwt>
<pdfrwt beam="2">  1       -2 0.66397964E-02 0.20000371E+02</pdfrwt>
<totfact> 0.34585504E+06</totfact>
</mgrwt>
</event>
<event>
 5    1  0.4046313E-006  0.2000032E+02  0.7818608E-02  0.1745322E+00
         -2   -1    0    0    0  501 -0.00000000000E+00  0.00000000000E+00  0.85031867055E+02  0.85031867095E+02  0.26000000000E-02 0.  1.
          2   -1    0    0  501    0  0.00000000000E+00 -0.00000000000E+00 -0.11760653808E+01  0.11760682548E+01  0.26000000000E-02 0. -1.
       1023    2    1    2    0    0  0.00000000000E+00  0.00000000000E+00  0.83855801674E+02  0.86207935349E+02  0.20000316068E+02 0.  0.
        -11    1    3    3    0    0 -0.42628933493E+01 -0.90459688080E+01  0.42086217172E+02  0.43257964440E+02  0.51100000000E-03 0.  1.
         11    1    3    3    0    0  0.42628933493E+01  0.90459688080E+01  0.41769584501E+02  0.42949970909E+02  0.51100000000E-03 0. -1.
<mgrwt>
<rscale>  0 0.20000316E+02</rscale>
<asrwt>0</asrwt>
<pdfrwt beam="2">  1        2 0.18093336E-03 0.20000316E+02</pdfrwt>
<pdfrwt beam="1">  1       -2 0.13081826E-01 0.20000316E+02</pdfrwt>
<totfact> 0.30858268E+06</totfact>
</mgrwt>
</event>
<event>
 5    1  0.4046313E-006  0.2000285E+02  0.7818608E-02  0.1745271E+00
         -2   -1    0    0    0  501 -0.00000000000E+00  0.00000000000E+00  0.51582363127E+02  0.51582363192E+02  0.26000000000E-02 0.  1.
          2   -1    0    0  501    0  0.00000000000E+00 -0.00000000000E+00 -0.19391989943E+01  0.19392007373E+01  0.26000000000E-02 0. -1.
       1023    2    1    2    0    0  0.00000000000E+00  0.00000000000E+00  0.49643164133E+02  0.53521563930E+02  0.20002851306E+02 0.  0.
        -11    1    3    3    0    0 -0.99724324278E+01  0.75603166288E+00  0.24589513638E+02  0.26545530200E+02  0.51100000000E-03 0.  1.
         11    1    3    3    0    0  0.99724324278E+01 -0.75603166288E+00  0.25053650495E+02  0.26976033729E+02  0.51100000000E-03 0. -1.
<mgrwt>
<rscale>  0 0.20002851E+02</rscale>
<asrwt>0</asrwt>
<pdfrwt beam="2">  1        2 0.29833850E-03 0.20002851E+02</pdfrwt>
<pdfrwt beam="1">  1       -2 0.79357468E-02 0.20002851E+02</pdfrwt>
<totfact> 0.33734795E+06</totfact>
</mgrwt>
</event>
<event>
 5    1  0.4046313E-006  0.2001207E+02  0.7818608E-02  0.1745088E+00
          2   -1    0    0  501    0  0.00000000000E+00  0.00000000000E+00  0.65908116018E+01  0.65908121146E+01  0.26000000000E-02 0. -1.
         -2   -1    0    0    0  501 -0.00000000000E+00 -0.00000000000E+00 -0.15190951571E+02  0.15190951794E+02  0.26000000000E-02 0.  1.
       1023    2    1    2    0    0  0.00000000000E+00  0.00000000000E+00 -0.86001399697E+01  0.21781763909E+02  0.20012067146E+02 0.  0.
        -11    1    3    3    0    0  0.74135985027E+01 -0.67174325019E+01 -0.40953828367E+01  0.10810064894E+02  0.51100000000E-03 0. -1.
         11    1    3    3    0    0 -0.74135985027E+01  0.67174325019E+01 -0.45047571330E+01  0.10971699014E+02  0.51100000000E-03 0.  1.
<mgrwt>
<rscale>  0 0.20012067E+02</rscale>
<asrwt>0</asrwt>
<pdfrwt beam="1">  1        2 0.10139711E-02 0.20012067E+02</pdfrwt>
<pdfrwt beam="2">  1       -2 0.23370695E-02 0.20012067E+02</pdfrwt>
<totfact> 0.38210967E+06</totfact>
</mgrwt>
</event>
<event>
 5    1  0.4046313E-006  0.2000120E+02  0.7818608E-02  0.1745304E+00
         -2   -1    0    0    0  501 -0.00000000000E+00  0.00000000000E+00  0.20929821279E+01  0.20929837428E+01  0.26000000000E-02 0. -1.
          2   -1    0    0  501    0  0.00000000000E+00 -0.00000000000E+00 -0.47784423161E+02  0.47784423232E+02  0.26000000000E-02 0.  1.
       1023    2    1    2    0    0  0.00000000000E+00  0.00000000000E+00 -0.45691441033E+02  0.49877406975E+02  0.20001198535E+02 0.  0.
        -11    1    3    3    0    0  0.91718619475E+01  0.39860716549E+01 -0.22813530883E+02  0.24909215372E+02  0.51100000000E-03 0. -1.
         11    1    3    3    0    0 -0.91718619475E+01 -0.39860716549E+01 -0.22877910150E+02  0.24968191603E+02  0.51100000000E-03 0.  1.
<mgrwt>
<rscale>  0 0.20001199E+02</rscale>
<asrwt>0</asrwt>
<pdfrwt beam="2">  1        2 0.73514490E-02 0.20001199E+02</pdfrwt>
<pdfrwt beam="1">  1       -2 0.32199742E-03 0.20001199E+02</pdfrwt>
<totfact> 0.46010820E+06</totfact>
</mgrwt>
</event>
<event>
 5    1  0.4046313E-006  0.2000036E+02  0.7818608E-02  0.1745321E+00
         -2   -1    0    0    0  501 -0.00000000000E+00  0.00000000000E+00  0.21928379056E+01  0.21928394470E+01  0.26000000000E-02 0.  1.
          2   -1    0    0  501    0  0.00000000000E+00 -0.00000000000E+00 -0.45604642927E+02  0.45604643001E+02  0.26000000000E-02 0. -1.
       1023    2    1    2    0    0  0.00000000000E+00  0.00000000000E+00 -0.43411805021E+02  0.47797482448E+02  0.20000362825E+02 0.  0.
        -11    1    3    3    0    0  0.95141383634E+01  0.30797361056E+01 -0.21694013325E+02  0.23887942935E+02  0.51100000000E-03 0. -1.
         11    1    3    3    0    0 -0.95141383634E+01 -0.30797361056E+01 -0.21717791696E+02  0.23909539512E+02  0.51100000000E-03 0.  1.
<mgrwt>
<rscale>  0 0.20000363E+02</rscale>
<asrwt>0</asrwt>
<pdfrwt beam="2">  1        2 0.70160983E-02 0.20000363E+02</pdfrwt>
<pdfrwt beam="1">  1       -2 0.33735984E-03 0.20000363E+02</pdfrwt>
<totfact> 0.45705841E+06</totfact>
</mgrwt>
</event>
<event>
 4    1  0.4046313E-006  0.2001353E+02  0.7818608E-02  0.1745059E+00
         -2   -1    0    0    0  501 -0.00000000000E+00  0.00000000000E+00  0.47760829358E+01  0.47760836435E+01  0.26000000000E-02 0. -1.
          2   -1    0    0  501    0  0.00000000000E+00 -0.00000000000E+00 -0.20965991461E+02  0.20965991622E+02  0.26000000000E-02 0.  1.
        -11    1    1    2    0    0 -0.95466898009E+01  0.29959167520E+01 -0.79106964751E+01  0.12755152775E+02  0.51100000000E-03 0.  1.
         11    1    1    2    0    0  0.95466898009E+01 -0.29959167520E+01 -0.82792120498E+01  0.12986922490E+02  0.51100000000E-03 0. -1.
<mgrwt>
<rscale>  0 0.20013528E+02</rscale>
<asrwt>0</asrwt>
<pdfrwt beam="2">  1        2 0.32255372E-02 0.20013528E+02</pdfrwt>
<pdfrwt beam="1">  1       -2 0.73478207E-03 0.20013528E+02</pdfrwt>
<totfact> 0.41790448E+06</totfact>
</mgrwt>
</event>
<event>
 5    1  0.4053861E-006  0.2000157E+02  0.7818608E-02  0.1745297E+00
          2   -1    0    0  501    0  0.00000000000E+00  0.00000000000E+00  0.47618059296E+02  0.47618059367E+02  0.26000000000E-02 0. -1.
         -2   -1    0    0    0  501 -0.00000000000E+00 -0.00000000000E+00 -0.21003715076E+01  0.21003731168E+01  0.26000000000E-02 0.  1.
       1023    2    1    2    0    0  0.00000000000E+00  0.00000000000E+00  0.45517687788E+02  0.49718432483E+02  0.20001565615E+02 0.  0.
        -11    1    3    3    0    0  0.39098939573E+01 -0.92047634726E+01  0.22825318188E+02  0.24920074076E+02  0.51100000000E-03 0. -1.
         11    1    3    3    0    0 -0.39098939573E+01  0.92047634726E+01  0.22692369600E+02  0.24798358407E+02  0.51100000000E-03 0.  1.
<mgrwt>
<rscale>  0 0.20001566E+02</rscale>
<asrwt>0</asrwt>
<pdfrwt beam="1">  1        2 0.73258557E-02 0.20001566E+02</pdfrwt>
<pdfrwt beam="2">  1       -2 0.32313419E-03 0.20001566E+02</pdfrwt>
<totfact> 0.45985452E+06</totfact>
</mgrwt>
</event>
<event>
 4    1  0.4046313E-006  0.2009423E+02  0.7818608E-02  0.1743461E+00
          2   -1    0    0  501    0  0.00000000000E+00  0.00000000000E+00  0.34413069707E+01  0.34413079529E+01  0.26000000000E-02 0.  1.
         -2   -1    0    0    0  501 -0.00000000000E+00 -0.00000000000E+00 -0.29333189518E+02  0.29333189633E+02  0.26000000000E-02 0. -1.
        -11    1    1    2    0    0 -0.83485082149E+01 -0.55189971523E+01 -0.14393445365E+02  0.17530778326E+02  0.51100000000E-03 0. -1.
         11    1    1    2    0    0  0.83485082149E+01  0.55189971523E+01 -0.11498437182E+02  0.15243719259E+02  0.51100000000E-03 0.  1.
<mgrwt>
<rscale>  0 0.20094231E+02</rscale>
<asrwt>0</asrwt>
<pdfrwt beam="1">  1        2 0.52943195E-03 0.20094231E+02</pdfrwt>
<pdfrwt beam="2">  1       -2 0.45127983E-02 0.20094231E+02</pdfrwt>
<totfact> 0.35778339E+06</totfact>
</mgrwt>
</event>
<event>
 5    1  0.4046313E-006  0.2001081E+02  0.7818608E-02  0.1745113E+00
          2   -1    0    0  501    0  0.00000000000E+00  0.00000000000E+00  0.63791830525E+01  0.63791835824E+01  0.26000000000E-02 0. -1.
         -2   -1    0    0    0  501 -0.00000000000E+00 -0.00000000000E+00 -0.15692943982E+02  0.15692944197E+02  0.26000000000E-02 0.  1.
       1023    2    1    2    0    0  0.00000000000E+00  0.00000000000E+00 -0.93137609294E+01  0.22072127780E+02  0.20010814128E+02 0.  0.
        -11    1    3    3    0    0  0.55857279372E+01 -0.82957318648E+01 -0.43284751084E+01  0.10897486902E+02  0.51100000000E-03 0. -1.
         11    1    3    3    0    0 -0.55857279372E+01  0.82957318648E+01 -0.49852858210E+01  0.11174640877E+02  0.51100000000E-03 0.  1.
<mgrwt>
<rscale>  0 0.20010814E+02</rscale>
<asrwt>0</asrwt>
<pdfrwt beam="1">  1        2 0.98141284E-03 0.20010814E+02</pdfrwt>
<pdfrwt beam="2">  1       -2 0.24142991E-02 0.20010814E+02</pdfrwt>
<totfact> 0.38121133E+06</totfact>
</mgrwt>
</event>
<event>
 5    1  0.4046313E-006  0.2000051E+02  0.7818608E-02  0.1745318E+00
          2   -1    0    0  501    0  0.00000000000E+00  0.00000000000E+00  0.21119743905E+01  0.21119759909E+01  0.26000000000E-02 0. -1.
         -2   -1    0    0    0  501 -0.00000000000E+00 -0.00000000000E+00 -0.47351436259E+02  0.47351436330E+02  0.26000000000E-02 0.  1.
       1023    2    1    2    0    0  0.00000000000E+00  0.00000000000E+00 -0.45239461868E+02  0.49463412321E+02  0.20000506202E+02 0.  0.
        -11    1    3    3    0    0  0.79880628834E+01 -0.60162585432E+01 -0.22677536671E+02  0.24784575550E+02  0.51100000000E-03 0.  1.
         11    1    3    3    0    0 -0.79880628834E+01  0.60162585432E+01 -0.22561925197E+02  0.24678836771E+02  0.51100000000E-03 0. -1.
<mgrwt>
<rscale>  0 0.20000506E+02</rscale>
<asrwt>0</asrwt>
<pdfrwt beam="1">  1        2 0.32491930E-03 0.20000506E+02</pdfrwt>
<pdfrwt beam="2">  1       -2 0.72848357E-02 0.20000506E+02</pdfrwt>
<totfact> 0.34158148E+06</totfact>
</mgrwt>
</event>
<event>
 5    1  0.4046313E-006  0.2000784E+02  0.7818608E-02  0.1745172E+00
          2   -1    0    0  501    0  0.00000000000E+00  0.00000000000E+00  0.36497454144E+01  0.36497463405E+01  0.26000000000E-02 0. -1.
         -2   -1    0    0    0  501 -0.00000000000E+00 -0.00000000000E+00 -0.27420661567E+02  0.27420661690E+02  0.26000000000E-02 0.  1.
       1023    2    1    2    0    0  0.00000000000E+00  0.00000000000E+00 -0.23770916153E+02  0.31070408031E+02  0.20007843474E+02 0.  0.
        -11    1    3    3    0    0 -0.32001966964E+01  0.94767898345E+01 -0.12143659163E+02  0.15732744916E+02  0.51100000000E-03 0.  1.
         11    1    3    3    0    0  0.32001966964E+01 -0.94767898345E+01 -0.11627256989E+02  0.15337663115E+02  0.51100000000E-03 0. -1.
<mgrwt>
<rscale>  0 0.20007843E+02</rscale>
<asrwt>0</asrwt>
<pdfrwt beam="1">  1        2 0.56149939E-03 0.20007843E+02</pdfrwt>
<pdfrwt beam="2">  1       -2 0.42185633E-02 0.20007843E+02</pdfrwt>
<totfact> 0.36358038E+06</totfact>
</mgrwt>
</event>
<event>
 5    1  0.4046313E-006  0.2000005E+02  0.7818608E-02  0.1745327E+00
         -2   -1    0    0    0  501 -0.00000000000E+00  0.00000000000E+00  0.74776465307E+02  0.74776465352E+02  0.26000000000E-02 0.  1.
          2   -1    0    0  501    0  0.00000000000E+00 -0.00000000000E+00 -0.13373238914E+01  0.13373264188E+01  0.26000000000E-02 0. -1.
       1023    2    1    2    0    0  0.00000000000E+00  0.00000000000E+00  0.73439141415E+02  0.76113791771E+02  0.20000045148E+02 0.  0.
        -11    1    3    3    0    0 -0.30540961887E+01 -0.95222234450E+01  0.36774503014E+02  0.38109897862E+02  0.51100000000E-03 0. -1.
         11    1    3    3    0    0  0.30540961887E+01  0.95222234450E+01  0.36664638401E+02  0.38003893909E+02  0.51100000000E-03 0.  1.
<mgrwt>
<rscale>  0 0.20000045E+02</rscale>
<asrwt>0</asrwt>
<pdfrwt beam="2">  1        2 0.20574231E-03 0.20000045E+02</pdfrwt>
<pdfrwt beam="1">  1       -2 0.11504073E-01 0.20000045E+02</pdfrwt>
<totfact> 0.31682927E+06</totfact>
</mgrwt>
</event>
<event>
 5    1  0.4046313E-006  0.2000447E+02  0.7818608E-02  0.1745239E+00
          2   -1    0    0  501    0  0.00000000000E+00  0.00000000000E+00  0.20140908921E+02  0.20140909088E+02  0.26000000000E-02 0.  1.
         -2   -1    0    0    0  501 -0.00000000000E+00 -0.00000000000E+00 -0.49672368387E+01  0.49672375192E+01  0.26000000000E-02 0. -1.
       1023    2    1    2    0    0  0.00000000000E+00  0.00000000000E+00  0.15173672082E+02  0.25108146608E+02  0.20004467042E+02 0.  0.
        -11    1    3    3    0    0  0.37017010314E+01  0.92919706169E+01  0.76332362706E+01  0.12582114476E+02  0.51100000000E-03 0. -1.
         11    1    3    3    0    0 -0.37017010314E+01 -0.92919706169E+01  0.75404358114E+01  0.12526032131E+02  0.51100000000E-03 0.  1.
<mgrwt>
<rscale>  0 0.20004467E+02</rscale>
<asrwt>0</asrwt>
<pdfrwt beam="1">  1        2 0.30986015E-02 0.20004467E+02</pdfrwt>
<pdfrwt beam="2">  1       -2 0.76419034E-03 0.20004467E+02</pdfrwt>
<totfact> 0.41682927E+06</totfact>
</mgrwt>
</event>
<event>
 5    1  0.4046313E-006  0.2000127E+02  0.7818608E-02  0.1745303E+00
          2   -1    0    0  501    0  0.00000000000E+00  0.00000000000E+00  0.21017939190E+02  0.21017939351E+02  0.26000000000E-02 0. -1.
         -2   -1    0    0    0  501 -0.00000000000E+00 -0.00000000000E+00 -0.47584453747E+01  0.47584460850E+01  0.26000000000E-02 0.  1.
       1023    2    1    2    0    0  0.00000000000E+00  0.00000000000E+00  0.16259493815E+02  0.25776385436E+02  0.20001272635E+02 0.  0.
        -11    1    3    3    0    0 -0.96598087724E+01 -0.25872870105E+01  0.80237339016E+01  0.12821320742E+02  0.51100000000E-03 0.  1.
         11    1    3    3    0    0  0.96598087724E+01  0.25872870105E+01  0.82357599138E+01  0.12955064694E+02  0.51100000000E-03 0. -1.
<mgrwt>
<rscale>  0 0.20001273E+02</rscale>
<asrwt>0</asrwt>
<pdfrwt beam="1">  1        2 0.32335293E-02 0.20001273E+02</pdfrwt>
<pdfrwt beam="2">  1       -2 0.73206856E-03 0.20001273E+02</pdfrwt>
<totfact> 0.41857519E+06</totfact>
</mgrwt>
</event>
<event>
 5    1  0.4046313E-006  0.2000152E+02  0.7818608E-02  0.1745298E+00
          2   -1    0    0  501    0  0.00000000000E+00  0.00000000000E+00  0.49635684282E+02  0.49635684350E+02  0.26000000000E-02 0. -1.
         -2   -1    0    0    0  501 -0.00000000000E+00 -0.00000000000E+00 -0.20149857390E+01  0.20149874164E+01  0.26000000000E-02 0.  1.
       1023    2    1    2    0    0  0.00000000000E+00  0.00000000000E+00  0.47620698543E+02  0.51650671767E+02  0.20001524047E+02 0.  0.
        -11    1    3    3    0    0  0.79008937158E+01 -0.61310875004E+01  0.23733512484E+02  0.25754494181E+02  0.51100000000E-03 0. -1.
         11    1    3    3    0    0 -0.79008937158E+01  0.61310875004E+01  0.23887186059E+02  0.25896177585E+02  0.51100000000E-03 0.  1.
<mgrwt>
<rscale>  0 0.20001524E+02</rscale>
<asrwt>0</asrwt>
<pdfrwt beam="1">  1        2 0.76362588E-02 0.20001524E+02</pdfrwt>
<pdfrwt beam="2">  1       -2 0.30999796E-03 0.20001524E+02</pdfrwt>
<totfact> 0.46269307E+06</totfact>
</mgrwt>
</event>
<event>
 5    1  0.4046313E-006  0.2000018E+02  0.7818608E-02  0.1745325E+00
         -2   -1    0    0    0  501 -0.00000000000E+00  0.00000000000E+00  0.18946190509E+02  0.18946190688E+02  0.26000000000E-02 0. -1.
          2   -1    0    0  501    0  0.00000000000E+00 -0.00000000000E+00 -0.52781984375E+01  0.52781990779E+01  0.26000000000E-02 0.  1.
       1023    2    1    2    0    0  0.00000000000E+00  0.00000000000E+00  0.13667992072E+02  0.24224389766E+02  0.20000176305E+02 0.  0.
        -11    1    3    3    0    0  0.81909099185E+01 -0.57367894551E+01  0.68364942312E+01  0.12113604426E+02  0.51100000000E-03 0. -1.
         11    1    3    3    0    0 -0.81909099185E+01  0.57367894551E+01  0.68314978407E+01  0.12110785340E+02  0.51100000000E-03 0.  1.
<mgrwt>
<rscale>  0 0.20000176E+02</rscale>
<asrwt>0</asrwt>
<pdfrwt beam="2">  1        2 0.81203060E-03 0.20000176E+02</pdfrwt>
<pdfrwt beam="1">  1       -2 0.29147986E-02 0.20000176E+02</pdfrwt>
<totfact> 0.37600769E+06</totfact>
</mgrwt>
</event>
<event>
 5    1  0.4046313E-006  0.2000285E+02  0.7818608E-02  0.1745271E+00
          2   -1    0    0  501    0  0.00000000000E+00  0.00000000000E+00  0.92250813154E+02  0.92250813191E+02  0.26000000000E-02 0. -1.
         -2   -1    0    0    0  501 -0.00000000000E+00 -0.00000000000E+00 -0.10843085307E+01  0.10843116479E+01  0.26000000000E-02 0.  1.
       1023    2    1    2    0    0  0.00000000000E+00  0.00000000000E+00  0.91166504624E+02  0.93335124839E+02  0.20002848882E+02 0.  0.
        -11    1    3    3    0    0 -0.60623395085E+01  0.79533393206E+01  0.44908297329E+02  0.46008289861E+02  0.51100000000E-03 0.  1.
         11    1    3    3    0    0  0.60623395085E+01 -0.79533393206E+01  0.46258207295E+02  0.47326834978E+02  0.51100000000E-03 0. -1.
<mgrwt>
<rscale>  0 0.20002849E+02</rscale>
<asrwt>0</asrwt>
<pdfrwt beam="1">  1        2 0.14192439E-01 0.20002849E+02</pdfrwt>
<pdfrwt beam="2">  1       -2 0.16681687E-03 0.20002849E+02</pdfrwt>
<totfact> 0.51804293E+06</totfact>
</mgrwt>
</event>
<event>
 5    1  0.4046313E-006  0.2000029E+02  0.7818608E-02  0.1745322E+00
         -2   -1    0    0    0  501 -0.00000000000E+00  0.00000000000E+00  0.18893400238E+02  0.18893400417E+02  0.26000000000E-02 0.  1.
          2   -1    0    0  501    0  0.00000000000E+00 -0.00000000000E+00 -0.52930049837E+01  0.52930056223E+01  0.26000000000E-02 0. -1.
       1023    2    1    2    0    0  0.00000000000E+00  0.00000000000E+00  0.13600395254E+02  0.24186406039E+02  0.20000287148E+02 0.  0.
        -11    1    3    3    0    0 -0.99557507534E+01  0.94035820869E+00  0.68489404429E+01  0.12120611869E+02  0.51100000000E-03 0. -1.
         11    1    3    3    0    0  0.99557507534E+01 -0.94035820869E+00  0.67514548111E+01  0.12065794170E+02  0.51100000000E-03 0.  1.
<mgrwt>
<rscale>  0 0.20000287E+02</rscale>
<asrwt>0</asrwt>
<pdfrwt beam="2">  1        2 0.81430850E-03 0.20000287E+02</pdfrwt>
<pdfrwt beam="1">  1       -2 0.29066771E-02 0.20000287E+02</pdfrwt>
<totfact> 0.37608872E+06</totfact>
</mgrwt>
</event>
<event>
 5    1  0.4046313E-006  0.2000233E+02  0.7818608E-02  0.1745282E+00
          2   -1    0    0  501    0  0.00000000000E+00  0.00000000000E+00  0.91135112602E+02  0.91135112639E+02  0.26000000000E-02 0. -1.
         -2   -1    0    0    0  501 -0.00000000000E+00 -0.00000000000E+00 -0.10975258271E+01  0.10975289068E+01  0.26000000000E-02 0.  1.
       1023    2    1    2    0    0  0.00000000000E+00  0.00000000000E+00  0.90037586775E+02  0.92232641546E+02  0.20002328222E+02 0.  0.
        -11    1    3    3    0    0  0.43743623880E+01  0.89926158108E+01  0.44349026617E+02  0.45462493855E+02  0.51100000000E-03 0. -1.
         11    1    3    3    0    0 -0.43743623880E+01 -0.89926158108E+01  0.45688560158E+02  0.46770147691E+02  0.51100000000E-03 0.  1.
<mgrwt>
<rscale>  0 0.20002328E+02</rscale>
<asrwt>0</asrwt>
<pdfrwt beam="1">  1        2 0.14020785E-01 0.20002328E+02</pdfrwt>
<pdfrwt beam="2">  1       -2 0.16885038E-03 0.20002328E+02</pdfrwt>
<totfact> 0.51670761E+06</totfact>
</mgrwt>
</event>
<event>
 5    1  0.4505986E-006  0.2000083E+02  0.7818608E-02  0.1745312E+00
         -2   -1    0    0    0  501 -0.00000000000E+00  0.00000000000E+00  0.12469197484E+02  0.12469197755E+02  0.26000000000E-02 0.  1.
          2   -1    0    0  501    0  0.00000000000E+00 -0.00000000000E+00 -0.80204275924E+01  0.80204280138E+01  0.26000000000E-02 0. -1.
       1023    2    1    2    0    0  0.00000000000E+00  0.00000000000E+00  0.44487698916E+01  0.20489625769E+02  0.20000830248E+02 0.  0.
        -11    1    3    3    0    0 -0.10000050375E+02  0.78509675877E-01  0.22588389638E+01  0.10252293646E+02  0.51100000000E-03 0. -1.
         11    1    3    3    0    0  0.10000050375E+02 -0.78509675877E-01  0.21899309277E+01  0.10237332123E+02  0.51100000000E-03 0.  1.
<mgrwt>
<rscale>  0 0.20000830E+02</rscale>
<asrwt>0</asrwt>
<pdfrwt beam="2">  1        2 0.12339120E-02 0.20000830E+02</pdfrwt>
<pdfrwt beam="1">  1       -2 0.19183381E-02 0.20000830E+02</pdfrwt>
<totfact> 0.38826656E+06</totfact>
</mgrwt>
</event>
<event>
 5    1  0.4046313E-006  0.2000082E+02  0.7818608E-02  0.1745312E+00
         -2   -1    0    0    0  501 -0.00000000000E+00  0.00000000000E+00  0.11783999943E+03  0.11783999946E+03  0.26000000000E-02 0.  1.
          2   -1    0    0  501    0  0.00000000000E+00 -0.00000000000E+00 -0.84867562263E+00  0.84867960529E+00  0.26000000000E-02 0. -1.
       1023    2    1    2    0    0  0.00000000000E+00  0.00000000000E+00  0.11699132381E+03  0.11868867907E+03  0.20000817277E+02 0.  0.
        -11    1    3    3    0    0 -0.68911907054E+01 -0.72466951191E+01  0.58072991117E+02  0.58927713319E+02  0.51100000000E-03 0.  1.
         11    1    3    3    0    0  0.68911907054E+01  0.72466951191E+01  0.58918332695E+02  0.59760965749E+02  0.51100000000E-03 0. -1.
<mgrwt>
<rscale>  0 0.20000817E+02</rscale>
<asrwt>0</asrwt>
<pdfrwt beam="2">  1        2 0.13056580E-03 0.20000817E+02</pdfrwt>
<pdfrwt beam="1">  1       -2 0.18129229E-01 0.20000817E+02</pdfrwt>
<totfact> 0.28482784E+06</totfact>
</mgrwt>
</event>
<event>
 5    1  0.4046313E-006  0.2000017E+02  0.7818608E-02  0.1745325E+00
         -2   -1    0    0    0  501 -0.00000000000E+00  0.00000000000E+00  0.11945461503E+01  0.11945489798E+01  0.26000000000E-02 0. -1.
          2   -1    0    0  501    0  0.00000000000E+00 -0.00000000000E+00 -0.83715143376E+02  0.83715143416E+02  0.26000000000E-02 0.  1.
       1023    2    1    2    0    0  0.00000000000E+00  0.00000000000E+00 -0.82520597226E+02  0.84909692396E+02  0.20000172407E+02 0.  0.
        -11    1    3    3    0    0 -0.86369184184E+01  0.50403261780E+01 -0.41167666776E+02  0.42364820734E+02  0.51100000000E-03 0.  1.
         11    1    3    3    0    0  0.86369184184E+01 -0.50403261780E+01 -0.41352930449E+02  0.42544871662E+02  0.51100000000E-03 0. -1.
<mgrwt>
<rscale>  0 0.20000172E+02</rscale>
<asrwt>0</asrwt>
<pdfrwt beam="2">  1        2 0.12879248E-01 0.20000172E+02</pdfrwt>
<pdfrwt beam="1">  1       -2 0.18377662E-03 0.20000172E+02</pdfrwt>
<totfact> 0.50764602E+06</totfact>
</mgrwt>
</event>
<event>
 5    1  0.4046313E-006  0.2000068E+02  0.7818608E-02  0.1745315E+00
         -2   -1    0    0    0  501 -0.00000000000E+00  0.00000000000E+00  0.11825325229E+03  0.11825325232E+03  0.26000000000E-02 0. -1.
          2   -1    0    0  501    0  0.00000000000E+00 -0.00000000000E+00 -0.84569826467E+00  0.84570226136E+00  0.26000000000E-02 0.  1.
       1023    2    1    2    0    0  0.00000000000E+00  0.00000000000E+00  0.11740755403E+03  0.11909895458E+03  0.20000680984E+02 0.  0.
        -11    1    3    3    0    0 -0.79435042393E+01 -0.60751489209E+01  0.58767824317E+02  0.59612615017E+02  0.51100000000E-03 0.  1.
         11    1    3    3    0    0  0.79435042393E+01  0.60751489209E+01  0.58639729710E+02  0.59486339564E+02  0.51100000000E-03 0. -1.
<mgrwt>
<rscale>  0 0.20000681E+02</rscale>
<asrwt>0</asrwt>
<pdfrwt beam="2">  1        2 0.13010772E-03 0.20000681E+02</pdfrwt>
<pdfrwt beam="1">  1       -2 0.18192811E-01 0.20000681E+02</pdfrwt>
<totfact> 0.28455513E+06</totfact>
</mgrwt>
</event>
<event>
 5    1  0.4046313E-006  0.2000341E+02  0.7818608E-02  0.1745260E+00
          2   -1    0    0  501    0  0.00000000000E+00  0.00000000000E+00  0.58292292193E+01  0.58292297992E+01  0.26000000000E-02 0. -1.
         -2   -1    0    0    0  501 -0.00000000000E+00 -0.00000000000E+00 -0.17160782834E+02  0.17160783031E+02  0.26000000000E-02 0.  1.
       1023    2    1    2    0    0  0.00000000000E+00  0.00000000000E+00 -0.11331553615E+02  0.22990012830E+02  0.20003414274E+02 0.  0.
        -11    1    3    3    0    0  0.99148837210E+01  0.13033428517E+01 -0.58665718422E+01  0.11593976334E+02  0.51100000000E-03 0. -1.
         11    1    3    3    0    0 -0.99148837210E+01 -0.13033428517E+01 -0.54649817727E+01  0.11396036496E+02  0.51100000000E-03 0.  1.
<mgrwt>
<rscale>  0 0.20003414E+02</rscale>
<asrwt>0</asrwt>
<pdfrwt beam="1">  1        2 0.89680456E-03 0.20003414E+02</pdfrwt>
<pdfrwt beam="2">  1       -2 0.26401205E-02 0.20003414E+02</pdfrwt>
<totfact> 0.37887032E+06</totfact>
</mgrwt>
</event>
<event>
 4    1  0.4046313E-006  0.2001734E+02  0.7818608E-02  0.1744984E+00
          2   -1    0    0  501    0  0.00000000000E+00  0.00000000000E+00  0.27444583794E+01  0.27444596110E+01  0.26000000000E-02 0.  1.
         -2   -1    0    0    0  501 -0.00000000000E+00 -0.00000000000E+00 -0.36500254986E+02  0.36500255079E+02  0.26000000000E-02 0. -1.
        -11    1    1    2    0    0  0.20713032391E+01  0.97877848830E+01 -0.17440768004E+02  0.20106501905E+02  0.51100000000E-03 0. -1.
         11    1    1    2    0    0 -0.20713032391E+01 -0.97877848830E+01 -0.16315028603E+02  0.19138212785E+02  0.51100000000E-03 0.  1.
<mgrwt>
<rscale>  0 0.20017338E+02</rscale>
<asrwt>0</asrwt>
<pdfrwt beam="1">  1        2 0.42222449E-03 0.20017338E+02</pdfrwt>
<pdfrwt beam="2">  1       -2 0.56154236E-02 0.20017338E+02</pdfrwt>
<totfact> 0.35236867E+06</totfact>
</mgrwt>
</event>
<event>
 5    1  0.4046313E-006  0.2000073E+02  0.7818608E-02  0.1745314E+00
          2   -1    0    0  501    0  0.00000000000E+00  0.00000000000E+00  0.25481813301E+01  0.25481826565E+01  0.26000000000E-02 0. -1.
         -2   -1    0    0    0  501 -0.00000000000E+00 -0.00000000000E+00 -0.39246534253E+02  0.39246534339E+02  0.26000000000E-02 0.  1.
       1023    2    1    2    0    0  0.00000000000E+00  0.00000000000E+00 -0.36698352923E+02  0.41794716996E+02  0.20000731524E+02 0.  0.
        -11    1    3    3    0    0 -0.38719667299E+00 -0.99927861374E+01 -0.18433259213E+02  0.20971188367E+02  0.51100000000E-03 0. -1.
         11    1    3    3    0    0  0.38719667299E+00  0.99927861374E+01 -0.18265093710E+02  0.20823528629E+02  0.51100000000E-03 0.  1.
<mgrwt>
<rscale>  0 0.20000732E+02</rscale>
<asrwt>0</asrwt>
<pdfrwt beam="1">  1        2 0.39202803E-03 0.20000732E+02</pdfrwt>
<pdfrwt beam="2">  1       -2 0.60379280E-02 0.20000732E+02</pdfrwt>
<totfact> 0.34998890E+06</totfact>
</mgrwt>
</event>
<event>
 5    1  0.4046313E-006  0.2000172E+02  0.7818608E-02  0.1745294E+00
         -2   -1    0    0    0  501 -0.00000000000E+00  0.00000000000E+00  0.10386205579E+03  0.10386205582E+03  0.26000000000E-02 0. -1.
          2   -1    0    0  501    0  0.00000000000E+00 -0.00000000000E+00 -0.96297914603E+00  0.96298265596E+00  0.26000000000E-02 0.  1.
       1023    2    1    2    0    0  0.00000000000E+00  0.00000000000E+00  0.10289907664E+03  0.10482503847E+03  0.20001717872E+02 0.  0.
        -11    1    3    3    0    0  0.47626229732E+01  0.87938024882E+01  0.51765702843E+02  0.52722874835E+02  0.51100000000E-03 0. -1.
         11    1    3    3    0    0 -0.47626229732E+01 -0.87938024882E+01  0.51133373797E+02  0.52102163640E+02  0.51100000000E-03 0.  1.
<mgrwt>
<rscale>  0 0.20001718E+02</rscale>
<asrwt>0</asrwt>
<pdfrwt beam="2">  1        2 0.14815092E-03 0.20001718E+02</pdfrwt>
<pdfrwt beam="1">  1       -2 0.15978777E-01 0.20001718E+02</pdfrwt>
<totfact> 0.29447133E+06</totfact>
</mgrwt>
</event>
<event>
 5    1  0.4046313E-006  0.2000347E+02  0.7818608E-02  0.1745259E+00
          2   -1    0    0  501    0  0.00000000000E+00  0.00000000000E+00  0.55747535083E+01  0.55747541146E+01  0.26000000000E-02 0.  1.
         -2   -1    0    0    0  501 -0.00000000000E+00 -0.00000000000E+00 -0.17944233821E+02  0.17944234009E+02  0.26000000000E-02 0. -1.
       1023    2    1    2    0    0  0.00000000000E+00  0.00000000000E+00 -0.12369480312E+02  0.23518988124E+02  0.20003468678E+02 0.  0.
        -11    1    3    3    0    0 -0.97944393247E+01  0.20250177718E+01 -0.61208714179E+01  0.11725903199E+02  0.51100000000E-03 0.  1.
         11    1    3    3    0    0  0.97944393247E+01 -0.20250177718E+01 -0.62486088946E+01  0.11793084925E+02  0.51100000000E-03 0. -1.
<mgrwt>
<rscale>  0 0.20003469E+02</rscale>
<asrwt>0</asrwt>
<pdfrwt beam="1">  1        2 0.85765446E-03 0.20003469E+02</pdfrwt>
<pdfrwt beam="2">  1       -2 0.27606514E-02 0.20003469E+02</pdfrwt>
<totfact> 0.37752699E+06</totfact>
</mgrwt>
</event>
<event>
 4    1  0.4046313E-006  0.2002729E+02  0.7818608E-02  0.1744786E+00
          2   -1    0    0  501    0  0.00000000000E+00  0.00000000000E+00  0.10722537176E+03  0.10722537180E+03  0.26000000000E-02 0.  1.
         -2   -1    0    0    0  501 -0.00000000000E+00 -0.00000000000E+00 -0.93516036355E+00  0.93516397789E+00  0.26000000000E-02 0. -1.
        -11    1    1    2    0    0 -0.98667003901E+01 -0.17089702652E+01  0.53293853750E+02  0.54226443768E+02  0.51100000000E-03 0.  1.
         11    1    1    2    0    0  0.98667003901E+01  0.17089702652E+01  0.52996357651E+02  0.53934092006E+02  0.51100000000E-03 0. -1.
<mgrwt>
<rscale>  0 0.20027293E+02</rscale>
<asrwt>0</asrwt>
<pdfrwt beam="1">  1        2 0.16496201E-01 0.20027293E+02</pdfrwt>
<pdfrwt beam="2">  1       -2 0.14387119E-03 0.20027293E+02</pdfrwt>
<totfact> 0.53453856E+06</totfact>
</mgrwt>
</event>
<event>
 5    1  0.4046313E-006  0.2000094E+02  0.7818608E-02  0.1745309E+00
          2   -1    0    0  501    0  0.00000000000E+00  0.00000000000E+00  0.56451463376E+01  0.56451469363E+01  0.26000000000E-02 0.  1.
         -2   -1    0    0    0  501 -0.00000000000E+00 -0.00000000000E+00 -0.17716003993E+02  0.17716004184E+02  0.26000000000E-02 0. -1.
       1023    2    1    2    0    0  0.00000000000E+00  0.00000000000E+00 -0.12070857656E+02  0.23361151121E+02  0.20000944406E+02 0.  0.
        -11    1    3    3    0    0  0.98029959779E+01  0.19754924969E+01 -0.61408294638E+01  0.11735036750E+02  0.51100000000E-03 0.  1.
         11    1    3    3    0    0 -0.98029959779E+01 -0.19754924969E+01 -0.59300281921E+01  0.11626114371E+02  0.51100000000E-03 0. -1.
<mgrwt>
<rscale>  0 0.20000944E+02</rscale>
<asrwt>0</asrwt>
<pdfrwt beam="1">  1        2 0.86848412E-03 0.20000944E+02</pdfrwt>
<pdfrwt beam="2">  1       -2 0.27255391E-02 0.20000944E+02</pdfrwt>
<totfact> 0.37801635E+06</totfact>
</mgrwt>
</event>
<event>
 5    1  0.4046313E-006  0.2000183E+02  0.7818608E-02  0.1745292E+00
          2   -1    0    0  501    0  0.00000000000E+00  0.00000000000E+00  0.34139367510E+02  0.34139367609E+02  0.26000000000E-02 0.  1.
         -2   -1    0    0    0  501 -0.00000000000E+00 -0.00000000000E+00 -0.29297043155E+01  0.29297054692E+01  0.26000000000E-02 0. -1.
       1023    2    1    2    0    0  0.00000000000E+00  0.00000000000E+00  0.31209663194E+02  0.37069073078E+02  0.20001827470E+02 0.  0.
        -11    1    3    3    0    0  0.53044018230E+01 -0.84780830874E+01  0.15717619462E+02  0.18629496326E+02  0.51100000000E-03 0.  1.
         11    1    3    3    0    0 -0.53044018230E+01  0.84780830874E+01  0.15492043732E+02  0.18439576752E+02  0.51100000000E-03 0. -1.
<mgrwt>
<rscale>  0 0.20001827E+02</rscale>
<asrwt>0</asrwt>
<pdfrwt beam="1">  1        2 0.52522106E-02 0.20001827E+02</pdfrwt>
<pdfrwt beam="2">  1       -2 0.45072383E-03 0.20001827E+02</pdfrwt>
<totfact> 0.44008797E+06</totfact>
</mgrwt>
</event>
<event>
 5    1  0.4046313E-006  0.2000077E+02  0.7818608E-02  0.1745313E+00
          2   -1    0    0  501    0  0.00000000000E+00  0.00000000000E+00  0.36851792784E+01  0.36851801956E+01  0.26000000000E-02 0. -1.
         -2   -1    0    0    0  501 -0.00000000000E+00 -0.00000000000E+00 -0.27137813097E+02  0.27137813221E+02  0.26000000000E-02 0.  1.
       1023    2    1    2    0    0  0.00000000000E+00  0.00000000000E+00 -0.23452633818E+02  0.30822993417E+02  0.20000772239E+02 0.  0.
        -11    1    3    3    0    0  0.91256592179E+01  0.40896431131E+01 -0.11618602270E+02  0.15329538673E+02  0.51100000000E-03 0. -1.
         11    1    3    3    0    0 -0.91256592179E+01 -0.40896431131E+01 -0.11834031548E+02  0.15493454743E+02  0.51100000000E-03 0.  1.
<mgrwt>
<rscale>  0 0.20000772E+02</rscale>
<asrwt>0</asrwt>
<pdfrwt beam="1">  1        2 0.56695076E-03 0.20000772E+02</pdfrwt>
<pdfrwt beam="2">  1       -2 0.41750481E-02 0.20000772E+02</pdfrwt>
<totfact> 0.36422582E+06</totfact>
</mgrwt>
</event>
<event>
 5    1  0.4046313E-006  0.2000009E+02  0.7818608E-02  0.1745326E+00
         -2   -1    0    0    0  501 -0.00000000000E+00  0.00000000000E+00  0.16235083033E+01  0.16235103853E+01  0.26000000000E-02 0. -1.
          2   -1    0    0  501    0  0.00000000000E+00 -0.00000000000E+00 -0.61595507071E+02  0.61595507126E+02  0.26000000000E-02 0.  1.
       1023    2    1    2    0    0  0.00000000000E+00  0.00000000000E+00 -0.59971998768E+02  0.63219017511E+02  0.20000088472E+02 0.  0.
        -11    1    3    3    0    0 -0.31864980879E+01 -0.94787639480E+01 -0.30024507707E+02  0.31646039236E+02  0.51100000000E-03 0. -1.
         11    1    3    3    0    0  0.31864980879E+01  0.94787639480E+01 -0.29947491061E+02  0.31572978275E+02  0.51100000000E-03 0.  1.
<mgrwt>
<rscale>  0 0.20000088E+02</rscale>
<asrwt>0</asrwt>
<pdfrwt beam="2">  1        2 0.94762302E-02 0.20000088E+02</pdfrwt>
<pdfrwt beam="1">  1       -2 0.24977072E-03 0.20000088E+02</pdfrwt>
<totfact> 0.47911245E+06</totfact>
</mgrwt>
</event>
<event>
 5    1  0.4046313E-006  0.2000475E+02  0.7818608E-02  0.1745234E+00
         -2   -1    0    0    0  501 -0.00000000000E+00  0.00000000000E+00  0.59546807998E+02  0.59546808055E+02  0.26000000000E-02 0.  1.
          2   -1    0    0  501    0  0.00000000000E+00 -0.00000000000E+00 -0.16801471298E+01  0.16801491416E+01  0.26000000000E-02 0. -1.
       1023    2    1    2    0    0  0.00000000000E+00  0.00000000000E+00  0.57866660868E+02  0.61226957196E+02  0.20004745624E+02 0.  0.
        -11    1    3    3    0    0  0.67022653895E+01  0.74242429830E+01  0.28664476326E+02  0.30359379910E+02  0.51100000000E-03 0. -1.
         11    1    3    3    0    0 -0.67022653895E+01 -0.74242429830E+01  0.29202184542E+02  0.30867577286E+02  0.51100000000E-03 0.  1.
<mgrwt>
<rscale>  0 0.20004746E+02</rscale>
<asrwt>0</asrwt>
<pdfrwt beam="2">  1        2 0.25848436E-03 0.20004746E+02</pdfrwt>
<pdfrwt beam="1">  1       -2 0.91610464E-02 0.20004746E+02</pdfrwt>
<totfact> 0.32984004E+06</totfact>
</mgrwt>
</event>
<event>
 5    1  0.4046313E-006  0.2000151E+02  0.7818608E-02  0.1745298E+00
         -2   -1    0    0    0  501 -0.00000000000E+00  0.00000000000E+00  0.11602447422E+03  0.11602447425E+03  0.26000000000E-02 0. -1.
          2   -1    0    0  501    0  0.00000000000E+00 -0.00000000000E+00 -0.86201496361E+00  0.86201888465E+00  0.26000000000E-02 0.  1.
       1023    2    1    2    0    0  0.00000000000E+00  0.00000000000E+00  0.11516245926E+03  0.11688649314E+03  0.20001506322E+02 0.  0.
        -11    1    3    3    0    0 -0.72241899645E+01  0.69154490810E+01  0.57885273989E+02  0.58742806383E+02  0.51100000000E-03 0.  1.
         11    1    3    3    0    0  0.72241899645E+01 -0.69154490810E+01  0.57277185271E+02  0.58143686755E+02  0.51100000000E-03 0. -1.
<mgrwt>
<rscale>  0 0.20001506E+02</rscale>
<asrwt>0</asrwt>
<pdfrwt beam="2">  1        2 0.13261800E-03 0.20001506E+02</pdfrwt>
<pdfrwt beam="1">  1       -2 0.17849918E-01 0.20001506E+02</pdfrwt>
<totfact> 0.28602884E+06</totfact>
</mgrwt>
</event>
<event>
 5    1  0.4046313E-006  0.2000976E+02  0.7818608E-02  0.1745134E+00
          2   -1    0    0  501    0  0.00000000000E+00  0.00000000000E+00  0.10556070919E+01  0.10556102938E+01  0.26000000000E-02 0.  1.
         -2   -1    0    0    0  501 -0.00000000000E+00 -0.00000000000E+00 -0.94824505704E+02  0.94824505740E+02  0.26000000000E-02 0. -1.
       1023    2    1    2    0    0  0.00000000000E+00  0.00000000000E+00 -0.93768898612E+02  0.95880116034E+02  0.20009755212E+02 0.  0.
        -11    1    3    3    0    0  0.78482317118E+01 -0.61986440485E+01 -0.48236741154E+02  0.49262573283E+02  0.51100000000E-03 0. -1.
         11    1    3    3    0    0 -0.78482317118E+01  0.61986440485E+01 -0.45532157459E+02  0.46617542751E+02  0.51100000000E-03 0.  1.
<mgrwt>
<rscale>  0 0.20009755E+02</rscale>
<asrwt>0</asrwt>
<pdfrwt beam="1">  1        2 0.16240142E-03 0.20009755E+02</pdfrwt>
<pdfrwt beam="2">  1       -2 0.14588379E-01 0.20009755E+02</pdfrwt>
<totfact> 0.30079502E+06</totfact>
</mgrwt>
</event>
<event>
 4    1  0.4046313E-006  0.2015607E+02  0.7818608E-02  0.1742242E+00
          2   -1    0    0  501    0  0.00000000000E+00  0.00000000000E+00  0.64137929850E+02  0.64137929903E+02  0.26000000000E-02 0.  1.
         -2   -1    0    0    0  501 -0.00000000000E+00 -0.00000000000E+00 -0.15835671839E+01  0.15835693183E+01  0.26000000000E-02 0. -1.
        -11    1    1    2    0    0  0.72067103829E+01  0.70338670174E+01  0.32560200315E+02  0.34081939566E+02  0.51100000000E-03 0. -1.
         11    1    1    2    0    0 -0.72067103829E+01 -0.70338670174E+01  0.29994162351E+02  0.31639559655E+02  0.51100000000E-03 0.  1.
<mgrwt>
<rscale>  0 0.20156070E+02</rscale>
<asrwt>0</asrwt>
<pdfrwt beam="1">  1        2 0.98673743E-02 0.20156070E+02</pdfrwt>
<pdfrwt beam="2">  1       -2 0.24362588E-03 0.20156070E+02</pdfrwt>
<totfact> 0.47424198E+06</totfact>
</mgrwt>
</event>
<event>
 5    1  0.4049899E-006  0.2000166E+02  0.7818608E-02  0.1745295E+00
          2   -1    0    0  501    0  0.00000000000E+00  0.00000000000E+00  0.51296807706E+02  0.51296807772E+02  0.26000000000E-02 0.  1.
         -2   -1    0    0    0  501 -0.00000000000E+00 -0.00000000000E+00 -0.19497609348E+01  0.19497626684E+01  0.26000000000E-02 0. -1.
       1023    2    1    2    0    0  0.00000000000E+00  0.00000000000E+00  0.49347046772E+02  0.53246570441E+02  0.20001655897E+02 0.  0.
        -11    1    3    3    0    0 -0.86335192919E+01 -0.50471527555E+01  0.24864622905E+02  0.26800389527E+02  0.51100000000E-03 0.  1.
         11    1    3    3    0    0  0.86335192919E+01  0.50471527555E+01  0.24482423866E+02  0.26446180914E+02  0.51100000000E-03 0. -1.
<mgrwt>
<rscale>  0 0.20001656E+02</rscale>
<asrwt>0</asrwt>
<pdfrwt beam="1">  1        2 0.78918165E-02 0.20001656E+02</pdfrwt>
<pdfrwt beam="2">  1       -2 0.29996337E-03 0.20001656E+02</pdfrwt>
<totfact> 0.46500244E+06</totfact>
</mgrwt>
</event>
<event>
 5    1  0.4046313E-006  0.2000027E+02  0.7818608E-02  0.1745323E+00
         -2   -1    0    0    0  501 -0.00000000000E+00  0.00000000000E+00  0.16182595651E+01  0.16182616537E+01  0.26000000000E-02 0. -1.
          2   -1    0    0  501    0  0.00000000000E+00 -0.00000000000E+00 -0.61796403291E+02  0.61796403346E+02  0.26000000000E-02 0.  1.
       1023    2    1    2    0    0  0.00000000000E+00  0.00000000000E+00 -0.60178143726E+02  0.63414665000E+02  0.20000268865E+02 0.  0.
        -11    1    3    3    0    0  0.99783224264E+01 -0.66006241057E+00 -0.30059398930E+02  0.31679173997E+02  0.51100000000E-03 0.  1.
         11    1    3    3    0    0 -0.99783224264E+01  0.66006241057E+00 -0.30118744796E+02  0.31735491003E+02  0.51100000000E-03 0. -1.
<mgrwt>
<rscale>  0 0.20000269E+02</rscale>
<asrwt>0</asrwt>
<pdfrwt beam="2">  1        2 0.95071373E-02 0.20000269E+02</pdfrwt>
<pdfrwt beam="1">  1       -2 0.24896322E-03 0.20000269E+02</pdfrwt>
<totfact> 0.47937142E+06</totfact>
</mgrwt>
</event>
<event>
 5    1  0.4046313E-006  0.2000123E+02  0.7818608E-02  0.1745304E+00
         -2   -1    0    0    0  501 -0.00000000000E+00  0.00000000000E+00  0.26460258412E+02  0.26460258540E+02  0.26000000000E-02 0. -1.
          2   -1    0    0  501    0  0.00000000000E+00 -0.00000000000E+00 -0.37797165588E+01  0.37797174531E+01  0.26000000000E-02 0.  1.
       1023    2    1    2    0    0  0.00000000000E+00  0.00000000000E+00  0.22680541853E+02  0.30239975993E+02  0.20001229194E+02 0.  0.
        -11    1    3    3    0    0 -0.77156805347E+01 -0.63622427959E+01  0.11265702335E+02  0.15064060172E+02  0.51100000000E-03 0.  1.
         11    1    3    3    0    0  0.77156805347E+01  0.63622427959E+01  0.11414839518E+02  0.15175915821E+02  0.51100000000E-03 0. -1.
<mgrwt>
<rscale>  0 0.20001229E+02</rscale>
<asrwt>0</asrwt>
<pdfrwt beam="2">  1        2 0.58149494E-03 0.20001229E+02</pdfrwt>
<pdfrwt beam="1">  1       -2 0.40708090E-02 0.20001229E+02</pdfrwt>
<totfact> 0.36509153E+06</totfact>
</mgrwt>
</event>
<event>
 5    1  0.4046313E-006  0.2000133E+02  0.7818608E-02  0.1745302E+00
         -2   -1    0    0    0  501 -0.00000000000E+00  0.00000000000E+00  0.43706695590E+01  0.43706703323E+01  0.26000000000E-02 0. -1.
          2   -1    0    0  501    0  0.00000000000E+00 -0.00000000000E+00 -0.22882836028E+02  0.22882836176E+02  0.26000000000E-02 0.  1.
       1023    2    1    2    0    0  0.00000000000E+00  0.00000000000E+00 -0.18512166469E+02  0.27253506508E+02  0.20001332696E+02 0.  0.
        -11    1    3    3    0    0 -0.51679321052E+01 -0.85618364474E+01 -0.92184812604E+01  0.13601211807E+02  0.51100000000E-03 0. -1.
         11    1    3    3    0    0  0.51679321052E+01  0.85618364474E+01 -0.92936852084E+01  0.13652294701E+02  0.51100000000E-03 0.  1.
<mgrwt>
<rscale>  0 0.20001333E+02</rscale>
<asrwt>0</asrwt>
<pdfrwt beam="2">  1        2 0.35204363E-02 0.20001333E+02</pdfrwt>
<pdfrwt beam="1">  1       -2 0.67241078E-03 0.20001333E+02</pdfrwt>
<totfact> 0.42187592E+06</totfact>
</mgrwt>
</event>
<event>
 5    1  0.4046313E-006  0.2000076E+02  0.7818608E-02  0.1745313E+00
         -2   -1    0    0    0  501 -0.00000000000E+00  0.00000000000E+00  0.43865519453E+01  0.43865527159E+01  0.26000000000E-02 0.  1.
          2   -1    0    0  501    0  0.00000000000E+00 -0.00000000000E+00 -0.22798671940E+02  0.22798672088E+02  0.26000000000E-02 0. -1.
       1023    2    1    2    0    0  0.00000000000E+00  0.00000000000E+00 -0.18412119995E+02  0.27185224804E+02  0.20000757109E+02 0.  0.
        -11    1    3    3    0    0  0.99511757867E+01  0.98999150808E+00 -0.91518915527E+01  0.13555924977E+02  0.51100000000E-03 0. -1.
         11    1    3    3    0    0 -0.99511757867E+01 -0.98999150808E+00 -0.92602284421E+01  0.13629299827E+02  0.51100000000E-03 0.  1.
<mgrwt>
<rscale>  0 0.20000757E+02</rscale>
<asrwt>0</asrwt>
<pdfrwt beam="2">  1        2 0.35074880E-02 0.20000757E+02</pdfrwt>
<pdfrwt beam="1">  1       -2 0.67485423E-03 0.20000757E+02</pdfrwt>
<totfact> 0.42175651E+06</totfact>
</mgrwt>
</event>
<event>
 5    1  0.4046313E-006  0.2000023E+02  0.7818608E-02  0.1745324E+00
         -2   -1    0    0    0  501 -0.00000000000E+00  0.00000000000E+00  0.37270891866E+02  0.37270891956E+02  0.26000000000E-02 0. -1.
          2   -1    0    0  501    0  0.00000000000E+00 -0.00000000000E+00 -0.26831189406E+01  0.26831202003E+01  0.26000000000E-02 0.  1.
       1023    2    1    2    0    0  0.00000000000E+00  0.00000000000E+00  0.34587772925E+02  0.39954012157E+02  0.20000226286E+02 0.  0.
        -11    1    3    3    0    0  0.98747766578E+01  0.15782579654E+01  0.17269390113E+02  0.19955799843E+02  0.51100000000E-03 0.  1.
         11    1    3    3    0    0 -0.98747766578E+01 -0.15782579654E+01  0.17318382812E+02  0.19998212313E+02  0.51100000000E-03 0. -1.
<mgrwt>
<rscale>  0 0.20000226E+02</rscale>
<asrwt>0</asrwt>
<pdfrwt beam="2">  1        2 0.41278762E-03 0.20000226E+02</pdfrwt>
<pdfrwt beam="1">  1       -2 0.57339836E-02 0.20000226E+02</pdfrwt>
<totfact> 0.35216978E+06</totfact>
</mgrwt>
</event>
<event>
 5    1  0.4046313E-006  0.2000152E+02  0.7818608E-02  0.1745298E+00
          2   -1    0    0  501    0  0.00000000000E+00  0.00000000000E+00  0.87552689828E+01  0.87552693688E+01  0.26000000000E-02 0. -1.
         -2   -1    0    0    0  501 -0.00000000000E+00 -0.00000000000E+00 -0.11423429768E+02  0.11423430064E+02  0.26000000000E-02 0.  1.
       1023    2    1    2    0    0  0.00000000000E+00  0.00000000000E+00 -0.26681607849E+01  0.20178699432E+02  0.20001520662E+02 0.  0.
        -11    1    3    3    0    0 -0.99618616334E+01  0.87962823243E+00 -0.13872148756E+01  0.10096375508E+02  0.51100000000E-03 0. -1.
         11    1    3    3    0    0  0.99618616334E+01 -0.87962823243E+00 -0.12809459093E+01  0.10082323924E+02  0.51100000000E-03 0.  1.
<mgrwt>
<rscale>  0 0.20001521E+02</rscale>
<asrwt>0</asrwt>
<pdfrwt beam="1">  1        2 0.13469645E-02 0.20001521E+02</pdfrwt>
<pdfrwt beam="2">  1       -2 0.17574508E-02 0.20001521E+02</pdfrwt>
<totfact> 0.39074365E+06</totfact>
</mgrwt>
</event>
<event>
 5    1  0.4046313E-006  0.2000277E+02  0.7818608E-02  0.1745273E+00
         -2   -1    0    0    0  501 -0.00000000000E+00  0.00000000000E+00  0.15930600048E+02  0.15930600260E+02  0.26000000000E-02 0.  1.
          2   -1    0    0  501    0  0.00000000000E+00 -0.00000000000E+00 -0.62789648788E+01  0.62789654171E+01  0.26000000000E-02 0. -1.
       1023    2    1    2    0    0  0.00000000000E+00  0.00000000000E+00  0.96516351692E+01  0.22209565677E+02  0.20002768462E+02 0.  0.
        -11    1    3    3    0    0  0.99505176527E+01 -0.10064178093E+01  0.48755709017E+01  0.11126404192E+02  0.51100000000E-03 0. -1.
         11    1    3    3    0    0 -0.99505176527E+01  0.10064178093E+01  0.47760642674E+01  0.11083161485E+02  0.51100000000E-03 0.  1.
<mgrwt>
<rscale>  0 0.20002768E+02</rscale>
<asrwt>0</asrwt>
<pdfrwt beam="2">  1        2 0.96599466E-03 0.20002768E+02</pdfrwt>
<pdfrwt beam="1">  1       -2 0.24508616E-02 0.20002768E+02</pdfrwt>
<totfact> 0.38110145E+06</totfact>
</mgrwt>
</event>
<event>
 5    1  0.4046313E-006  0.2000074E+02  0.7818608E-02  0.1745313E+00
          2   -1    0    0  501    0  0.00000000000E+00  0.00000000000E+00  0.17079171095E+02  0.17079171292E+02  0.26000000000E-02 0. -1.
         -2   -1    0    0    0  501 -0.00000000000E+00 -0.00000000000E+00 -0.58555201424E+01  0.58555207196E+01  0.26000000000E-02 0.  1.
       1023    2    1    2    0    0  0.00000000000E+00  0.00000000000E+00  0.11223650952E+02  0.22934692012E+02  0.20000743911E+02 0.  0.
        -11    1    3    3    0    0 -0.96642806706E+01  0.25706732193E+01  0.56433815386E+01  0.11482788735E+02  0.51100000000E-03 0. -1.
         11    1    3    3    0    0  0.96642806706E+01 -0.25706732193E+01  0.55802694136E+01  0.11451903277E+02  0.51100000000E-03 0.  1.
<mgrwt>
<rscale>  0 0.20000744E+02</rscale>
<asrwt>0</asrwt>
<pdfrwt beam="1">  1        2 0.26275648E-02 0.20000744E+02</pdfrwt>
<pdfrwt beam="2">  1       -2 0.90084932E-03 0.20000744E+02</pdfrwt>
<totfact> 0.41115531E+06</totfact>
</mgrwt>
</event>
<event>
 5    1  0.4046313E-006  0.2000104E+02  0.7818608E-02  0.1745307E+00
          2   -1    0    0  501    0  0.00000000000E+00  0.00000000000E+00  0.37979854335E+02  0.37979854424E+02  0.26000000000E-02 0.  1.
         -2   -1    0    0    0  501 -0.00000000000E+00 -0.00000000000E+00 -0.26332470025E+01  0.26332482861E+01  0.26000000000E-02 0. -1.
       1023    2    1    2    0    0  0.00000000000E+00  0.00000000000E+00  0.35346607332E+02  0.40613102710E+02  0.20001036519E+02 0.  0.
        -11    1    3    3    0    0  0.69745176437E+01 -0.71665659811E+01  0.17505849520E+02  0.20160811789E+02  0.51100000000E-03 0.  1.
         11    1    3    3    0    0 -0.69745176437E+01  0.71665659811E+01  0.17840757812E+02  0.20452290921E+02  0.51100000000E-03 0. -1.
<mgrwt>
<rscale>  0 0.20001037E+02</rscale>
<asrwt>0</asrwt>
<pdfrwt beam="1">  1        2 0.58430544E-02 0.20001037E+02</pdfrwt>
<pdfrwt beam="2">  1       -2 0.40511505E-03 0.20001037E+02</pdfrwt>
<totfact> 0.44592229E+06</totfact>
</mgrwt>
</event>
<event>
 5    1  0.4046313E-006  0.2000330E+02  0.7818608E-02  0.1745263E+00
         -2   -1    0    0    0  501 -0.00000000000E+00  0.00000000000E+00  0.24473148965E+01  0.24473162776E+01  0.26000000000E-02 0.  1.
          2   -1    0    0  501    0  0.00000000000E+00 -0.00000000000E+00 -0.40874570197E+02  0.40874570280E+02  0.26000000000E-02 0. -1.
       1023    2    1    2    0    0  0.00000000000E+00  0.00000000000E+00 -0.38427255301E+02  0.43321886558E+02  0.20003297352E+02 0.  0.
        -11    1    3    3    0    0 -0.75019052262E+01  0.66130060094E+01 -0.19538816367E+02  0.21949391240E+02  0.51100000000E-03 0.  1.
         11    1    3    3    0    0  0.75019052262E+01 -0.66130060094E+01 -0.18888438934E+02  0.21372495318E+02  0.51100000000E-03 0. -1.
<mgrwt>
<rscale>  0 0.20003297E+02</rscale>
<asrwt>0</asrwt>
<pdfrwt beam="2">  1        2 0.62883950E-02 0.20003297E+02</pdfrwt>
<pdfrwt beam="1">  1       -2 0.37651013E-03 0.20003297E+02</pdfrwt>
<totfact> 0.45008026E+06</totfact>
</mgrwt>
</event>
<event>
 5    1  0.4046313E-006  0.2000040E+02  0.7818608E-02  0.1745320E+00
         -2   -1    0    0    0  501 -0.00000000000E+00  0.00000000000E+00  0.58397728800E+02  0.58397728858E+02  0.26000000000E-02 0. -1.
          2   -1    0    0  501    0  0.00000000000E+00 -0.00000000000E+00 -0.17124636383E+01  0.17124656121E+01  0.26000000000E-02 0.  1.
       1023    2    1    2    0    0  0.00000000000E+00  0.00000000000E+00  0.56685265162E+02  0.60110194470E+02  0.20000404815E+02 0.  0.
        -11    1    3    3    0    0 -0.62065558894E+01 -0.78410128145E+01  0.28448036346E+02  0.30154495356E+02  0.51100000000E-03 0.  1.
         11    1    3    3    0    0  0.62065558894E+01  0.78410128145E+01  0.28237228816E+02  0.29955699114E+02  0.51100000000E-03 0. -1.
<mgrwt>
<rscale>  0 0.20000405E+02</rscale>
<asrwt>0</asrwt>
<pdfrwt beam="2">  1        2 0.26345609E-03 0.20000405E+02</pdfrwt>
<pdfrwt beam="1">  1       -2 0.89842664E-02 0.20000405E+02</pdfrwt>
<totfact> 0.33104511E+06</totfact>
</mgrwt>
</event>
<event>
 5    1  0.4156062E-006  0.2000177E+02  0.7818608E-02  0.1745293E+00
          2   -1    0    0  501    0  0.00000000000E+00  0.00000000000E+00  0.55877185557E+02  0.55877185617E+02  0.26000000000E-02 0. -1.
         -2   -1    0    0    0  501 -0.00000000000E+00 -0.00000000000E+00 -0.17899554305E+01  0.17899573188E+01  0.26000000000E-02 0.  1.
       1023    2    1    2    0    0  0.00000000000E+00  0.00000000000E+00  0.54087230126E+02  0.57667142936E+02  0.20001772713E+02 0.  0.
        -11    1    3    3    0    0  0.14800619494E+01  0.98899915415E+01  0.27399203232E+02  0.29167085115E+02  0.51100000000E-03 0. -1.
         11    1    3    3    0    0 -0.14800619494E+01 -0.98899915415E+01  0.26688026894E+02  0.28500057821E+02  0.51100000000E-03 0.  1.
<mgrwt>
<rscale>  0 0.20001773E+02</rscale>
<asrwt>0</asrwt>
<pdfrwt beam="1">  1        2 0.85964900E-02 0.20001773E+02</pdfrwt>
<pdfrwt beam="2">  1       -2 0.27537792E-03 0.20001773E+02</pdfrwt>
<totfact> 0.47130039E+06</totfact>
</mgrwt>
</event>
<event>
 5    1  0.4322592E-006  0.2000094E+02  0.7818608E-02  0.1745309E+00
          2   -1    0    0  501    0  0.00000000000E+00  0.00000000000E+00  0.11298771858E+03  0.11298771861E+03  0.26000000000E-02 0.  1.
         -2   -1    0    0    0  501 -0.00000000000E+00 -0.00000000000E+00 -0.88513283340E+00  0.88513665203E+00  0.26000000000E-02 0. -1.
       1023    2    1    2    0    0  0.00000000000E+00  0.00000000000E+00  0.11210258575E+03  0.11387285526E+03  0.20000935839E+02 0.  0.
        -11    1    3    3    0    0  0.63907061683E+01  0.76916914398E+01  0.55606049976E+02  0.56498106488E+02  0.51100000000E-03 0. -1.
         11    1    3    3    0    0 -0.63907061683E+01 -0.76916914398E+01  0.56496535771E+02  0.57374748775E+02  0.51100000000E-03 0.  1.
<mgrwt>
<rscale>  0 0.20000936E+02</rscale>
<asrwt>0</asrwt>
<pdfrwt beam="1">  1        2 0.17382729E-01 0.20000936E+02</pdfrwt>
<pdfrwt beam="2">  1       -2 0.13617455E-03 0.20000936E+02</pdfrwt>
<totfact> 0.54281255E+06</totfact>
</mgrwt>
</event>
<event>
 5    1  0.4046313E-006  0.2000019E+02  0.7818608E-02  0.1745324E+00
          2   -1    0    0  501    0  0.00000000000E+00  0.00000000000E+00  0.31845108689E+02  0.31845108796E+02  0.26000000000E-02 0.  1.
         -2   -1    0    0    0  501 -0.00000000000E+00 -0.00000000000E+00 -0.31402589988E+01  0.31402600752E+01  0.26000000000E-02 0. -1.
       1023    2    1    2    0    0  0.00000000000E+00  0.00000000000E+00  0.28704849691E+02  0.34985368871E+02  0.20000190981E+02 0.  0.
        -11    1    3    3    0    0  0.70819094313E+00 -0.99749870166E+01  0.14347130120E+02  0.17488340211E+02  0.51100000000E-03 0. -1.
         11    1    3    3    0    0 -0.70819094313E+00  0.99749870166E+01  0.14357719571E+02  0.17497028660E+02  0.51100000000E-03 0.  1.
<mgrwt>
<rscale>  0 0.20000191E+02</rscale>
<asrwt>0</asrwt>
<pdfrwt beam="1">  1        2 0.48992476E-02 0.20000191E+02</pdfrwt>
<pdfrwt beam="2">  1       -2 0.48311686E-03 0.20000191E+02</pdfrwt>
<totfact> 0.43662515E+06</totfact>
</mgrwt>
</event>
<event>
 5    1  0.4141325E-006  0.2000187E+02  0.7818608E-02  0.1745291E+00
         -2   -1    0    0    0  501 -0.00000000000E+00  0.00000000000E+00  0.14277433905E+01  0.14277457578E+01  0.26000000000E-02 0.  1.
          2   -1    0    0  501    0  0.00000000000E+00 -0.00000000000E+00 -0.70053655090E+02  0.70053655139E+02  0.26000000000E-02 0. -1.
       1023    2    1    2    0    0  0.00000000000E+00  0.00000000000E+00 -0.68625911700E+02  0.71481400896E+02  0.20001872849E+02 0.  0.
        -11    1    3    3    0    0 -0.78187978269E+01 -0.62355789531E+01 -0.34127783578E+02  0.35562925309E+02  0.51100000000E-03 0.  1.
         11    1    3    3    0    0  0.78187978269E+01  0.62355789531E+01 -0.34498128122E+02  0.35918475587E+02  0.51100000000E-03 0. -1.
<mgrwt>
<rscale>  0 0.20001873E+02</rscale>
<asrwt>0</asrwt>
<pdfrwt beam="2">  1        2 0.10777483E-01 0.20001873E+02</pdfrwt>
<pdfrwt beam="1">  1       -2 0.21965307E-03 0.20001873E+02</pdfrwt>
<totfact> 0.49016617E+06</totfact>
</mgrwt>
</event>
<event>
 5    1  0.4400663E-006  0.2000109E+02  0.7818608E-02  0.1745306E+00
         -2   -1    0    0    0  501 -0.00000000000E+00  0.00000000000E+00  0.10853311929E+01  0.10853343071E+01  0.26000000000E-02 0.  1.
          2   -1    0    0  501    0  0.00000000000E+00 -0.00000000000E+00 -0.92147690032E+02  0.92147690069E+02  0.26000000000E-02 0. -1.
       1023    2    1    2    0    0  0.00000000000E+00  0.00000000000E+00 -0.91062358839E+02  0.93233024376E+02  0.20001090893E+02 0.  0.
        -11    1    3    3    0    0 -0.52717379056E+00 -0.99866010687E+01 -0.45662681738E+02  0.46744952849E+02  0.51100000000E-03 0. -1.
         11    1    3    3    0    0  0.52717379056E+00  0.99866010687E+01 -0.45399677101E+02  0.46488071527E+02  0.51100000000E-03 0.  1.
<mgrwt>
<rscale>  0 0.20001091E+02</rscale>
<asrwt>0</asrwt>
<pdfrwt beam="2">  1        2 0.14176562E-01 0.20001091E+02</pdfrwt>
<pdfrwt beam="1">  1       -2 0.16697435E-03 0.20001091E+02</pdfrwt>
<totfact> 0.51801740E+06</totfact>
</mgrwt>
</event>
<event>
 4    1  0.4046313E-006  0.2002269E+02  0.7818608E-02  0.1744877E+00
          2   -1    0    0  501    0  0.00000000000E+00  0.00000000000E+00  0.13112865833E+02  0.13112866090E+02  0.26000000000E-02 0.  1.
         -2   -1    0    0    0  501 -0.00000000000E+00 -0.00000000000E+00 -0.76434133457E+01  0.76434137880E+01  0.26000000000E-02 0. -1.
        -11    1    1    2    0    0 -0.88637676284E+01  0.46435788444E+01  0.30590127405E+01  0.10463592130E+02  0.51100000000E-03 0. -1.
         11    1    1    2    0    0  0.88637676284E+01 -0.46435788444E+01  0.24104397465E+01  0.10292687748E+02  0.51100000000E-03 0.  1.
<mgrwt>
<rscale>  0 0.20022693E+02</rscale>
<asrwt>0</asrwt>
<pdfrwt beam="1">  1        2 0.20173640E-02 0.20022693E+02</pdfrwt>
<pdfrwt beam="2">  1       -2 0.11759098E-02 0.20022693E+02</pdfrwt>
<totfact> 0.40164016E+06</totfact>
</mgrwt>
</event>
<event>
 5    1  0.4046313E-006  0.2000054E+02  0.7818608E-02  0.1745317E+00
         -2   -1    0    0    0  501 -0.00000000000E+00  0.00000000000E+00  0.66139142942E+02  0.66139142993E+02  0.26000000000E-02 0. -1.
          2   -1    0    0  501    0  0.00000000000E+00 -0.00000000000E+00 -0.15120449966E+01  0.15120472320E+01  0.26000000000E-02 0.  1.
       1023    2    1    2    0    0  0.00000000000E+00  0.00000000000E+00  0.64627097945E+02  0.67651190225E+02  0.20000543743E+02 0.  0.
        -11    1    3    3    0    0 -0.97985136452E+01 -0.19982884019E+01  0.32186490112E+02  0.33704215941E+02  0.51100000000E-03 0. -1.
         11    1    3    3    0    0  0.97985136452E+01  0.19982884019E+01  0.32440607833E+02  0.33946974284E+02  0.51100000000E-03 0.  1.
<mgrwt>
<rscale>  0 0.20000544E+02</rscale>
<asrwt>0</asrwt>
<pdfrwt beam="2">  1        2 0.23262258E-03 0.20000544E+02</pdfrwt>
<pdfrwt beam="1">  1       -2 0.10175248E-01 0.20000544E+02</pdfrwt>
<totfact> 0.32413128E+06</totfact>
</mgrwt>
</event>
<event>
 5    1  0.4046313E-006  0.2000128E+02  0.7818608E-02  0.1745303E+00
         -2   -1    0    0    0  501 -0.00000000000E+00  0.00000000000E+00  0.37170305713E+01  0.37170314806E+01  0.26000000000E-02 0. -1.
          2   -1    0    0  501    0  0.00000000000E+00 -0.00000000000E+00 -0.26906646360E+02  0.26906646486E+02  0.26000000000E-02 0.  1.
       1023    2    1    2    0    0  0.00000000000E+00  0.00000000000E+00 -0.23189615789E+02  0.30623677966E+02  0.20001284253E+02 0.  0.
        -11    1    3    3    0    0 -0.69119882460E+01  0.72270723611E+01 -0.11469611783E+02  0.15217034899E+02  0.51100000000E-03 0.  1.
         11    1    3    3    0    0  0.69119882460E+01 -0.72270723611E+01 -0.11720004006E+02  0.15406643067E+02  0.51100000000E-03 0. -1.
<mgrwt>
<rscale>  0 0.20001284E+02</rscale>
<asrwt>0</asrwt>
<pdfrwt beam="2">  1        2 0.41394840E-02 0.20001284E+02</pdfrwt>
<pdfrwt beam="1">  1       -2 0.57185096E-03 0.20001284E+02</pdfrwt>
<totfact> 0.42867857E+06</totfact>
</mgrwt>
</event>
<event>
 5    1  0.4046313E-006  0.2000071E+02  0.7818608E-02  0.1745314E+00
          2   -1    0    0  501    0  0.00000000000E+00  0.00000000000E+00  0.21692251006E+01  0.21692266587E+01  0.26000000000E-02 0. -1.
         -2   -1    0    0    0  501 -0.00000000000E+00 -0.00000000000E+00 -0.46102678911E+02  0.46102678984E+02  0.26000000000E-02 0.  1.
       1023    2    1    2    0    0  0.00000000000E+00  0.00000000000E+00 -0.43933453810E+02  0.48271905643E+02  0.20000712755E+02 0.  0.
        -11    1    3    3    0    0  0.55863019442E+01  0.82942839237E+01 -0.22140971482E+02  0.24294537115E+02  0.51100000000E-03 0. -1.
         11    1    3    3    0    0 -0.55863019442E+01 -0.82942839237E+01 -0.21792482328E+02  0.23977368528E+02  0.51100000000E-03 0.  1.
<mgrwt>
<rscale>  0 0.20000713E+02</rscale>
<asrwt>0</asrwt>
<pdfrwt beam="1">  1        2 0.33372710E-03 0.20000713E+02</pdfrwt>
<pdfrwt beam="2">  1       -2 0.70927192E-02 0.20000713E+02</pdfrwt>
<totfact> 0.34282745E+06</totfact>
</mgrwt>
</event>
<event>
 5    1  0.4046313E-006  0.2000400E+02  0.7818608E-02  0.1745249E+00
          2   -1    0    0  501    0  0.00000000000E+00  0.00000000000E+00  0.24138468276E+02  0.24138468416E+02  0.26000000000E-02 0.  1.
         -2   -1    0    0    0  501 -0.00000000000E+00 -0.00000000000E+00 -0.41444208586E+01  0.41444216742E+01  0.26000000000E-02 0. -1.
       1023    2    1    2    0    0  0.00000000000E+00  0.00000000000E+00  0.19994047417E+02  0.28282890090E+02  0.20003998093E+02 0.  0.
        -11    1    3    3    0    0 -0.85982229619E+01 -0.51089465729E+01  0.98613262417E+01  0.14045516320E+02  0.51100000000E-03 0. -1.
         11    1    3    3    0    0  0.85982229619E+01  0.51089465729E+01  0.10132721175E+02  0.14237373770E+02  0.51100000000E-03 0.  1.
<mgrwt>
<rscale>  0 0.20003998E+02</rscale>
<asrwt>0</asrwt>
<pdfrwt beam="1">  1        2 0.37136106E-02 0.20003998E+02</pdfrwt>
<pdfrwt beam="2">  1       -2 0.63760327E-03 0.20003998E+02</pdfrwt>
<totfact> 0.42391413E+06</totfact>
</mgrwt>
</event>
<event>
 5    1  0.4046313E-006  0.2000065E+02  0.7818608E-02  0.1745315E+00
         -2   -1    0    0    0  501 -0.00000000000E+00  0.00000000000E+00  0.27917741876E+01  0.27917753983E+01  0.26000000000E-02 0.  1.
          2   -1    0    0  501    0  0.00000000000E+00 -0.00000000000E+00 -0.35821833177E+02  0.35821833271E+02  0.26000000000E-02 0. -1.
       1023    2    1    2    0    0  0.00000000000E+00  0.00000000000E+00 -0.33030058989E+02  0.38613608670E+02  0.20000649431E+02 0.  0.
        -11    1    3    3    0    0 -0.31982730094E+01 -0.94750978986E+01 -0.16530440638E+02  0.19319987018E+02  0.51100000000E-03 0.  1.
         11    1    3    3    0    0  0.31982730094E+01  0.94750978986E+01 -0.16499618352E+02  0.19293621652E+02  0.51100000000E-03 0. -1.
<mgrwt>
<rscale>  0 0.20000649E+02</rscale>
<asrwt>0</asrwt>
<pdfrwt beam="2">  1        2 0.55110510E-02 0.20000649E+02</pdfrwt>
<pdfrwt beam="1">  1       -2 0.42950385E-03 0.20000649E+02</pdfrwt>
<totfact> 0.44270458E+06</totfact>
</mgrwt>
</event>
<event>
 5    1  0.4046313E-006  0.2000288E+02  0.7818608E-02  0.1745271E+00
         -2   -1    0    0    0  501 -0.00000000000E+00  0.00000000000E+00  0.52807909358E+02  0.52807909422E+02  0.26000000000E-02 0.  1.
          2   -1    0    0  501    0  0.00000000000E+00 -0.00000000000E+00 -0.18941993691E+01  0.18942011535E+01  0.26000000000E-02 0. -1.
       1023    2    1    2    0    0  0.00000000000E+00  0.00000000000E+00  0.50913709989E+02  0.54702110576E+02  0.20002875708E+02 0.  0.
        -11    1    3    3    0    0 -0.72516666487E+01 -0.68875265405E+01  0.25282435760E+02  0.27188715477E+02  0.51100000000E-03 0. -1.
         11    1    3    3    0    0  0.72516666487E+01  0.68875265405E+01  0.25631274229E+02  0.27513395099E+02  0.51100000000E-03 0.  1.
<mgrwt>
<rscale>  0 0.20002876E+02</rscale>
<asrwt>0</asrwt>
<pdfrwt beam="2">  1        2 0.29141545E-03 0.20002876E+02</pdfrwt>
<pdfrwt beam="1">  1       -2 0.81242934E-02 0.20002876E+02</pdfrwt>
<totfact> 0.33617309E+06</totfact>
</mgrwt>
</event>
<event>
 5    1  0.4046313E-006  0.2000176E+02  0.7818608E-02  0.1745293E+00
          2   -1    0    0  501    0  0.00000000000E+00  0.00000000000E+00  0.15759744224E+02  0.15759744439E+02  0.26000000000E-02 0. -1.
         -2   -1    0    0    0  501 -0.00000000000E+00 -0.00000000000E+00 -0.63463948538E+01  0.63463953864E+01  0.26000000000E-02 0.  1.
       1023    2    1    2    0    0  0.00000000000E+00  0.00000000000E+00  0.94133493704E+01  0.22106139825E+02  0.20001756713E+02 0.  0.
        -11    1    3    3    0    0 -0.87449160978E+01 -0.48522042220E+01  0.46943542877E+01  0.11047823578E+02  0.51100000000E-03 0.  1.
         11    1    3    3    0    0  0.87449160978E+01  0.48522042220E+01  0.47189950827E+01  0.11058316247E+02  0.51100000000E-03 0. -1.
<mgrwt>
<rscale>  0 0.20001757E+02</rscale>
<asrwt>0</asrwt>
<pdfrwt beam="1">  1        2 0.24245761E-02 0.20001757E+02</pdfrwt>
<pdfrwt beam="2">  1       -2 0.97636850E-03 0.20001757E+02</pdfrwt>
<totfact> 0.40842073E+06</totfact>
</mgrwt>
</event>
<event>
 5    1  0.4046313E-006  0.2000355E+02  0.7818608E-02  0.1745257E+00
          2   -1    0    0  501    0  0.00000000000E+00  0.00000000000E+00  0.93608973432E+01  0.93608977043E+01  0.26000000000E-02 0.  1.
         -2   -1    0    0    0  501 -0.00000000000E+00 -0.00000000000E+00 -0.10686529396E+02  0.10686529712E+02  0.26000000000E-02 0. -1.
       1023    2    1    2    0    0  0.00000000000E+00  0.00000000000E+00 -0.13256320523E+01  0.20047427416E+02  0.20003550827E+02 0.  0.
        -11    1    3    3    0    0 -0.81331702330E+01  0.58194834584E+01 -0.80688597716E+00  0.10033240304E+02  0.51100000000E-03 0.  1.
         11    1    3    3    0    0  0.81331702330E+01 -0.58194834584E+01 -0.51874607518E+00  0.10014187112E+02  0.51100000000E-03 0. -1.
<mgrwt>
<rscale>  0 0.20003551E+02</rscale>
<asrwt>0</asrwt>
<pdfrwt beam="1">  1        2 0.14401381E-02 0.20003551E+02</pdfrwt>
<pdfrwt beam="2">  1       -2 0.16440815E-02 0.20003551E+02</pdfrwt>
<totfact> 0.39256943E+06</totfact>
</mgrwt>
</event>
<event>
 5    1  0.4046313E-006  0.2000249E+02  0.7818608E-02  0.1745279E+00
         -2   -1    0    0    0  501 -0.00000000000E+00  0.00000000000E+00  0.95574413931E+01  0.95574417468E+01  0.26000000000E-02 0.  1.
          2   -1    0    0  501    0  0.00000000000E+00 -0.00000000000E+00 -0.10465652158E+02  0.10465652481E+02  0.26000000000E-02 0. -1.
       1023    2    1    2    0    0  0.00000000000E+00  0.00000000000E+00 -0.90821076462E+00  0.20023094228E+02  0.20002486237E+02 0.  0.
        -11    1    3    3    0    0 -0.36954138639E+01  0.92933958120E+01 -0.49382380852E+00  0.10013348669E+02  0.51100000000E-03 0.  1.
         11    1    3    3    0    0  0.36954138639E+01 -0.92933958120E+01 -0.41438695609E+00  0.10009745559E+02  0.51100000000E-03 0. -1.
<mgrwt>
<rscale>  0 0.20002486E+02</rscale>
<asrwt>0</asrwt>
<pdfrwt beam="2">  1        2 0.16101004E-02 0.20002486E+02</pdfrwt>
<pdfrwt beam="1">  1       -2 0.14703757E-02 0.20002486E+02</pdfrwt>
<totfact> 0.39583987E+06</totfact>
</mgrwt>
</event>
<event>
 5    1  0.4046313E-006  0.2000021E+02  0.7818608E-02  0.1745324E+00
          2   -1    0    0  501    0  0.00000000000E+00  0.00000000000E+00  0.23657294105E+01  0.23657308392E+01  0.26000000000E-02 0. -1.
         -2   -1    0    0    0  501 -0.00000000000E+00 -0.00000000000E+00 -0.42271139401E+02  0.42271139481E+02  0.26000000000E-02 0.  1.
       1023    2    1    2    0    0  0.00000000000E+00  0.00000000000E+00 -0.39905409990E+02  0.44636870320E+02  0.20000211136E+02 0.  0.
        -11    1    3    3    0    0  0.38022664333E+00  0.99928692245E+01 -0.19975406827E+02  0.22338730622E+02  0.51100000000E-03 0. -1.
         11    1    3    3    0    0 -0.38022664333E+00 -0.99928692245E+01 -0.19930003163E+02  0.22298139698E+02  0.51100000000E-03 0.  1.
<mgrwt>
<rscale>  0 0.20000211E+02</rscale>
<asrwt>0</asrwt>
<pdfrwt beam="1">  1        2 0.36395852E-03 0.20000211E+02</pdfrwt>
<pdfrwt beam="2">  1       -2 0.65032518E-02 0.20000211E+02</pdfrwt>
<totfact> 0.34678734E+06</totfact>
</mgrwt>
</event>
<event>
 5    1  0.4046313E-006  0.2000071E+02  0.7818608E-02  0.1745314E+00
         -2   -1    0    0    0  501 -0.00000000000E+00  0.00000000000E+00  0.46151228370E+01  0.46151235694E+01  0.26000000000E-02 0.  1.
          2   -1    0    0  501    0  0.00000000000E+00 -0.00000000000E+00 -0.21669425429E+02  0.21669425585E+02  0.26000000000E-02 0. -1.
       1023    2    1    2    0    0  0.00000000000E+00  0.00000000000E+00 -0.17054302592E+02  0.26284549154E+02  0.20000707171E+02 0.  0.
        -11    1    3    3    0    0  0.99425787660E+01 -0.10709217596E+01 -0.86230562807E+01  0.13204500968E+02  0.51100000000E-03 0.  1.
         11    1    3    3    0    0 -0.99425787660E+01  0.10709217596E+01 -0.84312463111E+01  0.13080048186E+02  0.51100000000E-03 0. -1.
<mgrwt>
<rscale>  0 0.20000707E+02</rscale>
<asrwt>0</asrwt>
<pdfrwt beam="2">  1        2 0.33337578E-02 0.20000707E+02</pdfrwt>
<pdfrwt beam="1">  1       -2 0.71001898E-03 0.20000707E+02</pdfrwt>
<totfact> 0.41976906E+06</totfact>
</mgrwt>
</event>
<event>
 5    1  0.4046313E-006  0.2000037E+02  0.7818608E-02  0.1745321E+00
          2   -1    0    0  501    0  0.00000000000E+00  0.00000000000E+00  0.36255307692E+01  0.36255317015E+01  0.26000000000E-02 0. -1.
         -2   -1    0    0    0  501 -0.00000000000E+00 -0.00000000000E+00 -0.27583192271E+02  0.27583192394E+02  0.26000000000E-02 0.  1.
       1023    2    1    2    0    0  0.00000000000E+00  0.00000000000E+00 -0.23957661502E+02  0.31208724095E+02  0.20000372872E+02 0.  0.
        -11    1    3    3    0    0 -0.43424880335E+01  0.90080715994E+01 -0.11925405759E+02  0.15563349865E+02  0.51100000000E-03 0. -1.
         11    1    3    3    0    0  0.43424880335E+01 -0.90080715994E+01 -0.12032255743E+02  0.15645374230E+02  0.51100000000E-03 0.  1.
<mgrwt>
<rscale>  0 0.20000373E+02</rscale>
<asrwt>0</asrwt>
<pdfrwt beam="1">  1        2 0.55777406E-03 0.20000373E+02</pdfrwt>
<pdfrwt beam="2">  1       -2 0.42435680E-02 0.20000373E+02</pdfrwt>
<totfact> 0.36366705E+06</totfact>
</mgrwt>
</event>
<event>
 5    1  0.4047225E-006  0.2000438E+02  0.7818608E-02  0.1745241E+00
         -2   -1    0    0    0  501 -0.00000000000E+00  0.00000000000E+00  0.10818647410E+01  0.10818678652E+01  0.26000000000E-02 0. -1.
          2   -1    0    0  501    0  0.00000000000E+00 -0.00000000000E+00 -0.92473394063E+02  0.92473394100E+02  0.26000000000E-02 0.  1.
       1023    2    1    2    0    0  0.00000000000E+00  0.00000000000E+00 -0.91391529322E+02  0.93555261965E+02  0.20004384757E+02 0.  0.
        -11    1    3    3    0    0 -0.70039846177E+01 -0.71394721857E+01 -0.46287117686E+02  0.47355307279E+02  0.51100000000E-03 0. -1.
         11    1    3    3    0    0  0.70039846177E+01  0.71394721857E+01 -0.45104411637E+02  0.46199954686E+02  0.51100000000E-03 0.  1.
<mgrwt>
<rscale>  0 0.20004385E+02</rscale>
<asrwt>0</asrwt>
<pdfrwt beam="2">  1        2 0.14226670E-01 0.20004385E+02</pdfrwt>
<pdfrwt beam="1">  1       -2 0.16644105E-03 0.20004385E+02</pdfrwt>
<totfact> 0.51822675E+06</totfact>
</mgrwt>
</event>
<event>
 4    1  0.4046313E-006  0.2001507E+02  0.7818608E-02  0.1745029E+00
         -2   -1    0    0    0  501 -0.00000000000E+00  0.00000000000E+00  0.74795307991E+01  0.74795312510E+01  0.26000000000E-02 0.  1.
          2   -1    0    0  501    0  0.00000000000E+00 -0.00000000000E+00 -0.13389977212E+02  0.13389977465E+02  0.26000000000E-02 0. -1.
        -11    1    1    2    0    0  0.53841340841E+01  0.84347384463E+01 -0.28191070445E+01  0.10396204946E+02  0.51100000000E-03 0. -1.
         11    1    1    2    0    0 -0.53841340841E+01 -0.84347384463E+01 -0.30913393685E+01  0.10473303769E+02  0.51100000000E-03 0.  1.
<mgrwt>
<rscale>  0 0.20015070E+02</rscale>
<asrwt>0</asrwt>
<pdfrwt beam="2">  1        2 0.20599965E-02 0.20015070E+02</pdfrwt>
<pdfrwt beam="1">  1       -2 0.11506971E-02 0.20015070E+02</pdfrwt>
<totfact> 0.40263028E+06</totfact>
</mgrwt>
</event>
<event>
 5    1  0.4046313E-006  0.2000058E+02  0.7818608E-02  0.1745317E+00
         -2   -1    0    0    0  501 -0.00000000000E+00  0.00000000000E+00  0.93921760915E+02  0.93921760951E+02  0.26000000000E-02 0.  1.
          2   -1    0    0  501    0  0.00000000000E+00 -0.00000000000E+00 -0.10647761990E+01  0.10647793733E+01  0.26000000000E-02 0. -1.
       1023    2    1    2    0    0  0.00000000000E+00  0.00000000000E+00  0.92856984716E+02  0.94986540324E+02  0.20000580797E+02 0.  0.
        -11    1    3    3    0    0  0.54149244680E+01 -0.84073331049E+01  0.46589605818E+02  0.47650771531E+02  0.51100000000E-03 0. -1.
         11    1    3    3    0    0 -0.54149244680E+01  0.84073331049E+01  0.46267378898E+02  0.47335768794E+02  0.51100000000E-03 0.  1.
<mgrwt>
<rscale>  0 0.20000581E+02</rscale>
<asrwt>0</asrwt>
<pdfrwt beam="2">  1        2 0.16381200E-03 0.20000581E+02</pdfrwt>
<pdfrwt beam="1">  1       -2 0.14449499E-01 0.20000581E+02</pdfrwt>
<totfact> 0.30177016E+06</totfact>
</mgrwt>
</event>
<event>
 5    1  0.4046313E-006  0.2000124E+02  0.7818608E-02  0.1745303E+00
         -2   -1    0    0    0  501 -0.00000000000E+00  0.00000000000E+00  0.33654788500E+01  0.33654798543E+01  0.26000000000E-02 0.  1.
          2   -1    0    0  501    0  0.00000000000E+00 -0.00000000000E+00 -0.29717129382E+02  0.29717129496E+02  0.26000000000E-02 0. -1.
       1023    2    1    2    0    0  0.00000000000E+00  0.00000000000E+00 -0.26351650532E+02  0.33082609350E+02  0.20001238853E+02 0.  0.
        -11    1    3    3    0    0  0.96337320400E+01  0.26837072703E+01 -0.13235712073E+02  0.16589006965E+02  0.51100000000E-03 0.  1.
         11    1    3    3    0    0 -0.96337320400E+01 -0.26837072703E+01 -0.13115938459E+02  0.16493602385E+02  0.51100000000E-03 0. -1.
<mgrwt>
<rscale>  0 0.20001239E+02</rscale>
<asrwt>0</asrwt>
<pdfrwt beam="2">  1        2 0.45718660E-02 0.20001239E+02</pdfrwt>
<pdfrwt beam="1">  1       -2 0.51776608E-03 0.20001239E+02</pdfrwt>
<totfact> 0.43322262E+06</totfact>
</mgrwt>
</event>
<event>
 5    1  0.4046313E-006  0.2000361E+02  0.7818608E-02  0.1745256E+00
          2   -1    0    0  501    0  0.00000000000E+00  0.00000000000E+00  0.42929653067E+01  0.42929660941E+01  0.26000000000E-02 0. -1.
         -2   -1    0    0    0  501 -0.00000000000E+00 -0.00000000000E+00 -0.23302331594E+02  0.23302331739E+02  0.26000000000E-02 0.  1.
       1023    2    1    2    0    0  0.00000000000E+00  0.00000000000E+00 -0.19009366287E+02  0.27595297833E+02  0.20003611070E+02 0.  0.
        -11    1    3    3    0    0  0.99943515993E+01 -0.34766038837E+00 -0.97362695675E+01  0.13957180123E+02  0.51100000000E-03 0. -1.
         11    1    3    3    0    0 -0.99943515993E+01  0.34766038837E+00 -0.92730967193E+01  0.13638117710E+02  0.51100000000E-03 0.  1.
<mgrwt>
<rscale>  0 0.20003611E+02</rscale>
<asrwt>0</asrwt>
<pdfrwt beam="1">  1        2 0.66045628E-03 0.20003611E+02</pdfrwt>
<pdfrwt beam="2">  1       -2 0.35849741E-02 0.20003611E+02</pdfrwt>
<totfact> 0.36929557E+06</totfact>
</mgrwt>
</event>
<event>
 5    1  0.4046313E-006  0.2000102E+02  0.7818608E-02  0.1745308E+00
          2   -1    0    0  501    0  0.00000000000E+00  0.00000000000E+00  0.19286923713E+02  0.19286923889E+02  0.26000000000E-02 0.  1.
         -2   -1    0    0    0  501 -0.00000000000E+00 -0.00000000000E+00 -0.51853898620E+01  0.51853905138E+01  0.26000000000E-02 0. -1.
       1023    2    1    2    0    0  0.00000000000E+00  0.00000000000E+00  0.14101533851E+02  0.24472314402E+02  0.20001022855E+02 0.  0.
        -11    1    3    3    0    0 -0.10369721565E+01 -0.99464164894E+01  0.69761771670E+01  0.12193176795E+02  0.51100000000E-03 0. -1.
         11    1    3    3    0    0  0.10369721565E+01  0.99464164894E+01  0.71253566843E+01  0.12279137607E+02  0.51100000000E-03 0.  1.
<mgrwt>
<rscale>  0 0.20001023E+02</rscale>
<asrwt>0</asrwt>
<pdfrwt beam="1">  1        2 0.29672191E-02 0.20001023E+02</pdfrwt>
<pdfrwt beam="2">  1       -2 0.79775236E-03 0.20001023E+02</pdfrwt>
<totfact> 0.41540709E+06</totfact>
</mgrwt>
</event>
<event>
 5    1  0.4070539E-006  0.2000205E+02  0.7818608E-02  0.1745287E+00
          2   -1    0    0  501    0  0.00000000000E+00  0.00000000000E+00  0.50088022040E+02  0.50088022107E+02  0.26000000000E-02 0.  1.
         -2   -1    0    0    0  501 -0.00000000000E+00 -0.00000000000E+00 -0.19968938309E+01  0.19968955236E+01  0.26000000000E-02 0. -1.
       1023    2    1    2    0    0  0.00000000000E+00  0.00000000000E+00  0.48091128209E+02  0.52084917631E+02  0.20002050700E+02 0.  0.
        -11    1    3    3    0    0 -0.59839004069E+01  0.80127030900E+01  0.24306390043E+02  0.26283285032E+02  0.51100000000E-03 0.  1.
         11    1    3    3    0    0  0.59839004069E+01 -0.80127030900E+01  0.23784738166E+02  0.25801632599E+02  0.51100000000E-03 0. -1.
<mgrwt>
<rscale>  0 0.20002051E+02</rscale>
<asrwt>0</asrwt>
<pdfrwt beam="1">  1        2 0.77058495E-02 0.20002051E+02</pdfrwt>
<pdfrwt beam="2">  1       -2 0.30721458E-03 0.20002051E+02</pdfrwt>
<totfact> 0.46329828E+06</totfact>
</mgrwt>
</event>
<event>
 5    1  0.4046313E-006  0.2000095E+02  0.7818608E-02  0.1745309E+00
          2   -1    0    0  501    0  0.00000000000E+00  0.00000000000E+00  0.32856377817E+01  0.32856388104E+01  0.26000000000E-02 0.  1.
         -2   -1    0    0    0  501 -0.00000000000E+00 -0.00000000000E+00 -0.30438386586E+02  0.30438386697E+02  0.26000000000E-02 0. -1.
       1023    2    1    2    0    0  0.00000000000E+00  0.00000000000E+00 -0.27152748804E+02  0.33724025507E+02  0.20000953197E+02 0.  0.
        -11    1    3    3    0    0  0.64186226572E+01 -0.76685751084E+01 -0.13679915544E+02  0.16945378443E+02  0.51100000000E-03 0. -1.
         11    1    3    3    0    0 -0.64186226572E+01  0.76685751084E+01 -0.13472833260E+02  0.16778647064E+02  0.51100000000E-03 0.  1.
<mgrwt>
<rscale>  0 0.20000953E+02</rscale>
<asrwt>0</asrwt>
<pdfrwt beam="1">  1        2 0.50548284E-03 0.20000953E+02</pdfrwt>
<pdfrwt beam="2">  1       -2 0.46828286E-02 0.20000953E+02</pdfrwt>
<totfact> 0.36006869E+06</totfact>
</mgrwt>
</event>
<event>
 5    1  0.4046313E-006  0.2000681E+02  0.7818608E-02  0.1745193E+00
         -2   -1    0    0    0  501 -0.00000000000E+00  0.00000000000E+00  0.14991536157E+02  0.14991536382E+02  0.26000000000E-02 0. -1.
          2   -1    0    0  501    0  0.00000000000E+00 -0.00000000000E+00 -0.66749759790E+01  0.66749764854E+01  0.26000000000E-02 0.  1.
       1023    2    1    2    0    0  0.00000000000E+00  0.00000000000E+00  0.83165601775E+01  0.21666512867E+02  0.20006814005E+02 0.  0.
        -11    1    3    3    0    0  0.99769863084E+01  0.71500465306E+00  0.42980777955E+01  0.10886916940E+02  0.51100000000E-03 0.  1.
         11    1    3    3    0    0 -0.99769863084E+01 -0.71500465306E+00  0.40184823820E+01  0.10779595928E+02  0.51100000000E-03 0. -1.
<mgrwt>
<rscale>  0 0.20006814E+02</rscale>
<asrwt>0</asrwt>
<pdfrwt beam="2">  1        2 0.10269194E-02 0.20006814E+02</pdfrwt>
<pdfrwt beam="1">  1       -2 0.23063902E-02 0.20006814E+02</pdfrwt>
<totfact> 0.38271123E+06</totfact>
</mgrwt>
</event>
<event>
 5    1  0.4046313E-006  0.2000039E+02  0.7818608E-02  0.1745320E+00
         -2   -1    0    0    0  501 -0.00000000000E+00  0.00000000000E+00  0.53922465375E+02  0.53922465438E+02  0.26000000000E-02 0.  1.
          2   -1    0    0  501    0  0.00000000000E+00 -0.00000000000E+00 -0.18545866849E+01  0.18545885074E+01  0.26000000000E-02 0. -1.
       1023    2    1    2    0    0  0.00000000000E+00  0.00000000000E+00  0.52067878690E+02  0.55777053945E+02  0.20000393884E+02 0.  0.
        -11    1    3    3    0    0 -0.99446473192E+01  0.10523144217E+01  0.26100091423E+02  0.27950279936E+02  0.51100000000E-03 0. -1.
         11    1    3    3    0    0  0.99446473192E+01 -0.10523144217E+01  0.25967787267E+02  0.27826774009E+02  0.51100000000E-03 0.  1.
<mgrwt>
<rscale>  0 0.20000394E+02</rscale>
<asrwt>0</asrwt>
<pdfrwt beam="2">  1        2 0.28532119E-03 0.20000394E+02</pdfrwt>
<pdfrwt beam="1">  1       -2 0.82957636E-02 0.20000394E+02</pdfrwt>
<totfact> 0.33520618E+06</totfact>
</mgrwt>
</event>
<event>
 5    1  0.4046313E-006  0.2000056E+02  0.7818608E-02  0.1745317E+00
          2   -1    0    0  501    0  0.00000000000E+00  0.00000000000E+00  0.14409688777E+01  0.14409712234E+01  0.26000000000E-02 0. -1.
         -2   -1    0    0    0  501 -0.00000000000E+00 -0.00000000000E+00 -0.69401574574E+02  0.69401574622E+02  0.26000000000E-02 0.  1.
       1023    2    1    2    0    0  0.00000000000E+00  0.00000000000E+00 -0.67960605696E+02  0.70842545846E+02  0.20000559376E+02 0.  0.
        -11    1    3    3    0    0  0.91796557202E+01 -0.39669949917E+01 -0.34156166245E+02  0.35589982035E+02  0.51100000000E-03 0. -1.
         11    1    3    3    0    0 -0.91796557202E+01  0.39669949917E+01 -0.33804439451E+02  0.35252563811E+02  0.51100000000E-03 0.  1.
<mgrwt>
<rscale>  0 0.20000559E+02</rscale>
<asrwt>0</asrwt>
<pdfrwt beam="1">  1        2 0.22168776E-03 0.20000559E+02</pdfrwt>
<pdfrwt beam="2">  1       -2 0.10677163E-01 0.20000559E+02</pdfrwt>
<totfact> 0.32132181E+06</totfact>
</mgrwt>
</event>
<event>
 5    1  0.4176517E-006  0.2000092E+02  0.7818608E-02  0.1745310E+00
         -2   -1    0    0    0  501 -0.00000000000E+00  0.00000000000E+00  0.12625730822E+01  0.12625757593E+01  0.26000000000E-02 0. -1.
          2   -1    0    0  501    0  0.00000000000E+00 -0.00000000000E+00 -0.79210521265E+02  0.79210521307E+02  0.26000000000E-02 0.  1.
       1023    2    1    2    0    0  0.00000000000E+00  0.00000000000E+00 -0.77947948182E+02  0.80473097067E+02  0.20000918120E+02 0.  0.
        -11    1    3    3    0    0  0.99966303729E+01 -0.27650526835E+00 -0.38932320873E+02  0.40196202343E+02  0.51100000000E-03 0.  1.
         11    1    3    3    0    0 -0.99966303729E+01  0.27650526835E+00 -0.39015627309E+02  0.40276894724E+02  0.51100000000E-03 0. -1.
<mgrwt>
<rscale>  0 0.20000918E+02</rscale>
<asrwt>0</asrwt>
<pdfrwt beam="2">  1        2 0.12186230E-01 0.20000918E+02</pdfrwt>
<pdfrwt beam="1">  1       -2 0.19424228E-03 0.20000918E+02</pdfrwt>
<totfact> 0.50194835E+06</totfact>
</mgrwt>
</event>
<event>
 5    1  0.4046313E-006  0.2000688E+02  0.7818608E-02  0.1745191E+00
          2   -1    0    0  501    0  0.00000000000E+00  0.00000000000E+00  0.12959716000E+02  0.12959716260E+02  0.26000000000E-02 0. -1.
         -2   -1    0    0    0  501 -0.00000000000E+00 -0.00000000000E+00 -0.77215287265E+01  0.77215291642E+01  0.26000000000E-02 0.  1.
       1023    2    1    2    0    0  0.00000000000E+00  0.00000000000E+00  0.52381872730E+01  0.20681245425E+02  0.20006881476E+02 0.  0.
        -11    1    3    3    0    0 -0.78931039598E+01  0.61449000743E+01  0.27111997137E+01  0.10363951524E+02  0.51100000000E-03 0.  1.
         11    1    3    3    0    0  0.78931039598E+01 -0.61449000743E+01  0.25269875593E+01  0.10317293901E+02  0.51100000000E-03 0. -1.
<mgrwt>
<rscale>  0 0.20006881E+02</rscale>
<asrwt>0</asrwt>
<pdfrwt beam="1">  1        2 0.19938025E-02 0.20006881E+02</pdfrwt>
<pdfrwt beam="2">  1       -2 0.11879276E-02 0.20006881E+02</pdfrwt>
<totfact> 0.40200151E+06</totfact>
</mgrwt>
</event>
<event>
 5    1  0.4046313E-006  0.2000069E+02  0.7818608E-02  0.1745314E+00
         -2   -1    0    0    0  501 -0.00000000000E+00  0.00000000000E+00  0.22126024149E+01  0.22126039425E+01  0.26000000000E-02 0. -1.
          2   -1    0    0  501    0  0.00000000000E+00 -0.00000000000E+00 -0.45198771278E+02  0.45198771353E+02  0.26000000000E-02 0.  1.
       1023    2    1    2    0    0  0.00000000000E+00  0.00000000000E+00 -0.42986168863E+02  0.47411375296E+02  0.20000694835E+02 0.  0.
        -11    1    3    3    0    0  0.67130286704E+01 -0.74119358978E+01 -0.21667287300E+02  0.23863631050E+02  0.51100000000E-03 0. -1.
         11    1    3    3    0    0 -0.67130286704E+01  0.74119358978E+01 -0.21318881563E+02  0.23547744245E+02  0.51100000000E-03 0.  1.
<mgrwt>
<rscale>  0 0.20000695E+02</rscale>
<asrwt>0</asrwt>
<pdfrwt beam="2">  1        2 0.69536565E-02 0.20000695E+02</pdfrwt>
<pdfrwt beam="1">  1       -2 0.34040053E-03 0.20000695E+02</pdfrwt>
<totfact> 0.45646202E+06</totfact>
</mgrwt>
</event>
<event>
 5    1  0.4046313E-006  0.2000050E+02  0.7818608E-02  0.1745318E+00
         -2   -1    0    0    0  501 -0.00000000000E+00  0.00000000000E+00  0.23253025060E+01  0.23253039595E+01  0.26000000000E-02 0.  1.
          2   -1    0    0  501    0  0.00000000000E+00 -0.00000000000E+00 -0.43007290923E+02  0.43007291001E+02  0.26000000000E-02 0. -1.
       1023    2    1    2    0    0  0.00000000000E+00  0.00000000000E+00 -0.40681988417E+02  0.45332594961E+02  0.20000499602E+02 0.  0.
        -11    1    3    3    0    0 -0.43668057354E+01 -0.89963908335E+01 -0.20270933063E+02  0.22603423809E+02  0.51100000000E-03 0. -1.
         11    1    3    3    0    0  0.43668057354E+01  0.89963908335E+01 -0.20411055353E+02  0.22729171152E+02  0.51100000000E-03 0.  1.
<mgrwt>
<rscale>  0 0.20000500E+02</rscale>
<asrwt>0</asrwt>
<pdfrwt beam="2">  1        2 0.66165058E-02 0.20000500E+02</pdfrwt>
<pdfrwt beam="1">  1       -2 0.35773900E-03 0.20000500E+02</pdfrwt>
<totfact> 0.45332218E+06</totfact>
</mgrwt>
</event>
<event>
 5    1  0.4046313E-006  0.2000067E+02  0.7818608E-02  0.1745315E+00
          2   -1    0    0  501    0  0.00000000000E+00  0.00000000000E+00  0.10959135648E+02  0.10959135957E+02  0.26000000000E-02 0.  1.
         -2   -1    0    0    0  501 -0.00000000000E+00 -0.00000000000E+00 -0.91254192154E+01  0.91254195858E+01  0.26000000000E-02 0. -1.
       1023    2    1    2    0    0  0.00000000000E+00  0.00000000000E+00  0.18337164328E+01  0.20084555542E+02  0.20000671373E+02 0.  0.
        -11    1    3    3    0    0  0.96961877484E+01 -0.24473614728E+01  0.94983728091E+00  0.10045288754E+02  0.51100000000E-03 0. -1.
         11    1    3    3    0    0 -0.96961877484E+01  0.24473614728E+01  0.88387915184E+00  0.10039266788E+02  0.51100000000E-03 0.  1.
<mgrwt>
<rscale>  0 0.20000671E+02</rscale>
<asrwt>0</asrwt>
<pdfrwt beam="1">  1        2 0.16860209E-02 0.20000671E+02</pdfrwt>
<pdfrwt beam="2">  1       -2 0.14039107E-02 0.20000671E+02</pdfrwt>
<totfact> 0.39726860E+06</totfact>
</mgrwt>
</event>
<event>
 5    1  0.4046313E-006  0.2000054E+02  0.7818608E-02  0.1745317E+00
          2   -1    0    0  501    0  0.00000000000E+00  0.00000000000E+00  0.16085721580E+01  0.16085742593E+01  0.26000000000E-02 0. -1.
         -2   -1    0    0    0  501 -0.00000000000E+00 -0.00000000000E+00 -0.62170236667E+02  0.62170236722E+02  0.26000000000E-02 0.  1.
       1023    2    1    2    0    0  0.00000000000E+00  0.00000000000E+00 -0.60561664509E+02  0.63778810981E+02  0.20000538043E+02 0.  0.
        -11    1    3    3    0    0 -0.13013835647E+01  0.99151974354E+01 -0.30200104739E+02  0.31812750052E+02  0.51100000000E-03 0.  1.
         11    1    3    3    0    0  0.13013835647E+01 -0.99151974354E+01 -0.30361559770E+02  0.31966060929E+02  0.51100000000E-03 0. -1.
<mgrwt>
<rscale>  0 0.20000538E+02</rscale>
<asrwt>0</asrwt>
<pdfrwt beam="1">  1        2 0.24747285E-03 0.20000538E+02</pdfrwt>
<pdfrwt beam="2">  1       -2 0.95646501E-02 0.20000538E+02</pdfrwt>
<totfact> 0.32762862E+06</totfact>
</mgrwt>
</event>
<event>
 5    1  0.4046313E-006  0.2000082E+02  0.7818608E-02  0.1745312E+00
          2   -1    0    0  501    0  0.00000000000E+00  0.00000000000E+00  0.36551338006E+02  0.36551338099E+02  0.26000000000E-02 0. -1.
         -2   -1    0    0    0  501 -0.00000000000E+00 -0.00000000000E+00 -0.27361029408E+01  0.27361041762E+01  0.26000000000E-02 0.  1.
       1023    2    1    2    0    0  0.00000000000E+00  0.00000000000E+00  0.33815235065E+02  0.39287442275E+02  0.20000824932E+02 0.  0.
        -11    1    3    3    0    0  0.98483942111E+01 -0.17367324277E+01  0.16973973653E+02  0.19700834751E+02  0.51100000000E-03 0. -1.
         11    1    3    3    0    0 -0.98483942111E+01  0.17367324277E+01  0.16841261413E+02  0.19586607524E+02  0.51100000000E-03 0.  1.
<mgrwt>
<rscale>  0 0.20000825E+02</rscale>
<asrwt>0</asrwt>
<pdfrwt beam="1">  1        2 0.56232828E-02 0.20000825E+02</pdfrwt>
<pdfrwt beam="2">  1       -2 0.42093902E-03 0.20000825E+02</pdfrwt>
<totfact> 0.44379551E+06</totfact>
</mgrwt>
</event>
<event>
 5    1  0.4046313E-006  0.2000033E+02  0.7818608E-02  0.1745322E+00
         -2   -1    0    0    0  501 -0.00000000000E+00  0.00000000000E+00  0.82672233578E+00  0.82672642421E+00  0.26000000000E-02 0.  1.
          2   -1    0    0  501    0  0.00000000000E+00 -0.00000000000E+00 -0.12096329318E+03  0.12096329321E+03  0.26000000000E-02 0. -1.
       1023    2    1    2    0    0  0.00000000000E+00  0.00000000000E+00 -0.12013657085E+03  0.12179001964E+03  0.20000330692E+02 0.  0.
        -11    1    3    3    0    0  0.93080838205E+01 -0.36554126384E+01 -0.60244849039E+02  0.61069176366E+02  0.51100000000E-03 0.  1.
         11    1    3    3    0    0 -0.93080838205E+01  0.36554126384E+01 -0.59891721808E+02  0.60720843270E+02  0.51100000000E-03 0. -1.
<mgrwt>
<rscale>  0 0.20000331E+02</rscale>
<asrwt>0</asrwt>
<pdfrwt beam="2">  1        2 0.18609724E-01 0.20000331E+02</pdfrwt>
<pdfrwt beam="1">  1       -2 0.12718846E-03 0.20000331E+02</pdfrwt>
<totfact> 0.55199876E+06</totfact>
</mgrwt>
</event>
<event>
 5    1  0.4046313E-006  0.2000128E+02  0.7818608E-02  0.1745303E+00
          2   -1    0    0  501    0  0.00000000000E+00  0.00000000000E+00  0.12505541572E+01  0.12505568600E+01  0.26000000000E-02 0.  1.
         -2   -1    0    0    0  501 -0.00000000000E+00 -0.00000000000E+00 -0.79974686397E+02  0.79974686439E+02  0.26000000000E-02 0. -1.
       1023    2    1    2    0    0  0.00000000000E+00  0.00000000000E+00 -0.78724132240E+02  0.81225243299E+02  0.20001278762E+02 0.  0.
        -11    1    3    3    0    0 -0.32918641404E+01  0.94429572832E+01 -0.39701250951E+02  0.40941362204E+02  0.51100000000E-03 0.  1.
         11    1    3    3    0    0  0.32918641404E+01 -0.94429572832E+01 -0.39022881289E+02  0.40283881095E+02  0.51100000000E-03 0. -1.
<mgrwt>
<rscale>  0 0.20001279E+02</rscale>
<asrwt>0</asrwt>
<pdfrwt beam="1">  1        2 0.19239322E-03 0.20001279E+02</pdfrwt>
<pdfrwt beam="2">  1       -2 0.12303794E-01 0.20001279E+02</pdfrwt>
<totfact> 0.31255501E+06</totfact>
</mgrwt>
</event>
<event>
 5    1  0.4046313E-006  0.2000194E+02  0.7818608E-02  0.1745290E+00
         -2   -1    0    0    0  501 -0.00000000000E+00  0.00000000000E+00  0.14907409284E+01  0.14907431957E+01  0.26000000000E-02 0. -1.
          2   -1    0    0  501    0  0.00000000000E+00 -0.00000000000E+00 -0.67093688716E+02  0.67093688766E+02  0.26000000000E-02 0.  1.
       1023    2    1    2    0    0  0.00000000000E+00  0.00000000000E+00 -0.65602947788E+02  0.68584431962E+02  0.20001938635E+02 0.  0.
        -11    1    3    3    0    0  0.90305270994E+01  0.42974244725E+01 -0.32687222603E+02  0.34182931392E+02  0.51100000000E-03 0.  1.
         11    1    3    3    0    0 -0.90305270994E+01 -0.42974244725E+01 -0.32915725185E+02  0.34401500571E+02  0.51100000000E-03 0. -1.
<mgrwt>
<rscale>  0 0.20001939E+02</rscale>
<asrwt>0</asrwt>
<pdfrwt beam="2">  1        2 0.10322104E-01 0.20001939E+02</pdfrwt>
<pdfrwt beam="1">  1       -2 0.22934499E-03 0.20001939E+02</pdfrwt>
<totfact> 0.48629671E+06</totfact>
</mgrwt>
</event>
<event>
 5    1  0.4046313E-006  0.2000167E+02  0.7818608E-02  0.1745295E+00
         -2   -1    0    0    0  501 -0.00000000000E+00  0.00000000000E+00  0.37623045312E+01  0.37623054296E+01  0.26000000000E-02 0.  1.
          2   -1    0    0  501    0  0.00000000000E+00 -0.00000000000E+00 -0.26583888061E+02  0.26583888188E+02  0.26000000000E-02 0. -1.
       1023    2    1    2    0    0  0.00000000000E+00  0.00000000000E+00 -0.22821583529E+02  0.30346193617E+02  0.20001669737E+02 0.  0.
        -11    1    3    3    0    0  0.93037975224E+01 -0.36677056487E+01 -0.11315019871E+02  0.15101072412E+02  0.51100000000E-03 0.  1.
         11    1    3    3    0    0 -0.93037975224E+01  0.36677056487E+01 -0.11506563658E+02  0.15245121205E+02  0.51100000000E-03 0. -1.
<mgrwt>
<rscale>  0 0.20001670E+02</rscale>
<asrwt>0</asrwt>
<pdfrwt beam="2">  1        2 0.40898289E-02 0.20001670E+02</pdfrwt>
<pdfrwt beam="1">  1       -2 0.57881618E-03 0.20001670E+02</pdfrwt>
<totfact> 0.42812837E+06</totfact>
</mgrwt>
</event>
<event>
 5    1  0.4079890E-006  0.2000158E+02  0.7818608E-02  0.1745297E+00
         -2   -1    0    0    0  501 -0.00000000000E+00  0.00000000000E+00  0.28719984077E+01  0.28719995846E+01  0.26000000000E-02 0.  1.
          2   -1    0    0  501    0  0.00000000000E+00 -0.00000000000E+00 -0.34824443479E+02  0.34824443576E+02  0.26000000000E-02 0. -1.
       1023    2    1    2    0    0  0.00000000000E+00  0.00000000000E+00 -0.31952445072E+02  0.37696443161E+02  0.20001576961E+02 0.  0.
        -11    1    3    3    0    0  0.98318617697E+01  0.18269894030E+01 -0.16185869385E+02  0.19025923477E+02  0.51100000000E-03 0.  1.
         11    1    3    3    0    0 -0.98318617697E+01 -0.18269894030E+01 -0.15766575687E+02  0.18670519684E+02  0.51100000000E-03 0. -1.
<mgrwt>
<rscale>  0 0.20001577E+02</rscale>
<asrwt>0</asrwt>
<pdfrwt beam="2">  1        2 0.53576065E-02 0.20001577E+02</pdfrwt>
<pdfrwt beam="1">  1       -2 0.44184603E-03 0.20001577E+02</pdfrwt>
<totfact> 0.44114594E+06</totfact>
</mgrwt>
</event>
<event>
 5    1  0.4046313E-006  0.2000129E+02  0.7818608E-02  0.1745302E+00
          2   -1    0    0  501    0  0.00000000000E+00  0.00000000000E+00  0.12638963976E+01  0.12638990718E+01  0.26000000000E-02 0. -1.
         -2   -1    0    0    0  501 -0.00000000000E+00 -0.00000000000E+00 -0.79130533511E+02  0.79130533553E+02  0.26000000000E-02 0.  1.
       1023    2    1    2    0    0  0.00000000000E+00  0.00000000000E+00 -0.77866637113E+02  0.80394432625E+02  0.20001290504E+02 0.  0.
        -11    1    3    3    0    0  0.74279788880E+01 -0.66957405861E+01 -0.39220163975E+02  0.40475042617E+02  0.51100000000E-03 0.  1.
         11    1    3    3    0    0 -0.74279788880E+01  0.66957405861E+01 -0.38646473138E+02  0.39919390008E+02  0.51100000000E-03 0. -1.
<mgrwt>
<rscale>  0 0.20001291E+02</rscale>
<asrwt>0</asrwt>
<pdfrwt beam="1">  1        2 0.19444587E-03 0.20001291E+02</pdfrwt>
<pdfrwt beam="2">  1       -2 0.12173925E-01 0.20001291E+02</pdfrwt>
<totfact> 0.31323345E+06</totfact>
</mgrwt>
</event>
<event>
 5    1  0.4046313E-006  0.2000464E+02  0.7818608E-02  0.1745236E+00
         -2   -1    0    0    0  501 -0.00000000000E+00  0.00000000000E+00  0.17913148137E+01  0.17913167005E+01  0.26000000000E-02 0.  1.
          2   -1    0    0  501    0  0.00000000000E+00 -0.00000000000E+00 -0.55850782442E+02  0.55850782502E+02  0.26000000000E-02 0. -1.
       1023    2    1    2    0    0  0.00000000000E+00  0.00000000000E+00 -0.54059467628E+02  0.57642099203E+02  0.20004638469E+02 0.  0.
        -11    1    3    3    0    0 -0.54463550082E+01  0.83889887614E+01 -0.26764477380E+02  0.28572279661E+02  0.51100000000E-03 0. -1.
         11    1    3    3    0    0  0.54463550082E+01 -0.83889887614E+01 -0.27294990247E+02  0.29069819542E+02  0.51100000000E-03 0.  1.
<mgrwt>
<rscale>  0 0.20004638E+02</rscale>
<asrwt>0</asrwt>
<pdfrwt beam="2">  1        2 0.85924269E-02 0.20004638E+02</pdfrwt>
<pdfrwt beam="1">  1       -2 0.27558709E-03 0.20004638E+02</pdfrwt>
<totfact> 0.47111424E+06</totfact>
</mgrwt>
</event>
<event>
 5    1  0.4046313E-006  0.2000033E+02  0.7818608E-02  0.1745321E+00
         -2   -1    0    0    0  501 -0.00000000000E+00  0.00000000000E+00  0.54416392748E+01  0.54416398959E+01  0.26000000000E-02 0.  1.
          2   -1    0    0  501    0  0.00000000000E+00 -0.00000000000E+00 -0.18377421716E+02  0.18377421900E+02  0.26000000000E-02 0. -1.
       1023    2    1    2    0    0  0.00000000000E+00  0.00000000000E+00 -0.12935782441E+02  0.23819061796E+02  0.20000330934E+02 0.  0.
        -11    1    3    3    0    0 -0.48652949284E+01 -0.87368293244E+01 -0.64616206717E+01  0.11906125455E+02  0.51100000000E-03 0. -1.
         11    1    3    3    0    0  0.48652949284E+01  0.87368293244E+01 -0.64741617697E+01  0.11912936341E+02  0.51100000000E-03 0.  1.
<mgrwt>
<rscale>  0 0.20000331E+02</rscale>
<asrwt>0</asrwt>
<pdfrwt beam="2">  1        2 0.28272957E-02 0.20000331E+02</pdfrwt>
<pdfrwt beam="1">  1       -2 0.83717534E-03 0.20000331E+02</pdfrwt>
<totfact> 0.41371402E+06</totfact>
</mgrwt>
</event>
<event>
 5    1  0.4046313E-006  0.2000280E+02  0.7818608E-02  0.1745272E+00
          2   -1    0    0  501    0  0.00000000000E+00  0.00000000000E+00  0.12875555375E+02  0.12875555637E+02  0.26000000000E-02 0.  1.
         -2   -1    0    0    0  501 -0.00000000000E+00 -0.00000000000E+00 -0.77688264982E+01  0.77688269333E+01  0.26000000000E-02 0. -1.
       1023    2    1    2    0    0  0.00000000000E+00  0.00000000000E+00  0.51067288765E+01  0.20644382571E+02  0.20002796102E+02 0.  0.
        -11    1    3    3    0    0  0.99949647421E+01  0.35603361333E+00  0.25085839929E+01  0.10311114103E+02  0.51100000000E-03 0.  1.
         11    1    3    3    0    0 -0.99949647421E+01 -0.35603361333E+00  0.25981448836E+01  0.10333268468E+02  0.51100000000E-03 0. -1.
<mgrwt>
<rscale>  0 0.20002796E+02</rscale>
<asrwt>0</asrwt>
<pdfrwt beam="1">  1        2 0.19808547E-02 0.20002796E+02</pdfrwt>
<pdfrwt beam="2">  1       -2 0.11952041E-02 0.20002796E+02</pdfrwt>
<totfact> 0.40198886E+06</totfact>
</mgrwt>
</event>
<event>
 5    1  0.4046313E-006  0.2000048E+02  0.7818608E-02  0.1745319E+00
         -2   -1    0    0    0  501 -0.00000000000E+00  0.00000000000E+00  0.31341135120E+01  0.31341145905E+01  0.26000000000E-02 0. -1.
          2   -1    0    0  501    0  0.00000000000E+00 -0.00000000000E+00 -0.31908464497E+02  0.31908464603E+02  0.26000000000E-02 0.  1.
       1023    2    1    2    0    0  0.00000000000E+00  0.00000000000E+00 -0.28774350985E+02  0.35042579194E+02  0.20000477042E+02 0.  0.
        -11    1    3    3    0    0 -0.63608641288E+01  0.77163881722E+01 -0.14318612429E+02  0.17464990725E+02  0.51100000000E-03 0.  1.
         11    1    3    3    0    0  0.63608641288E+01 -0.77163881722E+01 -0.14455738557E+02  0.17577588468E+02  0.51100000000E-03 0. -1.
<mgrwt>
<rscale>  0 0.20000477E+02</rscale>
<asrwt>0</asrwt>
<pdfrwt beam="2">  1        2 0.49089944E-02 0.20000477E+02</pdfrwt>
<pdfrwt beam="1">  1       -2 0.48217142E-03 0.20000477E+02</pdfrwt>
<totfact> 0.43670993E+06</totfact>
</mgrwt>
</event>
<event>
 5    1  0.4046313E-006  0.2000051E+02  0.7818608E-02  0.1745318E+00
          2   -1    0    0  501    0  0.00000000000E+00  0.00000000000E+00  0.39504367544E+01  0.39504376100E+01  0.26000000000E-02 0.  1.
         -2   -1    0    0    0  501 -0.00000000000E+00 -0.00000000000E+00 -0.25314941999E+02  0.25314942133E+02  0.26000000000E-02 0. -1.
       1023    2    1    2    0    0  0.00000000000E+00  0.00000000000E+00 -0.21364505245E+02  0.29265379743E+02  0.20000509172E+02 0.  0.
        -11    1    3    3    0    0  0.88984209028E+01  0.45629335355E+01 -0.10604349990E+02  0.14575818879E+02  0.51100000000E-03 0.  1.
         11    1    3    3    0    0 -0.88984209028E+01 -0.45629335355E+01 -0.10760155255E+02  0.14689560864E+02  0.51100000000E-03 0. -1.
<mgrwt>
<rscale>  0 0.20000509E+02</rscale>
<asrwt>0</asrwt>
<pdfrwt beam="1">  1        2 0.60775959E-03 0.20000509E+02</pdfrwt>
<pdfrwt beam="2">  1       -2 0.38946064E-02 0.20000509E+02</pdfrwt>
<totfact> 0.36664346E+06</totfact>
</mgrwt>
</event>
<event>
 4    1  0.4046313E-006  0.2001498E+02  0.7818608E-02  0.1745030E+00
          2   -1    0    0  501    0  0.00000000000E+00  0.00000000000E+00  0.11249505414E+03  0.11249505417E+03  0.26000000000E-02 0. -1.
         -2   -1    0    0    0  501 -0.00000000000E+00 -0.00000000000E+00 -0.89025821301E+00  0.89026200965E+00  0.26000000000E-02 0.  1.
        -11    1    1    2    0    0 -0.73826163682E+01 -0.67482359076E+01  0.53939387013E+02  0.54858902504E+02  0.51100000000E-03 0. -1.
         11    1    1    2    0    0  0.73826163682E+01  0.67482359076E+01  0.57665408915E+02  0.58526413677E+02  0.51100000000E-03 0.  1.
<mgrwt>
<rscale>  0 0.20014981E+02</rscale>
<asrwt>0</asrwt>
<pdfrwt beam="1">  1        2 0.17306918E-01 0.20014981E+02</pdfrwt>
<pdfrwt beam="2">  1       -2 0.13696320E-03 0.20014981E+02</pdfrwt>
<totfact> 0.54140362E+06</totfact>
</mgrwt>
</event>
<event>
 5    1  0.4046313E-006  0.2000041E+02  0.7818608E-02  0.1745320E+00
          2   -1    0    0  501    0  0.00000000000E+00  0.00000000000E+00  0.52259556450E+01  0.52259562918E+01  0.26000000000E-02 0. -1.
         -2   -1    0    0    0  501 -0.00000000000E+00 -0.00000000000E+00 -0.19136039732E+02  0.19136039909E+02  0.26000000000E-02 0.  1.
       1023    2    1    2    0    0  0.00000000000E+00  0.00000000000E+00 -0.13910084087E+02  0.24361996201E+02  0.20000410485E+02 0.  0.
        -11    1    3    3    0    0  0.70413406187E+01 -0.71008884107E+01 -0.69937665089E+01  0.12203108791E+02  0.51100000000E-03 0. -1.
         11    1    3    3    0    0 -0.70413406187E+01  0.71008884107E+01 -0.69163175784E+01  0.12158887409E+02  0.51100000000E-03 0.  1.
<mgrwt>
<rscale>  0 0.20000410E+02</rscale>
<asrwt>0</asrwt>
<pdfrwt beam="1">  1        2 0.80399325E-03 0.20000410E+02</pdfrwt>
<pdfrwt beam="2">  1       -2 0.29440061E-02 0.20000410E+02</pdfrwt>
<totfact> 0.37569153E+06</totfact>
</mgrwt>
</event>
<event>
 5    1  0.4046313E-006  0.2000023E+02  0.7818608E-02  0.1745323E+00
          2   -1    0    0  501    0  0.00000000000E+00  0.00000000000E+00  0.41995050960E+02  0.41995051040E+02  0.26000000000E-02 0.  1.
         -2   -1    0    0    0  501 -0.00000000000E+00 -0.00000000000E+00 -0.23812873955E+01  0.23812888149E+01  0.26000000000E-02 0. -1.
       1023    2    1    2    0    0  0.00000000000E+00  0.00000000000E+00  0.39613763564E+02  0.44376339855E+02  0.20000231879E+02 0.  0.
        -11    1    3    3    0    0  0.92071388527E+01 -0.39026799926E+01  0.19809658682E+02  0.22190648804E+02  0.51100000000E-03 0.  1.
         11    1    3    3    0    0 -0.92071388527E+01  0.39026799926E+01  0.19804104882E+02  0.22185691051E+02  0.51100000000E-03 0. -1.
<mgrwt>
<rscale>  0 0.20000232E+02</rscale>
<asrwt>0</asrwt>
<pdfrwt beam="1">  1        2 0.64607773E-02 0.20000232E+02</pdfrwt>
<pdfrwt beam="2">  1       -2 0.36635202E-03 0.20000232E+02</pdfrwt>
<totfact> 0.45186834E+06</totfact>
</mgrwt>
</event>
<event>
 5    1  0.4046313E-006  0.2000026E+02  0.7818608E-02  0.1745323E+00
         -2   -1    0    0    0  501 -0.00000000000E+00  0.00000000000E+00  0.32890930466E+01  0.32890940743E+01  0.26000000000E-02 0.  1.
          2   -1    0    0  501    0  0.00000000000E+00 -0.00000000000E+00 -0.30404290669E+02  0.30404290780E+02  0.26000000000E-02 0. -1.
       1023    2    1    2    0    0  0.00000000000E+00  0.00000000000E+00 -0.27115197623E+02  0.33693384855E+02  0.20000256020E+02 0.  0.
        -11    1    3    3    0    0 -0.20479633794E+00 -0.99979132553E+01 -0.13475950730E+02  0.16780985052E+02  0.51100000000E-03 0. -1.
         11    1    3    3    0    0  0.20479633794E+00  0.99979132553E+01 -0.13639246893E+02  0.16912399802E+02  0.51100000000E-03 0.  1.
<mgrwt>
<rscale>  0 0.20000256E+02</rscale>
<asrwt>0</asrwt>
<pdfrwt beam="2">  1        2 0.46775831E-02 0.20000256E+02</pdfrwt>
<pdfrwt beam="1">  1       -2 0.50601442E-03 0.20000256E+02</pdfrwt>
<totfact> 0.43436011E+06</totfact>
</mgrwt>
</event>
<event>
 4    1  0.4046313E-006  0.2001318E+02  0.7818608E-02  0.1745066E+00
         -2   -1    0    0    0  501 -0.00000000000E+00  0.00000000000E+00  0.11541593779E+01  0.11541623065E+01  0.26000000000E-02 0.  1.
          2   -1    0    0  501    0  0.00000000000E+00 -0.00000000000E+00 -0.86757240348E+02  0.86757240387E+02  0.26000000000E-02 0. -1.
        -11    1    1    2    0    0  0.24473523122E+01  0.96998728198E+01 -0.41773741873E+02  0.42954890017E+02  0.51100000000E-03 0.  1.
         11    1    1    2    0    0 -0.24473523122E+01 -0.96998728198E+01 -0.43829339097E+02  0.44956512676E+02  0.51100000000E-03 0. -1.
<mgrwt>
<rscale>  0 0.20013177E+02</rscale>
<asrwt>0</asrwt>
<pdfrwt beam="2">  1        2 0.13347263E-01 0.20013177E+02</pdfrwt>
<pdfrwt beam="1">  1       -2 0.17756328E-03 0.20013177E+02</pdfrwt>
<totfact> 0.51069911E+06</totfact>
</mgrwt>
</event>
<event>
 5    1  0.4046313E-006  0.2000036E+02  0.7818608E-02  0.1745321E+00
          2   -1    0    0  501    0  0.00000000000E+00  0.00000000000E+00  0.22589674189E+02  0.22589674339E+02  0.26000000000E-02 0. -1.
         -2   -1    0    0    0  501 -0.00000000000E+00 -0.00000000000E+00 -0.44269598897E+01  0.44269606532E+01  0.26000000000E-02 0.  1.
       1023    2    1    2    0    0  0.00000000000E+00  0.00000000000E+00  0.18162714299E+02  0.27016634992E+02  0.20000359386E+02 0.  0.
        -11    1    3    3    0    0 -0.99236796198E+01  0.12345217263E+01  0.90658058924E+01  0.13497862713E+02  0.51100000000E-03 0. -1.
         11    1    3    3    0    0  0.99236796198E+01 -0.12345217263E+01  0.90969084069E+01  0.13518772278E+02  0.51100000000E-03 0.  1.
<mgrwt>
<rscale>  0 0.20000359E+02</rscale>
<asrwt>0</asrwt>
<pdfrwt beam="1">  1        2 0.34753346E-02 0.20000359E+02</pdfrwt>
<pdfrwt beam="2">  1       -2 0.68107081E-03 0.20000359E+02</pdfrwt>
<totfact> 0.42141010E+06</totfact>
</mgrwt>
</event>
<event>
 4    1  0.4046313E-006  0.2001591E+02  0.7818608E-02  0.1745012E+00
          2   -1    0    0  501    0  0.00000000000E+00  0.00000000000E+00  0.46385346577E+02  0.46385346650E+02  0.26000000000E-02 0.  1.
         -2   -1    0    0    0  501 -0.00000000000E+00 -0.00000000000E+00 -0.21592846517E+01  0.21592862171E+01  0.26000000000E-02 0. -1.
        -11    1    1    2    0    0 -0.46222295872E+01 -0.88707130068E+01  0.21328451182E+02  0.23557533523E+02  0.51100000000E-03 0. -1.
         11    1    1    2    0    0  0.46222295872E+01  0.88707130068E+01  0.22897610743E+02  0.24987099344E+02  0.51100000000E-03 0.  1.
<mgrwt>
<rscale>  0 0.20015914E+02</rscale>
<asrwt>0</asrwt>
<pdfrwt beam="1">  1        2 0.71362074E-02 0.20015914E+02</pdfrwt>
<pdfrwt beam="2">  1       -2 0.33219776E-03 0.20015914E+02</pdfrwt>
<totfact> 0.45737654E+06</totfact>
</mgrwt>
</event>
<event>
 5    1  0.4213330E-006  0.2000028E+02  0.7818608E-02  0.1745322E+00
          2   -1    0    0  501    0  0.00000000000E+00  0.00000000000E+00  0.82441975979E+01  0.82441980079E+01  0.26000000000E-02 0. -1.
         -2   -1    0    0    0  501 -0.00000000000E+00 -0.00000000000E+00 -0.12130088035E+02  0.12130088313E+02  0.26000000000E-02 0.  1.
       1023    2    1    2    0    0  0.00000000000E+00  0.00000000000E+00 -0.38858904368E+01  0.20374286321E+02  0.20000284963E+02 0.  0.
        -11    1    3    3    0    0 -0.99904462478E+01 -0.43811360631E+00 -0.18986624816E+01  0.10178697325E+02  0.51100000000E-03 0. -1.
         11    1    3    3    0    0  0.99904462478E+01  0.43811360631E+00 -0.19872279552E+01  0.10195588996E+02  0.51100000000E-03 0.  1.
<mgrwt>
<rscale>  0 0.20000285E+02</rscale>
<asrwt>0</asrwt>
<pdfrwt beam="1">  1        2 0.12683381E-02 0.20000285E+02</pdfrwt>
<pdfrwt beam="2">  1       -2 0.18661674E-02 0.20000285E+02</pdfrwt>
<totfact> 0.38907812E+06</totfact>
</mgrwt>
</event>
<event>
 5    1  0.4046313E-006  0.2000100E+02  0.7818608E-02  0.1745308E+00
         -2   -1    0    0    0  501 -0.00000000000E+00  0.00000000000E+00  0.39398966038E+02  0.39398966124E+02  0.26000000000E-02 0.  1.
          2   -1    0    0  501    0  0.00000000000E+00 -0.00000000000E+00 -0.25383914413E+01  0.25383927728E+01  0.26000000000E-02 0. -1.
       1023    2    1    2    0    0  0.00000000000E+00  0.00000000000E+00  0.36860574596E+02  0.41937358896E+02  0.20001002765E+02 0.  0.
        -11    1    3    3    0    0  0.88782287341E+01  0.46027103078E+01  0.18527284061E+02  0.21053934135E+02  0.51100000000E-03 0.  1.
         11    1    3    3    0    0 -0.88782287341E+01 -0.46027103078E+01  0.18333290536E+02  0.20883424761E+02  0.51100000000E-03 0. -1.
<mgrwt>
<rscale>  0 0.20001003E+02</rscale>
<asrwt>0</asrwt>
<pdfrwt beam="2">  1        2 0.39052190E-03 0.20001003E+02</pdfrwt>
<pdfrwt beam="1">  1       -2 0.60613790E-02 0.20001003E+02</pdfrwt>
<totfact> 0.34981383E+06</totfact>
</mgrwt>
</event>
<event>
 5    1  0.4046313E-006  0.2000042E+02  0.7818608E-02  0.1745320E+00
         -2   -1    0    0    0  501 -0.00000000000E+00  0.00000000000E+00  0.32608190514E+01  0.32608200879E+01  0.26000000000E-02 0.  1.
          2   -1    0    0  501    0  0.00000000000E+00 -0.00000000000E+00 -0.30668431519E+02  0.30668431629E+02  0.26000000000E-02 0. -1.
       1023    2    1    2    0    0  0.00000000000E+00  0.00000000000E+00 -0.27407612468E+02  0.33929251717E+02  0.20000422518E+02 0.  0.
        -11    1    3    3    0    0  0.76141545426E+01 -0.64827332384E+01 -0.13797422684E+02  0.17040248021E+02  0.51100000000E-03 0. -1.
         11    1    3    3    0    0 -0.76141545426E+01  0.64827332384E+01 -0.13610189784E+02  0.16889003696E+02  0.51100000000E-03 0.  1.
<mgrwt>
<rscale>  0 0.20000423E+02</rscale>
<asrwt>0</asrwt>
<pdfrwt beam="2">  1        2 0.47182201E-02 0.20000423E+02</pdfrwt>
<pdfrwt beam="1">  1       -2 0.50166458E-03 0.20000423E+02</pdfrwt>
<totfact> 0.43476894E+06</totfact>
</mgrwt>
</event>
<event>
 5    1  0.4046313E-006  0.2000073E+02  0.7818608E-02  0.1745314E+00
          2   -1    0    0  501    0  0.00000000000E+00  0.00000000000E+00  0.30333928722E+01  0.30333939864E+01  0.26000000000E-02 0. -1.
         -2   -1    0    0    0  501 -0.00000000000E+00 -0.00000000000E+00 -0.32968784214E+02  0.32968784317E+02  0.26000000000E-02 0.  1.
       1023    2    1    2    0    0  0.00000000000E+00  0.00000000000E+00 -0.29935391342E+02  0.36002178303E+02  0.20000729681E+02 0.  0.
        -11    1    3    3    0    0  0.47942228901E+01 -0.87758959957E+01 -0.14823995897E+02  0.17881604465E+02  0.51100000000E-03 0. -1.
         11    1    3    3    0    0 -0.47942228901E+01  0.87758959957E+01 -0.15111395445E+02  0.18120573838E+02  0.51100000000E-03 0.  1.
<mgrwt>
<rscale>  0 0.20000730E+02</rscale>
<asrwt>0</asrwt>
<pdfrwt beam="1">  1        2 0.46667594E-03 0.20000730E+02</pdfrwt>
<pdfrwt beam="2">  1       -2 0.50721205E-02 0.20000730E+02</pdfrwt>
<totfact> 0.35704969E+06</totfact>
</mgrwt>
</event>
<event>
 5    1  0.4466366E-006  0.2000175E+02  0.7818608E-02  0.1745293E+00
         -2   -1    0    0    0  501 -0.00000000000E+00  0.00000000000E+00  0.93885941673E+00  0.93886301684E+00  0.26000000000E-02 0. -1.
          2   -1    0    0  501    0  0.00000000000E+00 -0.00000000000E+00 -0.10653064943E+03  0.10653064947E+03  0.26000000000E-02 0.  1.
       1023    2    1    2    0    0  0.00000000000E+00  0.00000000000E+00 -0.10559179002E+03  0.10746951248E+03  0.20001749778E+02 0.  0.
        -11    1    3    3    0    0  0.86547547473E+00 -0.99626194551E+01 -0.52145249095E+02  0.53095478505E+02  0.51100000000E-03 0.  1.
         11    1    3    3    0    0 -0.86547547473E+00  0.99626194551E+01 -0.53446540922E+02  0.54374033977E+02  0.51100000000E-03 0. -1.
<mgrwt>
<rscale>  0 0.20001750E+02</rscale>
<asrwt>0</asrwt>
<pdfrwt beam="2">  1        2 0.16389321E-01 0.20001750E+02</pdfrwt>
<pdfrwt beam="1">  1       -2 0.14444027E-03 0.20001750E+02</pdfrwt>
<totfact> 0.53522809E+06</totfact>
</mgrwt>
</event>
<event>
 5    1  0.4176261E-006  0.2000195E+02  0.7818608E-02  0.1745289E+00
         -2   -1    0    0    0  501 -0.00000000000E+00  0.00000000000E+00  0.88487385569E+00  0.88487767543E+00  0.26000000000E-02 0. -1.
          2   -1    0    0  501    0  0.00000000000E+00 -0.00000000000E+00 -0.11303223298E+03  0.11303223301E+03  0.26000000000E-02 0.  1.
       1023    2    1    2    0    0  0.00000000000E+00  0.00000000000E+00 -0.11214735913E+03  0.11391711069E+03  0.20001948614E+02 0.  0.
        -11    1    3    3    0    0  0.34579807966E+01  0.93840940991E+01 -0.55930323622E+02  0.56817426499E+02  0.51100000000E-03 0.  1.
         11    1    3    3    0    0 -0.34579807966E+01 -0.93840940991E+01 -0.56217035506E+02  0.57099684190E+02  0.51100000000E-03 0. -1.
<mgrwt>
<rscale>  0 0.20001949E+02</rscale>
<asrwt>0</asrwt>
<pdfrwt beam="2">  1        2 0.17389563E-01 0.20001949E+02</pdfrwt>
<pdfrwt beam="1">  1       -2 0.13613482E-03 0.20001949E+02</pdfrwt>
<totfact> 0.54280343E+06</totfact>
</mgrwt>
</event>
<event>
 5    1  0.4046313E-006  0.2000580E+02  0.7818608E-02  0.1745213E+00
          2   -1    0    0  501    0  0.00000000000E+00  0.00000000000E+00  0.11494330336E+02  0.11494330630E+02  0.26000000000E-02 0. -1.
         -2   -1    0    0    0  501 -0.00000000000E+00 -0.00000000000E+00 -0.87049909156E+01  0.87049913039E+01  0.26000000000E-02 0.  1.
       1023    2    1    2    0    0  0.00000000000E+00  0.00000000000E+00  0.27893394202E+01  0.20199321934E+02  0.20005803962E+02 0.  0.
        -11    1    3    3    0    0  0.17674196146E+00 -0.10001134584E+02  0.13298844896E+01  0.10090714728E+02  0.51100000000E-03 0.  1.
         11    1    3    3    0    0 -0.17674196146E+00  0.10001134584E+02  0.14594549306E+01  0.10108607206E+02  0.51100000000E-03 0. -1.
<mgrwt>
<rscale>  0 0.20005804E+02</rscale>
<asrwt>0</asrwt>
<pdfrwt beam="1">  1        2 0.17683586E-02 0.20005804E+02</pdfrwt>
<pdfrwt beam="2">  1       -2 0.13392294E-02 0.20005804E+02</pdfrwt>
<totfact> 0.39844162E+06</totfact>
</mgrwt>
</event>
<event>
 4    1  0.4046313E-006  0.2007247E+02  0.7818608E-02  0.1743891E+00
          2   -1    0    0  501    0  0.00000000000E+00  0.00000000000E+00  0.96351358431E+01  0.96351361939E+01  0.26000000000E-02 0. -1.
         -2   -1    0    0    0  501 -0.00000000000E+00 -0.00000000000E+00 -0.10454029503E+02  0.10454029827E+02  0.26000000000E-02 0.  1.
        -11    1    1    2    0    0 -0.95460054928E+01 -0.30735516250E+01 -0.17892016870E-01  0.10028622081E+02  0.51100000000E-03 0. -1.
         11    1    1    2    0    0  0.95460054928E+01  0.30735516250E+01 -0.80100164327E+00  0.10060543939E+02  0.51100000000E-03 0.  1.
<mgrwt>
<rscale>  0 0.20072469E+02</rscale>
<asrwt>0</asrwt>
<pdfrwt beam="1">  1        2 0.14823286E-02 0.20072469E+02</pdfrwt>
<pdfrwt beam="2">  1       -2 0.16083123E-02 0.20072469E+02</pdfrwt>
<totfact> 0.39031715E+06</totfact>
</mgrwt>
</event>
<event>
 5    1  0.4046313E-006  0.2000134E+02  0.7818608E-02  0.1745301E+00
         -2   -1    0    0    0  501 -0.00000000000E+00  0.00000000000E+00  0.44056500879E+01  0.44056508551E+01  0.26000000000E-02 0. -1.
          2   -1    0    0  501    0  0.00000000000E+00 -0.00000000000E+00 -0.22701159706E+02  0.22701159855E+02  0.26000000000E-02 0.  1.
       1023    2    1    2    0    0  0.00000000000E+00  0.00000000000E+00 -0.18295509618E+02  0.27106810710E+02  0.20001337822E+02 0.  0.
        -11    1    3    3    0    0 -0.52139725562E+01  0.85339100606E+01 -0.91264265096E+01  0.13539010002E+02  0.51100000000E-03 0.  1.
         11    1    3    3    0    0  0.52139725562E+01 -0.85339100606E+01 -0.91690831086E+01  0.13567800708E+02  0.51100000000E-03 0. -1.
<mgrwt>
<rscale>  0 0.20001338E+02</rscale>
<asrwt>0</asrwt>
<pdfrwt beam="2">  1        2 0.34924861E-02 0.20001338E+02</pdfrwt>
<pdfrwt beam="1">  1       -2 0.67779240E-03 0.20001338E+02</pdfrwt>
<totfact> 0.42155872E+06</totfact>
</mgrwt>
</event>
<event>
 5    1  0.4046313E-006  0.2000063E+02  0.7818608E-02  0.1745316E+00
          2   -1    0    0  501    0  0.00000000000E+00  0.00000000000E+00  0.15256928370E+02  0.15256928591E+02  0.26000000000E-02 0. -1.
         -2   -1    0    0    0  501 -0.00000000000E+00 -0.00000000000E+00 -0.65548127286E+01  0.65548132443E+01  0.26000000000E-02 0.  1.
       1023    2    1    2    0    0  0.00000000000E+00  0.00000000000E+00  0.87021156413E+01  0.21811741836E+02  0.20000631622E+02 0.  0.
        -11    1    3    3    0    0  0.29023508797E+01  0.95696431063E+01  0.42770427410E+01  0.10876341512E+02  0.51100000000E-03 0.  1.
         11    1    3    3    0    0 -0.29023508797E+01 -0.95696431063E+01  0.44250729003E+01  0.10935400324E+02  0.51100000000E-03 0. -1.
<mgrwt>
<rscale>  0 0.20000632E+02</rscale>
<asrwt>0</asrwt>
<pdfrwt beam="1">  1        2 0.23472198E-02 0.20000632E+02</pdfrwt>
<pdfrwt beam="2">  1       -2 0.10084328E-02 0.20000632E+02</pdfrwt>
<totfact> 0.40741504E+06</totfact>
</mgrwt>
</event>
<event>
 5    1  0.4046313E-006  0.2000041E+02  0.7818608E-02  0.1745320E+00
          2   -1    0    0  501    0  0.00000000000E+00  0.00000000000E+00  0.36918923021E+01  0.36918932177E+01  0.26000000000E-02 0.  1.
         -2   -1    0    0    0  501 -0.00000000000E+00 -0.00000000000E+00 -0.27087483054E+02  0.27087483179E+02  0.26000000000E-02 0. -1.
       1023    2    1    2    0    0  0.00000000000E+00  0.00000000000E+00 -0.23395590752E+02  0.30779376396E+02  0.20000408614E+02 0.  0.
        -11    1    3    3    0    0 -0.22786760939E+01  0.97370426266E+01 -0.11633932873E+02  0.15341145922E+02  0.51100000000E-03 0.  1.
         11    1    3    3    0    0  0.22786760939E+01 -0.97370426266E+01 -0.11761657879E+02  0.15438230474E+02  0.51100000000E-03 0. -1.
<mgrwt>
<rscale>  0 0.20000409E+02</rscale>
<asrwt>0</asrwt>
<pdfrwt beam="1">  1        2 0.56798353E-03 0.20000409E+02</pdfrwt>
<pdfrwt beam="2">  1       -2 0.41673050E-02 0.20000409E+02</pdfrwt>
<totfact> 0.36430548E+06</totfact>
</mgrwt>
</event>
<event>
 5    1  0.4046313E-006  0.2000216E+02  0.7818608E-02  0.1745285E+00
         -2   -1    0    0    0  501 -0.00000000000E+00  0.00000000000E+00  0.11268469220E+03  0.11268469223E+03  0.26000000000E-02 0.  1.
          2   -1    0    0  501    0  0.00000000000E+00 -0.00000000000E+00 -0.88762179096E+00  0.88762559888E+00  0.26000000000E-02 0. -1.
       1023    2    1    2    0    0  0.00000000000E+00  0.00000000000E+00  0.11179707041E+03  0.11357231783E+03  0.20002160507E+02 0.  0.
        -11    1    3    3    0    0 -0.92773298253E+01  0.37339835602E+01  0.56469846790E+02  0.57348540336E+02  0.51100000000E-03 0.  1.
         11    1    3    3    0    0  0.92773298253E+01 -0.37339835602E+01  0.55327223615E+02  0.56223777489E+02  0.51100000000E-03 0. -1.
<mgrwt>
<rscale>  0 0.20002161E+02</rscale>
<asrwt>0</asrwt>
<pdfrwt beam="2">  1        2 0.13655753E-03 0.20002161E+02</pdfrwt>
<pdfrwt beam="1">  1       -2 0.17336102E-01 0.20002161E+02</pdfrwt>
<totfact> 0.28828259E+06</totfact>
</mgrwt>
</event>
<event>
 4    1  0.4046313E-006  0.2001436E+02  0.7818608E-02  0.1745043E+00
          2   -1    0    0  501    0  0.00000000000E+00  0.00000000000E+00  0.13994433320E+01  0.13994457473E+01  0.26000000000E-02 0.  1.
         -2   -1    0    0    0  501 -0.00000000000E+00 -0.00000000000E+00 -0.71559554060E+02  0.71559554107E+02  0.26000000000E-02 0. -1.
        -11    1    1    2    0    0  0.70981463161E+01  0.70540716331E+01 -0.35062721503E+02  0.36462831036E+02  0.51100000000E-03 0.  1.
         11    1    1    2    0    0 -0.70981463161E+01 -0.70540716331E+01 -0.35097389225E+02  0.36496168818E+02  0.51100000000E-03 0. -1.
<mgrwt>
<rscale>  0 0.20014358E+02</rscale>
<asrwt>0</asrwt>
<pdfrwt beam="1">  1        2 0.21529922E-03 0.20014358E+02</pdfrwt>
<pdfrwt beam="2">  1       -2 0.11009160E-01 0.20014358E+02</pdfrwt>
<totfact> 0.31901359E+06</totfact>
</mgrwt>
</event>
<event>
 5    1  0.4046313E-006  0.2000038E+02  0.7818608E-02  0.1745320E+00
          2   -1    0    0  501    0  0.00000000000E+00  0.00000000000E+00  0.48027634424E+01  0.48027641462E+01  0.26000000000E-02 0.  1.
         -2   -1    0    0    0  501 -0.00000000000E+00 -0.00000000000E+00 -0.20822138803E+02  0.20822138965E+02  0.26000000000E-02 0. -1.
       1023    2    1    2    0    0  0.00000000000E+00  0.00000000000E+00 -0.16019375361E+02  0.25624903112E+02  0.20000381810E+02 0.  0.
        -11    1    3    3    0    0 -0.12407244421E+01 -0.99229187206E+01 -0.79965719685E+01  0.12804252285E+02  0.51100000000E-03 0. -1.
         11    1    3    3    0    0  0.12407244421E+01  0.99229187206E+01 -0.80228033921E+01  0.12820650826E+02  0.51100000000E-03 0.  1.
<mgrwt>
<rscale>  0 0.20000382E+02</rscale>
<asrwt>0</asrwt>
<pdfrwt beam="1">  1        2 0.73888676E-03 0.20000382E+02</pdfrwt>
<pdfrwt beam="2">  1       -2 0.32034060E-02 0.20000382E+02</pdfrwt>
<totfact> 0.37305765E+06</totfact>
</mgrwt>
</event>
<event>
 5    1  0.4135451E-006  0.2000079E+02  0.7818608E-02  0.1745312E+00
          2   -1    0    0  501    0  0.00000000000E+00  0.00000000000E+00  0.12120822460E+01  0.12120850346E+01  0.26000000000E-02 0.  1.
         -2   -1    0    0    0  501 -0.00000000000E+00 -0.00000000000E+00 -0.82509101549E+02  0.82509101590E+02  0.26000000000E-02 0. -1.
       1023    2    1    2    0    0  0.00000000000E+00  0.00000000000E+00 -0.81297019303E+02  0.83721186625E+02  0.20000793541E+02 0.  0.
        -11    1    3    3    0    0 -0.99887854856E+01 -0.47751838769E+00 -0.40915752646E+02  0.42120098221E+02  0.51100000000E-03 0.  1.
         11    1    3    3    0    0  0.99887854856E+01  0.47751838769E+00 -0.40381266657E+02  0.41601088404E+02  0.51100000000E-03 0. -1.
<mgrwt>
<rscale>  0 0.20000794E+02</rscale>
<asrwt>0</asrwt>
<pdfrwt beam="1">  1        2 0.18647447E-03 0.20000794E+02</pdfrwt>
<pdfrwt beam="2">  1       -2 0.12693704E-01 0.20000794E+02</pdfrwt>
<totfact> 0.31055203E+06</totfact>
</mgrwt>
</event>
<event>
 4    1  0.4046313E-006  0.2002094E+02  0.7818608E-02  0.1744912E+00
          2   -1    0    0  501    0  0.00000000000E+00  0.00000000000E+00  0.18042714085E+01  0.18042732818E+01  0.26000000000E-02 0. -1.
         -2   -1    0    0    0  501 -0.00000000000E+00 -0.00000000000E+00 -0.55540099912E+02  0.55540099973E+02  0.26000000000E-02 0.  1.
        -11    1    1    2    0    0  0.90879669069E+01 -0.41952328994E+01 -0.27255885689E+02  0.29035743947E+02  0.51100000000E-03 0. -1.
         11    1    1    2    0    0 -0.90879669069E+01  0.41952328994E+01 -0.26479942815E+02  0.28308629308E+02  0.51100000000E-03 0.  1.
<mgrwt>
<rscale>  0 0.20020936E+02</rscale>
<asrwt>0</asrwt>
<pdfrwt beam="1">  1        2 0.27758041E-03 0.20020936E+02</pdfrwt>
<pdfrwt beam="2">  1       -2 0.85446296E-02 0.20020936E+02</pdfrwt>
<totfact> 0.33293901E+06</totfact>
</mgrwt>
</event>
<event>
 5    1  0.4046313E-006  0.2000293E+02  0.7818608E-02  0.1745270E+00
         -2   -1    0    0    0  501 -0.00000000000E+00  0.00000000000E+00  0.32537012859E+01  0.32537023247E+01  0.26000000000E-02 0. -1.
          2   -1    0    0  501    0  0.00000000000E+00 -0.00000000000E+00 -0.30743241842E+02  0.30743241952E+02  0.26000000000E-02 0.  1.
       1023    2    1    2    0    0  0.00000000000E+00  0.00000000000E+00 -0.27489540556E+02  0.33996944277E+02  0.20002934289E+02 0.  0.
        -11    1    3    3    0    0  0.95175501825E+01  0.30690538650E+01 -0.14021401319E+02  0.17222152836E+02  0.51100000000E-03 0. -1.
         11    1    3    3    0    0 -0.95175501825E+01 -0.30690538650E+01 -0.13468139237E+02  0.16774791441E+02  0.51100000000E-03 0.  1.
<mgrwt>
<rscale>  0 0.20002934E+02</rscale>
<asrwt>0</asrwt>
<pdfrwt beam="2">  1        2 0.47297294E-02 0.20002934E+02</pdfrwt>
<pdfrwt beam="1">  1       -2 0.50056954E-03 0.20002934E+02</pdfrwt>
<totfact> 0.43476448E+06</totfact>
</mgrwt>
</event>
<event>
 5    1  0.4096276E-006  0.2000127E+02  0.7818608E-02  0.1745303E+00
          2   -1    0    0  501    0  0.00000000000E+00  0.00000000000E+00  0.39790899288E+02  0.39790899373E+02  0.26000000000E-02 0. -1.
         -2   -1    0    0    0  501 -0.00000000000E+00 -0.00000000000E+00 -0.25134562287E+01  0.25134575735E+01  0.26000000000E-02 0.  1.
       1023    2    1    2    0    0  0.00000000000E+00  0.00000000000E+00  0.37277443060E+02  0.42304356947E+02  0.20001271350E+02 0.  0.
        -11    1    3    3    0    0 -0.71195613789E+01  0.70228239066E+01  0.18496777663E+02  0.21027101418E+02  0.51100000000E-03 0. -1.
         11    1    3    3    0    0  0.71195613789E+01 -0.70228239066E+01  0.18780665396E+02  0.21277255529E+02  0.51100000000E-03 0.  1.
<mgrwt>
<rscale>  0 0.20001271E+02</rscale>
<asrwt>0</asrwt>
<pdfrwt beam="1">  1        2 0.61216767E-02 0.20001271E+02</pdfrwt>
<pdfrwt beam="2">  1       -2 0.38668570E-03 0.20001271E+02</pdfrwt>
<totfact> 0.44859175E+06</totfact>
</mgrwt>
</event>
<event>
 4    1  0.4046313E-006  0.2017526E+02  0.7818608E-02  0.1741865E+00
          2   -1    0    0  501    0  0.00000000000E+00  0.00000000000E+00  0.11039208701E+02  0.11039209007E+02  0.26000000000E-02 0.  1.
         -2   -1    0    0    0  501 -0.00000000000E+00 -0.00000000000E+00 -0.92180751180E+01  0.92180754847E+01  0.26000000000E-02 0. -1.
        -11    1    1    2    0    0 -0.27794240447E+01 -0.96833386027E+01  0.14303752761E+01  0.10175373124E+02  0.51100000000E-03 0.  1.
         11    1    1    2    0    0  0.27794240447E+01  0.96833386027E+01  0.39075830671E+00  0.10081911368E+02  0.51100000000E-03 0. -1.
<mgrwt>
<rscale>  0 0.20175258E+02</rscale>
<asrwt>0</asrwt>
<pdfrwt beam="1">  1        2 0.16983398E-02 0.20175258E+02</pdfrwt>
<pdfrwt beam="2">  1       -2 0.14181655E-02 0.20175258E+02</pdfrwt>
<totfact> 0.38968139E+06</totfact>
</mgrwt>
</event>
<event>
 5    1  0.4046313E-006  0.2000041E+02  0.7818608E-02  0.1745320E+00
         -2   -1    0    0    0  501 -0.00000000000E+00  0.00000000000E+00  0.59852459579E+02  0.59852459635E+02  0.26000000000E-02 0. -1.
          2   -1    0    0  501    0  0.00000000000E+00 -0.00000000000E+00 -0.16708422599E+01  0.16708442828E+01  0.26000000000E-02 0.  1.
       1023    2    1    2    0    0  0.00000000000E+00  0.00000000000E+00  0.58181617319E+02  0.61523303918E+02  0.20000408275E+02 0.  0.
        -11    1    3    3    0    0 -0.33456461473E+00  0.99945028541E+01  0.29230483512E+02  0.30893740263E+02  0.51100000000E-03 0. -1.
         11    1    3    3    0    0  0.33456461473E+00 -0.99945028541E+01  0.28951133807E+02  0.30629563656E+02  0.51100000000E-03 0.  1.
<mgrwt>
<rscale>  0 0.20000408E+02</rscale>
<asrwt>0</asrwt>
<pdfrwt beam="2">  1        2 0.25705277E-03 0.20000408E+02</pdfrwt>
<pdfrwt beam="1">  1       -2 0.92080724E-02 0.20000408E+02</pdfrwt>
<totfact> 0.32971881E+06</totfact>
</mgrwt>
</event>
<event>
 5    1  0.4093962E-006  0.2000058E+02  0.7818608E-02  0.1745317E+00
         -2   -1    0    0    0  501 -0.00000000000E+00  0.00000000000E+00  0.20907422653E+01  0.20907438819E+01  0.26000000000E-02 0.  1.
          2   -1    0    0  501    0  0.00000000000E+00 -0.00000000000E+00 -0.47832664884E+02  0.47832664955E+02  0.26000000000E-02 0. -1.
       1023    2    1    2    0    0  0.00000000000E+00  0.00000000000E+00 -0.45741922619E+02  0.49923408837E+02  0.20000581617E+02 0.  0.
        -11    1    3    3    0    0 -0.84047171431E+01 -0.54187093525E+01 -0.23031464261E+02  0.25108763960E+02  0.51100000000E-03 0. -1.
         11    1    3    3    0    0  0.84047171431E+01  0.54187093525E+01 -0.22710458358E+02  0.24814644877E+02  0.51100000000E-03 0.  1.
<mgrwt>
<rscale>  0 0.20000582E+02</rscale>
<asrwt>0</asrwt>
<pdfrwt beam="2">  1        2 0.73588708E-02 0.20000582E+02</pdfrwt>
<pdfrwt beam="1">  1       -2 0.32165282E-03 0.20000582E+02</pdfrwt>
<totfact> 0.46020790E+06</totfact>
</mgrwt>
</event>
<event>
 5    1  0.4046313E-006  0.2000072E+02  0.7818608E-02  0.1745314E+00
         -2   -1    0    0    0  501 -0.00000000000E+00  0.00000000000E+00  0.68720340017E+01  0.68720344935E+01  0.26000000000E-02 0. -1.
          2   -1    0    0  501    0  0.00000000000E+00 -0.00000000000E+00 -0.14552777112E+02  0.14552777344E+02  0.26000000000E-02 0.  1.
       1023    2    1    2    0    0  0.00000000000E+00  0.00000000000E+00 -0.76807431104E+01  0.21424811838E+02  0.20000718676E+02 0.  0.
        -11    1    3    3    0    0 -0.96941768321E+01 -0.24554981011E+01 -0.38130348639E+01  0.10702605781E+02  0.51100000000E-03 0.  1.
         11    1    3    3    0    0  0.96941768321E+01  0.24554981011E+01 -0.38677082465E+01  0.10722206057E+02  0.51100000000E-03 0. -1.
<mgrwt>
<rscale>  0 0.20000719E+02</rscale>
<asrwt>0</asrwt>
<pdfrwt beam="2">  1        2 0.22388888E-02 0.20000719E+02</pdfrwt>
<pdfrwt beam="1">  1       -2 0.10572361E-02 0.20000719E+02</pdfrwt>
<totfact> 0.40589453E+06</totfact>
</mgrwt>
</event>
<event>
 5    1  0.4046313E-006  0.2000440E+02  0.7818608E-02  0.1745241E+00
          2   -1    0    0  501    0  0.00000000000E+00  0.00000000000E+00  0.11725179255E+03  0.11725179258E+03  0.26000000000E-02 0.  1.
         -2   -1    0    0    0  501 -0.00000000000E+00 -0.00000000000E+00 -0.85323845555E+00  0.85324241692E+00  0.26000000000E-02 0. -1.
       1023    2    1    2    0    0  0.00000000000E+00  0.00000000000E+00  0.11639855409E+03  0.11810503500E+03  0.20004396918E+02 0.  0.
        -11    1    3    3    0    0  0.91773705319E+01  0.39760267067E+01  0.57578504906E+02  0.58440714795E+02  0.51100000000E-03 0.  1.
         11    1    3    3    0    0 -0.91773705319E+01 -0.39760267067E+01  0.58820049189E+02  0.59664320201E+02  0.51100000000E-03 0. -1.
<mgrwt>
<rscale>  0 0.20004397E+02</rscale>
<asrwt>0</asrwt>
<pdfrwt beam="1">  1        2 0.18038726E-01 0.20004397E+02</pdfrwt>
<pdfrwt beam="2">  1       -2 0.13126785E-03 0.20004397E+02</pdfrwt>
<totfact> 0.54751683E+06</totfact>
</mgrwt>
</event>
<event>
 5    1  0.4046313E-006  0.2001215E+02  0.7818608E-02  0.1745087E+00
         -2   -1    0    0    0  501 -0.00000000000E+00  0.00000000000E+00  0.50469869346E+01  0.50469876043E+01  0.26000000000E-02 0.  1.
          2   -1    0    0  501    0  0.00000000000E+00 -0.00000000000E+00 -0.19837880232E+02  0.19837880402E+02  0.26000000000E-02 0. -1.
       1023    2    1    2    0    0  0.00000000000E+00  0.00000000000E+00 -0.14790893297E+02  0.24884868006E+02  0.20012149589E+02 0.  0.
        -11    1    3    3    0    0  0.75983891752E+01  0.65062374553E+01 -0.76867750780E+01  0.12615591752E+02  0.51100000000E-03 0.  1.
         11    1    3    3    0    0 -0.75983891752E+01 -0.65062374553E+01 -0.71041182191E+01  0.12269276255E+02  0.51100000000E-03 0. -1.
<mgrwt>
<rscale>  0 0.20012150E+02</rscale>
<asrwt>0</asrwt>
<pdfrwt beam="2">  1        2 0.30519816E-02 0.20012150E+02</pdfrwt>
<pdfrwt beam="1">  1       -2 0.77645960E-03 0.20012150E+02</pdfrwt>
<totfact> 0.41591078E+06</totfact>
</mgrwt>
</event>
<event>
 5    1  0.4046313E-006  0.2000050E+02  0.7818608E-02  0.1745318E+00
          2   -1    0    0  501    0  0.00000000000E+00  0.00000000000E+00  0.19730763970E+01  0.19730781100E+01  0.26000000000E-02 0. -1.
         -2   -1    0    0    0  501 -0.00000000000E+00 -0.00000000000E+00 -0.50684760257E+02  0.50684760324E+02  0.26000000000E-02 0.  1.
       1023    2    1    2    0    0  0.00000000000E+00  0.00000000000E+00 -0.48711683860E+02  0.52657838434E+02  0.20000495095E+02 0.  0.
        -11    1    3    3    0    0 -0.89874024683E+01 -0.43853014689E+01 -0.24287254563E+02  0.26265471756E+02  0.51100000000E-03 0.  1.
         11    1    3    3    0    0  0.89874024683E+01  0.43853014689E+01 -0.24424429297E+02  0.26392366678E+02  0.51100000000E-03 0. -1.
<mgrwt>
<rscale>  0 0.20000495E+02</rscale>
<asrwt>0</asrwt>
<pdfrwt beam="1">  1        2 0.30355039E-03 0.20000495E+02</pdfrwt>
<pdfrwt beam="2">  1       -2 0.77976546E-02 0.20000495E+02</pdfrwt>
<totfact> 0.33830227E+06</totfact>
</mgrwt>
</event>
<event>
 5    1  0.4046313E-006  0.2000053E+02  0.7818608E-02  0.1745317E+00
         -2   -1    0    0    0  501 -0.00000000000E+00  0.00000000000E+00  0.29007369285E+01  0.29007380938E+01  0.26000000000E-02 0. -1.
          2   -1    0    0  501    0  0.00000000000E+00 -0.00000000000E+00 -0.34475828705E+02  0.34475828803E+02  0.26000000000E-02 0.  1.
       1023    2    1    2    0    0  0.00000000000E+00  0.00000000000E+00 -0.31575091777E+02  0.37376566897E+02  0.20000533301E+02 0.  0.
        -11    1    3    3    0    0  0.96522087298E+01 -0.26149607808E+01 -0.15700300425E+02  0.18614579957E+02  0.51100000000E-03 0. -1.
         11    1    3    3    0    0 -0.96522087298E+01  0.26149607808E+01 -0.15874791352E+02  0.18761986941E+02  0.51100000000E-03 0.  1.
<mgrwt>
<rscale>  0 0.20000533E+02</rscale>
<asrwt>0</asrwt>
<pdfrwt beam="2">  1        2 0.53039735E-02 0.20000533E+02</pdfrwt>
<pdfrwt beam="1">  1       -2 0.44626734E-03 0.20000533E+02</pdfrwt>
<totfact> 0.44066598E+06</totfact>
</mgrwt>
</event>
<event>
 5    1  0.4077497E-006  0.2000053E+02  0.7818608E-02  0.1745318E+00
          2   -1    0    0  501    0  0.00000000000E+00  0.00000000000E+00  0.91398938864E+02  0.91398938901E+02  0.26000000000E-02 0.  1.
         -2   -1    0    0    0  501 -0.00000000000E+00 -0.00000000000E+00 -0.10941610304E+01  0.10941641195E+01  0.26000000000E-02 0. -1.
       1023    2    1    2    0    0  0.00000000000E+00  0.00000000000E+00  0.90304777834E+02  0.92493103021E+02  0.20000530163E+02 0.  0.
        -11    1    3    3    0    0  0.20360362389E+00 -0.99979415632E+01  0.44825009227E+02  0.45926917405E+02  0.51100000000E-03 0.  1.
         11    1    3    3    0    0 -0.20360362389E+00  0.99979415632E+01  0.45479768607E+02  0.46566185616E+02  0.51100000000E-03 0. -1.
<mgrwt>
<rscale>  0 0.20000530E+02</rscale>
<asrwt>0</asrwt>
<pdfrwt beam="1">  1        2 0.14061375E-01 0.20000530E+02</pdfrwt>
<pdfrwt beam="2">  1       -2 0.16833271E-03 0.20000530E+02</pdfrwt>
<totfact> 0.51713347E+06</totfact>
</mgrwt>
</event>
<event>
 5    1  0.4046313E-006  0.2000069E+02  0.7818608E-02  0.1745314E+00
         -2   -1    0    0    0  501 -0.00000000000E+00  0.00000000000E+00  0.38455571146E+02  0.38455571234E+02  0.26000000000E-02 0.  1.
          2   -1    0    0  501    0  0.00000000000E+00 -0.00000000000E+00 -0.26005818940E+01  0.26005831938E+01  0.26000000000E-02 0. -1.
       1023    2    1    2    0    0  0.00000000000E+00  0.00000000000E+00  0.35854989252E+02  0.41056154428E+02  0.20000689041E+02 0.  0.
        -11    1    3    3    0    0  0.11185065725E+01  0.99375273685E+01  0.18003836563E+02  0.20594747835E+02  0.51100000000E-03 0. -1.
         11    1    3    3    0    0 -0.11185065725E+01 -0.99375273685E+01  0.17851152689E+02  0.20461406593E+02  0.51100000000E-03 0.  1.
<mgrwt>
<rscale>  0 0.20000689E+02</rscale>
<asrwt>0</asrwt>
<pdfrwt beam="2">  1        2 0.40008966E-03 0.20000689E+02</pdfrwt>
<pdfrwt beam="1">  1       -2 0.59162413E-02 0.20000689E+02</pdfrwt>
<totfact> 0.35084985E+06</totfact>
</mgrwt>
</event>
<event>
 5    1  0.4046313E-006  0.2000054E+02  0.7818608E-02  0.1745317E+00
         -2   -1    0    0    0  501 -0.00000000000E+00  0.00000000000E+00  0.24566830057E+01  0.24566843816E+01  0.26000000000E-02 0. -1.
          2   -1    0    0  501    0  0.00000000000E+00 -0.00000000000E+00 -0.40707464025E+02  0.40707464108E+02  0.26000000000E-02 0.  1.
       1023    2    1    2    0    0  0.00000000000E+00  0.00000000000E+00 -0.38250781019E+02  0.43164148489E+02  0.20000536649E+02 0.  0.
        -11    1    3    3    0    0 -0.49786656688E+01  0.86728226547E+01 -0.19082138154E+02  0.21543745297E+02  0.51100000000E-03 0. -1.
         11    1    3    3    0    0  0.49786656688E+01 -0.86728226547E+01 -0.19168642865E+02  0.21620403192E+02  0.51100000000E-03 0.  1.
<mgrwt>
<rscale>  0 0.20000537E+02</rscale>
<asrwt>0</asrwt>
<pdfrwt beam="2">  1        2 0.62626864E-02 0.20000537E+02</pdfrwt>
<pdfrwt beam="1">  1       -2 0.37795137E-03 0.20000537E+02</pdfrwt>
<totfact> 0.44997441E+06</totfact>
</mgrwt>
</event>
<event>
 5    1  0.4046313E-006  0.2000420E+02  0.7818608E-02  0.1745245E+00
          2   -1    0    0  501    0  0.00000000000E+00  0.00000000000E+00  0.21414327311E+02  0.21414327469E+02  0.26000000000E-02 0. -1.
         -2   -1    0    0    0  501 -0.00000000000E+00 -0.00000000000E+00 -0.46717318294E+01  0.46717325529E+01  0.26000000000E-02 0.  1.
       1023    2    1    2    0    0  0.00000000000E+00  0.00000000000E+00  0.16742595482E+02  0.26086060022E+02  0.20004200159E+02 0.  0.
        -11    1    3    3    0    0  0.69726623021E+01 -0.71686595860E+01  0.86128280884E+01  0.13198049393E+02  0.51100000000E-03 0. -1.
         11    1    3    3    0    0 -0.69726623021E+01  0.71686595860E+01  0.81297673934E+01  0.12888010629E+02  0.51100000000E-03 0.  1.
<mgrwt>
<rscale>  0 0.20004200E+02</rscale>
<asrwt>0</asrwt>
<pdfrwt beam="1">  1        2 0.32945120E-02 0.20004200E+02</pdfrwt>
<pdfrwt beam="2">  1       -2 0.71872803E-03 0.20004200E+02</pdfrwt>
<totfact> 0.41914894E+06</totfact>
</mgrwt>
</event>
<event>
 5    1  0.4179961E-006  0.2000120E+02  0.7818608E-02  0.1745304E+00
         -2   -1    0    0    0  501 -0.00000000000E+00  0.00000000000E+00  0.17613702295E+01  0.17613721485E+01  0.26000000000E-02 0. -1.
          2   -1    0    0  501    0  0.00000000000E+00 -0.00000000000E+00 -0.56780764505E+02  0.56780764564E+02  0.26000000000E-02 0.  1.
       1023    2    1    2    0    0  0.00000000000E+00  0.00000000000E+00 -0.55019394275E+02  0.58542136713E+02  0.20001200576E+02 0.  0.
        -11    1    3    3    0    0 -0.82572751969E+01  0.56412515004E+01 -0.27730553266E+02  0.29478634583E+02  0.51100000000E-03 0. -1.
         11    1    3    3    0    0  0.82572751969E+01 -0.56412515004E+01 -0.27288841009E+02  0.29063502130E+02  0.51100000000E-03 0.  1.
<mgrwt>
<rscale>  0 0.20001201E+02</rscale>
<asrwt>0</asrwt>
<pdfrwt beam="2">  1        2 0.87355010E-02 0.20001201E+02</pdfrwt>
<pdfrwt beam="1">  1       -2 0.27098023E-03 0.20001201E+02</pdfrwt>
<totfact> 0.47256061E+06</totfact>
</mgrwt>
</event>
<event>
 5    1  0.4046313E-006  0.2000077E+02  0.7818608E-02  0.1745313E+00
          2   -1    0    0  501    0  0.00000000000E+00  0.00000000000E+00  0.10018681439E+01  0.10018715176E+01  0.26000000000E-02 0.  1.
         -2   -1    0    0    0  501 -0.00000000000E+00 -0.00000000000E+00 -0.99821082179E+02  0.99821082213E+02  0.26000000000E-02 0. -1.
       1023    2    1    2    0    0  0.00000000000E+00  0.00000000000E+00 -0.98819214035E+02  0.10082295373E+03  0.20000773396E+02 0.  0.
        -11    1    3    3    0    0  0.99556674179E+01  0.94466375808E+00 -0.49437443133E+02  0.50438759770E+02  0.51100000000E-03 0. -1.
         11    1    3    3    0    0 -0.99556674179E+01 -0.94466375808E+00 -0.49381770902E+02  0.50384193960E+02  0.51100000000E-03 0.  1.
<mgrwt>
<rscale>  0 0.20000773E+02</rscale>
<asrwt>0</asrwt>
<pdfrwt beam="1">  1        2 0.15413390E-03 0.20000773E+02</pdfrwt>
<pdfrwt beam="2">  1       -2 0.15357082E-01 0.20000773E+02</pdfrwt>
<totfact> 0.29741244E+06</totfact>
</mgrwt>
</event>
<event>
 5    1  0.4046313E-006  0.2000056E+02  0.7818608E-02  0.1745317E+00
         -2   -1    0    0    0  501 -0.00000000000E+00  0.00000000000E+00  0.22899993003E+01  0.22900007762E+01  0.26000000000E-02 0.  1.
          2   -1    0    0  501    0  0.00000000000E+00 -0.00000000000E+00 -0.43670574285E+02  0.43670574363E+02  0.26000000000E-02 0. -1.
       1023    2    1    2    0    0  0.00000000000E+00  0.00000000000E+00 -0.41380574985E+02  0.45960575139E+02  0.20000562017E+02 0.  0.
        -11    1    3    3    0    0 -0.73156694625E+01  0.68179852592E+01 -0.20596174362E+02  0.22895552871E+02  0.51100000000E-03 0. -1.
         11    1    3    3    0    0  0.73156694625E+01 -0.68179852592E+01 -0.20784400623E+02  0.23065022268E+02  0.51100000000E-03 0.  1.
<mgrwt>
<rscale>  0 0.20000562E+02</rscale>
<asrwt>0</asrwt>
<pdfrwt beam="2">  1        2 0.67185494E-02 0.20000562E+02</pdfrwt>
<pdfrwt beam="1">  1       -2 0.35230774E-03 0.20000562E+02</pdfrwt>
<totfact> 0.45427616E+06</totfact>
</mgrwt>
</event>
<event>
 5    1  0.4046313E-006  0.2000091E+02  0.7818608E-02  0.1745310E+00
          2   -1    0    0  501    0  0.00000000000E+00  0.00000000000E+00  0.38758638899E+01  0.38758647619E+01  0.26000000000E-02 0.  1.
         -2   -1    0    0    0  501 -0.00000000000E+00 -0.00000000000E+00 -0.25803038886E+02  0.25803039017E+02  0.26000000000E-02 0. -1.
       1023    2    1    2    0    0  0.00000000000E+00  0.00000000000E+00 -0.21927174996E+02  0.29678903779E+02  0.20000908134E+02 0.  0.
        -11    1    3    3    0    0  0.68698899092E+01  0.72667229947E+01 -0.10827338397E+02  0.14738789214E+02  0.51100000000E-03 0.  1.
         11    1    3    3    0    0 -0.68698899092E+01 -0.72667229947E+01 -0.11099836598E+02  0.14940114565E+02  0.51100000000E-03 0. -1.
<mgrwt>
<rscale>  0 0.20000908E+02</rscale>
<asrwt>0</asrwt>
<pdfrwt beam="1">  1        2 0.59628685E-03 0.20000908E+02</pdfrwt>
<pdfrwt beam="2">  1       -2 0.39696983E-02 0.20000908E+02</pdfrwt>
<totfact> 0.36597372E+06</totfact>
</mgrwt>
</event>
<event>
 5    1  0.4046313E-006  0.2000161E+02  0.7818608E-02  0.1745296E+00
          2   -1    0    0  501    0  0.00000000000E+00  0.00000000000E+00  0.25278670865E+02  0.25278670999E+02  0.26000000000E-02 0. -1.
         -2   -1    0    0    0  501 -0.00000000000E+00 -0.00000000000E+00 -0.39565396372E+01  0.39565404915E+01  0.26000000000E-02 0.  1.
       1023    2    1    2    0    0  0.00000000000E+00  0.00000000000E+00  0.21322131228E+02  0.29235211490E+02  0.20001607705E+02 0.  0.
        -11    1    3    3    0    0  0.64507296592E+01 -0.76414138295E+01  0.10827455453E+02  0.14738958928E+02  0.51100000000E-03 0. -1.
         11    1    3    3    0    0 -0.64507296592E+01  0.76414138295E+01  0.10494675775E+02  0.14496252562E+02  0.51100000000E-03 0.  1.
<mgrwt>
<rscale>  0 0.20001608E+02</rscale>
<asrwt>0</asrwt>
<pdfrwt beam="1">  1        2 0.38890262E-02 0.20001608E+02</pdfrwt>
<pdfrwt beam="2">  1       -2 0.60869850E-03 0.20001608E+02</pdfrwt>
<totfact> 0.42595856E+06</totfact>
</mgrwt>
</event>
<event>
 5    1  0.4046313E-006  0.2000074E+02  0.7818608E-02  0.1745313E+00
          2   -1    0    0  501    0  0.00000000000E+00  0.00000000000E+00  0.19167979314E+02  0.19167979490E+02  0.26000000000E-02 0. -1.
         -2   -1    0    0    0  501 -0.00000000000E+00 -0.00000000000E+00 -0.52174206609E+01  0.52174213088E+01  0.26000000000E-02 0.  1.
       1023    2    1    2    0    0  0.00000000000E+00  0.00000000000E+00  0.13950558653E+02  0.24385400799E+02  0.20000742121E+02 0.  0.
        -11    1    3    3    0    0 -0.26249951182E+01 -0.96496693840E+01  0.69429641749E+01  0.12174213337E+02  0.51100000000E-03 0. -1.
         11    1    3    3    0    0  0.26249951182E+01  0.96496693840E+01  0.70075944781E+01  0.12211187462E+02  0.51100000000E-03 0.  1.
<mgrwt>
<rscale>  0 0.20000742E+02</rscale>
<asrwt>0</asrwt>
<pdfrwt beam="1">  1        2 0.29489199E-02 0.20000742E+02</pdfrwt>
<pdfrwt beam="2">  1       -2 0.80268019E-03 0.20000742E+02</pdfrwt>
<totfact> 0.41519707E+06</totfact>
</mgrwt>
</event>
<event>
 5    1  0.4046313E-006  0.2000959E+02  0.7818608E-02  0.1745137E+00
         -2   -1    0    0    0  501 -0.00000000000E+00  0.00000000000E+00  0.21451049303E+02  0.21451049461E+02  0.26000000000E-02 0. -1.
          2   -1    0    0  501    0  0.00000000000E+00 -0.00000000000E+00 -0.46662499266E+01  0.46662506509E+01  0.26000000000E-02 0.  1.
       1023    2    1    2    0    0  0.00000000000E+00  0.00000000000E+00  0.16784799377E+02  0.26117300112E+02  0.20009594574E+02 0.  0.
        -11    1    3    3    0    0 -0.93268635625E+01  0.36114222787E+01  0.80642321577E+01  0.12847746703E+02  0.51100000000E-03 0. -1.
         11    1    3    3    0    0  0.93268635625E+01 -0.36114222787E+01  0.87205672192E+01  0.13269553409E+02  0.51100000000E-03 0.  1.
<mgrwt>
<rscale>  0 0.20009595E+02</rscale>
<asrwt>0</asrwt>
<pdfrwt beam="2">  1        2 0.71788470E-03 0.20009595E+02</pdfrwt>
<pdfrwt beam="1">  1       -2 0.33001614E-02 0.20009595E+02</pdfrwt>
<totfact> 0.37173946E+06</totfact>
</mgrwt>
</event>
<event>
 5    1  0.4046313E-006  0.2000389E+02  0.7818608E-02  0.1745251E+00
          2   -1    0    0  501    0  0.00000000000E+00  0.00000000000E+00  0.72205500814E+02  0.72205500861E+02  0.26000000000E-02 0.  1.
         -2   -1    0    0    0  501 -0.00000000000E+00 -0.00000000000E+00 -0.13854736671E+01  0.13854761067E+01  0.26000000000E-02 0. -1.
       1023    2    1    2    0    0  0.00000000000E+00  0.00000000000E+00  0.70820027147E+02  0.73590976968E+02  0.20003890770E+02 0.  0.
        -11    1    3    3    0    0 -0.10312451763E+00 -0.10001275952E+02  0.35603139610E+02  0.36981342670E+02  0.51100000000E-03 0. -1.
         11    1    3    3    0    0  0.10312451763E+00  0.10001275952E+02  0.35216887538E+02  0.36609634298E+02  0.51100000000E-03 0.  1.
<mgrwt>
<rscale>  0 0.20003891E+02</rscale>
<asrwt>0</asrwt>
<pdfrwt beam="1">  1        2 0.11108539E-01 0.20003891E+02</pdfrwt>
<pdfrwt beam="2">  1       -2 0.21314997E-03 0.20003891E+02</pdfrwt>
<totfact> 0.49284282E+06</totfact>
</mgrwt>
</event>
<event>
 4    1  0.4046313E-006  0.2001540E+02  0.7818608E-02  0.1745022E+00
          2   -1    0    0  501    0  0.00000000000E+00  0.00000000000E+00  0.31212831192E+01  0.31212842021E+01  0.26000000000E-02 0.  1.
         -2   -1    0    0    0  501 -0.00000000000E+00 -0.00000000000E+00 -0.32087462951E+02  0.32087463057E+02  0.26000000000E-02 0. -1.
        -11    1    1    2    0    0  0.89560057586E+01 -0.44587361200E+01 -0.14039082074E+02  0.17239089091E+02  0.51100000000E-03 0.  1.
         11    1    1    2    0    0 -0.89560057586E+01  0.44587361200E+01 -0.14927097758E+02  0.17969658168E+02  0.51100000000E-03 0. -1.
<mgrwt>
<rscale>  0 0.20015402E+02</rscale>
<asrwt>0</asrwt>
<pdfrwt beam="1">  1        2 0.48019752E-03 0.20015402E+02</pdfrwt>
<pdfrwt beam="2">  1       -2 0.49365326E-02 0.20015402E+02</pdfrwt>
<totfact> 0.35751843E+06</totfact>
</mgrwt>
</event>
<event>
 5    1  0.4046313E-006  0.2000298E+02  0.7818608E-02  0.1745269E+00
          2   -1    0    0  501    0  0.00000000000E+00  0.00000000000E+00  0.25971125604E+01  0.25971138619E+01  0.26000000000E-02 0. -1.
         -2   -1    0    0    0  501 -0.00000000000E+00 -0.00000000000E+00 -0.38515751885E+02  0.38515751972E+02  0.26000000000E-02 0.  1.
       1023    2    1    2    0    0  0.00000000000E+00  0.00000000000E+00 -0.35918639324E+02  0.41112865834E+02  0.20002976933E+02 0.  0.
        -11    1    3    3    0    0 -0.98398204688E+01  0.17867658515E+01 -0.17706152290E+02  0.20335250877E+02  0.51100000000E-03 0. -1.
         11    1    3    3    0    0  0.98398204688E+01 -0.17867658515E+01 -0.18212487034E+02  0.20777614957E+02  0.51100000000E-03 0.  1.
<mgrwt>
<rscale>  0 0.20002977E+02</rscale>
<asrwt>0</asrwt>
<pdfrwt beam="1">  1        2 0.39955591E-03 0.20002977E+02</pdfrwt>
<pdfrwt beam="2">  1       -2 0.59255000E-02 0.20002977E+02</pdfrwt>
<totfact> 0.35069660E+06</totfact>
</mgrwt>
</event>
<event>
 5    1  0.4046313E-006  0.2000920E+02  0.7818608E-02  0.1745145E+00
         -2   -1    0    0    0  501 -0.00000000000E+00  0.00000000000E+00  0.24071504174E+01  0.24071518216E+01  0.26000000000E-02 0. -1.
          2   -1    0    0  501    0  0.00000000000E+00 -0.00000000000E+00 -0.41581118656E+02  0.41581118737E+02  0.26000000000E-02 0.  1.
       1023    2    1    2    0    0  0.00000000000E+00  0.00000000000E+00 -0.39173968238E+02  0.43988270559E+02  0.20009201863E+02 0.  0.
        -11    1    3    3    0    0  0.45126925542E+01  0.89278620708E+01 -0.19268980146E+02  0.21710935295E+02  0.51100000000E-03 0.  1.
         11    1    3    3    0    0 -0.45126925542E+01 -0.89278620708E+01 -0.19904988093E+02  0.22277335264E+02  0.51100000000E-03 0. -1.
<mgrwt>
<rscale>  0 0.20009202E+02</rscale>
<asrwt>0</asrwt>
<pdfrwt beam="2">  1        2 0.63970948E-02 0.20009202E+02</pdfrwt>
<pdfrwt beam="1">  1       -2 0.37033098E-03 0.20009202E+02</pdfrwt>
<totfact> 0.45081440E+06</totfact>
</mgrwt>
</event>
<event>
 5    1  0.4046313E-006  0.2000022E+02  0.7818608E-02  0.1745324E+00
          2   -1    0    0  501    0  0.00000000000E+00  0.00000000000E+00  0.29430929904E+02  0.29430930019E+02  0.26000000000E-02 0. -1.
         -2   -1    0    0    0  501 -0.00000000000E+00 -0.00000000000E+00 -0.33978600491E+01  0.33978610439E+01  0.26000000000E-02 0.  1.
       1023    2    1    2    0    0  0.00000000000E+00  0.00000000000E+00  0.26033069855E+02  0.32828791063E+02  0.20000219913E+02 0.  0.
        -11    1    3    3    0    0 -0.24187208058E+00  0.99971827868E+01  0.13007090413E+02  0.16406906078E+02  0.51100000000E-03 0.  1.
         11    1    3    3    0    0  0.24187208058E+00 -0.99971827868E+01  0.13025979443E+02  0.16421884985E+02  0.51100000000E-03 0. -1.
<mgrwt>
<rscale>  0 0.20000220E+02</rscale>
<asrwt>0</asrwt>
<pdfrwt beam="1">  1        2 0.45278354E-02 0.20000220E+02</pdfrwt>
<pdfrwt beam="2">  1       -2 0.52274779E-03 0.20000220E+02</pdfrwt>
<totfact> 0.43281600E+06</totfact>
</mgrwt>
</event>
<event>
 5    1  0.4046313E-006  0.2000025E+02  0.7818608E-02  0.1745323E+00
          2   -1    0    0  501    0  0.00000000000E+00  0.00000000000E+00  0.19753356029E+01  0.19753373140E+01  0.26000000000E-02 0.  1.
         -2   -1    0    0    0  501 -0.00000000000E+00 -0.00000000000E+00 -0.50625552267E+02  0.50625552334E+02  0.26000000000E-02 0. -1.
       1023    2    1    2    0    0  0.00000000000E+00  0.00000000000E+00 -0.48650216664E+02  0.52600889648E+02  0.20000250255E+02 0.  0.
        -11    1    3    3    0    0 -0.92637743145E+00 -0.99570439059E+01 -0.24430434235E+02  0.26397860059E+02  0.51100000000E-03 0.  1.
         11    1    3    3    0    0  0.92637743145E+00  0.99570439059E+01 -0.24219782429E+02  0.26203029590E+02  0.51100000000E-03 0. -1.
<mgrwt>
<rscale>  0 0.20000250E+02</rscale>
<asrwt>0</asrwt>
<pdfrwt beam="1">  1        2 0.30389796E-03 0.20000250E+02</pdfrwt>
<pdfrwt beam="2">  1       -2 0.77885457E-02 0.20000250E+02</pdfrwt>
<totfact> 0.33836877E+06</totfact>
</mgrwt>
</event>
<event>
 4    1  0.4046313E-006  0.2002252E+02  0.7818608E-02  0.1744881E+00
         -2   -1    0    0    0  501 -0.00000000000E+00  0.00000000000E+00  0.67248252299E+02  0.67248252350E+02  0.26000000000E-02 0. -1.
          2   -1    0    0  501    0  0.00000000000E+00 -0.00000000000E+00 -0.14903769397E+01  0.14903792076E+01  0.26000000000E-02 0.  1.
        -11    1    1    2    0    0  0.92087860788E+01 -0.39040150227E+01  0.31413337999E+02  0.32967269812E+02  0.51100000000E-03 0.  1.
         11    1    1    2    0    0 -0.92087860788E+01  0.39040150227E+01  0.34344537361E+02  0.35771361746E+02  0.51100000000E-03 0. -1.
<mgrwt>
<rscale>  0 0.20022520E+02</rscale>
<asrwt>0</asrwt>
<pdfrwt beam="2">  1        2 0.22928898E-03 0.20022520E+02</pdfrwt>
<pdfrwt beam="1">  1       -2 0.10345883E-01 0.20022520E+02</pdfrwt>
<totfact> 0.32239554E+06</totfact>
</mgrwt>
</event>
<event>
 5    1  0.4046313E-006  0.2000775E+02  0.7818608E-02  0.1745174E+00
          2   -1    0    0  501    0  0.00000000000E+00  0.00000000000E+00  0.54981191251E+02  0.54981191313E+02  0.26000000000E-02 0.  1.
         -2   -1    0    0    0  501 -0.00000000000E+00 -0.00000000000E+00 -0.18202133527E+01  0.18202152097E+01  0.26000000000E-02 0. -1.
       1023    2    1    2    0    0  0.00000000000E+00  0.00000000000E+00  0.53160977898E+02  0.56801406522E+02  0.20007753792E+02 0.  0.
        -11    1    3    3    0    0 -0.57180251284E+00 -0.99838325474E+01  0.27351112298E+02  0.29121937001E+02  0.51100000000E-03 0. -1.
         11    1    3    3    0    0  0.57180251284E+00  0.99838325474E+01  0.25809865600E+02  0.27679469522E+02  0.51100000000E-03 0.  1.
<mgrwt>
<rscale>  0 0.20007754E+02</rscale>
<asrwt>0</asrwt>
<pdfrwt beam="1">  1        2 0.84586444E-02 0.20007754E+02</pdfrwt>
<pdfrwt beam="2">  1       -2 0.28003299E-03 0.20007754E+02</pdfrwt>
<totfact> 0.46976376E+06</totfact>
</mgrwt>
</event>
<event>
 4    1  0.4046313E-006  0.2004438E+02  0.7818608E-02  0.1744447E+00
          2   -1    0    0  501    0  0.00000000000E+00  0.00000000000E+00  0.29502647715E+01  0.29502659172E+01  0.26000000000E-02 0.  1.
         -2   -1    0    0    0  501 -0.00000000000E+00 -0.00000000000E+00 -0.34045857546E+02  0.34045857646E+02  0.26000000000E-02 0. -1.
        -11    1    1    2    0    0  0.10011548486E+02  0.46089906822E+00 -0.15599537753E+02  0.18541550890E+02  0.51100000000E-03 0.  1.
         11    1    1    2    0    0 -0.10011548486E+02 -0.46089906822E+00 -0.15496055022E+02  0.18454572673E+02  0.51100000000E-03 0. -1.
<mgrwt>
<rscale>  0 0.20044382E+02</rscale>
<asrwt>0</asrwt>
<pdfrwt beam="1">  1        2 0.45388701E-03 0.20044382E+02</pdfrwt>
<pdfrwt beam="2">  1       -2 0.52378240E-02 0.20044382E+02</pdfrwt>
<totfact> 0.35410712E+06</totfact>
</mgrwt>
</event>
<event>
 5    1  0.4046313E-006  0.2000065E+02  0.7818608E-02  0.1745315E+00
         -2   -1    0    0    0  501 -0.00000000000E+00  0.00000000000E+00  0.64673429244E+02  0.64673429296E+02  0.26000000000E-02 0.  1.
          2   -1    0    0  501    0  0.00000000000E+00 -0.00000000000E+00 -0.15463289529E+01  0.15463311387E+01  0.26000000000E-02 0. -1.
       1023    2    1    2    0    0  0.00000000000E+00  0.00000000000E+00  0.63127100291E+02  0.66219760435E+02  0.20000647012E+02 0.  0.
        -11    1    3    3    0    0 -0.26088961298E+01  0.96538127430E+01  0.31773744661E+02  0.33310258022E+02  0.51100000000E-03 0. -1.
         11    1    3    3    0    0  0.26088961298E+01 -0.96538127430E+01  0.31353355631E+02  0.32909502413E+02  0.51100000000E-03 0.  1.
<mgrwt>
<rscale>  0 0.20000647E+02</rscale>
<asrwt>0</asrwt>
<pdfrwt beam="2">  1        2 0.23789688E-03 0.20000647E+02</pdfrwt>
<pdfrwt beam="1">  1       -2 0.99497608E-02 0.20000647E+02</pdfrwt>
<totfact> 0.32540853E+06</totfact>
</mgrwt>
</event>
<event>
 5    1  0.4046313E-006  0.2000344E+02  0.7818608E-02  0.1745260E+00
         -2   -1    0    0    0  501 -0.00000000000E+00  0.00000000000E+00  0.74582177824E+02  0.74582177870E+02  0.26000000000E-02 0.  1.
          2   -1    0    0  501    0  0.00000000000E+00 -0.00000000000E+00 -0.13412622408E+01  0.13412647608E+01  0.26000000000E-02 0. -1.
       1023    2    1    2    0    0  0.00000000000E+00  0.00000000000E+00  0.73240915583E+02  0.75923442630E+02  0.20003435339E+02 0.  0.
        -11    1    3    3    0    0 -0.43070261577E+01 -0.90255992573E+01  0.37189023648E+02  0.38510198603E+02  0.51100000000E-03 0.  1.
         11    1    3    3    0    0  0.43070261577E+01  0.90255992573E+01  0.36051891935E+02  0.37413244028E+02  0.51100000000E-03 0. -1.
<mgrwt>
<rscale>  0 0.20003435E+02</rscale>
<asrwt>0</asrwt>
<pdfrwt beam="2">  1        2 0.20634820E-03 0.20003435E+02</pdfrwt>
<pdfrwt beam="1">  1       -2 0.11474183E-01 0.20003435E+02</pdfrwt>
<totfact> 0.31687259E+06</totfact>
</mgrwt>
</event>
<event>
 5    1  0.4046313E-006  0.2000838E+02  0.7818608E-02  0.1745161E+00
         -2   -1    0    0    0  501 -0.00000000000E+00  0.00000000000E+00  0.48928842744E+02  0.48928842813E+02  0.26000000000E-02 0.  1.
          2   -1    0    0  501    0  0.00000000000E+00 -0.00000000000E+00 -0.20454971708E+01  0.20454988232E+01  0.26000000000E-02 0. -1.
       1023    2    1    2    0    0  0.00000000000E+00  0.00000000000E+00  0.46883345573E+02  0.50974341636E+02  0.20008383571E+02 0.  0.
        -11    1    3    3    0    0 -0.79398163498E+01  0.60846060184E+01  0.23808560381E+02  0.25824613487E+02  0.51100000000E-03 0.  1.
         11    1    3    3    0    0  0.79398163498E+01 -0.60846060184E+01  0.23074785192E+02  0.25149728149E+02  0.51100000000E-03 0. -1.
<mgrwt>
<rscale>  0 0.20008384E+02</rscale>
<asrwt>0</asrwt>
<pdfrwt beam="2">  1        2 0.31469196E-03 0.20008384E+02</pdfrwt>
<pdfrwt beam="1">  1       -2 0.75275154E-02 0.20008384E+02</pdfrwt>
<totfact> 0.33972537E+06</totfact>
</mgrwt>
</event>
<event>
 5    1  0.4046313E-006  0.2000049E+02  0.7818608E-02  0.1745318E+00
         -2   -1    0    0    0  501 -0.00000000000E+00  0.00000000000E+00  0.83133066284E+02  0.83133066325E+02  0.26000000000E-02 0. -1.
          2   -1    0    0  501    0  0.00000000000E+00 -0.00000000000E+00 -0.12029486602E+01  0.12029514700E+01  0.26000000000E-02 0.  1.
       1023    2    1    2    0    0  0.00000000000E+00  0.00000000000E+00  0.81930117624E+02  0.84336017795E+02  0.20000493084E+02 0.  0.
        -11    1    3    3    0    0  0.87756705734E+01  0.47949393590E+01  0.40825641476E+02  0.42032568797E+02  0.51100000000E-03 0. -1.
         11    1    3    3    0    0 -0.87756705734E+01 -0.47949393590E+01  0.41104476148E+02  0.42303448998E+02  0.51100000000E-03 0.  1.
<mgrwt>
<rscale>  0 0.20000493E+02</rscale>
<asrwt>0</asrwt>
<pdfrwt beam="2">  1        2 0.18506923E-03 0.20000493E+02</pdfrwt>
<pdfrwt beam="1">  1       -2 0.12789704E-01 0.20000493E+02</pdfrwt>
<totfact> 0.31006917E+06</totfact>
</mgrwt>
</event>
<event>
 5    1  0.4046313E-006  0.2000182E+02  0.7818608E-02  0.1745292E+00
          2   -1    0    0  501    0  0.00000000000E+00  0.00000000000E+00  0.30498660547E+02  0.30498660658E+02  0.26000000000E-02 0.  1.
         -2   -1    0    0    0  501 -0.00000000000E+00 -0.00000000000E+00 -0.32794273156E+01  0.32794283462E+01  0.26000000000E-02 0. -1.
       1023    2    1    2    0    0  0.00000000000E+00  0.00000000000E+00  0.27219233231E+02  0.33778089004E+02  0.20001815894E+02 0.  0.
        -11    1    3    3    0    0 -0.98267332540E+01  0.18572403565E+01  0.13501071616E+02  0.16801576213E+02  0.51100000000E-03 0. -1.
         11    1    3    3    0    0  0.98267332540E+01 -0.18572403565E+01  0.13718161615E+02  0.16976512791E+02  0.51100000000E-03 0.  1.
<mgrwt>
<rscale>  0 0.20001816E+02</rscale>
<asrwt>0</asrwt>
<pdfrwt beam="1">  1        2 0.46921015E-02 0.20001816E+02</pdfrwt>
<pdfrwt beam="2">  1       -2 0.50452739E-03 0.20001816E+02</pdfrwt>
<totfact> 0.43443325E+06</totfact>
</mgrwt>
</event>
<event>
 4    1  0.5126158E-006  0.2107357E+02  0.7818608E-02  0.1724785E+00
          2   -1    0    0  501    0  0.00000000000E+00  0.00000000000E+00  0.52546141895E+02  0.52546141959E+02  0.26000000000E-02 0.  1.
         -2   -1    0    0    0  501 -0.00000000000E+00 -0.00000000000E+00 -0.21128824065E+01  0.21128840062E+01  0.26000000000E-02 0. -1.
        -11    1    1    2    0    0  0.20515100147E+01 -0.10205128038E+02  0.29455231789E+02  0.31240422719E+02  0.51100000000E-03 0.  1.
         11    1    1    2    0    0 -0.20515100147E+01  0.10205128038E+02  0.20978027699E+02  0.23418603246E+02  0.51100000000E-03 0. -1.
<mgrwt>
<rscale>  0 0.21073572E+02</rscale>
<asrwt>0</asrwt>
<pdfrwt beam="1">  1        2 0.80840215E-02 0.21073572E+02</pdfrwt>
<pdfrwt beam="2">  1       -2 0.32505898E-03 0.21073572E+02</pdfrwt>
<totfact> 0.41527047E+06</totfact>
</mgrwt>
</event>
<event>
 4    1  0.4046313E-006  0.2004076E+02  0.7818608E-02  0.1744519E+00
          2   -1    0    0  501    0  0.00000000000E+00  0.00000000000E+00  0.40261280292E+01  0.40261288688E+01  0.26000000000E-02 0. -1.
         -2   -1    0    0    0  501 -0.00000000000E+00 -0.00000000000E+00 -0.24939100966E+02  0.24939101101E+02  0.26000000000E-02 0.  1.
        -11    1    1    2    0    0 -0.14779265554E+00  0.10018392587E+02 -0.10650366734E+02  0.14622597052E+02  0.51100000000E-03 0. -1.
         11    1    1    2    0    0  0.14779265554E+00 -0.10018392587E+02 -0.10262606203E+02  0.14342632918E+02  0.51100000000E-03 0.  1.
<mgrwt>
<rscale>  0 0.20040761E+02</rscale>
<asrwt>0</asrwt>
<pdfrwt beam="1">  1        2 0.61940440E-03 0.20040761E+02</pdfrwt>
<pdfrwt beam="2">  1       -2 0.38367848E-02 0.20040761E+02</pdfrwt>
<totfact> 0.36554896E+06</totfact>
</mgrwt>
</event>
<event>
 4    1  0.4046313E-006  0.2001787E+02  0.7818608E-02  0.1744973E+00
          2   -1    0    0  501    0  0.00000000000E+00  0.00000000000E+00  0.63895132060E+02  0.63895132113E+02  0.26000000000E-02 0. -1.
         -2   -1    0    0    0  501 -0.00000000000E+00 -0.00000000000E+00 -0.15678620970E+01  0.15678642528E+01  0.26000000000E-02 0.  1.
        -11    1    1    2    0    0  0.10995937665E+01  0.99464750850E+01  0.30531586241E+02  0.32129725049E+02  0.51100000000E-03 0.  1.
         11    1    1    2    0    0 -0.10995937665E+01 -0.99464750850E+01  0.31795683722E+02  0.33333271317E+02  0.51100000000E-03 0. -1.
<mgrwt>
<rscale>  0 0.20017875E+02</rscale>
<asrwt>0</asrwt>
<pdfrwt beam="1">  1        2 0.98300185E-02 0.20017875E+02</pdfrwt>
<pdfrwt beam="2">  1       -2 0.24120977E-03 0.20017875E+02</pdfrwt>
<totfact> 0.48122492E+06</totfact>
</mgrwt>
</event>
<event>
 5    1  0.4046313E-006  0.2001233E+02  0.7818608E-02  0.1745083E+00
          2   -1    0    0  501    0  0.00000000000E+00  0.00000000000E+00  0.19758067117E+02  0.19758067288E+02  0.26000000000E-02 0. -1.
         -2   -1    0    0    0  501 -0.00000000000E+00 -0.00000000000E+00 -0.50674674098E+01  0.50674680768E+01  0.26000000000E-02 0.  1.
       1023    2    1    2    0    0  0.00000000000E+00  0.00000000000E+00  0.14690599707E+02  0.24825535365E+02  0.20012333357E+02 0.  0.
        -11    1    3    3    0    0 -0.71995448760E+00 -0.99796561614E+01  0.72122710892E+01  0.12334047433E+02  0.51100000000E-03 0.  1.
         11    1    3    3    0    0  0.71995448760E+00  0.99796561614E+01  0.74783286182E+01  0.12491487932E+02  0.51100000000E-03 0. -1.
<mgrwt>
<rscale>  0 0.20012333E+02</rscale>
<asrwt>0</asrwt>
<pdfrwt beam="1">  1        2 0.30397027E-02 0.20012333E+02</pdfrwt>
<pdfrwt beam="2">  1       -2 0.77961043E-03 0.20012333E+02</pdfrwt>
<totfact> 0.41575459E+06</totfact>
</mgrwt>
</event>
<event>
 5    1  0.4046313E-006  0.2000556E+02  0.7818608E-02  0.1745218E+00
          2   -1    0    0  501    0  0.00000000000E+00  0.00000000000E+00  0.31099508780E+01  0.31099519649E+01  0.26000000000E-02 0. -1.
         -2   -1    0    0    0  501 -0.00000000000E+00 -0.00000000000E+00 -0.32172713917E+02  0.32172714022E+02  0.26000000000E-02 0.  1.
       1023    2    1    2    0    0  0.00000000000E+00  0.00000000000E+00 -0.29062763039E+02  0.35282665987E+02  0.20005557320E+02 0.  0.
        -11    1    3    3    0    0 -0.21919698896E+01  0.97584120008E+01 -0.14256774352E+02  0.17415135715E+02  0.51100000000E-03 0.  1.
         11    1    3    3    0    0  0.21919698896E+01 -0.97584120008E+01 -0.14805988687E+02  0.17867530272E+02  0.51100000000E-03 0. -1.
<mgrwt>
<rscale>  0 0.20005557E+02</rscale>
<asrwt>0</asrwt>
<pdfrwt beam="1">  1        2 0.47845409E-03 0.20005557E+02</pdfrwt>
<pdfrwt beam="2">  1       -2 0.49496482E-02 0.20005557E+02</pdfrwt>
<totfact> 0.35780099E+06</totfact>
</mgrwt>
</event>
<event>
 5    1  0.4046313E-006  0.2000017E+02  0.7818608E-02  0.1745325E+00
         -2   -1    0    0    0  501 -0.00000000000E+00  0.00000000000E+00  0.20986161662E+01  0.20986177768E+01  0.26000000000E-02 0. -1.
          2   -1    0    0  501    0  0.00000000000E+00 -0.00000000000E+00 -0.47651259324E+02  0.47651259395E+02  0.26000000000E-02 0.  1.
       1023    2    1    2    0    0  0.00000000000E+00  0.00000000000E+00 -0.45552643158E+02  0.49749877172E+02  0.20000174498E+02 0.  0.
        -11    1    3    3    0    0  0.28512749052E+01  0.95849757816E+01 -0.22812829571E+02  0.24908366518E+02  0.51100000000E-03 0.  1.
         11    1    3    3    0    0 -0.28512749052E+01 -0.95849757816E+01 -0.22739813587E+02  0.24841510654E+02  0.51100000000E-03 0. -1.
<mgrwt>
<rscale>  0 0.20000174E+02</rscale>
<asrwt>0</asrwt>
<pdfrwt beam="2">  1        2 0.73309623E-02 0.20000174E+02</pdfrwt>
<pdfrwt beam="1">  1       -2 0.32286419E-03 0.20000174E+02</pdfrwt>
<totfact> 0.45997268E+06</totfact>
</mgrwt>
</event>
<event>
 5    1  0.4046313E-006  0.2000711E+02  0.7818608E-02  0.1745187E+00
         -2   -1    0    0    0  501 -0.00000000000E+00  0.00000000000E+00  0.16713004671E+01  0.16713024895E+01  0.26000000000E-02 0. -1.
          2   -1    0    0  501    0  0.00000000000E+00 -0.00000000000E+00 -0.59876176463E+02  0.59876176520E+02  0.26000000000E-02 0.  1.
       1023    2    1    2    0    0  0.00000000000E+00  0.00000000000E+00 -0.58204875996E+02  0.61547479009E+02  0.20007113302E+02 0.  0.
        -11    1    3    3    0    0  0.39859102544E+01  0.91718147001E+01 -0.28339669739E+02  0.30052396687E+02  0.51100000000E-03 0. -1.
         11    1    3    3    0    0 -0.39859102544E+01 -0.91718147001E+01 -0.29865206257E+02  0.31495082322E+02  0.51100000000E-03 0.  1.
<mgrwt>
<rscale>  0 0.20007113E+02</rscale>
<asrwt>0</asrwt>
<pdfrwt beam="2">  1        2 0.92117179E-02 0.20007113E+02</pdfrwt>
<pdfrwt beam="1">  1       -2 0.25712336E-03 0.20007113E+02</pdfrwt>
<totfact> 0.47643410E+06</totfact>
</mgrwt>
</event>
<event>
 5    1  0.4046313E-006  0.2000140E+02  0.7818608E-02  0.1745300E+00
          2   -1    0    0  501    0  0.00000000000E+00  0.00000000000E+00  0.52322129198E+01  0.52322135658E+01  0.26000000000E-02 0.  1.
         -2   -1    0    0    0  501 -0.00000000000E+00 -0.00000000000E+00 -0.19115037215E+02  0.19115037392E+02  0.26000000000E-02 0. -1.
       1023    2    1    2    0    0  0.00000000000E+00  0.00000000000E+00 -0.13882824296E+02  0.24347250958E+02  0.20001395421E+02 0.  0.
        -11    1    3    3    0    0 -0.38464924608E+00 -0.99932969647E+01 -0.69366710453E+01  0.12170922098E+02  0.51100000000E-03 0.  1.
         11    1    3    3    0    0  0.38464924608E+00  0.99932969647E+01 -0.69461532503E+01  0.12176328860E+02  0.51100000000E-03 0. -1.
<mgrwt>
<rscale>  0 0.20001395E+02</rscale>
<asrwt>0</asrwt>
<pdfrwt beam="1">  1        2 0.80495591E-03 0.20001395E+02</pdfrwt>
<pdfrwt beam="2">  1       -2 0.29407750E-02 0.20001395E+02</pdfrwt>
<totfact> 0.37568523E+06</totfact>
</mgrwt>
</event>
<event>
 4    1  0.4046313E-006  0.2012486E+02  0.7818608E-02  0.1742857E+00
          2   -1    0    0  501    0  0.00000000000E+00  0.00000000000E+00  0.69227440743E+02  0.69227440791E+02  0.26000000000E-02 0.  1.
         -2   -1    0    0    0  501 -0.00000000000E+00 -0.00000000000E+00 -0.14626044736E+01  0.14626067845E+01  0.26000000000E-02 0. -1.
        -11    1    1    2    0    0 -0.95762242058E+01 -0.30652997793E+01  0.32511546796E+02  0.34030880213E+02  0.51100000000E-03 0. -1.
         11    1    1    2    0    0  0.95762242058E+01  0.30652997793E+01  0.35253289473E+02  0.36659167363E+02  0.51100000000E-03 0.  1.
<mgrwt>
<rscale>  0 0.20124855E+02</rscale>
<asrwt>0</asrwt>
<pdfrwt beam="1">  1        2 0.10650374E-01 0.20124855E+02</pdfrwt>
<pdfrwt beam="2">  1       -2 0.22501630E-03 0.20124855E+02</pdfrwt>
<totfact> 0.48248345E+06</totfact>
</mgrwt>
</event>
<event>
 5    1  0.4046313E-006  0.2000226E+02  0.7818608E-02  0.1745283E+00
         -2   -1    0    0    0  501 -0.00000000000E+00  0.00000000000E+00  0.19414666457E+01  0.19414683867E+01  0.26000000000E-02 0.  1.
          2   -1    0    0  501    0  0.00000000000E+00 -0.00000000000E+00 -0.51519087159E+02  0.51519087224E+02  0.26000000000E-02 0. -1.
       1023    2    1    2    0    0  0.00000000000E+00  0.00000000000E+00 -0.49577620513E+02  0.53460555611E+02  0.20002263634E+02 0.  0.
        -11    1    3    3    0    0 -0.95723351313E+01 -0.28970530469E+01 -0.24759393154E+02  0.26702997319E+02  0.51100000000E-03 0.  1.
         11    1    3    3    0    0  0.95723351313E+01  0.28970530469E+01 -0.24818227359E+02  0.26757558292E+02  0.51100000000E-03 0. -1.
<mgrwt>
<rscale>  0 0.20002264E+02</rscale>
<asrwt>0</asrwt>
<pdfrwt beam="2">  1        2 0.79260125E-02 0.20002264E+02</pdfrwt>
<pdfrwt beam="1">  1       -2 0.29868735E-03 0.20002264E+02</pdfrwt>
<totfact> 0.46527963E+06</totfact>
</mgrwt>
</event>
<event>
 5    1  0.4285485E-006  0.2000113E+02  0.7818608E-02  0.1745306E+00
          2   -1    0    0  501    0  0.00000000000E+00  0.00000000000E+00  0.77138232364E+02  0.77138232408E+02  0.26000000000E-02 0. -1.
         -2   -1    0    0    0  501 -0.00000000000E+00 -0.00000000000E+00 -0.12965189906E+01  0.12965215975E+01  0.26000000000E-02 0.  1.
       1023    2    1    2    0    0  0.00000000000E+00  0.00000000000E+00  0.75841713373E+02  0.78434754005E+02  0.20001128680E+02 0.  0.
        -11    1    3    3    0    0  0.59657028042E+00 -0.99826560998E+01  0.38094821259E+02  0.39385590334E+02  0.51100000000E-03 0.  1.
         11    1    3    3    0    0 -0.59657028042E+00  0.99826560998E+01  0.37746892114E+02  0.39049163671E+02  0.51100000000E-03 0. -1.
<mgrwt>
<rscale>  0 0.20001129E+02</rscale>
<asrwt>0</asrwt>
<pdfrwt beam="1">  1        2 0.11867422E-01 0.20001129E+02</pdfrwt>
<pdfrwt beam="2">  1       -2 0.19946464E-03 0.20001129E+02</pdfrwt>
<totfact> 0.49931040E+06</totfact>
</mgrwt>
</event>
<event>
 5    1  0.4046313E-006  0.2000002E+02  0.7818608E-02  0.1745328E+00
         -2   -1    0    0    0  501 -0.00000000000E+00  0.00000000000E+00  0.24293016285E+01  0.24293030198E+01  0.26000000000E-02 0.  1.
          2   -1    0    0  501    0  0.00000000000E+00 -0.00000000000E+00 -0.41164158431E+02  0.41164158513E+02  0.26000000000E-02 0. -1.
       1023    2    1    2    0    0  0.00000000000E+00  0.00000000000E+00 -0.38734856802E+02  0.43593461533E+02  0.20000018923E+02 0.  0.
        -11    1    3    3    0    0  0.54191814676E+01 -0.84043228292E+01 -0.19357934564E+02  0.21788295042E+02  0.51100000000E-03 0.  1.
         11    1    3    3    0    0 -0.54191814676E+01  0.84043228292E+01 -0.19376922239E+02  0.21805166491E+02  0.51100000000E-03 0. -1.
<mgrwt>
<rscale>  0 0.20000019E+02</rscale>
<asrwt>0</asrwt>
<pdfrwt beam="2">  1        2 0.63329470E-02 0.20000019E+02</pdfrwt>
<pdfrwt beam="1">  1       -2 0.37373886E-03 0.20000019E+02</pdfrwt>
<totfact> 0.45066835E+06</totfact>
</mgrwt>
</event>
<event>
 5    1  0.4148832E-006  0.2000060E+02  0.7818608E-02  0.1745316E+00
         -2   -1    0    0    0  501 -0.00000000000E+00  0.00000000000E+00  0.16198764166E+01  0.16198785032E+01  0.26000000000E-02 0. -1.
          2   -1    0    0  501    0  0.00000000000E+00 -0.00000000000E+00 -0.61736748978E+02  0.61736749033E+02  0.26000000000E-02 0.  1.
       1023    2    1    2    0    0  0.00000000000E+00  0.00000000000E+00 -0.60116872561E+02  0.63356627536E+02  0.20000597145E+02 0.  0.
        -11    1    3    3    0    0 -0.23583224640E+01  0.97180912282E+01 -0.30231631162E+02  0.31842652291E+02  0.51100000000E-03 0.  1.
         11    1    3    3    0    0  0.23583224640E+01 -0.97180912282E+01 -0.29885241399E+02  0.31513975245E+02  0.51100000000E-03 0. -1.
<mgrwt>
<rscale>  0 0.20000597E+02</rscale>
<asrwt>0</asrwt>
<pdfrwt beam="2">  1        2 0.94979597E-02 0.20000597E+02</pdfrwt>
<pdfrwt beam="1">  1       -2 0.24921197E-03 0.20000597E+02</pdfrwt>
<totfact> 0.47927422E+06</totfact>
</mgrwt>
</event>
<event>
 5    1  0.4280603E-006  0.2000340E+02  0.7818608E-02  0.1745261E+00
          2   -1    0    0  501    0  0.00000000000E+00  0.00000000000E+00  0.10770510013E+03  0.10770510016E+03  0.26000000000E-02 0.  1.
         -2   -1    0    0    0  501 -0.00000000000E+00 -0.00000000000E+00 -0.92877458986E+00  0.92877822906E+00  0.26000000000E-02 0. -1.
       1023    2    1    2    0    0  0.00000000000E+00  0.00000000000E+00  0.10677632554E+03  0.10863387839E+03  0.20003395669E+02 0.  0.
        -11    1    3    3    0    0 -0.70257129476E+01 -0.71167425788E+01  0.52524482861E+02  0.53468027525E+02  0.51100000000E-03 0.  1.
         11    1    3    3    0    0  0.70257129476E+01  0.71167425788E+01  0.54251842682E+02  0.55165850868E+02  0.51100000000E-03 0. -1.
<mgrwt>
<rscale>  0 0.20003396E+02</rscale>
<asrwt>0</asrwt>
<pdfrwt beam="1">  1        2 0.16570003E-01 0.20003396E+02</pdfrwt>
<pdfrwt beam="2">  1       -2 0.14288879E-03 0.20003396E+02</pdfrwt>
<totfact> 0.53651025E+06</totfact>
</mgrwt>
</event>
<event>
 5    1  0.4046313E-006  0.2000097E+02  0.7818608E-02  0.1745309E+00
          2   -1    0    0  501    0  0.00000000000E+00  0.00000000000E+00  0.13128348822E+02  0.13128349080E+02  0.26000000000E-02 0.  1.
         -2   -1    0    0    0  501 -0.00000000000E+00 -0.00000000000E+00 -0.76178410129E+01  0.76178414565E+01  0.26000000000E-02 0. -1.
       1023    2    1    2    0    0  0.00000000000E+00  0.00000000000E+00  0.55105078096E+01  0.20746190536E+02  0.20000968113E+02 0.  0.
        -11    1    3    3    0    0 -0.64793908259E+01  0.76175566154E+01  0.27525411152E+01  0.10372374710E+02  0.51100000000E-03 0.  1.
         11    1    3    3    0    0  0.64793908259E+01 -0.76175566154E+01  0.27579666944E+01  0.10373815827E+02  0.51100000000E-03 0. -1.
<mgrwt>
<rscale>  0 0.20000968E+02</rscale>
<asrwt>0</asrwt>
<pdfrwt beam="1">  1        2 0.20197460E-02 0.20000968E+02</pdfrwt>
<pdfrwt beam="2">  1       -2 0.11719756E-02 0.20000968E+02</pdfrwt>
<totfact> 0.40266763E+06</totfact>
</mgrwt>
</event>
<event>
 5    1  0.4046313E-006  0.2000268E+02  0.7818608E-02  0.1745275E+00
         -2   -1    0    0    0  501 -0.00000000000E+00  0.00000000000E+00  0.37879603517E+01  0.37879612440E+01  0.26000000000E-02 0.  1.
          2   -1    0    0  501    0  0.00000000000E+00 -0.00000000000E+00 -0.26406500862E+02  0.26406500990E+02  0.26000000000E-02 0. -1.
       1023    2    1    2    0    0  0.00000000000E+00  0.00000000000E+00 -0.22618540510E+02  0.30194462234E+02  0.20002679190E+02 0.  0.
        -11    1    3    3    0    0 -0.85536654158E+01  0.51827386906E+01 -0.11352524073E+02  0.15129632364E+02  0.51100000000E-03 0. -1.
         11    1    3    3    0    0  0.85536654158E+01 -0.51827386906E+01 -0.11266016437E+02  0.15064829870E+02  0.51100000000E-03 0.  1.
<mgrwt>
<rscale>  0 0.20002679E+02</rscale>
<asrwt>0</asrwt>
<pdfrwt beam="2">  1        2 0.40625386E-02 0.20002679E+02</pdfrwt>
<pdfrwt beam="1">  1       -2 0.58276323E-03 0.20002679E+02</pdfrwt>
<totfact> 0.42778678E+06</totfact>
</mgrwt>
</event>
<event>
 5    1  0.4046313E-006  0.2000077E+02  0.7818608E-02  0.1745313E+00
         -2   -1    0    0    0  501 -0.00000000000E+00  0.00000000000E+00  0.28904210352E+01  0.28904222046E+01  0.26000000000E-02 0.  1.
          2   -1    0    0  501    0  0.00000000000E+00 -0.00000000000E+00 -0.34599674565E+02  0.34599674663E+02  0.26000000000E-02 0. -1.
       1023    2    1    2    0    0  0.00000000000E+00  0.00000000000E+00 -0.31709253530E+02  0.37490096867E+02  0.20000765078E+02 0.  0.
        -11    1    3    3    0    0  0.72341553493E+01 -0.69046243147E+01 -0.15801275565E+02  0.18699923805E+02  0.51100000000E-03 0. -1.
         11    1    3    3    0    0 -0.72341553493E+01  0.69046243147E+01 -0.15907977965E+02  0.18790173063E+02  0.51100000000E-03 0.  1.
<mgrwt>
<rscale>  0 0.20000765E+02</rscale>
<asrwt>0</asrwt>
<pdfrwt beam="2">  1        2 0.53230267E-02 0.20000765E+02</pdfrwt>
<pdfrwt beam="1">  1       -2 0.44468028E-03 0.20000765E+02</pdfrwt>
<totfact> 0.44084352E+06</totfact>
</mgrwt>
</event>
<event>
 5    1  0.4046313E-006  0.2000058E+02  0.7818608E-02  0.1745317E+00
         -2   -1    0    0    0  501 -0.00000000000E+00  0.00000000000E+00  0.17999625691E+02  0.17999625878E+02  0.26000000000E-02 0. -1.
          2   -1    0    0  501    0  0.00000000000E+00 -0.00000000000E+00 -0.55559930704E+01  0.55559936787E+01  0.26000000000E-02 0.  1.
       1023    2    1    2    0    0  0.00000000000E+00  0.00000000000E+00  0.12443632620E+02  0.23555619557E+02  0.20000580490E+02 0.  0.
        -11    1    3    3    0    0 -0.28364179476E+01  0.95895835162E+01  0.62461228733E+01  0.11790650109E+02  0.51100000000E-03 0.  1.
         11    1    3    3    0    0  0.28364179476E+01 -0.95895835162E+01  0.61975097469E+01  0.11764969448E+02  0.51100000000E-03 0. -1.
<mgrwt>
<rscale>  0 0.20000580E+02</rscale>
<asrwt>0</asrwt>
<pdfrwt beam="2">  1        2 0.85476822E-03 0.20000580E+02</pdfrwt>
<pdfrwt beam="1">  1       -2 0.27691733E-02 0.20000580E+02</pdfrwt>
<totfact> 0.37755192E+06</totfact>
</mgrwt>
</event>
<event>
 5    1  0.4046313E-006  0.2000149E+02  0.7818608E-02  0.1745299E+00
         -2   -1    0    0    0  501 -0.00000000000E+00  0.00000000000E+00  0.23731056746E+02  0.23731056889E+02  0.26000000000E-02 0.  1.
          2   -1    0    0  501    0  0.00000000000E+00 -0.00000000000E+00 -0.42145127432E+01  0.42145135452E+01  0.26000000000E-02 0. -1.
       1023    2    1    2    0    0  0.00000000000E+00  0.00000000000E+00  0.19516544003E+02  0.27945570434E+02  0.20001485371E+02 0.  0.
        -11    1    3    3    0    0 -0.99017547193E+01  0.14032502081E+01  0.97141705135E+01  0.13941985752E+02  0.51100000000E-03 0.  1.
         11    1    3    3    0    0  0.99017547193E+01 -0.14032502081E+01  0.98023734895E+01  0.14003584682E+02  0.51100000000E-03 0. -1.
<mgrwt>
<rscale>  0 0.20001485E+02</rscale>
<asrwt>0</asrwt>
<pdfrwt beam="2">  1        2 0.64838663E-03 0.20001485E+02</pdfrwt>
<pdfrwt beam="1">  1       -2 0.36509320E-02 0.20001485E+02</pdfrwt>
<totfact> 0.36877788E+06</totfact>
</mgrwt>
</event>
<event>
 5    1  0.4046313E-006  0.2000004E+02  0.7818608E-02  0.1745327E+00
         -2   -1    0    0    0  501 -0.00000000000E+00  0.00000000000E+00  0.12720998165E+01  0.12721024735E+01  0.26000000000E-02 0.  1.
          2   -1    0    0  501    0  0.00000000000E+00 -0.00000000000E+00 -0.78610419234E+02  0.78610419277E+02  0.26000000000E-02 0. -1.
       1023    2    1    2    0    0  0.00000000000E+00  0.00000000000E+00 -0.77338319418E+02  0.79882521751E+02  0.20000040772E+02 0.  0.
        -11    1    3    3    0    0  0.96094502545E+01  0.27674179874E+01 -0.38603414226E+02  0.39877609340E+02  0.51100000000E-03 0.  1.
         11    1    3    3    0    0 -0.96094502545E+01 -0.27674179874E+01 -0.38734905192E+02  0.40004912411E+02  0.51100000000E-03 0. -1.
<mgrwt>
<rscale>  0 0.20000041E+02</rscale>
<asrwt>0</asrwt>
<pdfrwt beam="2">  1        2 0.12093907E-01 0.20000041E+02</pdfrwt>
<pdfrwt beam="1">  1       -2 0.19570793E-03 0.20000041E+02</pdfrwt>
<totfact> 0.50123810E+06</totfact>
</mgrwt>
</event>
<event>
 5    1  0.4046313E-006  0.2000088E+02  0.7818608E-02  0.1745311E+00
         -2   -1    0    0    0  501 -0.00000000000E+00  0.00000000000E+00  0.26242544606E+01  0.26242557485E+01  0.26000000000E-02 0. -1.
          2   -1    0    0  501    0  0.00000000000E+00 -0.00000000000E+00 -0.38109407091E+02  0.38109407180E+02  0.26000000000E-02 0.  1.
       1023    2    1    2    0    0  0.00000000000E+00  0.00000000000E+00 -0.35485152630E+02  0.40733662928E+02  0.20000880939E+02 0.  0.
        -11    1    3    3    0    0 -0.83293969374E+01  0.55342231080E+01 -0.17840894966E+02  0.20452481810E+02  0.51100000000E-03 0.  1.
         11    1    3    3    0    0  0.83293969374E+01 -0.55342231080E+01 -0.17644257665E+02  0.20281181118E+02  0.51100000000E-03 0. -1.
<mgrwt>
<rscale>  0 0.20000881E+02</rscale>
<asrwt>0</asrwt>
<pdfrwt beam="2">  1        2 0.58629854E-02 0.20000881E+02</pdfrwt>
<pdfrwt beam="1">  1       -2 0.40373159E-03 0.20000881E+02</pdfrwt>
<totfact> 0.44612288E+06</totfact>
</mgrwt>
</event>
<event>
 4    1  0.4046313E-006  0.2005755E+02  0.7818608E-02  0.1744186E+00
         -2   -1    0    0    0  501 -0.00000000000E+00  0.00000000000E+00  0.57920133144E+01  0.57920138980E+01  0.26000000000E-02 0.  1.
          2   -1    0    0  501    0  0.00000000000E+00 -0.00000000000E+00 -0.17364661873E+02  0.17364662068E+02  0.26000000000E-02 0. -1.
        -11    1    1    2    0    0  0.79378552096E+01  0.61291771356E+01 -0.57840642163E+01  0.11577208507E+02  0.51100000000E-03 0.  1.
         11    1    1    2    0    0 -0.79378552096E+01 -0.61291771356E+01 -0.57885843425E+01  0.11579467459E+02  0.51100000000E-03 0. -1.
<mgrwt>
<rscale>  0 0.20057553E+02</rscale>
<asrwt>0</asrwt>
<pdfrwt beam="2">  1        2 0.26714865E-02 0.20057553E+02</pdfrwt>
<pdfrwt beam="1">  1       -2 0.89107904E-03 0.20057553E+02</pdfrwt>
<totfact> 0.40909187E+06</totfact>
</mgrwt>
</event>
<event>
 5    1  0.4046313E-006  0.2000113E+02  0.7818608E-02  0.1745306E+00
         -2   -1    0    0    0  501 -0.00000000000E+00  0.00000000000E+00  0.75598293244E+02  0.75598293288E+02  0.26000000000E-02 0.  1.
          2   -1    0    0  501    0  0.00000000000E+00 -0.00000000000E+00 -0.13229290525E+01  0.13229316075E+01  0.26000000000E-02 0. -1.
       1023    2    1    2    0    0  0.00000000000E+00  0.00000000000E+00  0.74275364191E+02  0.76921224896E+02  0.20001127812E+02 0.  0.
        -11    1    3    3    0    0 -0.10494253200E+01  0.99453322192E+01  0.37209808302E+02  0.38530257728E+02  0.51100000000E-03 0. -1.
         11    1    3    3    0    0  0.10494253200E+01 -0.99453322192E+01  0.37065555889E+02  0.38390967168E+02  0.51100000000E-03 0.  1.
<mgrwt>
<rscale>  0 0.20001128E+02</rscale>
<asrwt>0</asrwt>
<pdfrwt beam="2">  1        2 0.20352769E-03 0.20001128E+02</pdfrwt>
<pdfrwt beam="1">  1       -2 0.11630510E-01 0.20001128E+02</pdfrwt>
<totfact> 0.31611447E+06</totfact>
</mgrwt>
</event>
<event>
 5    1  0.4046313E-006  0.2000132E+02  0.7818608E-02  0.1745302E+00
          2   -1    0    0  501    0  0.00000000000E+00  0.00000000000E+00  0.59739209240E+02  0.59739209297E+02  0.26000000000E-02 0. -1.
         -2   -1    0    0    0  501 -0.00000000000E+00 -0.00000000000E+00 -0.16741630520E+01  0.16741650709E+01  0.26000000000E-02 0.  1.
       1023    2    1    2    0    0  0.00000000000E+00  0.00000000000E+00  0.58065046188E+02  0.61413374368E+02  0.20001324016E+02 0.  0.
        -11    1    3    3    0    0 -0.68228894010E+01 -0.73112822563E+01  0.28783600848E+02  0.30471336466E+02  0.51100000000E-03 0.  1.
         11    1    3    3    0    0  0.68228894010E+01  0.73112822563E+01  0.29281445340E+02  0.30942037901E+02  0.51100000000E-03 0. -1.
<mgrwt>
<rscale>  0 0.20001324E+02</rscale>
<asrwt>0</asrwt>
<pdfrwt beam="1">  1        2 0.91906467E-02 0.20001324E+02</pdfrwt>
<pdfrwt beam="2">  1       -2 0.25756373E-03 0.20001324E+02</pdfrwt>
<totfact> 0.47655627E+06</totfact>
</mgrwt>
</event>
<event>
 5    1  0.4046313E-006  0.2000078E+02  0.7818608E-02  0.1745313E+00
         -2   -1    0    0    0  501 -0.00000000000E+00  0.00000000000E+00  0.38792650527E+01  0.38792659240E+01  0.26000000000E-02 0.  1.
          2   -1    0    0  501    0  0.00000000000E+00 -0.00000000000E+00 -0.25780093663E+02  0.25780093794E+02  0.26000000000E-02 0. -1.
       1023    2    1    2    0    0  0.00000000000E+00  0.00000000000E+00 -0.21900828611E+02  0.29659359718E+02  0.20000783111E+02 0.  0.
        -11    1    3    3    0    0  0.49662034876E+01  0.86797801771E+01 -0.10834880447E+02  0.14744368266E+02  0.51100000000E-03 0. -1.
         11    1    3    3    0    0 -0.49662034876E+01 -0.86797801771E+01 -0.11065948164E+02  0.14914991452E+02  0.51100000000E-03 0.  1.
<mgrwt>
<rscale>  0 0.20000783E+02</rscale>
<asrwt>0</asrwt>
<pdfrwt beam="2">  1        2 0.39661682E-02 0.20000783E+02</pdfrwt>
<pdfrwt beam="1">  1       -2 0.59681010E-03 0.20000783E+02</pdfrwt>
<totfact> 0.42683726E+06</totfact>
</mgrwt>
</event>
<event>
 5    1  0.4046313E-006  0.2000510E+02  0.7818608E-02  0.1745227E+00
          2   -1    0    0  501    0  0.00000000000E+00  0.00000000000E+00  0.51544684281E+01  0.51544690839E+01  0.26000000000E-02 0.  1.
         -2   -1    0    0    0  501 -0.00000000000E+00 -0.00000000000E+00 -0.19410540904E+02  0.19410541078E+02  0.26000000000E-02 0. -1.
       1023    2    1    2    0    0  0.00000000000E+00  0.00000000000E+00 -0.14256072476E+02  0.24565010162E+02  0.20005102395E+02 0.  0.
        -11    1    3    3    0    0 -0.96760342647E+01 -0.25346967772E+01 -0.70954704289E+01  0.12263605820E+02  0.51100000000E-03 0.  1.
         11    1    3    3    0    0  0.96760342647E+01  0.25346967772E+01 -0.71606020468E+01  0.12301404342E+02  0.51100000000E-03 0. -1.
<mgrwt>
<rscale>  0 0.20005102E+02</rscale>
<asrwt>0</asrwt>
<pdfrwt beam="1">  1        2 0.79299521E-03 0.20005102E+02</pdfrwt>
<pdfrwt beam="2">  1       -2 0.29862371E-02 0.20005102E+02</pdfrwt>
<totfact> 0.37506110E+06</totfact>
</mgrwt>
</event>
<event>
 5    1  0.4046313E-006  0.2000279E+02  0.7818608E-02  0.1745273E+00
          2   -1    0    0  501    0  0.00000000000E+00  0.00000000000E+00  0.95916478106E+01  0.95916481630E+01  0.26000000000E-02 0.  1.
         -2   -1    0    0    0  501 -0.00000000000E+00 -0.00000000000E+00 -0.10428640681E+02  0.10428641005E+02  0.26000000000E-02 0. -1.
       1023    2    1    2    0    0  0.00000000000E+00  0.00000000000E+00 -0.83699287044E+00  0.20020289168E+02  0.20002785339E+02 0.  0.
        -11    1    3    3    0    0  0.92164886524E+01 -0.38826821353E+01 -0.32369595425E+00  0.10006181238E+02  0.51100000000E-03 0. -1.
         11    1    3    3    0    0 -0.92164886524E+01  0.38826821353E+01 -0.51329691619E+00  0.10014107930E+02  0.51100000000E-03 0.  1.
<mgrwt>
<rscale>  0 0.20002785E+02</rscale>
<asrwt>0</asrwt>
<pdfrwt beam="1">  1        2 0.14756382E-02 0.20002785E+02</pdfrwt>
<pdfrwt beam="2">  1       -2 0.16044063E-02 0.20002785E+02</pdfrwt>
<totfact> 0.39330368E+06</totfact>
</mgrwt>
</event>
<event>
 5    1  0.4418174E-006  0.2000300E+02  0.7818608E-02  0.1745268E+00
         -2   -1    0    0    0  501 -0.00000000000E+00  0.00000000000E+00  0.88717360331E+00  0.88717741316E+00  0.26000000000E-02 0.  1.
          2   -1    0    0  501    0  0.00000000000E+00 -0.00000000000E+00 -0.11275104949E+03  0.11275104952E+03  0.26000000000E-02 0. -1.
       1023    2    1    2    0    0  0.00000000000E+00  0.00000000000E+00 -0.11186387588E+03  0.11363822693E+03  0.20002997078E+02 0.  0.
        -11    1    3    3    0    0  0.91677270974E+01 -0.39961565001E+01 -0.56591671648E+02  0.57468546067E+02  0.51100000000E-03 0.  1.
         11    1    3    3    0    0 -0.91677270974E+01  0.39961565001E+01 -0.55272204236E+02  0.56169680863E+02  0.51100000000E-03 0. -1.
<mgrwt>
<rscale>  0 0.20002997E+02</rscale>
<asrwt>0</asrwt>
<pdfrwt beam="2">  1        2 0.17346304E-01 0.20002997E+02</pdfrwt>
<pdfrwt beam="1">  1       -2 0.13648863E-03 0.20002997E+02</pdfrwt>
<totfact> 0.54241513E+06</totfact>
</mgrwt>
</event>
<event>
 5    1  0.4046313E-006  0.2000254E+02  0.7818608E-02  0.1745278E+00
         -2   -1    0    0    0  501 -0.00000000000E+00  0.00000000000E+00  0.23614081110E+01  0.23614095423E+01  0.26000000000E-02 0.  1.
          2   -1    0    0  501    0  0.00000000000E+00 -0.00000000000E+00 -0.42358359288E+02  0.42358359367E+02  0.26000000000E-02 0. -1.
       1023    2    1    2    0    0  0.00000000000E+00  0.00000000000E+00 -0.39996951177E+02  0.44719768910E+02  0.20002540536E+02 0.  0.
        -11    1    3    3    0    0  0.99972695159E+01 -0.27033030318E+00 -0.19812354432E+02  0.22193419400E+02  0.51100000000E-03 0.  1.
         11    1    3    3    0    0 -0.99972695159E+01  0.27033030318E+00 -0.20184596745E+02  0.22526349510E+02  0.51100000000E-03 0. -1.
<mgrwt>
<rscale>  0 0.20002541E+02</rscale>
<asrwt>0</asrwt>
<pdfrwt beam="2">  1        2 0.65166702E-02 0.20002541E+02</pdfrwt>
<pdfrwt beam="1">  1       -2 0.36329370E-03 0.20002541E+02</pdfrwt>
<totfact> 0.45227941E+06</totfact>
</mgrwt>
</event>
<event>
 5    1  0.4046313E-006  0.2000086E+02  0.7818608E-02  0.1745311E+00
          2   -1    0    0  501    0  0.00000000000E+00  0.00000000000E+00  0.41146683794E+01  0.41146692009E+01  0.26000000000E-02 0.  1.
         -2   -1    0    0    0  501 -0.00000000000E+00 -0.00000000000E+00 -0.24305375298E+02  0.24305375437E+02  0.26000000000E-02 0. -1.
       1023    2    1    2    0    0  0.00000000000E+00  0.00000000000E+00 -0.20190706918E+02  0.28420044638E+02  0.20000857265E+02 0.  0.
        -11    1    3    3    0    0 -0.71318920704E+01 -0.70099602443E+01 -0.99934268502E+01  0.14137609685E+02  0.51100000000E-03 0.  1.
         11    1    3    3    0    0  0.71318920704E+01  0.70099602443E+01 -0.10197280068E+02  0.14282434953E+02  0.51100000000E-03 0. -1.
<mgrwt>
<rscale>  0 0.20000857E+02</rscale>
<asrwt>0</asrwt>
<pdfrwt beam="1">  1        2 0.63302600E-03 0.20000857E+02</pdfrwt>
<pdfrwt beam="2">  1       -2 0.37392885E-02 0.20000857E+02</pdfrwt>
<totfact> 0.36800537E+06</totfact>
</mgrwt>
</event>
<event>
 5    1  0.4046313E-006  0.2000647E+02  0.7818608E-02  0.1745200E+00
         -2   -1    0    0    0  501 -0.00000000000E+00  0.00000000000E+00  0.37534733593E+01  0.37534742598E+01  0.26000000000E-02 0.  1.
          2   -1    0    0  501    0  0.00000000000E+00 -0.00000000000E+00 -0.26659213568E+02  0.26659213695E+02  0.26000000000E-02 0. -1.
       1023    2    1    2    0    0  0.00000000000E+00  0.00000000000E+00 -0.22905740209E+02  0.30412687955E+02  0.20006465308E+02 0.  0.
        -11    1    3    3    0    0 -0.95675161119E+01  0.29129183930E+01 -0.11765166654E+02  0.15441554481E+02  0.51100000000E-03 0.  1.
         11    1    3    3    0    0  0.95675161119E+01 -0.29129183930E+01 -0.11140573555E+02  0.14971133474E+02  0.51100000000E-03 0. -1.
<mgrwt>
<rscale>  0 0.20006465E+02</rscale>
<asrwt>0</asrwt>
<pdfrwt beam="2">  1        2 0.41014174E-02 0.20006465E+02</pdfrwt>
<pdfrwt beam="1">  1       -2 0.57745754E-03 0.20006465E+02</pdfrwt>
<totfact> 0.42802222E+06</totfact>
</mgrwt>
</event>
<event>
 4    1  0.4046313E-006  0.2003158E+02  0.7818608E-02  0.1744701E+00
         -2   -1    0    0    0  501 -0.00000000000E+00  0.00000000000E+00  0.33925760128E+01  0.33925770091E+01  0.26000000000E-02 0.  1.
          2   -1    0    0  501    0  0.00000000000E+00 -0.00000000000E+00 -0.29569273400E+02  0.29569273514E+02  0.26000000000E-02 0. -1.
        -11    1    1    2    0    0  0.10004107932E+02  0.33793941104E+00 -0.12519171379E+02  0.16028912341E+02  0.51100000000E-03 0.  1.
         11    1    1    2    0    0 -0.10004107932E+02 -0.33793941104E+00 -0.13657526007E+02  0.16932938182E+02  0.51100000000E-03 0. -1.
<mgrwt>
<rscale>  0 0.20031578E+02</rscale>
<asrwt>0</asrwt>
<pdfrwt beam="2">  1        2 0.45491189E-02 0.20031578E+02</pdfrwt>
<pdfrwt beam="1">  1       -2 0.52193488E-03 0.20031578E+02</pdfrwt>
<totfact> 0.43151818E+06</totfact>
</mgrwt>
</event>
<event>
 5    1  0.4046313E-006  0.2000213E+02  0.7818608E-02  0.1745286E+00
          2   -1    0    0  501    0  0.00000000000E+00  0.00000000000E+00  0.14355743286E+01  0.14355766831E+01  0.26000000000E-02 0.  1.
         -2   -1    0    0    0  501 -0.00000000000E+00 -0.00000000000E+00 -0.69673333461E+02  0.69673333509E+02  0.26000000000E-02 0. -1.
       1023    2    1    2    0    0  0.00000000000E+00  0.00000000000E+00 -0.68237759132E+02  0.71108910192E+02  0.20002133320E+02 0.  0.
        -11    1    3    3    0    0  0.95629178894E+01  0.29277627823E+01 -0.34076723650E+02  0.35514001302E+02  0.51100000000E-03 0.  1.
         11    1    3    3    0    0 -0.95629178894E+01 -0.29277627823E+01 -0.34161035482E+02  0.35594908891E+02  0.51100000000E-03 0. -1.
<mgrwt>
<rscale>  0 0.20002133E+02</rscale>
<asrwt>0</asrwt>
<pdfrwt beam="1">  1        2 0.22085783E-03 0.20002133E+02</pdfrwt>
<pdfrwt beam="2">  1       -2 0.10718972E-01 0.20002133E+02</pdfrwt>
<totfact> 0.32103520E+06</totfact>
</mgrwt>
</event>
<event>
 5    1  0.4046313E-006  0.2000334E+02  0.7818608E-02  0.1745262E+00
          2   -1    0    0  501    0  0.00000000000E+00  0.00000000000E+00  0.32189789494E+02  0.32189789599E+02  0.26000000000E-02 0. -1.
         -2   -1    0    0    0  501 -0.00000000000E+00 -0.00000000000E+00 -0.31076124838E+01  0.31076135715E+01  0.26000000000E-02 0.  1.
       1023    2    1    2    0    0  0.00000000000E+00  0.00000000000E+00  0.29082177010E+02  0.35297403171E+02  0.20003340994E+02 0.  0.
        -11    1    3    3    0    0  0.51520511574E+01  0.85725972698E+01  0.14507729560E+02  0.17621216539E+02  0.51100000000E-03 0.  1.
         11    1    3    3    0    0 -0.51520511574E+01 -0.85725972698E+01  0.14574447451E+02  0.17676186632E+02  0.51100000000E-03 0. -1.
<mgrwt>
<rscale>  0 0.20003341E+02</rscale>
<asrwt>0</asrwt>
<pdfrwt beam="1">  1        2 0.49522754E-02 0.20003341E+02</pdfrwt>
<pdfrwt beam="2">  1       -2 0.47809432E-03 0.20003341E+02</pdfrwt>
<totfact> 0.43700772E+06</totfact>
</mgrwt>
</event>
<event>
 5    1  0.4046313E-006  0.2000015E+02  0.7818608E-02  0.1745325E+00
          2   -1    0    0  501    0  0.00000000000E+00  0.00000000000E+00  0.81252533125E+01  0.81252537285E+01  0.26000000000E-02 0. -1.
         -2   -1    0    0    0  501 -0.00000000000E+00 -0.00000000000E+00 -0.12307494612E+02  0.12307494887E+02  0.26000000000E-02 0.  1.
       1023    2    1    2    0    0  0.00000000000E+00  0.00000000000E+00 -0.41822413000E+01  0.20432748616E+02  0.20000151842E+02 0.  0.
        -11    1    3    3    0    0  0.97758894911E+01  0.21055884685E+01 -0.20912726622E+01  0.10216405422E+02  0.51100000000E-03 0. -1.
         11    1    3    3    0    0 -0.97758894911E+01 -0.21055884685E+01 -0.20909686377E+01  0.10216343193E+02  0.51100000000E-03 0.  1.
<mgrwt>
<rscale>  0 0.20000152E+02</rscale>
<asrwt>0</asrwt>
<pdfrwt beam="1">  1        2 0.12500390E-02 0.20000152E+02</pdfrwt>
<pdfrwt beam="2">  1       -2 0.18934608E-02 0.20000152E+02</pdfrwt>
<totfact> 0.38866834E+06</totfact>
</mgrwt>
</event>
<event>
 5    1  0.4046313E-006  0.2000072E+02  0.7818608E-02  0.1745314E+00
          2   -1    0    0  501    0  0.00000000000E+00  0.00000000000E+00  0.18503491635E+02  0.18503491818E+02  0.26000000000E-02 0. -1.
         -2   -1    0    0    0  501 -0.00000000000E+00 -0.00000000000E+00 -0.54047717124E+01  0.54047723378E+01  0.26000000000E-02 0.  1.
       1023    2    1    2    0    0  0.00000000000E+00  0.00000000000E+00  0.13098719923E+02  0.23908264155E+02  0.20000715770E+02 0.  0.
        -11    1    3    3    0    0 -0.95586955454E+01 -0.29390370725E+01  0.65776001792E+01  0.11969604163E+02  0.51100000000E-03 0.  1.
         11    1    3    3    0    0  0.95586955454E+01  0.29390370725E+01  0.65211197433E+01  0.11938659992E+02  0.51100000000E-03 0. -1.
<mgrwt>
<rscale>  0 0.20000716E+02</rscale>
<asrwt>0</asrwt>
<pdfrwt beam="1">  1        2 0.28466911E-02 0.20000716E+02</pdfrwt>
<pdfrwt beam="2">  1       -2 0.83150341E-03 0.20000716E+02</pdfrwt>
<totfact> 0.41393780E+06</totfact>
</mgrwt>
</event>
<event>
 5    1  0.4046313E-006  0.2000020E+02  0.7818608E-02  0.1745324E+00
          2   -1    0    0  501    0  0.00000000000E+00  0.00000000000E+00  0.34273366696E+02  0.34273366795E+02  0.26000000000E-02 0. -1.
         -2   -1    0    0    0  501 -0.00000000000E+00 -0.00000000000E+00 -0.29177746584E+01  0.29177758168E+01  0.26000000000E-02 0.  1.
       1023    2    1    2    0    0  0.00000000000E+00  0.00000000000E+00  0.31355592038E+02  0.37191142612E+02  0.20000198417E+02 0.  0.
        -11    1    3    3    0    0  0.76611279124E+01 -0.64271785109E+01  0.15637080244E+02  0.18561244121E+02  0.51100000000E-03 0.  1.
         11    1    3    3    0    0 -0.76611279124E+01  0.64271785109E+01  0.15718511794E+02  0.18629898491E+02  0.51100000000E-03 0. -1.
<mgrwt>
<rscale>  0 0.20000198E+02</rscale>
<asrwt>0</asrwt>
<pdfrwt beam="1">  1        2 0.52728257E-02 0.20000198E+02</pdfrwt>
<pdfrwt beam="2">  1       -2 0.44888851E-03 0.20000198E+02</pdfrwt>
<totfact> 0.44037318E+06</totfact>
</mgrwt>
</event>
<event>
 5    1  0.4046313E-006  0.2000150E+02  0.7818608E-02  0.1745298E+00
          2   -1    0    0  501    0  0.00000000000E+00  0.00000000000E+00  0.31427116828E+01  0.31427127583E+01  0.26000000000E-02 0. -1.
         -2   -1    0    0    0  501 -0.00000000000E+00 -0.00000000000E+00 -0.31824429466E+02  0.31824429572E+02  0.26000000000E-02 0.  1.
       1023    2    1    2    0    0  0.00000000000E+00  0.00000000000E+00 -0.28681717783E+02  0.34967142330E+02  0.20001502638E+02 0.  0.
        -11    1    3    3    0    0 -0.98379676031E+01  0.17968999817E+01 -0.14382618334E+02  0.17517824251E+02  0.51100000000E-03 0. -1.
         11    1    3    3    0    0  0.98379676031E+01 -0.17968999817E+01 -0.14299099449E+02  0.17449318079E+02  0.51100000000E-03 0.  1.
<mgrwt>
<rscale>  0 0.20001503E+02</rscale>
<asrwt>0</asrwt>
<pdfrwt beam="1">  1        2 0.48349422E-03 0.20001503E+02</pdfrwt>
<pdfrwt beam="2">  1       -2 0.48960659E-02 0.20001503E+02</pdfrwt>
<totfact> 0.35837389E+06</totfact>
</mgrwt>
</event>
<event>
 5    1  0.4046313E-006  0.2000899E+02  0.7818608E-02  0.1745149E+00
          2   -1    0    0  501    0  0.00000000000E+00  0.00000000000E+00  0.10951188520E+02  0.10951188829E+02  0.26000000000E-02 0.  1.
         -2   -1    0    0    0  501 -0.00000000000E+00 -0.00000000000E+00 -0.91396433881E+01  0.91396437579E+01  0.26000000000E-02 0. -1.
       1023    2    1    2    0    0  0.00000000000E+00  0.00000000000E+00  0.18115451324E+01  0.20090832587E+02  0.20008994434E+02 0.  0.
        -11    1    3    3    0    0  0.95404032207E+01 -0.30115307646E+01  0.86883696997E+00  0.10042085894E+02  0.51100000000E-03 0. -1.
         11    1    3    3    0    0 -0.95404032207E+01  0.30115307646E+01  0.94270816248E+00  0.10048746693E+02  0.51100000000E-03 0.  1.
<mgrwt>
<rscale>  0 0.20008994E+02</rscale>
<asrwt>0</asrwt>
<pdfrwt beam="1">  1        2 0.16847983E-02 0.20008994E+02</pdfrwt>
<pdfrwt beam="2">  1       -2 0.14060990E-02 0.20008994E+02</pdfrwt>
<totfact> 0.39687077E+06</totfact>
</mgrwt>
</event>
<event>
 5    1  0.4046313E-006  0.2000253E+02  0.7818608E-02  0.1745278E+00
         -2   -1    0    0    0  501 -0.00000000000E+00  0.00000000000E+00  0.10214382891E+02  0.10214383222E+02  0.26000000000E-02 0. -1.
          2   -1    0    0  501    0  0.00000000000E+00 -0.00000000000E+00 -0.97925889227E+01  0.97925892678E+01  0.26000000000E-02 0.  1.
       1023    2    1    2    0    0  0.00000000000E+00  0.00000000000E+00  0.42179396869E+00  0.20006972490E+02  0.20002525792E+02 0.  0.
        -11    1    3    3    0    0 -0.76041281006E+01  0.64960522014E+01  0.27256197729E+00  0.10004786288E+02  0.51100000000E-03 0.  1.
         11    1    3    3    0    0  0.76041281006E+01 -0.64960522014E+01  0.14923199140E+00  0.10002186202E+02  0.51100000000E-03 0. -1.
<mgrwt>
<rscale>  0 0.20002526E+02</rscale>
<asrwt>0</asrwt>
<pdfrwt beam="2">  1        2 0.15065522E-02 0.20002526E+02</pdfrwt>
<pdfrwt beam="1">  1       -2 0.15714436E-02 0.20002526E+02</pdfrwt>
<totfact> 0.39391260E+06</totfact>
</mgrwt>
</event>
<event>
 5    1  0.4046313E-006  0.2000432E+02  0.7818608E-02  0.1745242E+00
          2   -1    0    0  501    0  0.00000000000E+00  0.00000000000E+00  0.13165384510E+02  0.13165384767E+02  0.26000000000E-02 0. -1.
         -2   -1    0    0    0  501 -0.00000000000E+00 -0.00000000000E+00 -0.75989559049E+01  0.75989563497E+01  0.26000000000E-02 0.  1.
       1023    2    1    2    0    0  0.00000000000E+00  0.00000000000E+00  0.55664286055E+01  0.20764341117E+02  0.20004317899E+02 0.  0.
        -11    1    3    3    0    0 -0.77716976964E+01 -0.62961540269E+01  0.28334554628E+01  0.10395639025E+02  0.51100000000E-03 0.  1.
         11    1    3    3    0    0  0.77716976964E+01  0.62961540269E+01  0.27329731426E+01  0.10368702092E+02  0.51100000000E-03 0. -1.
<mgrwt>
<rscale>  0 0.20004318E+02</rscale>
<asrwt>0</asrwt>
<pdfrwt beam="1">  1        2 0.20254438E-02 0.20004318E+02</pdfrwt>
<pdfrwt beam="2">  1       -2 0.11690702E-02 0.20004318E+02</pdfrwt>
<totfact> 0.40260099E+06</totfact>
</mgrwt>
</event>
<event>
 5    1  0.4046313E-006  0.2000128E+02  0.7818608E-02  0.1745303E+00
         -2   -1    0    0    0  501 -0.00000000000E+00  0.00000000000E+00  0.33637993342E+01  0.33638003390E+01  0.26000000000E-02 0.  1.
          2   -1    0    0  501    0  0.00000000000E+00 -0.00000000000E+00 -0.29732101137E+02  0.29732101251E+02  0.26000000000E-02 0. -1.
       1023    2    1    2    0    0  0.00000000000E+00  0.00000000000E+00 -0.26368301803E+02  0.33095901590E+02  0.20001284010E+02 0.  0.
        -11    1    3    3    0    0  0.97289409799E+01 -0.23152630727E+01 -0.13167230148E+02  0.16534469623E+02  0.51100000000E-03 0. -1.
         11    1    3    3    0    0 -0.97289409799E+01  0.23152630727E+01 -0.13201071655E+02  0.16561431967E+02  0.51100000000E-03 0.  1.
<mgrwt>
<rscale>  0 0.20001284E+02</rscale>
<asrwt>0</asrwt>
<pdfrwt beam="2">  1        2 0.45741693E-02 0.20001284E+02</pdfrwt>
<pdfrwt beam="1">  1       -2 0.51750770E-03 0.20001284E+02</pdfrwt>
<totfact> 0.43324425E+06</totfact>
</mgrwt>
</event>
<event>
 5    1  0.4046313E-006  0.2000037E+02  0.7818608E-02  0.1745321E+00
         -2   -1    0    0    0  501 -0.00000000000E+00  0.00000000000E+00  0.30907000432E+01  0.30907011368E+01  0.26000000000E-02 0.  1.
          2   -1    0    0  501    0  0.00000000000E+00 -0.00000000000E+00 -0.32356326063E+02  0.32356326168E+02  0.26000000000E-02 0. -1.
       1023    2    1    2    0    0  0.00000000000E+00  0.00000000000E+00 -0.29265626020E+02  0.35447027304E+02  0.20000371956E+02 0.  0.
        -11    1    3    3    0    0 -0.98856642122E+01  0.15087601629E+01 -0.14576622220E+02  0.17677121648E+02  0.51100000000E-03 0.  1.
         11    1    3    3    0    0  0.98856642122E+01 -0.15087601629E+01 -0.14689003800E+02  0.17769905657E+02  0.51100000000E-03 0. -1.
<mgrwt>
<rscale>  0 0.20000372E+02</rscale>
<asrwt>0</asrwt>
<pdfrwt beam="2">  1        2 0.49778962E-02 0.20000372E+02</pdfrwt>
<pdfrwt beam="1">  1       -2 0.47549243E-03 0.20000372E+02</pdfrwt>
<totfact> 0.43741175E+06</totfact>
</mgrwt>
</event>
<event>
 5    1  0.4046313E-006  0.2000208E+02  0.7818608E-02  0.1745287E+00
         -2   -1    0    0    0  501 -0.00000000000E+00  0.00000000000E+00  0.25628140442E+02  0.25628140574E+02  0.26000000000E-02 0.  1.
          2   -1    0    0  501    0  0.00000000000E+00 -0.00000000000E+00 -0.39027704750E+01  0.39027713410E+01  0.26000000000E-02 0. -1.
       1023    2    1    2    0    0  0.00000000000E+00  0.00000000000E+00  0.21725369967E+02  0.29530911915E+02  0.20002076350E+02 0.  0.
        -11    1    3    3    0    0  0.49730236507E+01 -0.86766275459E+01  0.10976420079E+02  0.14849128857E+02  0.51100000000E-03 0. -1.
         11    1    3    3    0    0 -0.49730236507E+01  0.86766275459E+01  0.10748949888E+02  0.14681783058E+02  0.51100000000E-03 0.  1.
<mgrwt>
<rscale>  0 0.20002076E+02</rscale>
<asrwt>0</asrwt>
<pdfrwt beam="2">  1        2 0.60042629E-03 0.20002076E+02</pdfrwt>
<pdfrwt beam="1">  1       -2 0.39427910E-02 0.20002076E+02</pdfrwt>
<totfact> 0.36616063E+06</totfact>
</mgrwt>
</event>
<event>
 5    1  0.4046313E-006  0.2000102E+02  0.7818608E-02  0.1745308E+00
          2   -1    0    0  501    0  0.00000000000E+00  0.00000000000E+00  0.10706984738E+01  0.10707016306E+01  0.26000000000E-02 0. -1.
         -2   -1    0    0    0  501 -0.00000000000E+00 -0.00000000000E+00 -0.93406355304E+02  0.93406355340E+02  0.26000000000E-02 0.  1.
       1023    2    1    2    0    0  0.00000000000E+00  0.00000000000E+00 -0.92335656830E+02  0.94477056971E+02  0.20001019264E+02 0.  0.
        -11    1    3    3    0    0 -0.98953579515E+01  0.14459984636E+01 -0.46006111494E+02  0.47080477012E+02  0.51100000000E-03 0.  1.
         11    1    3    3    0    0  0.98953579515E+01 -0.14459984636E+01 -0.46329545336E+02  0.47396579959E+02  0.51100000000E-03 0. -1.
<mgrwt>
<rscale>  0 0.20001019E+02</rscale>
<asrwt>0</asrwt>
<pdfrwt beam="1">  1        2 0.16472316E-03 0.20001019E+02</pdfrwt>
<pdfrwt beam="2">  1       -2 0.14370202E-01 0.20001019E+02</pdfrwt>
<totfact> 0.30214189E+06</totfact>
</mgrwt>
</event>
<event>
 5    1  0.4046313E-006  0.2000054E+02  0.7818608E-02  0.1745317E+00
         -2   -1    0    0    0  501 -0.00000000000E+00  0.00000000000E+00  0.51091497600E+01  0.51091504215E+01  0.26000000000E-02 0.  1.
          2   -1    0    0  501    0  0.00000000000E+00 -0.00000000000E+00 -0.19573774263E+02  0.19573774436E+02  0.26000000000E-02 0. -1.
       1023    2    1    2    0    0  0.00000000000E+00  0.00000000000E+00 -0.14464624503E+02  0.24682924857E+02  0.20000535430E+02 0.  0.
        -11    1    3    3    0    0 -0.29844880757E+01  0.95445369160E+01 -0.72319254710E+01  0.12341235769E+02  0.51100000000E-03 0.  1.
         11    1    3    3    0    0  0.29844880757E+01 -0.95445369160E+01 -0.72326990323E+01  0.12341689089E+02  0.51100000000E-03 0. -1.
<mgrwt>
<rscale>  0 0.20000535E+02</rscale>
<asrwt>0</asrwt>
<pdfrwt beam="2">  1        2 0.30113499E-02 0.20000535E+02</pdfrwt>
<pdfrwt beam="1">  1       -2 0.78602311E-03 0.20000535E+02</pdfrwt>
<totfact> 0.41596550E+06</totfact>
</mgrwt>
</event>
<event>
 5    1  0.4046313E-006  0.2000037E+02  0.7818608E-02  0.1745321E+00
          2   -1    0    0  501    0  0.00000000000E+00  0.00000000000E+00  0.65641082842E+02  0.65641082894E+02  0.26000000000E-02 0.  1.
         -2   -1    0    0    0  501 -0.00000000000E+00 -0.00000000000E+00 -0.15234908901E+01  0.15234931087E+01  0.26000000000E-02 0. -1.
       1023    2    1    2    0    0  0.00000000000E+00  0.00000000000E+00  0.64117591952E+02  0.67164576002E+02  0.20000366793E+02 0.  0.
        -11    1    3    3    0    0 -0.95794446700E+01 -0.28700722066E+01  0.32140575759E+02  0.33660357768E+02  0.51100000000E-03 0. -1.
         11    1    3    3    0    0  0.95794446700E+01  0.28700722066E+01  0.31977016193E+02  0.33504218235E+02  0.51100000000E-03 0.  1.
<mgrwt>
<rscale>  0 0.20000367E+02</rscale>
<asrwt>0</asrwt>
<pdfrwt beam="1">  1        2 0.10098628E-01 0.20000367E+02</pdfrwt>
<pdfrwt beam="2">  1       -2 0.23438340E-03 0.20000367E+02</pdfrwt>
<totfact> 0.48447029E+06</totfact>
</mgrwt>
</event>
<event>
 5    1  0.4046313E-006  0.2000124E+02  0.7818608E-02  0.1745303E+00
         -2   -1    0    0    0  501 -0.00000000000E+00  0.00000000000E+00  0.49059161633E+02  0.49059161702E+02  0.26000000000E-02 0.  1.
          2   -1    0    0  501    0  0.00000000000E+00 -0.00000000000E+00 -0.20386073924E+01  0.20386090504E+01  0.26000000000E-02 0. -1.
       1023    2    1    2    0    0  0.00000000000E+00  0.00000000000E+00  0.47020554241E+02  0.51097770753E+02  0.20001241330E+02 0.  0.
        -11    1    3    3    0    0  0.19900032712E+01 -0.98003669297E+01  0.23692872444E+02  0.25716910971E+02  0.51100000000E-03 0. -1.
         11    1    3    3    0    0 -0.19900032712E+01  0.98003669297E+01  0.23327681797E+02  0.25380859782E+02  0.51100000000E-03 0.  1.
<mgrwt>
<rscale>  0 0.20001241E+02</rscale>
<asrwt>0</asrwt>
<pdfrwt beam="2">  1        2 0.31363207E-03 0.20001241E+02</pdfrwt>
<pdfrwt beam="1">  1       -2 0.75475628E-02 0.20001241E+02</pdfrwt>
<totfact> 0.33986226E+06</totfact>
</mgrwt>
</event>
<event>
 5    1  0.4046313E-006  0.2000152E+02  0.7818608E-02  0.1745298E+00
         -2   -1    0    0    0  501 -0.00000000000E+00  0.00000000000E+00  0.98495115544E+01  0.98495118976E+01  0.26000000000E-02 0. -1.
          2   -1    0    0  501    0  0.00000000000E+00 -0.00000000000E+00 -0.10154331913E+02  0.10154332246E+02  0.26000000000E-02 0.  1.
       1023    2    1    2    0    0  0.00000000000E+00  0.00000000000E+00 -0.30482035862E+00  0.20003844144E+02  0.20001521569E+02 0.  0.
        -11    1    3    3    0    0 -0.29509288768E+01  0.95554765611E+01 -0.14228674056E+00  0.10001767810E+02  0.51100000000E-03 0. -1.
         11    1    3    3    0    0  0.29509288768E+01 -0.95554765611E+01 -0.16253361807E+00  0.10002076334E+02  0.51100000000E-03 0.  1.
<mgrwt>
<rscale>  0 0.20001522E+02</rscale>
<asrwt>0</asrwt>
<pdfrwt beam="2">  1        2 0.15622050E-02 0.20001522E+02</pdfrwt>
<pdfrwt beam="1">  1       -2 0.15153095E-02 0.20001522E+02</pdfrwt>
<totfact> 0.39500639E+06</totfact>
</mgrwt>
</event>
<event>
 5    1  0.4046313E-006  0.2000386E+02  0.7818608E-02  0.1745251E+00
          2   -1    0    0  501    0  0.00000000000E+00  0.00000000000E+00  0.40210260828E+02  0.40210260912E+02  0.26000000000E-02 0. -1.
         -2   -1    0    0    0  501 -0.00000000000E+00 -0.00000000000E+00 -0.24878854566E+01  0.24878868152E+01  0.26000000000E-02 0.  1.
       1023    2    1    2    0    0  0.00000000000E+00  0.00000000000E+00  0.37722375372E+02  0.42698147728E+02  0.20003855020E+02 0.  0.
        -11    1    3    3    0    0 -0.97080161716E+01 -0.24068115828E+01  0.18893816515E+02  0.21377900335E+02  0.51100000000E-03 0. -1.
         11    1    3    3    0    0  0.97080161716E+01  0.24068115828E+01  0.18828558857E+02  0.21320247392E+02  0.51100000000E-03 0.  1.
<mgrwt>
<rscale>  0 0.20003855E+02</rscale>
<asrwt>0</asrwt>
<pdfrwt beam="1">  1        2 0.61861942E-02 0.20003855E+02</pdfrwt>
<pdfrwt beam="2">  1       -2 0.38275171E-03 0.20003855E+02</pdfrwt>
<totfact> 0.44907882E+06</totfact>
</mgrwt>
</event>
<event>
 5    1  0.4046313E-006  0.2000062E+02  0.7818608E-02  0.1745316E+00
          2   -1    0    0  501    0  0.00000000000E+00  0.00000000000E+00  0.79879238211E+01  0.79879242442E+01  0.26000000000E-02 0.  1.
         -2   -1    0    0    0  501 -0.00000000000E+00 -0.00000000000E+00 -0.12519675160E+02  0.12519675430E+02  0.26000000000E-02 0. -1.
       1023    2    1    2    0    0  0.00000000000E+00  0.00000000000E+00 -0.45317513391E+01  0.20507599674E+02  0.20000621846E+02 0.  0.
        -11    1    3    3    0    0 -0.48108363260E+01 -0.87671013260E+01 -0.22632666045E+01  0.10253223288E+02  0.51100000000E-03 0.  1.
         11    1    3    3    0    0  0.48108363260E+01  0.87671013260E+01 -0.22684847347E+01  0.10254376386E+02  0.51100000000E-03 0. -1.
<mgrwt>
<rscale>  0 0.20000622E+02</rscale>
<asrwt>0</asrwt>
<pdfrwt beam="1">  1        2 0.12289114E-02 0.20000622E+02</pdfrwt>
<pdfrwt beam="2">  1       -2 0.19261039E-02 0.20000622E+02</pdfrwt>
<totfact> 0.38815965E+06</totfact>
</mgrwt>
</event>
<event>
 5    1  0.4046313E-006  0.2000098E+02  0.7818608E-02  0.1745309E+00
         -2   -1    0    0    0  501 -0.00000000000E+00  0.00000000000E+00  0.44430207239E+02  0.44430207315E+02  0.26000000000E-02 0.  1.
          2   -1    0    0  501    0  0.00000000000E+00 -0.00000000000E+00 -0.22509417210E+01  0.22509432226E+01  0.26000000000E-02 0. -1.
       1023    2    1    2    0    0  0.00000000000E+00  0.00000000000E+00  0.42179265518E+02  0.46681150537E+02  0.20000984373E+02 0.  0.
        -11    1    3    3    0    0  0.60462704329E-01  0.10000144350E+02  0.21223726717E+02  0.23461737335E+02  0.51100000000E-03 0.  1.
         11    1    3    3    0    0 -0.60462704329E-01 -0.10000144350E+02  0.20955538801E+02  0.23219413202E+02  0.51100000000E-03 0. -1.
<mgrwt>
<rscale>  0 0.20000984E+02</rscale>
<asrwt>0</asrwt>
<pdfrwt beam="2">  1        2 0.34629886E-03 0.20000984E+02</pdfrwt>
<pdfrwt beam="1">  1       -2 0.68354163E-02 0.20000984E+02</pdfrwt>
<totfact> 0.34451931E+06</totfact>
</mgrwt>
</event>
<event>
 5    1  0.4046313E-006  0.2000205E+02  0.7818608E-02  0.1745287E+00
         -2   -1    0    0    0  501 -0.00000000000E+00  0.00000000000E+00  0.16542527160E+02  0.16542527364E+02  0.26000000000E-02 0.  1.
          2   -1    0    0  501    0  0.00000000000E+00 -0.00000000000E+00 -0.60462652160E+01  0.60462657750E+01  0.26000000000E-02 0. -1.
       1023    2    1    2    0    0  0.00000000000E+00  0.00000000000E+00  0.10496261944E+02  0.22588793139E+02  0.20002051412E+02 0.  0.
        -11    1    3    3    0    0  0.37360608375E+01 -0.92768873038E+01  0.52950527526E+01  0.11316199563E+02  0.51100000000E-03 0.  1.
         11    1    3    3    0    0 -0.37360608375E+01  0.92768873038E+01  0.52012091914E+01  0.11272593577E+02  0.51100000000E-03 0. -1.
<mgrwt>
<rscale>  0 0.20002051E+02</rscale>
<asrwt>0</asrwt>
<pdfrwt beam="2">  1        2 0.93019473E-03 0.20002051E+02</pdfrwt>
<pdfrwt beam="1">  1       -2 0.25450042E-02 0.20002051E+02</pdfrwt>
<totfact> 0.38001817E+06</totfact>
</mgrwt>
</event>
<event>
 5    1  0.4046313E-006  0.2000346E+02  0.7818608E-02  0.1745259E+00
         -2   -1    0    0    0  501 -0.00000000000E+00  0.00000000000E+00  0.78695215128E+02  0.78695215171E+02  0.26000000000E-02 0.  1.
          2   -1    0    0  501    0  0.00000000000E+00 -0.00000000000E+00 -0.12711639594E+01  0.12711666184E+01  0.26000000000E-02 0. -1.
       1023    2    1    2    0    0  0.00000000000E+00  0.00000000000E+00  0.77424051169E+02  0.79966381790E+02  0.20003462629E+02 0.  0.
        -11    1    3    3    0    0 -0.99510610743E+01  0.99535445560E+00  0.38142703642E+02  0.39431969116E+02  0.51100000000E-03 0. -1.
         11    1    3    3    0    0  0.99510610743E+01 -0.99535445560E+00  0.39281347527E+02  0.40534412673E+02  0.51100000000E-03 0.  1.
<mgrwt>
<rscale>  0 0.20003463E+02</rscale>
<asrwt>0</asrwt>
<pdfrwt beam="2">  1        2 0.19556396E-03 0.20003463E+02</pdfrwt>
<pdfrwt beam="1">  1       -2 0.12106952E-01 0.20003463E+02</pdfrwt>
<totfact> 0.31351042E+06</totfact>
</mgrwt>
</event>
<event>
 5    1  0.4046313E-006  0.2000370E+02  0.7818608E-02  0.1745255E+00
          2   -1    0    0  501    0  0.00000000000E+00  0.00000000000E+00  0.78157768401E+01  0.78157772725E+01  0.26000000000E-02 0. -1.
         -2   -1    0    0    0  501 -0.00000000000E+00 -0.00000000000E+00 -0.12799365409E+02  0.12799365673E+02  0.26000000000E-02 0.  1.
       1023    2    1    2    0    0  0.00000000000E+00  0.00000000000E+00 -0.49835885693E+01  0.20615142946E+02  0.20003698749E+02 0.  0.
        -11    1    3    3    0    0 -0.83485775097E+01  0.55070486759E+01 -0.25981929710E+01  0.10333292725E+02  0.51100000000E-03 0. -1.
         11    1    3    3    0    0  0.83485775097E+01 -0.55070486759E+01 -0.23853955983E+01  0.10281850221E+02  0.51100000000E-03 0.  1.
<mgrwt>
<rscale>  0 0.20003699E+02</rscale>
<asrwt>0</asrwt>
<pdfrwt beam="1">  1        2 0.12024273E-02 0.20003699E+02</pdfrwt>
<pdfrwt beam="2">  1       -2 0.19691332E-02 0.20003699E+02</pdfrwt>
<totfact> 0.38739890E+06</totfact>
</mgrwt>
</event>
<event>
 4    1  0.4046313E-006  0.2150305E+02  0.7818608E-02  0.1716991E+00
          2   -1    0    0  501    0  0.00000000000E+00  0.00000000000E+00  0.13782940237E+02  0.13782940482E+02  0.26000000000E-02 0.  1.
         -2   -1    0    0    0  501 -0.00000000000E+00 -0.00000000000E+00 -0.83868366658E+01  0.83868370688E+01  0.26000000000E-02 0. -1.
        -11    1    1    2    0    0  0.10697801273E+02 -0.43773482832E+00  0.37086018117E+01  0.11330855727E+02  0.51100000000E-03 0.  1.
         11    1    1    2    0    0 -0.10697801273E+02  0.43773482832E+00  0.16875017593E+01  0.10838921824E+02  0.51100000000E-03 0. -1.
<mgrwt>
<rscale>  0 0.21503049E+02</rscale>
<asrwt>0</asrwt>
<pdfrwt beam="1">  1        2 0.21204524E-02 0.21503049E+02</pdfrwt>
<pdfrwt beam="2">  1       -2 0.12902826E-02 0.21503049E+02</pdfrwt>
<totfact> 0.34246987E+06</totfact>
</mgrwt>
</event>
<event>
 4    1  0.4046313E-006  0.2004104E+02  0.7818608E-02  0.1744513E+00
         -2   -1    0    0    0  501 -0.00000000000E+00  0.00000000000E+00  0.28299242237E+02  0.28299242356E+02  0.26000000000E-02 0. -1.
          2   -1    0    0  501    0  0.00000000000E+00 -0.00000000000E+00 -0.35481783763E+01  0.35481793289E+01  0.26000000000E-02 0.  1.
        -11    1    1    2    0    0 -0.63370065424E+01  0.77473862643E+01  0.13139512993E+02  0.16517458878E+02  0.51100000000E-03 0. -1.
         11    1    1    2    0    0  0.63370065424E+01 -0.77473862643E+01  0.11611550868E+02  0.15329962807E+02  0.51100000000E-03 0.  1.
<mgrwt>
<rscale>  0 0.20041036E+02</rscale>
<asrwt>0</asrwt>
<pdfrwt beam="2">  1        2 0.54587367E-03 0.20041036E+02</pdfrwt>
<pdfrwt beam="1">  1       -2 0.43537297E-02 0.20041036E+02</pdfrwt>
<totfact> 0.36115087E+06</totfact>
</mgrwt>
</event>
<event>
 5    1  0.4046313E-006  0.2000287E+02  0.7818608E-02  0.1745271E+00
         -2   -1    0    0    0  501 -0.00000000000E+00  0.00000000000E+00  0.93190507523E+01  0.93190511150E+01  0.26000000000E-02 0. -1.
          2   -1    0    0  501    0  0.00000000000E+00 -0.00000000000E+00 -0.10733782448E+02  0.10733782763E+02  0.26000000000E-02 0.  1.
       1023    2    1    2    0    0  0.00000000000E+00  0.00000000000E+00 -0.14147316953E+01  0.20052833878E+02  0.20002866813E+02 0.  0.
        -11    1    3    3    0    0  0.68522317342E+01 -0.72843987641E+01 -0.82221569210E+00  0.10034519620E+02  0.51100000000E-03 0.  1.
         11    1    3    3    0    0 -0.68522317342E+01  0.72843987641E+01 -0.59251600324E+00  0.10018314258E+02  0.51100000000E-03 0. -1.
<mgrwt>
<rscale>  0 0.20002867E+02</rscale>
<asrwt>0</asrwt>
<pdfrwt beam="2">  1        2 0.16513512E-02 0.20002867E+02</pdfrwt>
<pdfrwt beam="1">  1       -2 0.14337002E-02 0.20002867E+02</pdfrwt>
<totfact> 0.39656063E+06</totfact>
</mgrwt>
</event>
<event>
 5    1  0.4046313E-006  0.2000073E+02  0.7818608E-02  0.1745314E+00
          2   -1    0    0  501    0  0.00000000000E+00  0.00000000000E+00  0.99424450546E+00  0.99424790502E+00  0.26000000000E-02 0.  1.
         -2   -1    0    0    0  501 -0.00000000000E+00 -0.00000000000E+00 -0.10058607532E+03  0.10058607535E+03  0.26000000000E-02 0. -1.
       1023    2    1    2    0    0  0.00000000000E+00  0.00000000000E+00 -0.99591830816E+02  0.10158032326E+03  0.20000732695E+02 0.  0.
        -11    1    3    3    0    0 -0.89871411291E+01  0.43860444196E+01 -0.49617396233E+02  0.50615137069E+02  0.51100000000E-03 0. -1.
         11    1    3    3    0    0  0.89871411291E+01 -0.43860444196E+01 -0.49974434583E+02  0.50965186191E+02  0.51100000000E-03 0.  1.
<mgrwt>
<rscale>  0 0.20000733E+02</rscale>
<asrwt>0</asrwt>
<pdfrwt beam="1">  1        2 0.15296104E-03 0.20000733E+02</pdfrwt>
<pdfrwt beam="2">  1       -2 0.15474773E-01 0.20000733E+02</pdfrwt>
<totfact> 0.29685850E+06</totfact>
</mgrwt>
</event>
<event>
 5    1  0.5028785E-006  0.2000039E+02  0.7818608E-02  0.1745320E+00
          2   -1    0    0  501    0  0.00000000000E+00  0.00000000000E+00  0.10270340092E+03  0.10270340096E+03  0.26000000000E-02 0.  1.
         -2   -1    0    0    0  501 -0.00000000000E+00 -0.00000000000E+00 -0.97371402188E+00  0.97371749312E+00  0.26000000000E-02 0. -1.
       1023    2    1    2    0    0  0.00000000000E+00  0.00000000000E+00  0.10172968690E+03  0.10367711845E+03  0.20000392319E+02 0.  0.
        -11    1    3    3    0    0 -0.99846586940E+01 -0.55434755378E+00  0.51158653862E+02  0.52126850813E+02  0.51100000000E-03 0.  1.
         11    1    3    3    0    0  0.99846586940E+01  0.55434755378E+00  0.50571033041E+02  0.51550267638E+02  0.51100000000E-03 0. -1.
<mgrwt>
<rscale>  0 0.20000392E+02</rscale>
<asrwt>0</asrwt>
<pdfrwt beam="1">  1        2 0.15800523E-01 0.20000392E+02</pdfrwt>
<pdfrwt beam="2">  1       -2 0.14980244E-03 0.20000392E+02</pdfrwt>
<totfact> 0.53078275E+06</totfact>
</mgrwt>
</event>
<event>
 5    1  0.4345409E-006  0.2000088E+02  0.7818608E-02  0.1745310E+00
         -2   -1    0    0    0  501 -0.00000000000E+00  0.00000000000E+00  0.96381220885E+00  0.96381571575E+00  0.26000000000E-02 0. -1.
          2   -1    0    0  501    0  0.00000000000E+00 -0.00000000000E+00 -0.10376363537E+03  0.10376363540E+03  0.26000000000E-02 0.  1.
       1023    2    1    2    0    0  0.00000000000E+00  0.00000000000E+00 -0.10279982316E+03  0.10472745112E+03  0.20000884375E+02 0.  0.
        -11    1    3    3    0    0 -0.51006606196E+01 -0.86017966653E+01 -0.51581225364E+02  0.52541702056E+02  0.51100000000E-03 0. -1.
         11    1    3    3    0    0  0.51006606196E+01  0.86017966653E+01 -0.51218597796E+02  0.52185749061E+02  0.51100000000E-03 0.  1.
<mgrwt>
<rscale>  0 0.20000884E+02</rscale>
<asrwt>0</asrwt>
<pdfrwt beam="2">  1        2 0.15963628E-01 0.20000884E+02</pdfrwt>
<pdfrwt beam="1">  1       -2 0.14827916E-03 0.20000884E+02</pdfrwt>
<totfact> 0.53201276E+06</totfact>
</mgrwt>
</event>
<event>
 5    1  0.4046313E-006  0.2000216E+02  0.7818608E-02  0.1745285E+00
         -2   -1    0    0    0  501 -0.00000000000E+00  0.00000000000E+00  0.11310582718E+02  0.11310583017E+02  0.26000000000E-02 0. -1.
          2   -1    0    0  501    0  0.00000000000E+00 -0.00000000000E+00 -0.88431897258E+01  0.88431901080E+01  0.26000000000E-02 0.  1.
       1023    2    1    2    0    0  0.00000000000E+00  0.00000000000E+00  0.24673929920E+01  0.20153773125E+02  0.20002163457E+02 0.  0.
        -11    1    3    3    0    0  0.39387740254E+01  0.91921906512E+01  0.13409253762E+01  0.10090014416E+02  0.51100000000E-03 0. -1.
         11    1    3    3    0    0 -0.39387740254E+01 -0.91921906512E+01  0.11264676158E+01  0.10063758708E+02  0.51100000000E-03 0.  1.
<mgrwt>
<rscale>  0 0.20002163E+02</rscale>
<asrwt>0</asrwt>
<pdfrwt beam="2">  1        2 0.13604908E-02 0.20002163E+02</pdfrwt>
<pdfrwt beam="1">  1       -2 0.17400897E-02 0.20002163E+02</pdfrwt>
<totfact> 0.39100097E+06</totfact>
</mgrwt>
</event>
<event>
 5    1  0.4368603E-006  0.2000142E+02  0.7818608E-02  0.1745300E+00
         -2   -1    0    0    0  501 -0.00000000000E+00  0.00000000000E+00  0.10218777221E+01  0.10218810297E+01  0.26000000000E-02 0. -1.
          2   -1    0    0  501    0  0.00000000000E+00 -0.00000000000E+00 -0.97872844288E+02  0.97872844322E+02  0.26000000000E-02 0.  1.
       1023    2    1    2    0    0  0.00000000000E+00  0.00000000000E+00 -0.96850966566E+02  0.98894725352E+02  0.20001424393E+02 0.  0.
        -11    1    3    3    0    0 -0.77346231269E+00 -0.99701156169E+01 -0.47866203528E+02  0.48899640998E+02  0.51100000000E-03 0. -1.
         11    1    3    3    0    0  0.77346231269E+00  0.99701156169E+01 -0.48984763038E+02  0.49995084354E+02  0.51100000000E-03 0.  1.
<mgrwt>
<rscale>  0 0.20001424E+02</rscale>
<asrwt>0</asrwt>
<pdfrwt beam="2">  1        2 0.15057354E-01 0.20001424E+02</pdfrwt>
<pdfrwt beam="1">  1       -2 0.15721229E-03 0.20001424E+02</pdfrwt>
<totfact> 0.52494271E+06</totfact>
</mgrwt>
</event>
<event>
 5    1  0.4046313E-006  0.2000042E+02  0.7818608E-02  0.1745320E+00
          2   -1    0    0  501    0  0.00000000000E+00  0.00000000000E+00  0.12908759557E+02  0.12908759819E+02  0.26000000000E-02 0.  1.
         -2   -1    0    0    0  501 -0.00000000000E+00 -0.00000000000E+00 -0.77470018150E+01  0.77470022512E+01  0.26000000000E-02 0. -1.
       1023    2    1    2    0    0  0.00000000000E+00  0.00000000000E+00  0.51617577421E+01  0.20655762070E+02  0.20000419088E+02 0.  0.
        -11    1    3    3    0    0  0.90818894371E+01 -0.41858362555E+01  0.25318930688E+01  0.10315639761E+02  0.51100000000E-03 0.  1.
         11    1    3    3    0    0 -0.90818894371E+01  0.41858362555E+01  0.26298646732E+01  0.10340122309E+02  0.51100000000E-03 0. -1.
<mgrwt>
<rscale>  0 0.20000419E+02</rscale>
<asrwt>0</asrwt>
<pdfrwt beam="1">  1        2 0.19859630E-02 0.20000419E+02</pdfrwt>
<pdfrwt beam="2">  1       -2 0.11918465E-02 0.20000419E+02</pdfrwt>
<totfact> 0.40217607E+06</totfact>
</mgrwt>
</event>
<event>
 5    1  0.4177316E-006  0.2000140E+02  0.7818608E-02  0.1745300E+00
          2   -1    0    0  501    0  0.00000000000E+00  0.00000000000E+00  0.60936924748E+02  0.60936924804E+02  0.26000000000E-02 0.  1.
         -2   -1    0    0    0  501 -0.00000000000E+00 -0.00000000000E+00 -0.16412690626E+01  0.16412711220E+01  0.26000000000E-02 0. -1.
       1023    2    1    2    0    0  0.00000000000E+00  0.00000000000E+00  0.59295655686E+02  0.62578195926E+02  0.20001395505E+02 0.  0.
        -11    1    3    3    0    0 -0.93240153589E+01 -0.36161643802E+01  0.29669511821E+02  0.31309644508E+02  0.51100000000E-03 0. -1.
         11    1    3    3    0    0  0.93240153589E+01  0.36161643802E+01  0.29626143865E+02  0.31268551418E+02  0.51100000000E-03 0.  1.
<mgrwt>
<rscale>  0 0.20001396E+02</rscale>
<asrwt>0</asrwt>
<pdfrwt beam="1">  1        2 0.93749099E-02 0.20001396E+02</pdfrwt>
<pdfrwt beam="2">  1       -2 0.25250314E-03 0.20001396E+02</pdfrwt>
<totfact> 0.47816123E+06</totfact>
</mgrwt>
</event>
<event>
 5    1  0.4046313E-006  0.2000075E+02  0.7818608E-02  0.1745313E+00
          2   -1    0    0  501    0  0.00000000000E+00  0.00000000000E+00  0.81612530990E+02  0.81612531031E+02  0.26000000000E-02 0.  1.
         -2   -1    0    0    0  501 -0.00000000000E+00 -0.00000000000E+00 -0.12253922368E+01  0.12253949951E+01  0.26000000000E-02 0. -1.
       1023    2    1    2    0    0  0.00000000000E+00  0.00000000000E+00  0.80387138753E+02  0.82837926026E+02  0.20000747772E+02 0.  0.
        -11    1    3    3    0    0 -0.98648700460E+01  0.16387290375E+01  0.39862651851E+02  0.41097835791E+02  0.51100000000E-03 0. -1.
         11    1    3    3    0    0  0.98648700460E+01 -0.16387290375E+01  0.40524486902E+02  0.41740090235E+02  0.51100000000E-03 0.  1.
<mgrwt>
<rscale>  0 0.20000748E+02</rscale>
<asrwt>0</asrwt>
<pdfrwt beam="1">  1        2 0.12555776E-01 0.20000748E+02</pdfrwt>
<pdfrwt beam="2">  1       -2 0.18852207E-03 0.20000748E+02</pdfrwt>
<totfact> 0.50498267E+06</totfact>
</mgrwt>
</event>
<event>
 5    1  0.4046313E-006  0.2000027E+02  0.7818608E-02  0.1745323E+00
         -2   -1    0    0    0  501 -0.00000000000E+00  0.00000000000E+00  0.15739717249E+02  0.15739717464E+02  0.26000000000E-02 0.  1.
          2   -1    0    0  501    0  0.00000000000E+00 -0.00000000000E+00 -0.63535277882E+01  0.63535283202E+01  0.26000000000E-02 0. -1.
       1023    2    1    2    0    0  0.00000000000E+00  0.00000000000E+00  0.93861894609E+01  0.22093245784E+02  0.20000273915E+02 0.  0.
        -11    1    3    3    0    0 -0.59144892081E+01  0.80634249011E+01  0.46353228495E+01  0.11022078838E+02  0.51100000000E-03 0. -1.
         11    1    3    3    0    0  0.59144892081E+01 -0.80634249011E+01  0.47508666114E+01  0.11071166946E+02  0.51100000000E-03 0.  1.
<mgrwt>
<rscale>  0 0.20000274E+02</rscale>
<asrwt>0</asrwt>
<pdfrwt beam="2">  1        2 0.97746587E-03 0.20000274E+02</pdfrwt>
<pdfrwt beam="1">  1       -2 0.24214950E-02 0.20000274E+02</pdfrwt>
<totfact> 0.38155832E+06</totfact>
</mgrwt>
</event>
<event>
 5    1  0.4046313E-006  0.2000031E+02  0.7818608E-02  0.1745322E+00
          2   -1    0    0  501    0  0.00000000000E+00  0.00000000000E+00  0.42404512921E+01  0.42404520892E+01  0.26000000000E-02 0. -1.
         -2   -1    0    0    0  501 -0.00000000000E+00 -0.00000000000E+00 -0.23583125220E+02  0.23583125363E+02  0.26000000000E-02 0.  1.
       1023    2    1    2    0    0  0.00000000000E+00  0.00000000000E+00 -0.19342673928E+02  0.27823577452E+02  0.20000310687E+02 0.  0.
        -11    1    3    3    0    0  0.95900765996E+01 -0.28343172094E+01 -0.96901768458E+01  0.13924886024E+02  0.51100000000E-03 0.  1.
         11    1    3    3    0    0 -0.95900765996E+01  0.28343172094E+01 -0.96524970820E+01  0.13898691428E+02  0.51100000000E-03 0. -1.
<mgrwt>
<rscale>  0 0.20000311E+02</rscale>
<asrwt>0</asrwt>
<pdfrwt beam="1">  1        2 0.65237721E-03 0.20000311E+02</pdfrwt>
<pdfrwt beam="2">  1       -2 0.36281731E-02 0.20000311E+02</pdfrwt>
<totfact> 0.36903234E+06</totfact>
</mgrwt>
</event>
<event>
 5    1  0.4046313E-006  0.2000040E+02  0.7818608E-02  0.1745320E+00
          2   -1    0    0  501    0  0.00000000000E+00  0.00000000000E+00  0.16806694964E+01  0.16806715075E+01  0.26000000000E-02 0. -1.
         -2   -1    0    0    0  501 -0.00000000000E+00 -0.00000000000E+00 -0.59502450635E+02  0.59502450691E+02  0.26000000000E-02 0.  1.
       1023    2    1    2    0    0  0.00000000000E+00  0.00000000000E+00 -0.57821781138E+02  0.61183122199E+02  0.20000401696E+02 0.  0.
        -11    1    3    3    0    0  0.70833213962E+01  0.70590510041E+01 -0.28851757378E+02  0.30535676628E+02  0.51100000000E-03 0. -1.
         11    1    3    3    0    0 -0.70833213962E+01 -0.70590510041E+01 -0.28970023760E+02  0.30647445570E+02  0.51100000000E-03 0.  1.
<mgrwt>
<rscale>  0 0.20000402E+02</rscale>
<asrwt>0</asrwt>
<pdfrwt beam="1">  1        2 0.25856474E-03 0.20000402E+02</pdfrwt>
<pdfrwt beam="2">  1       -2 0.91542217E-02 0.20000402E+02</pdfrwt>
<totfact> 0.33003690E+06</totfact>
</mgrwt>
</event>
<event>
 5    1  0.4046313E-006  0.2000283E+02  0.7818608E-02  0.1745272E+00
         -2   -1    0    0    0  501 -0.00000000000E+00  0.00000000000E+00  0.93724142102E+01  0.93724145708E+01  0.26000000000E-02 0. -1.
          2   -1    0    0  501    0  0.00000000000E+00 -0.00000000000E+00 -0.10672625757E+02  0.10672626074E+02  0.26000000000E-02 0.  1.
       1023    2    1    2    0    0  0.00000000000E+00  0.00000000000E+00 -0.13002115471E+01  0.20045040645E+02  0.20002827410E+02 0.  0.
        -11    1    3    3    0    0  0.85572847398E+01 -0.51756803765E+01 -0.76648162394E+00  0.10030068984E+02  0.51100000000E-03 0. -1.
         11    1    3    3    0    0 -0.85572847398E+01  0.51756803765E+01 -0.53372992315E+00  0.10014971661E+02  0.51100000000E-03 0.  1.
<mgrwt>
<rscale>  0 0.20002827E+02</rscale>
<asrwt>0</asrwt>
<pdfrwt beam="2">  1        2 0.16419425E-02 0.20002827E+02</pdfrwt>
<pdfrwt beam="1">  1       -2 0.14419099E-02 0.20002827E+02</pdfrwt>
<totfact> 0.39639545E+06</totfact>
</mgrwt>
</event>
<event>
 5    1  0.4046313E-006  0.2000355E+02  0.7818608E-02  0.1745257E+00
          2   -1    0    0  501    0  0.00000000000E+00  0.00000000000E+00  0.12189681491E+02  0.12189681768E+02  0.26000000000E-02 0.  1.
         -2   -1    0    0    0  501 -0.00000000000E+00 -0.00000000000E+00 -0.82065735020E+01  0.82065739139E+01  0.26000000000E-02 0. -1.
       1023    2    1    2    0    0  0.00000000000E+00  0.00000000000E+00  0.39831079886E+01  0.20396255682E+02  0.20003552099E+02 0.  0.
        -11    1    3    3    0    0  0.88697654355E+01  0.46218587125E+01  0.20269786217E+01  0.10205045783E+02  0.51100000000E-03 0. -1.
         11    1    3    3    0    0 -0.88697654355E+01 -0.46218587125E+01  0.19561293669E+01  0.10191209899E+02  0.51100000000E-03 0.  1.
<mgrwt>
<rscale>  0 0.20003552E+02</rscale>
<asrwt>0</asrwt>
<pdfrwt beam="1">  1        2 0.18753357E-02 0.20003552E+02</pdfrwt>
<pdfrwt beam="2">  1       -2 0.12625498E-02 0.20003552E+02</pdfrwt>
<totfact> 0.40029620E+06</totfact>
</mgrwt>
</event>
<event>
 5    1  0.4046313E-006  0.2000110E+02  0.7818608E-02  0.1745306E+00
          2   -1    0    0  501    0  0.00000000000E+00  0.00000000000E+00  0.10822617758E+01  0.10822648989E+01  0.26000000000E-02 0.  1.
         -2   -1    0    0    0  501 -0.00000000000E+00 -0.00000000000E+00 -0.92409132998E+02  0.92409133035E+02  0.26000000000E-02 0. -1.
       1023    2    1    2    0    0  0.00000000000E+00  0.00000000000E+00 -0.91326871222E+02  0.93491397933E+02  0.20001101978E+02 0.  0.
        -11    1    3    3    0    0 -0.20300217856E+01 -0.97922611141E+01 -0.45473354615E+02  0.46560018754E+02  0.51100000000E-03 0.  1.
         11    1    3    3    0    0  0.20300217856E+01  0.97922611141E+01 -0.45853516607E+02  0.46931379180E+02  0.51100000000E-03 0. -1.
<mgrwt>
<rscale>  0 0.20001102E+02</rscale>
<asrwt>0</asrwt>
<pdfrwt beam="1">  1        2 0.16650213E-03 0.20001102E+02</pdfrwt>
<pdfrwt beam="2">  1       -2 0.14216784E-01 0.20001102E+02</pdfrwt>
<totfact> 0.30288911E+06</totfact>
</mgrwt>
</event>
<event>
 4    1  0.4046313E-006  0.2001633E+02  0.7818608E-02  0.1745003E+00
         -2   -1    0    0    0  501 -0.00000000000E+00  0.00000000000E+00  0.98634243970E+01  0.98634247397E+01  0.26000000000E-02 0. -1.
          2   -1    0    0  501    0  0.00000000000E+00 -0.00000000000E+00 -0.10155032209E+02  0.10155032542E+02  0.26000000000E-02 0.  1.
        -11    1    1    2    0    0  0.93344897926E+01  0.36033085703E+01 -0.36231382936E+00  0.10012382529E+02  0.51100000000E-03 0.  1.
         11    1    1    2    0    0 -0.93344897926E+01 -0.36033085703E+01  0.70706017614E-01  0.10006074752E+02  0.51100000000E-03 0. -1.
<mgrwt>
<rscale>  0 0.20016333E+02</rscale>
<asrwt>0</asrwt>
<pdfrwt beam="2">  1        2 0.15623127E-02 0.20016333E+02</pdfrwt>
<pdfrwt beam="1">  1       -2 0.15174500E-02 0.20016333E+02</pdfrwt>
<totfact> 0.39434127E+06</totfact>
</mgrwt>
</event>
<event>
 5    1  0.4046313E-006  0.2000217E+02  0.7818608E-02  0.1745285E+00
         -2   -1    0    0    0  501 -0.00000000000E+00  0.00000000000E+00  0.71985274546E+02  0.71985274592E+02  0.26000000000E-02 0.  1.
          2   -1    0    0  501    0  0.00000000000E+00 -0.00000000000E+00 -0.13894738518E+01  0.13894762843E+01  0.26000000000E-02 0. -1.
       1023    2    1    2    0    0  0.00000000000E+00  0.00000000000E+00  0.70595800694E+02  0.73374750877E+02  0.20002174648E+02 0.  0.
        -11    1    3    3    0    0 -0.68129552079E+01  0.73206903589E+01  0.35714243125E+02  0.37087949906E+02  0.51100000000E-03 0.  1.
         11    1    3    3    0    0  0.68129552079E+01 -0.73206903589E+01  0.34881557569E+02  0.36286800971E+02  0.51100000000E-03 0. -1.
<mgrwt>
<rscale>  0 0.20002175E+02</rscale>
<asrwt>0</asrwt>
<pdfrwt beam="2">  1        2 0.21376534E-03 0.20002175E+02</pdfrwt>
<pdfrwt beam="1">  1       -2 0.11074661E-01 0.20002175E+02</pdfrwt>
<totfact> 0.31908014E+06</totfact>
</mgrwt>
</event>
<event>
 4    1  0.4046313E-006  0.2916938E+02  0.7818608E-02  0.1607456E+00
         -2   -1    0    0    0  501 -0.00000000000E+00  0.00000000000E+00  0.95692162257E+02  0.95692162292E+02  0.26000000000E-02 0. -1.
          2   -1    0    0  501    0  0.00000000000E+00 -0.00000000000E+00 -0.22228888963E+01  0.22228904168E+01  0.26000000000E-02 0.  1.
        -11    1    1    2    0    0 -0.73360822436E+00  0.14550267937E+02  0.44446500170E+02  0.46773281429E+02  0.51100000000E-03 0.  1.
         11    1    1    2    0    0  0.73360822436E+00 -0.14550267937E+02  0.49022773191E+02  0.51141771280E+02  0.51100000000E-03 0. -1.
<mgrwt>
<rscale>  0 0.29169376E+02</rscale>
<asrwt>0</asrwt>
<pdfrwt beam="2">  1        2 0.34198297E-03 0.29169376E+02</pdfrwt>
<pdfrwt beam="1">  1       -2 0.14721874E-01 0.29169376E+02</pdfrwt>
<totfact> 0.12863673E+06</totfact>
</mgrwt>
</event>
<event>
 5    1  0.4046313E-006  0.2000046E+02  0.7818608E-02  0.1745319E+00
         -2   -1    0    0    0  501 -0.00000000000E+00  0.00000000000E+00  0.73774282667E+01  0.73774287248E+01  0.26000000000E-02 0.  1.
          2   -1    0    0  501    0  0.00000000000E+00 -0.00000000000E+00 -0.13555475881E+02  0.13555476130E+02  0.26000000000E-02 0. -1.
       1023    2    1    2    0    0  0.00000000000E+00  0.00000000000E+00 -0.61780476140E+01  0.20932904855E+02  0.20000455828E+02 0.  0.
        -11    1    3    3    0    0  0.13653616441E+01 -0.99065806900E+01 -0.30867577256E+01  0.10465783626E+02  0.51100000000E-03 0. -1.
         11    1    3    3    0    0 -0.13653616441E+01  0.99065806900E+01 -0.30912898883E+01  0.10467121229E+02  0.51100000000E-03 0.  1.
<mgrwt>
<rscale>  0 0.20000456E+02</rscale>
<asrwt>0</asrwt>
<pdfrwt beam="2">  1        2 0.20854579E-02 0.20000456E+02</pdfrwt>
<pdfrwt beam="1">  1       -2 0.11349890E-02 0.20000456E+02</pdfrwt>
<totfact> 0.40367830E+06</totfact>
</mgrwt>
</event>
<event>
 5    1  0.4046313E-006  0.2000313E+02  0.7818608E-02  0.1745266E+00
         -2   -1    0    0    0  501 -0.00000000000E+00  0.00000000000E+00  0.19592579208E+02  0.19592579380E+02  0.26000000000E-02 0. -1.
          2   -1    0    0  501    0  0.00000000000E+00 -0.00000000000E+00 -0.51055719122E+01  0.51055725743E+01  0.26000000000E-02 0.  1.
       1023    2    1    2    0    0  0.00000000000E+00  0.00000000000E+00  0.14487007296E+02  0.24698151955E+02  0.20003132994E+02 0.  0.
        -11    1    3    3    0    0  0.47874674098E+01  0.87810220250E+01  0.73320261432E+01  0.12400999945E+02  0.51100000000E-03 0.  1.
         11    1    3    3    0    0 -0.47874674098E+01 -0.87810220250E+01  0.71549811525E+01  0.12297152010E+02  0.51100000000E-03 0. -1.
<mgrwt>
<rscale>  0 0.20003133E+02</rscale>
<asrwt>0</asrwt>
<pdfrwt beam="2">  1        2 0.78547268E-03 0.20003133E+02</pdfrwt>
<pdfrwt beam="1">  1       -2 0.30142430E-02 0.20003133E+02</pdfrwt>
<totfact> 0.37485213E+06</totfact>
</mgrwt>
</event>
<event>
 5    1  0.4046313E-006  0.2000154E+02  0.7818608E-02  0.1745297E+00
          2   -1    0    0  501    0  0.00000000000E+00  0.00000000000E+00  0.58737642243E+02  0.58737642301E+02  0.26000000000E-02 0.  1.
         -2   -1    0    0    0  501 -0.00000000000E+00 -0.00000000000E+00 -0.17027470163E+01  0.17027490013E+01  0.26000000000E-02 0. -1.
       1023    2    1    2    0    0  0.00000000000E+00  0.00000000000E+00  0.57034895227E+02  0.60440391302E+02  0.20001540620E+02 0.  0.
        -11    1    3    3    0    0  0.75425542719E+01 -0.65667612025E+01  0.28353910558E+02  0.30065873043E+02  0.51100000000E-03 0.  1.
         11    1    3    3    0    0 -0.75425542719E+01  0.65667612025E+01  0.28680984668E+02  0.30374518259E+02  0.51100000000E-03 0. -1.
<mgrwt>
<rscale>  0 0.20001541E+02</rscale>
<asrwt>0</asrwt>
<pdfrwt beam="1">  1        2 0.90365606E-02 0.20001541E+02</pdfrwt>
<pdfrwt beam="2">  1       -2 0.26196123E-03 0.20001541E+02</pdfrwt>
<totfact> 0.47519420E+06</totfact>
</mgrwt>
</event>
<event>
 5    1  0.4046313E-006  0.2000103E+02  0.7818608E-02  0.1745308E+00
         -2   -1    0    0    0  501 -0.00000000000E+00  0.00000000000E+00  0.46918671199E+02  0.46918671271E+02  0.26000000000E-02 0. -1.
          2   -1    0    0  501    0  0.00000000000E+00 -0.00000000000E+00 -0.21315664997E+01  0.21315680854E+01  0.26000000000E-02 0.  1.
       1023    2    1    2    0    0  0.00000000000E+00  0.00000000000E+00  0.44787104699E+02  0.49050239356E+02  0.20001030813E+02 0.  0.
        -11    1    3    3    0    0 -0.47108762641E+01 -0.88209550580E+01  0.22164745691E+02  0.24316199438E+02  0.51100000000E-03 0.  1.
         11    1    3    3    0    0  0.47108762641E+01  0.88209550580E+01  0.22622359008E+02  0.24734039918E+02  0.51100000000E-03 0. -1.
<mgrwt>
<rscale>  0 0.20001031E+02</rscale>
<asrwt>0</asrwt>
<pdfrwt beam="2">  1        2 0.32793347E-03 0.20001031E+02</pdfrwt>
<pdfrwt beam="1">  1       -2 0.72182564E-02 0.20001031E+02</pdfrwt>
<totfact> 0.34199475E+06</totfact>
</mgrwt>
</event>
<event>
 4    1  0.4046313E-006  0.2003172E+02  0.7818608E-02  0.1744698E+00
          2   -1    0    0  501    0  0.00000000000E+00  0.00000000000E+00  0.21192928615E+01  0.21192944564E+01  0.26000000000E-02 0.  1.
         -2   -1    0    0    0  501 -0.00000000000E+00 -0.00000000000E+00 -0.47335342732E+02  0.47335342803E+02  0.26000000000E-02 0. -1.
        -11    1    1    2    0    0 -0.95329649304E+01 -0.30703202158E+01 -0.22891759437E+02  0.24986735220E+02  0.51100000000E-03 0. -1.
         11    1    1    2    0    0  0.95329649304E+01  0.30703202158E+01 -0.22324290433E+02  0.24467902039E+02  0.51100000000E-03 0.  1.
<mgrwt>
<rscale>  0 0.20031724E+02</rscale>
<asrwt>0</asrwt>
<pdfrwt beam="1">  1        2 0.32604522E-03 0.20031724E+02</pdfrwt>
<pdfrwt beam="2">  1       -2 0.72823598E-02 0.20031724E+02</pdfrwt>
<totfact> 0.34043550E+06</totfact>
</mgrwt>
</event>
<event>
 5    1  0.4046313E-006  0.2000048E+02  0.7818608E-02  0.1745318E+00
          2   -1    0    0  501    0  0.00000000000E+00  0.00000000000E+00  0.11905230922E+03  0.11905230925E+03  0.26000000000E-02 0. -1.
         -2   -1    0    0    0  501 -0.00000000000E+00 -0.00000000000E+00 -0.84000548074E+00  0.84000950451E+00  0.26000000000E-02 0.  1.
       1023    2    1    2    0    0  0.00000000000E+00  0.00000000000E+00  0.11821230374E+03  0.11989231876E+03  0.20000483510E+02 0.  0.
        -11    1    3    3    0    0  0.57479117163E+01  0.81831758832E+01  0.59372771719E+02  0.60209043162E+02  0.51100000000E-03 0.  1.
         11    1    3    3    0    0 -0.57479117163E+01 -0.81831758832E+01  0.58839532024E+02  0.59683275595E+02  0.51100000000E-03 0. -1.
<mgrwt>
<rscale>  0 0.20000484E+02</rscale>
<asrwt>0</asrwt>
<pdfrwt beam="1">  1        2 0.18315724E-01 0.20000484E+02</pdfrwt>
<pdfrwt beam="2">  1       -2 0.12923204E-03 0.20000484E+02</pdfrwt>
<totfact> 0.54981260E+06</totfact>
</mgrwt>
</event>
<event>
 5    1  0.4089468E-006  0.2000110E+02  0.7818608E-02  0.1745306E+00
          2   -1    0    0  501    0  0.00000000000E+00  0.00000000000E+00  0.35987087824E+02  0.35987087918E+02  0.26000000000E-02 0.  1.
         -2   -1    0    0    0  501 -0.00000000000E+00 -0.00000000000E+00 -0.27790789908E+01  0.27790802070E+01  0.26000000000E-02 0. -1.
       1023    2    1    2    0    0  0.00000000000E+00  0.00000000000E+00  0.33208008834E+02  0.38766168125E+02  0.20001098480E+02 0.  0.
        -11    1    3    3    0    0 -0.82358191628E+01 -0.56722783289E+01  0.16772149685E+02  0.19527121243E+02  0.51100000000E-03 0. -1.
         11    1    3    3    0    0  0.82358191628E+01  0.56722783289E+01  0.16435859149E+02  0.19239046882E+02  0.51100000000E-03 0.  1.
<mgrwt>
<rscale>  0 0.20001098E+02</rscale>
<asrwt>0</asrwt>
<pdfrwt beam="1">  1        2 0.55364749E-02 0.20001098E+02</pdfrwt>
<pdfrwt beam="2">  1       -2 0.42755074E-03 0.20001098E+02</pdfrwt>
<totfact> 0.44293194E+06</totfact>
</mgrwt>
</event>
<event>
 5    1  0.4046313E-006  0.2000139E+02  0.7818608E-02  0.1745300E+00
         -2   -1    0    0    0  501 -0.00000000000E+00  0.00000000000E+00  0.61667144367E+02  0.61667144422E+02  0.26000000000E-02 0.  1.
          2   -1    0    0  501    0  0.00000000000E+00 -0.00000000000E+00 -0.16218333836E+01  0.16218354677E+01  0.26000000000E-02 0. -1.
       1023    2    1    2    0    0  0.00000000000E+00  0.00000000000E+00  0.60045310983E+02  0.63288979890E+02  0.20001390061E+02 0.  0.
        -11    1    3    3    0    0 -0.83459911897E+01 -0.55095113983E+01  0.30212931804E+02  0.31825014270E+02  0.51100000000E-03 0. -1.
         11    1    3    3    0    0  0.83459911897E+01  0.55095113983E+01  0.29832379179E+02  0.31463965620E+02  0.51100000000E-03 0.  1.
<mgrwt>
<rscale>  0 0.20001390E+02</rscale>
<asrwt>0</asrwt>
<pdfrwt beam="2">  1        2 0.24951304E-03 0.20001390E+02</pdfrwt>
<pdfrwt beam="1">  1       -2 0.94872513E-02 0.20001390E+02</pdfrwt>
<totfact> 0.32804798E+06</totfact>
</mgrwt>
</event>
<event>
 5    1  0.4046313E-006  0.2000101E+02  0.7818608E-02  0.1745308E+00
          2   -1    0    0  501    0  0.00000000000E+00  0.00000000000E+00  0.97180557843E+00  0.97180905649E+00  0.26000000000E-02 0.  1.
         -2   -1    0    0    0  501 -0.00000000000E+00 -0.00000000000E+00 -0.10291144193E+03  0.10291144196E+03  0.26000000000E-02 0. -1.
       1023    2    1    2    0    0  0.00000000000E+00  0.00000000000E+00 -0.10193963635E+03  0.10388325102E+03  0.20001009546E+02 0.  0.
        -11    1    3    3    0    0 -0.59157632190E+01  0.80626436970E+01 -0.51423136046E+02  0.52386461981E+02  0.51100000000E-03 0.  1.
         11    1    3    3    0    0  0.59157632190E+01 -0.80626436970E+01 -0.50516500307E+02  0.51496789040E+02  0.51100000000E-03 0. -1.
<mgrwt>
<rscale>  0 0.20001010E+02</rscale>
<asrwt>0</asrwt>
<pdfrwt beam="1">  1        2 0.14950890E-03 0.20001010E+02</pdfrwt>
<pdfrwt beam="2">  1       -2 0.15832521E-01 0.20001010E+02</pdfrwt>
<totfact> 0.29517401E+06</totfact>
</mgrwt>
</event>
<event>
 4    1  0.4046313E-006  0.2001289E+02  0.7818608E-02  0.1745072E+00
         -2   -1    0    0    0  501 -0.00000000000E+00  0.00000000000E+00  0.51029719861E+02  0.51029719928E+02  0.26000000000E-02 0. -1.
          2   -1    0    0  501    0  0.00000000000E+00 -0.00000000000E+00 -0.19621690805E+01  0.19621708031E+01  0.26000000000E-02 0.  1.
        -11    1    1    2    0    0  0.94872100000E+01  0.31622467727E+01  0.23608804244E+02  0.25639473402E+02  0.51100000000E-03 0.  1.
         11    1    1    2    0    0 -0.94872100000E+01 -0.31622467727E+01  0.25458746537E+02  0.27352417329E+02  0.51100000000E-03 0. -1.
<mgrwt>
<rscale>  0 0.20012894E+02</rscale>
<asrwt>0</asrwt>
<pdfrwt beam="2">  1        2 0.30187233E-03 0.20012894E+02</pdfrwt>
<pdfrwt beam="1">  1       -2 0.78507256E-02 0.20012894E+02</pdfrwt>
<totfact> 0.33751079E+06</totfact>
</mgrwt>
</event>
<event>
 5    1  0.4046313E-006  0.2000280E+02  0.7818608E-02  0.1745272E+00
          2   -1    0    0  501    0  0.00000000000E+00  0.00000000000E+00  0.35051377119E+02  0.35051377216E+02  0.26000000000E-02 0. -1.
         -2   -1    0    0    0  501 -0.00000000000E+00 -0.00000000000E+00 -0.28537525000E+01  0.28537536844E+01  0.26000000000E-02 0.  1.
       1023    2    1    2    0    0  0.00000000000E+00  0.00000000000E+00  0.32197624619E+02  0.37905130900E+02  0.20002797740E+02 0.  0.
        -11    1    3    3    0    0 -0.40988793480E+01  0.91228899795E+01  0.16111609897E+02  0.18963436061E+02  0.51100000000E-03 0.  1.
         11    1    3    3    0    0  0.40988793480E+01 -0.91228899795E+01  0.16086014722E+02  0.18941694839E+02  0.51100000000E-03 0. -1.
<mgrwt>
<rscale>  0 0.20002798E+02</rscale>
<asrwt>0</asrwt>
<pdfrwt beam="1">  1        2 0.53925198E-02 0.20002798E+02</pdfrwt>
<pdfrwt beam="2">  1       -2 0.43903893E-03 0.20002798E+02</pdfrwt>
<totfact> 0.44143084E+06</totfact>
</mgrwt>
</event>
<event>
 5    1  0.4046313E-006  0.2000112E+02  0.7818608E-02  0.1745306E+00
         -2   -1    0    0    0  501 -0.00000000000E+00  0.00000000000E+00  0.19975916435E+01  0.19975933355E+01  0.26000000000E-02 0.  1.
          2   -1    0    0  501    0  0.00000000000E+00 -0.00000000000E+00 -0.50065851688E+02  0.50065851756E+02  0.26000000000E-02 0. -1.
       1023    2    1    2    0    0  0.00000000000E+00  0.00000000000E+00 -0.48068260045E+02  0.52063445091E+02  0.20001117245E+02 0.  0.
        -11    1    3    3    0    0 -0.98546793423E+01 -0.17007963028E+01 -0.24193733925E+02  0.26179078947E+02  0.51100000000E-03 0.  1.
         11    1    3    3    0    0  0.98546793423E+01  0.17007963028E+01 -0.23874526120E+02  0.25884366144E+02  0.51100000000E-03 0. -1.
<mgrwt>
<rscale>  0 0.20001117E+02</rscale>
<asrwt>0</asrwt>
<pdfrwt beam="2">  1        2 0.77024379E-02 0.20001117E+02</pdfrwt>
<pdfrwt beam="1">  1       -2 0.30732197E-03 0.20001117E+02</pdfrwt>
<totfact> 0.46331547E+06</totfact>
</mgrwt>
</event>
<event>
 5    1  0.4046313E-006  0.2000081E+02  0.7818608E-02  0.1745312E+00
          2   -1    0    0  501    0  0.00000000000E+00  0.00000000000E+00  0.25990022936E+01  0.25990035941E+01  0.26000000000E-02 0. -1.
         -2   -1    0    0    0  501 -0.00000000000E+00 -0.00000000000E+00 -0.38479398598E+02  0.38479398686E+02  0.26000000000E-02 0.  1.
       1023    2    1    2    0    0  0.00000000000E+00  0.00000000000E+00 -0.35880396304E+02  0.41078402280E+02  0.20000807356E+02 0.  0.
        -11    1    3    3    0    0 -0.88341066611E+01 -0.46868526168E+01 -0.17954054421E+02  0.20551304055E+02  0.51100000000E-03 0.  1.
         11    1    3    3    0    0  0.88341066611E+01  0.46868526168E+01 -0.17926341883E+02  0.20527098225E+02  0.51100000000E-03 0. -1.
<mgrwt>
<rscale>  0 0.20000807E+02</rscale>
<asrwt>0</asrwt>
<pdfrwt beam="1">  1        2 0.39984664E-03 0.20000807E+02</pdfrwt>
<pdfrwt beam="2">  1       -2 0.59199072E-02 0.20000807E+02</pdfrwt>
<totfact> 0.35081931E+06</totfact>
</mgrwt>
</event>
<event>
 5    1  0.4046313E-006  0.2000036E+02  0.7818608E-02  0.1745321E+00
          2   -1    0    0  501    0  0.00000000000E+00  0.00000000000E+00  0.43601243257E+02  0.43601243334E+02  0.26000000000E-02 0. -1.
         -2   -1    0    0    0  501 -0.00000000000E+00 -0.00000000000E+00 -0.22935950252E+01  0.22935964988E+01  0.26000000000E-02 0.  1.
       1023    2    1    2    0    0  0.00000000000E+00  0.00000000000E+00  0.41307648232E+02  0.45894839833E+02  0.20000363019E+02 0.  0.
        -11    1    3    3    0    0 -0.86779184712E+01 -0.49696439212E+01  0.20654999323E+02  0.22948477662E+02  0.51100000000E-03 0.  1.
         11    1    3    3    0    0  0.86779184712E+01  0.49696439212E+01  0.20652648908E+02  0.22946362171E+02  0.51100000000E-03 0. -1.
<mgrwt>
<rscale>  0 0.20000363E+02</rscale>
<asrwt>0</asrwt>
<pdfrwt beam="1">  1        2 0.67078843E-02 0.20000363E+02</pdfrwt>
<pdfrwt beam="2">  1       -2 0.35286086E-03 0.20000363E+02</pdfrwt>
<totfact> 0.45418636E+06</totfact>
</mgrwt>
</event>
<event>
 5    1  0.4046313E-006  0.2000023E+02  0.7818608E-02  0.1745323E+00
         -2   -1    0    0    0  501 -0.00000000000E+00  0.00000000000E+00  0.51627574246E+02  0.51627574311E+02  0.26000000000E-02 0. -1.
          2   -1    0    0  501    0  0.00000000000E+00 -0.00000000000E+00 -0.19369939021E+01  0.19369956471E+01  0.26000000000E-02 0.  1.
       1023    2    1    2    0    0  0.00000000000E+00  0.00000000000E+00  0.49690580344E+02  0.53564569958E+02  0.20000234497E+02 0.  0.
        -11    1    3    3    0    0 -0.88112284113E+01 -0.47291055118E+01  0.24811448870E+02  0.26750891207E+02  0.51100000000E-03 0. -1.
         11    1    3    3    0    0  0.88112284113E+01  0.47291055118E+01  0.24879131473E+02  0.26813678752E+02  0.51100000000E-03 0.  1.
<mgrwt>
<rscale>  0 0.20000234E+02</rscale>
<asrwt>0</asrwt>
<pdfrwt beam="2">  1        2 0.29799920E-03 0.20000234E+02</pdfrwt>
<pdfrwt beam="1">  1       -2 0.79427038E-02 0.20000234E+02</pdfrwt>
<totfact> 0.33740086E+06</totfact>
</mgrwt>
</event>
<event>
 5    1  0.4152381E-006  0.2000150E+02  0.7818608E-02  0.1745298E+00
         -2   -1    0    0    0  501 -0.00000000000E+00  0.00000000000E+00  0.18990198285E+01  0.18990216084E+01  0.26000000000E-02 0.  1.
          2   -1    0    0  501    0  0.00000000000E+00 -0.00000000000E+00 -0.52666640273E+02  0.52666640337E+02  0.26000000000E-02 0. -1.
       1023    2    1    2    0    0  0.00000000000E+00  0.00000000000E+00 -0.50767620444E+02  0.54565661945E+02  0.20001504392E+02 0.  0.
        -11    1    3    3    0    0  0.92385111524E+01 -0.38292139071E+01 -0.25508133054E+02  0.27398500317E+02  0.51100000000E-03 0.  1.
         11    1    3    3    0    0 -0.92385111524E+01  0.38292139071E+01 -0.25259487391E+02  0.27167161629E+02  0.51100000000E-03 0. -1.
<mgrwt>
<rscale>  0 0.20001504E+02</rscale>
<asrwt>0</asrwt>
<pdfrwt beam="2">  1        2 0.81025591E-02 0.20001504E+02</pdfrwt>
<pdfrwt beam="1">  1       -2 0.29215708E-03 0.20001504E+02</pdfrwt>
<totfact> 0.46690797E+06</totfact>
</mgrwt>
</event>
<event>
 5    1  0.4046313E-006  0.2000745E+02  0.7818608E-02  0.1745180E+00
          2   -1    0    0  501    0  0.00000000000E+00  0.00000000000E+00  0.90024547220E+00  0.90024922672E+00  0.26000000000E-02 0.  1.
         -2   -1    0    0    0  501 -0.00000000000E+00 -0.00000000000E+00 -0.11116337059E+03  0.11116337062E+03  0.26000000000E-02 0. -1.
       1023    2    1    2    0    0  0.00000000000E+00  0.00000000000E+00 -0.11026312511E+03  0.11206361984E+03  0.20007451924E+02 0.  0.
        -11    1    3    3    0    0  0.59592693900E+01  0.80337307851E+01 -0.54323550235E+02  0.55236779707E+02  0.51100000000E-03 0.  1.
         11    1    3    3    0    0 -0.59592693900E+01 -0.80337307851E+01 -0.55939574878E+02  0.56826840135E+02  0.51100000000E-03 0. -1.
<mgrwt>
<rscale>  0 0.20007452E+02</rscale>
<asrwt>0</asrwt>
<pdfrwt beam="1">  1        2 0.13849968E-03 0.20007452E+02</pdfrwt>
<pdfrwt beam="2">  1       -2 0.17102046E-01 0.20007452E+02</pdfrwt>
<totfact> 0.28916296E+06</totfact>
</mgrwt>
</event>
<event>
 5    1  0.4046313E-006  0.2000050E+02  0.7818608E-02  0.1745318E+00
          2   -1    0    0  501    0  0.00000000000E+00  0.00000000000E+00  0.65921837659E+01  0.65921842786E+01  0.26000000000E-02 0.  1.
         -2   -1    0    0    0  501 -0.00000000000E+00 -0.00000000000E+00 -0.15170236119E+02  0.15170236342E+02  0.26000000000E-02 0. -1.
       1023    2    1    2    0    0  0.00000000000E+00  0.00000000000E+00 -0.85780523534E+01  0.21762420621E+02  0.20000499221E+02 0.  0.
        -11    1    3    3    0    0  0.86387482380E+01 -0.50373250014E+01 -0.42359686496E+01  0.10860296725E+02  0.51100000000E-03 0.  1.
         11    1    3    3    0    0 -0.86387482380E+01  0.50373250014E+01 -0.43420837037E+01  0.10902123896E+02  0.51100000000E-03 0. -1.
<mgrwt>
<rscale>  0 0.20000499E+02</rscale>
<asrwt>0</asrwt>
<pdfrwt beam="1">  1        2 0.10141822E-02 0.20000499E+02</pdfrwt>
<pdfrwt beam="2">  1       -2 0.23338825E-02 0.20000499E+02</pdfrwt>
<totfact> 0.38262693E+06</totfact>
</mgrwt>
</event>
<event>
 5    1  0.4046313E-006  0.2000016E+02  0.7818608E-02  0.1745325E+00
          2   -1    0    0  501    0  0.00000000000E+00  0.00000000000E+00  0.28873447439E+02  0.28873447556E+02  0.26000000000E-02 0.  1.
         -2   -1    0    0    0  501 -0.00000000000E+00 -0.00000000000E+00 -0.34634456412E+01  0.34634466171E+01  0.26000000000E-02 0. -1.
       1023    2    1    2    0    0  0.00000000000E+00  0.00000000000E+00  0.25410001798E+02  0.32336894173E+02  0.20000163334E+02 0.  0.
        -11    1    3    3    0    0 -0.58735289265E-01 -0.99998730225E+01  0.12748468945E+02  0.16202603834E+02  0.51100000000E-03 0. -1.
         11    1    3    3    0    0  0.58735289265E-01  0.99998730225E+01  0.12661532853E+02  0.16134290339E+02  0.51100000000E-03 0.  1.
<mgrwt>
<rscale>  0 0.20000163E+02</rscale>
<asrwt>0</asrwt>
<pdfrwt beam="1">  1        2 0.44420689E-02 0.20000163E+02</pdfrwt>
<pdfrwt beam="2">  1       -2 0.53283788E-03 0.20000163E+02</pdfrwt>
<totfact> 0.43192639E+06</totfact>
</mgrwt>
</event>
<event>
 5    1  0.4046313E-006  0.2000511E+02  0.7818608E-02  0.1745226E+00
         -2   -1    0    0    0  501 -0.00000000000E+00  0.00000000000E+00  0.96933179663E+01  0.96933183150E+01  0.26000000000E-02 0.  1.
          2   -1    0    0  501    0  0.00000000000E+00 -0.00000000000E+00 -0.10321656666E+02  0.10321656993E+02  0.26000000000E-02 0. -1.
       1023    2    1    2    0    0  0.00000000000E+00  0.00000000000E+00 -0.62833869936E+00  0.20014975308E+02  0.20005110024E+02 0.  0.
        -11    1    3    3    0    0 -0.93462999149E+01  0.35612008810E+01 -0.18907693848E+00  0.10003560574E+02  0.51100000000E-03 0.  1.
         11    1    3    3    0    0  0.93462999149E+01 -0.35612008810E+01 -0.43926176088E+00  0.10011414734E+02  0.51100000000E-03 0. -1.
<mgrwt>
<rscale>  0 0.20005110E+02</rscale>
<asrwt>0</asrwt>
<pdfrwt beam="2">  1        2 0.15879472E-02 0.20005110E+02</pdfrwt>
<pdfrwt beam="1">  1       -2 0.14912797E-02 0.20005110E+02</pdfrwt>
<totfact> 0.39531866E+06</totfact>
</mgrwt>
</event>
<event>
 4    1  0.4046313E-006  0.2003334E+02  0.7818608E-02  0.1744666E+00
          2   -1    0    0  501    0  0.00000000000E+00  0.00000000000E+00  0.44105548662E+02  0.44105548739E+02  0.26000000000E-02 0.  1.
         -2   -1    0    0    0  501 -0.00000000000E+00 -0.00000000000E+00 -0.22748538572E+01  0.22748553430E+01  0.26000000000E-02 0. -1.
        -11    1    1    2    0    0  0.86434298560E+01 -0.50437202624E+01  0.21913070638E+02  0.24090053110E+02  0.51100000000E-03 0.  1.
         11    1    1    2    0    0 -0.86434298560E+01  0.50437202624E+01  0.19917624167E+02  0.22290350973E+02  0.51100000000E-03 0. -1.
<mgrwt>
<rscale>  0 0.20033344E+02</rscale>
<asrwt>0</asrwt>
<pdfrwt beam="1">  1        2 0.67854688E-02 0.20033344E+02</pdfrwt>
<pdfrwt beam="2">  1       -2 0.34997765E-03 0.20033344E+02</pdfrwt>
<totfact> 0.45324293E+06</totfact>
</mgrwt>
</event>
<event>
 5    1  0.4046313E-006  0.2000866E+02  0.7818608E-02  0.1745156E+00
         -2   -1    0    0    0  501 -0.00000000000E+00  0.00000000000E+00  0.43367350268E+01  0.43367358062E+01  0.26000000000E-02 0.  1.
          2   -1    0    0  501    0  0.00000000000E+00 -0.00000000000E+00 -0.23078783609E+02  0.23078783756E+02  0.26000000000E-02 0. -1.
       1023    2    1    2    0    0  0.00000000000E+00  0.00000000000E+00 -0.18742048583E+02  0.27415519562E+02  0.20008656321E+02 0.  0.
        -11    1    3    3    0    0 -0.29547003056E+01 -0.95542546157E+01 -0.97400757020E+01  0.13960054087E+02  0.51100000000E-03 0. -1.
         11    1    3    3    0    0  0.29547003056E+01  0.95542546157E+01 -0.90019728806E+01  0.13455465475E+02  0.51100000000E-03 0.  1.
<mgrwt>
<rscale>  0 0.20008656E+02</rscale>
<asrwt>0</asrwt>
<pdfrwt beam="2">  1        2 0.35505821E-02 0.20008656E+02</pdfrwt>
<pdfrwt beam="1">  1       -2 0.66719009E-03 0.20008656E+02</pdfrwt>
<totfact> 0.42186916E+06</totfact>
</mgrwt>
</event>
<event>
 5    1  0.4046313E-006  0.2001038E+02  0.7818608E-02  0.1745122E+00
         -2   -1    0    0    0  501 -0.00000000000E+00  0.00000000000E+00  0.66836564867E+02  0.66836564917E+02  0.26000000000E-02 0.  1.
          2   -1    0    0  501    0  0.00000000000E+00 -0.00000000000E+00 -0.14977394469E+01  0.14977417036E+01  0.26000000000E-02 0. -1.
       1023    2    1    2    0    0  0.00000000000E+00  0.00000000000E+00  0.65338825420E+02  0.68334306621E+02  0.20010381159E+02 0.  0.
        -11    1    3    3    0    0  0.68079517005E+01 -0.73296357175E+01  0.32057840797E+02  0.33582390072E+02  0.51100000000E-03 0. -1.
         11    1    3    3    0    0 -0.68079517005E+01  0.73296357175E+01  0.33280984622E+02  0.34751916549E+02  0.51100000000E-03 0.  1.
<mgrwt>
<rscale>  0 0.20010381E+02</rscale>
<asrwt>0</asrwt>
<pdfrwt beam="2">  1        2 0.23042161E-03 0.20010381E+02</pdfrwt>
<pdfrwt beam="1">  1       -2 0.10282549E-01 0.20010381E+02</pdfrwt>
<totfact> 0.32317861E+06</totfact>
</mgrwt>
</event>
<event>
 5    1  0.4046313E-006  0.2000138E+02  0.7818608E-02  0.1745301E+00
          2   -1    0    0  501    0  0.00000000000E+00  0.00000000000E+00  0.32814571316E+02  0.32814571419E+02  0.26000000000E-02 0.  1.
         -2   -1    0    0    0  501 -0.00000000000E+00 -0.00000000000E+00 -0.30478453319E+01  0.30478464408E+01  0.26000000000E-02 0. -1.
       1023    2    1    2    0    0  0.00000000000E+00  0.00000000000E+00  0.29766725984E+02  0.35862417860E+02  0.20001375926E+02 0.  0.
        -11    1    3    3    0    0 -0.83059892425E+01  0.55699454109E+01  0.14877609674E+02  0.17926433529E+02  0.51100000000E-03 0.  1.
         11    1    3    3    0    0  0.83059892425E+01 -0.55699454109E+01  0.14889116310E+02  0.17935984331E+02  0.51100000000E-03 0. -1.
<mgrwt>
<rscale>  0 0.20001376E+02</rscale>
<asrwt>0</asrwt>
<pdfrwt beam="1">  1        2 0.50483953E-02 0.20001376E+02</pdfrwt>
<pdfrwt beam="2">  1       -2 0.46889941E-03 0.20001376E+02</pdfrwt>
<totfact> 0.43807257E+06</totfact>
</mgrwt>
</event>
<event>
 5    1  0.4046313E-006  0.2000144E+02  0.7818608E-02  0.1745300E+00
          2   -1    0    0  501    0  0.00000000000E+00  0.00000000000E+00  0.84402853713E+01  0.84402857717E+01  0.26000000000E-02 0. -1.
         -2   -1    0    0    0  501 -0.00000000000E+00 -0.00000000000E+00 -0.11849640369E+02  0.11849640654E+02  0.26000000000E-02 0.  1.
       1023    2    1    2    0    0  0.00000000000E+00  0.00000000000E+00 -0.34093549974E+01  0.20289926426E+02  0.20001435270E+02 0.  0.
        -11    1    3    3    0    0  0.97899913522E+01 -0.20414430535E+01 -0.16497435251E+01  0.10135732553E+02  0.51100000000E-03 0.  1.
         11    1    3    3    0    0 -0.97899913522E+01  0.20414430535E+01 -0.17596114723E+01  0.10154193873E+02  0.51100000000E-03 0. -1.
<mgrwt>
<rscale>  0 0.20001435E+02</rscale>
<asrwt>0</asrwt>
<pdfrwt beam="1">  1        2 0.12985055E-02 0.20001435E+02</pdfrwt>
<pdfrwt beam="2">  1       -2 0.18230217E-02 0.20001435E+02</pdfrwt>
<totfact> 0.38969907E+06</totfact>
</mgrwt>
</event>
<event>
 5    1  0.4046313E-006  0.2000013E+02  0.7818608E-02  0.1745325E+00
          2   -1    0    0  501    0  0.00000000000E+00  0.00000000000E+00  0.23056762946E+02  0.23056763093E+02  0.26000000000E-02 0. -1.
         -2   -1    0    0    0  501 -0.00000000000E+00 -0.00000000000E+00 -0.43371780430E+01  0.43371788223E+01  0.26000000000E-02 0.  1.
       1023    2    1    2    0    0  0.00000000000E+00  0.00000000000E+00  0.18719584903E+02  0.27393941915E+02  0.20000129867E+02 0.  0.
        -11    1    3    3    0    0 -0.13240482353E+01 -0.99120226707E+01  0.93613310287E+01  0.13698022341E+02  0.51100000000E-03 0.  1.
         11    1    3    3    0    0  0.13240482353E+01  0.99120226707E+01  0.93582538748E+01  0.13695919575E+02  0.51100000000E-03 0. -1.
<mgrwt>
<rscale>  0 0.20000130E+02</rscale>
<asrwt>0</asrwt>
<pdfrwt beam="1">  1        2 0.35471944E-02 0.20000130E+02</pdfrwt>
<pdfrwt beam="2">  1       -2 0.66725823E-03 0.20000130E+02</pdfrwt>
<totfact> 0.42223557E+06</totfact>
</mgrwt>
</event>
<event>
 5    1  0.4046313E-006  0.2000083E+02  0.7818608E-02  0.1745312E+00
         -2   -1    0    0    0  501 -0.00000000000E+00  0.00000000000E+00  0.13401269202E+02  0.13401269454E+02  0.26000000000E-02 0.  1.
          2   -1    0    0  501    0  0.00000000000E+00 -0.00000000000E+00 -0.74625962840E+01  0.74625967370E+01  0.26000000000E-02 0. -1.
       1023    2    1    2    0    0  0.00000000000E+00  0.00000000000E+00  0.59386729182E+01  0.20863866191E+02  0.20000826893E+02 0.  0.
        -11    1    3    3    0    0  0.83514303928E+01  0.55007903172E+01  0.29104642865E+01  0.10415175771E+02  0.51100000000E-03 0. -1.
         11    1    3    3    0    0 -0.83514303928E+01 -0.55007903172E+01  0.30282086317E+01  0.10448690420E+02  0.51100000000E-03 0.  1.
<mgrwt>
<rscale>  0 0.20000827E+02</rscale>
<asrwt>0</asrwt>
<pdfrwt beam="2">  1        2 0.11480918E-02 0.20000827E+02</pdfrwt>
<pdfrwt beam="1">  1       -2 0.20617337E-02 0.20000827E+02</pdfrwt>
<totfact> 0.38620013E+06</totfact>
</mgrwt>
</event>
<event>
 5    1  0.4046313E-006  0.2000025E+02  0.7818608E-02  0.1745323E+00
          2   -1    0    0  501    0  0.00000000000E+00  0.00000000000E+00  0.66257763937E+02  0.66257763988E+02  0.26000000000E-02 0.  1.
         -2   -1    0    0    0  501 -0.00000000000E+00 -0.00000000000E+00 -0.15092936617E+01  0.15092959012E+01  0.26000000000E-02 0. -1.
       1023    2    1    2    0    0  0.00000000000E+00  0.00000000000E+00  0.64748470275E+02  0.67767059889E+02  0.20000250074E+02 0.  0.
        -11    1    3    3    0    0  0.57784467786E+00  0.99833614678E+01  0.32486091972E+02  0.33990404272E+02  0.51100000000E-03 0.  1.
         11    1    3    3    0    0 -0.57784467786E+00 -0.99833614678E+01  0.32262378303E+02  0.33776655618E+02  0.51100000000E-03 0. -1.
<mgrwt>
<rscale>  0 0.20000250E+02</rscale>
<asrwt>0</asrwt>
<pdfrwt beam="1">  1        2 0.10193500E-01 0.20000250E+02</pdfrwt>
<pdfrwt beam="2">  1       -2 0.23219925E-03 0.20000250E+02</pdfrwt>
<totfact> 0.48528907E+06</totfact>
</mgrwt>
</event>
<event>
 5    1  0.4046313E-006  0.2000040E+02  0.7818608E-02  0.1745320E+00
         -2   -1    0    0    0  501 -0.00000000000E+00  0.00000000000E+00  0.15294749064E+01  0.15294771163E+01  0.26000000000E-02 0. -1.
          2   -1    0    0  501    0  0.00000000000E+00 -0.00000000000E+00 -0.65384513546E+02  0.65384513598E+02  0.26000000000E-02 0.  1.
       1023    2    1    2    0    0  0.00000000000E+00  0.00000000000E+00 -0.63855038639E+02  0.66913990714E+02  0.20000404836E+02 0.  0.
        -11    1    3    3    0    0  0.51772744788E+01  0.85556787662E+01 -0.31875909752E+02  0.33407745105E+02  0.51100000000E-03 0. -1.
         11    1    3    3    0    0 -0.51772744788E+01 -0.85556787662E+01 -0.31979128887E+02  0.33506245609E+02  0.51100000000E-03 0.  1.
<mgrwt>
<rscale>  0 0.20000405E+02</rscale>
<asrwt>0</asrwt>
<pdfrwt beam="2">  1        2 0.10059154E-01 0.20000405E+02</pdfrwt>
<pdfrwt beam="1">  1       -2 0.23530406E-03 0.20000405E+02</pdfrwt>
<totfact> 0.48412969E+06</totfact>
</mgrwt>
</event>
<event>
 5    1  0.4046313E-006  0.2000025E+02  0.7818608E-02  0.1745323E+00
          2   -1    0    0  501    0  0.00000000000E+00  0.00000000000E+00  0.30607141301E+01  0.30607152344E+01  0.26000000000E-02 0. -1.
         -2   -1    0    0    0  501 -0.00000000000E+00 -0.00000000000E+00 -0.32672930471E+02  0.32672930574E+02  0.26000000000E-02 0.  1.
       1023    2    1    2    0    0  0.00000000000E+00  0.00000000000E+00 -0.29612216340E+02  0.35733645808E+02  0.20000252153E+02 0.  0.
        -11    1    3    3    0    0 -0.99903826933E+01  0.44098191555E+00 -0.14837559104E+02  0.17892886068E+02  0.51100000000E-03 0.  1.
         11    1    3    3    0    0  0.99903826933E+01 -0.44098191555E+00 -0.14774657237E+02  0.17840759741E+02  0.51100000000E-03 0. -1.
<mgrwt>
<rscale>  0 0.20000252E+02</rscale>
<asrwt>0</asrwt>
<pdfrwt beam="1">  1        2 0.47087921E-03 0.20000252E+02</pdfrwt>
<pdfrwt beam="2">  1       -2 0.50266045E-02 0.20000252E+02</pdfrwt>
<totfact> 0.35741621E+06</totfact>
</mgrwt>
</event>
<event>
 4    1  0.5468107E-006  0.2057571E+02  0.7818608E-02  0.1734116E+00
          2   -1    0    0  501    0  0.00000000000E+00  0.00000000000E+00  0.54187203669E+02  0.54187203732E+02  0.26000000000E-02 0.  1.
         -2   -1    0    0    0  501 -0.00000000000E+00 -0.00000000000E+00 -0.19532274445E+01  0.19532291750E+01  0.26000000000E-02 0. -1.
        -11    1    1    2    0    0  0.86973583145E+01 -0.51370909717E+01  0.20793836250E+02  0.23117468970E+02  0.51100000000E-03 0.  1.
         11    1    1    2    0    0 -0.86973583145E+01  0.51370909717E+01  0.31440139975E+02  0.33022963937E+02  0.51100000000E-03 0. -1.
<mgrwt>
<rscale>  0 0.20575712E+02</rscale>
<asrwt>0</asrwt>
<pdfrwt beam="1">  1        2 0.83364924E-02 0.20575712E+02</pdfrwt>
<pdfrwt beam="2">  1       -2 0.30049669E-03 0.20575712E+02</pdfrwt>
<totfact> 0.44029169E+06</totfact>
</mgrwt>
</event>
<event>
 5    1  0.4046313E-006  0.2000185E+02  0.7818608E-02  0.1745291E+00
          2   -1    0    0  501    0  0.00000000000E+00  0.00000000000E+00  0.11718184535E+01  0.11718213379E+01  0.26000000000E-02 0. -1.
         -2   -1    0    0    0  501 -0.00000000000E+00 -0.00000000000E+00 -0.85353123918E+02  0.85353123958E+02  0.26000000000E-02 0.  1.
       1023    2    1    2    0    0  0.00000000000E+00  0.00000000000E+00 -0.84181305465E+02  0.86524945296E+02  0.20001849132E+02 0.  0.
        -11    1    3    3    0    0 -0.99930386342E+01  0.39112796781E+00 -0.42386892111E+02  0.43550688001E+02  0.51100000000E-03 0.  1.
         11    1    3    3    0    0  0.99930386342E+01 -0.39112796781E+00 -0.41794413353E+02  0.42974257295E+02  0.51100000000E-03 0. -1.
<mgrwt>
<rscale>  0 0.20001849E+02</rscale>
<asrwt>0</asrwt>
<pdfrwt beam="1">  1        2 0.18028005E-03 0.20001849E+02</pdfrwt>
<pdfrwt beam="2">  1       -2 0.13131245E-01 0.20001849E+02</pdfrwt>
<totfact> 0.30827981E+06</totfact>
</mgrwt>
</event>
<event>
 5    1  0.4046313E-006  0.2000120E+02  0.7818608E-02  0.1745304E+00
         -2   -1    0    0    0  501 -0.00000000000E+00  0.00000000000E+00  0.66796106340E+01  0.66796111400E+01  0.26000000000E-02 0. -1.
          2   -1    0    0  501    0  0.00000000000E+00 -0.00000000000E+00 -0.14972722859E+02  0.14972723085E+02  0.26000000000E-02 0.  1.
       1023    2    1    2    0    0  0.00000000000E+00  0.00000000000E+00 -0.82931122249E+01  0.21652334225E+02  0.20001196639E+02 0.  0.
        -11    1    3    3    0    0 -0.73568636797E+01  0.67740460492E+01 -0.41776200914E+01  0.10838065001E+02  0.51100000000E-03 0.  1.
         11    1    3    3    0    0  0.73568636797E+01 -0.67740460492E+01 -0.41154921335E+01  0.10814269224E+02  0.51100000000E-03 0. -1.
<mgrwt>
<rscale>  0 0.20001197E+02</rscale>
<asrwt>0</asrwt>
<pdfrwt beam="2">  1        2 0.23034959E-02 0.20001197E+02</pdfrwt>
<pdfrwt beam="1">  1       -2 0.10276325E-02 0.20001197E+02</pdfrwt>
<totfact> 0.40678212E+06</totfact>
</mgrwt>
</event>
<event>
 5    1  0.4046313E-006  0.2000029E+02  0.7818608E-02  0.1745322E+00
         -2   -1    0    0    0  501 -0.00000000000E+00  0.00000000000E+00  0.64083627782E+01  0.64083633057E+01  0.26000000000E-02 0. -1.
          2   -1    0    0  501    0  0.00000000000E+00 -0.00000000000E+00 -0.15605053830E+02  0.15605054046E+02  0.26000000000E-02 0.  1.
       1023    2    1    2    0    0  0.00000000000E+00  0.00000000000E+00 -0.91966910516E+01  0.22013417352E+02  0.20000285428E+02 0.  0.
        -11    1    3    3    0    0 -0.57781550334E+01  0.81617801239E+01 -0.45614503683E+01  0.10991294742E+02  0.51100000000E-03 0. -1.
         11    1    3    3    0    0  0.57781550334E+01 -0.81617801239E+01 -0.46352406833E+01  0.11022122610E+02  0.51100000000E-03 0.  1.
<mgrwt>
<rscale>  0 0.20000285E+02</rscale>
<asrwt>0</asrwt>
<pdfrwt beam="2">  1        2 0.24007776E-02 0.20000285E+02</pdfrwt>
<pdfrwt beam="1">  1       -2 0.98590203E-03 0.20000285E+02</pdfrwt>
<totfact> 0.40816542E+06</totfact>
</mgrwt>
</event>
<event>
 5    1  0.4046313E-006  0.2000026E+02  0.7818608E-02  0.1745323E+00
         -2   -1    0    0    0  501 -0.00000000000E+00  0.00000000000E+00  0.51857833041E+02  0.51857833106E+02  0.26000000000E-02 0.  1.
          2   -1    0    0  501    0  0.00000000000E+00 -0.00000000000E+00 -0.19283973144E+01  0.19283990671E+01  0.26000000000E-02 0. -1.
       1023    2    1    2    0    0  0.00000000000E+00  0.00000000000E+00  0.49929435726E+02  0.53786232173E+02  0.20000255484E+02 0.  0.
        -11    1    3    3    0    0 -0.24347149624E+01 -0.96991728706E+01  0.25039015589E+02  0.26962086219E+02  0.51100000000E-03 0. -1.
         11    1    3    3    0    0  0.24347149624E+01  0.96991728706E+01  0.24890420137E+02  0.26824145954E+02  0.51100000000E-03 0.  1.
<mgrwt>
<rscale>  0 0.20000255E+02</rscale>
<asrwt>0</asrwt>
<pdfrwt beam="2">  1        2 0.29667664E-03 0.20000255E+02</pdfrwt>
<pdfrwt beam="1">  1       -2 0.79781284E-02 0.20000255E+02</pdfrwt>
<totfact> 0.33717865E+06</totfact>
</mgrwt>
</event>
<event>
 5    1  0.4046313E-006  0.2000995E+02  0.7818608E-02  0.1745130E+00
          2   -1    0    0  501    0  0.00000000000E+00  0.00000000000E+00  0.58969236888E+01  0.58969242619E+01  0.26000000000E-02 0. -1.
         -2   -1    0    0    0  501 -0.00000000000E+00 -0.00000000000E+00 -0.16974877348E+02  0.16974877547E+02  0.26000000000E-02 0.  1.
       1023    2    1    2    0    0  0.00000000000E+00  0.00000000000E+00 -0.11077953659E+02  0.22871801809E+02  0.20009954041E+02 0.  0.
        -11    1    3    3    0    0 -0.18945085416E+01  0.98239126526E+01 -0.55776118752E+01  0.11454613783E+02  0.51100000000E-03 0. -1.
         11    1    3    3    0    0  0.18945085416E+01 -0.98239126526E+01 -0.55003417836E+01  0.11417188026E+02  0.51100000000E-03 0.  1.
<mgrwt>
<rscale>  0 0.20009954E+02</rscale>
<asrwt>0</asrwt>
<pdfrwt beam="1">  1        2 0.90721910E-03 0.20009954E+02</pdfrwt>
<pdfrwt beam="2">  1       -2 0.26115196E-02 0.20009954E+02</pdfrwt>
<totfact> 0.37892722E+06</totfact>
</mgrwt>
</event>
<event>
 4    1  0.4046313E-006  0.2002846E+02  0.7818608E-02  0.1744763E+00
         -2   -1    0    0    0  501 -0.00000000000E+00  0.00000000000E+00  0.39238165843E+01  0.39238174457E+01  0.26000000000E-02 0.  1.
          2   -1    0    0  501    0  0.00000000000E+00 -0.00000000000E+00 -0.25557973095E+02  0.25557973227E+02  0.26000000000E-02 0. -1.
        -11    1    1    2    0    0 -0.23827657055E+01 -0.97169164151E+01 -0.10177520562E+02  0.14271578822E+02  0.51100000000E-03 0. -1.
         11    1    1    2    0    0  0.23827657055E+01  0.97169164151E+01 -0.11456635948E+02  0.15210211851E+02  0.51100000000E-03 0.  1.
<mgrwt>
<rscale>  0 0.20028461E+02</rscale>
<asrwt>0</asrwt>
<pdfrwt beam="2">  1        2 0.39319958E-02 0.20028461E+02</pdfrwt>
<pdfrwt beam="1">  1       -2 0.60366418E-03 0.20028461E+02</pdfrwt>
<totfact> 0.42514341E+06</totfact>
</mgrwt>
</event>
<event>
 5    1  0.4046313E-006  0.2000162E+02  0.7818608E-02  0.1745296E+00
         -2   -1    0    0    0  501 -0.00000000000E+00  0.00000000000E+00  0.35666599779E+02  0.35666599874E+02  0.26000000000E-02 0.  1.
          2   -1    0    0  501    0  0.00000000000E+00 -0.00000000000E+00 -0.28041959406E+01  0.28041971459E+01  0.26000000000E-02 0. -1.
       1023    2    1    2    0    0  0.00000000000E+00  0.00000000000E+00  0.32862403839E+02  0.38470797020E+02  0.20001615867E+02 0.  0.
        -11    1    3    3    0    0  0.80850350916E+01 -0.58856043730E+01  0.16603533246E+02  0.19382606837E+02  0.51100000000E-03 0.  1.
         11    1    3    3    0    0 -0.80850350916E+01  0.58856043730E+01  0.16258870592E+02  0.19088190183E+02  0.51100000000E-03 0. -1.
<mgrwt>
<rscale>  0 0.20001616E+02</rscale>
<asrwt>0</asrwt>
<pdfrwt beam="2">  1        2 0.43141487E-03 0.20001616E+02</pdfrwt>
<pdfrwt beam="1">  1       -2 0.54871692E-02 0.20001616E+02</pdfrwt>
<totfact> 0.35391027E+06</totfact>
</mgrwt>
</event>
<event>
 4    1  0.4046313E-006  0.2001547E+02  0.7818608E-02  0.1745021E+00
         -2   -1    0    0    0  501 -0.00000000000E+00  0.00000000000E+00  0.11104792113E+03  0.11104792117E+03  0.26000000000E-02 0. -1.
          2   -1    0    0  501    0  0.00000000000E+00 -0.00000000000E+00 -0.90190366763E+00  0.90190741525E+00  0.26000000000E-02 0.  1.
        -11    1    1    2    0    0  0.92605493451E+01  0.37885044128E+01  0.53897130134E+02  0.54817982240E+02  0.51100000000E-03 0. -1.
         11    1    1    2    0    0 -0.92605493451E+01 -0.37885044128E+01  0.56248887333E+02  0.57131846341E+02  0.51100000000E-03 0.  1.
<mgrwt>
<rscale>  0 0.20015468E+02</rscale>
<asrwt>0</asrwt>
<pdfrwt beam="2">  1        2 0.13875470E-03 0.20015468E+02</pdfrwt>
<pdfrwt beam="1">  1       -2 0.17084296E-01 0.20015468E+02</pdfrwt>
<totfact> 0.28899014E+06</totfact>
</mgrwt>
</event>
<event>
 5    1  0.4046313E-006  0.2000027E+02  0.7818608E-02  0.1745323E+00
         -2   -1    0    0    0  501 -0.00000000000E+00  0.00000000000E+00  0.44949056519E+02  0.44949056594E+02  0.26000000000E-02 0.  1.
          2   -1    0    0  501    0  0.00000000000E+00 -0.00000000000E+00 -0.22248009586E+01  0.22248024779E+01  0.26000000000E-02 0. -1.
       1023    2    1    2    0    0  0.00000000000E+00  0.00000000000E+00  0.42724255561E+02  0.47173859072E+02  0.20000274162E+02 0.  0.
        -11    1    3    3    0    0 -0.83642144963E+01 -0.54811104103E+01  0.21340265956E+02  0.23567129795E+02  0.51100000000E-03 0. -1.
         11    1    3    3    0    0  0.83642144963E+01  0.54811104103E+01  0.21383989605E+02  0.23606729277E+02  0.51100000000E-03 0.  1.
<mgrwt>
<rscale>  0 0.20000274E+02</rscale>
<asrwt>0</asrwt>
<pdfrwt beam="2">  1        2 0.34227718E-03 0.20000274E+02</pdfrwt>
<pdfrwt beam="1">  1       -2 0.69152398E-02 0.20000274E+02</pdfrwt>
<totfact> 0.34401507E+06</totfact>
</mgrwt>
</event>
<event>
 5    1  0.4046313E-006  0.2000062E+02  0.7818608E-02  0.1745316E+00
         -2   -1    0    0    0  501 -0.00000000000E+00  0.00000000000E+00  0.34361316476E+01  0.34361326313E+01  0.26000000000E-02 0.  1.
          2   -1    0    0  501    0  0.00000000000E+00 -0.00000000000E+00 -0.29104303728E+02  0.29104303845E+02  0.26000000000E-02 0. -1.
       1023    2    1    2    0    0  0.00000000000E+00  0.00000000000E+00 -0.25668172081E+02  0.32540436476E+02  0.20000623692E+02 0.  0.
        -11    1    3    3    0    0  0.41385146736E+00 -0.99916651640E+01 -0.12769191119E+02  0.16219028574E+02  0.51100000000E-03 0. -1.
         11    1    3    3    0    0 -0.41385146736E+00  0.99916651640E+01 -0.12898980962E+02  0.16321407902E+02  0.51100000000E-03 0.  1.
<mgrwt>
<rscale>  0 0.20000624E+02</rscale>
<asrwt>0</asrwt>
<pdfrwt beam="2">  1        2 0.44775851E-02 0.20000624E+02</pdfrwt>
<pdfrwt beam="1">  1       -2 0.52863574E-03 0.20000624E+02</pdfrwt>
<totfact> 0.43227424E+06</totfact>
</mgrwt>
</event>
<event>
 4    1  0.4046313E-006  0.2006433E+02  0.7818608E-02  0.1744052E+00
         -2   -1    0    0    0  501 -0.00000000000E+00  0.00000000000E+00  0.14385304369E+01  0.14385327865E+01  0.26000000000E-02 0. -1.
          2   -1    0    0  501    0  0.00000000000E+00 -0.00000000000E+00 -0.69963270163E+02  0.69963270212E+02  0.26000000000E-02 0.  1.
        -11    1    1    2    0    0 -0.85703400642E+01 -0.52144685875E+01 -0.34456225398E+02  0.35886945822E+02  0.51100000000E-03 0.  1.
         11    1    1    2    0    0  0.85703400642E+01  0.52144685875E+01 -0.34068514328E+02  0.35514857176E+02  0.51100000000E-03 0. -1.
<mgrwt>
<rscale>  0 0.20064334E+02</rscale>
<asrwt>0</asrwt>
<pdfrwt beam="2">  1        2 0.10763578E-01 0.20064334E+02</pdfrwt>
<pdfrwt beam="1">  1       -2 0.22131261E-03 0.20064334E+02</pdfrwt>
<totfact> 0.48667132E+06</totfact>
</mgrwt>
</event>
<event>
 5    1  0.4046313E-006  0.2000859E+02  0.7818608E-02  0.1745157E+00
          2   -1    0    0  501    0  0.00000000000E+00  0.00000000000E+00  0.53467391317E+02  0.53467391380E+02  0.26000000000E-02 0.  1.
         -2   -1    0    0    0  501 -0.00000000000E+00 -0.00000000000E+00 -0.18719041176E+01  0.18719059233E+01  0.26000000000E-02 0. -1.
       1023    2    1    2    0    0  0.00000000000E+00  0.00000000000E+00  0.51595487199E+02  0.55339297303E+02  0.20008586324E+02 0.  0.
        -11    1    3    3    0    0  0.47555560322E+01  0.88013396791E+01  0.25566538976E+02  0.27454085466E+02  0.51100000000E-03 0. -1.
         11    1    3    3    0    0 -0.47555560322E+01 -0.88013396791E+01  0.26028948223E+02  0.27885211837E+02  0.51100000000E-03 0.  1.
<mgrwt>
<rscale>  0 0.20008586E+02</rscale>
<asrwt>0</asrwt>
<pdfrwt beam="1">  1        2 0.82257538E-02 0.20008586E+02</pdfrwt>
<pdfrwt beam="2">  1       -2 0.28798535E-03 0.20008586E+02</pdfrwt>
<totfact> 0.46764378E+06</totfact>
</mgrwt>
</event>
<event>
 5    1  0.4046313E-006  0.2000080E+02  0.7818608E-02  0.1745312E+00
          2   -1    0    0  501    0  0.00000000000E+00  0.00000000000E+00  0.33598829225E+01  0.33598839285E+01  0.26000000000E-02 0.  1.
         -2   -1    0    0    0  501 -0.00000000000E+00 -0.00000000000E+00 -0.29765322925E+02  0.29765323039E+02  0.26000000000E-02 0. -1.
       1023    2    1    2    0    0  0.00000000000E+00  0.00000000000E+00 -0.26405440003E+02  0.33125206967E+02  0.20000801856E+02 0.  0.
        -11    1    3    3    0    0  0.69746259907E+01 -0.71666185666E+01 -0.13125230780E+02  0.16500833697E+02  0.51100000000E-03 0.  1.
         11    1    3    3    0    0 -0.69746259907E+01  0.71666185666E+01 -0.13280209223E+02  0.16624373271E+02  0.51100000000E-03 0. -1.
<mgrwt>
<rscale>  0 0.20000802E+02</rscale>
<asrwt>0</asrwt>
<pdfrwt beam="1">  1        2 0.51690517E-03 0.20000802E+02</pdfrwt>
<pdfrwt beam="2">  1       -2 0.45792804E-02 0.20000802E+02</pdfrwt>
<totfact> 0.36090116E+06</totfact>
</mgrwt>
</event>
<event>
 5    1  0.4046313E-006  0.2000074E+02  0.7818608E-02  0.1745313E+00
          2   -1    0    0  501    0  0.00000000000E+00  0.00000000000E+00  0.64148940627E+01  0.64148945896E+01  0.26000000000E-02 0. -1.
         -2   -1    0    0    0  501 -0.00000000000E+00 -0.00000000000E+00 -0.15589877381E+02  0.15589877597E+02  0.26000000000E-02 0.  1.
       1023    2    1    2    0    0  0.00000000000E+00  0.00000000000E+00 -0.91749833179E+01  0.22004772187E+02  0.20000741989E+02 0.  0.
        -11    1    3    3    0    0  0.68757833605E+01  0.72615895663E+01 -0.46077758548E+01  0.11010843675E+02  0.51100000000E-03 0.  1.
         11    1    3    3    0    0 -0.68757833605E+01 -0.72615895663E+01 -0.45672074631E+01  0.10993928512E+02  0.51100000000E-03 0. -1.
<mgrwt>
<rscale>  0 0.20000742E+02</rscale>
<asrwt>0</asrwt>
<pdfrwt beam="1">  1        2 0.98690684E-03 0.20000742E+02</pdfrwt>
<pdfrwt beam="2">  1       -2 0.23984427E-02 0.20000742E+02</pdfrwt>
<totfact> 0.38181945E+06</totfact>
</mgrwt>
</event>
<event>
 5    1  0.4046313E-006  0.2000735E+02  0.7818608E-02  0.1745182E+00
          2   -1    0    0  501    0  0.00000000000E+00  0.00000000000E+00  0.28534057290E+02  0.28534057408E+02  0.26000000000E-02 0.  1.
         -2   -1    0    0    0  501 -0.00000000000E+00 -0.00000000000E+00 -0.35071600571E+01  0.35071610208E+01  0.26000000000E-02 0. -1.
       1023    2    1    2    0    0  0.00000000000E+00  0.00000000000E+00  0.25026897233E+02  0.32041218429E+02  0.20007350982E+02 0.  0.
        -11    1    3    3    0    0  0.95063913184E+01  0.31079330565E+01  0.12182136209E+02  0.15761826248E+02  0.51100000000E-03 0.  1.
         11    1    3    3    0    0 -0.95063913184E+01 -0.31079330565E+01  0.12844761024E+02  0.16279392181E+02  0.51100000000E-03 0. -1.
<mgrwt>
<rscale>  0 0.20007351E+02</rscale>
<asrwt>0</asrwt>
<pdfrwt beam="1">  1        2 0.43898551E-02 0.20007351E+02</pdfrwt>
<pdfrwt beam="2">  1       -2 0.53956316E-03 0.20007351E+02</pdfrwt>
<totfact> 0.43103300E+06</totfact>
</mgrwt>
</event>
<event>
 5    1  0.4046313E-006  0.2000138E+02  0.7818608E-02  0.1745301E+00
          2   -1    0    0  501    0  0.00000000000E+00  0.00000000000E+00  0.94159621354E+01  0.94159624944E+01  0.26000000000E-02 0.  1.
         -2   -1    0    0    0  501 -0.00000000000E+00 -0.00000000000E+00 -0.10621731141E+02  0.10621731459E+02  0.26000000000E-02 0. -1.
       1023    2    1    2    0    0  0.00000000000E+00  0.00000000000E+00 -0.12057690053E+01  0.20037693953E+02  0.20001382454E+02 0.  0.
        -11    1    3    3    0    0 -0.75978969420E+01  0.65020509935E+01 -0.69855495695E+00  0.10024603950E+02  0.51100000000E-03 0.  1.
         11    1    3    3    0    0  0.75978969420E+01 -0.65020509935E+01 -0.50721404837E+00  0.10013090003E+02  0.51100000000E-03 0. -1.
<mgrwt>
<rscale>  0 0.20001382E+02</rscale>
<asrwt>0</asrwt>
<pdfrwt beam="1">  1        2 0.14486096E-02 0.20001382E+02</pdfrwt>
<pdfrwt beam="2">  1       -2 0.16341125E-02 0.20001382E+02</pdfrwt>
<totfact> 0.39283525E+06</totfact>
</mgrwt>
</event>
<event>
 5    1  0.4046313E-006  0.2000082E+02  0.7818608E-02  0.1745312E+00
          2   -1    0    0  501    0  0.00000000000E+00  0.00000000000E+00  0.13697843340E+02  0.13697843586E+02  0.26000000000E-02 0. -1.
         -2   -1    0    0    0  501 -0.00000000000E+00 -0.00000000000E+00 -0.73010172099E+01  0.73010176728E+01  0.26000000000E-02 0.  1.
       1023    2    1    2    0    0  0.00000000000E+00  0.00000000000E+00  0.63968261298E+01  0.20998861259E+02  0.20000819724E+02 0.  0.
        -11    1    3    3    0    0 -0.17964891658E+01 -0.98373425153E+01  0.31073917275E+01  0.10471703047E+02  0.51100000000E-03 0.  1.
         11    1    3    3    0    0  0.17964891658E+01  0.98373425153E+01  0.32894344024E+01  0.10527158213E+02  0.51100000000E-03 0. -1.
<mgrwt>
<rscale>  0 0.20000820E+02</rscale>
<asrwt>0</asrwt>
<pdfrwt beam="1">  1        2 0.21073606E-02 0.20000820E+02</pdfrwt>
<pdfrwt beam="2">  1       -2 0.11232335E-02 0.20000820E+02</pdfrwt>
<totfact> 0.40398607E+06</totfact>
</mgrwt>
</event>
<event>
 5    1  0.4046313E-006  0.2000225E+02  0.7818608E-02  0.1745283E+00
         -2   -1    0    0    0  501 -0.00000000000E+00  0.00000000000E+00  0.86657304250E+01  0.86657308150E+01  0.26000000000E-02 0. -1.
          2   -1    0    0  501    0  0.00000000000E+00 -0.00000000000E+00 -0.11542302367E+02  0.11542302660E+02  0.26000000000E-02 0.  1.
       1023    2    1    2    0    0  0.00000000000E+00  0.00000000000E+00 -0.28765719422E+01  0.20208033475E+02  0.20002248643E+02 0.  0.
        -11    1    3    3    0    0  0.57856361865E+01 -0.81566461119E+01 -0.15739265384E+01  0.10123324893E+02  0.51100000000E-03 0.  1.
         11    1    3    3    0    0 -0.57856361865E+01  0.81566461119E+01 -0.13026454038E+01  0.10084708582E+02  0.51100000000E-03 0. -1.
<mgrwt>
<rscale>  0 0.20002249E+02</rscale>
<asrwt>0</asrwt>
<pdfrwt beam="2">  1        2 0.17757389E-02 0.20002249E+02</pdfrwt>
<pdfrwt beam="1">  1       -2 0.13331894E-02 0.20002249E+02</pdfrwt>
<totfact> 0.39872633E+06</totfact>
</mgrwt>
</event>
<event>
 5    1  0.4046313E-006  0.2000312E+02  0.7818608E-02  0.1745266E+00
          2   -1    0    0  501    0  0.00000000000E+00  0.00000000000E+00  0.25841395677E+01  0.25841408757E+01  0.26000000000E-02 0.  1.
         -2   -1    0    0    0  501 -0.00000000000E+00 -0.00000000000E+00 -0.38709655145E+02  0.38709655233E+02  0.26000000000E-02 0. -1.
       1023    2    1    2    0    0  0.00000000000E+00  0.00000000000E+00 -0.36125515578E+02  0.41293796108E+02  0.20003117789E+02 0.  0.
        -11    1    3    3    0    0 -0.98543559510E+01  0.17071414181E+01 -0.17872241876E+02  0.20480226878E+02  0.51100000000E-03 0. -1.
         11    1    3    3    0    0  0.98543559510E+01 -0.17071414181E+01 -0.18253273701E+02  0.20813569230E+02  0.51100000000E-03 0.  1.
<mgrwt>
<rscale>  0 0.20003118E+02</rscale>
<asrwt>0</asrwt>
<pdfrwt beam="1">  1        2 0.39756007E-03 0.20003118E+02</pdfrwt>
<pdfrwt beam="2">  1       -2 0.59553312E-02 0.20003118E+02</pdfrwt>
<totfact> 0.35048002E+06</totfact>
</mgrwt>
</event>
<event>
 5    1  0.4046313E-006  0.2000049E+02  0.7818608E-02  0.1745318E+00
          2   -1    0    0  501    0  0.00000000000E+00  0.00000000000E+00  0.70982922909E+02  0.70982922957E+02  0.26000000000E-02 0. -1.
         -2   -1    0    0    0  501 -0.00000000000E+00 -0.00000000000E+00 -0.14088577227E+01  0.14088601218E+01  0.26000000000E-02 0.  1.
       1023    2    1    2    0    0  0.00000000000E+00  0.00000000000E+00  0.69574065187E+02  0.72391783079E+02  0.20000492762E+02 0.  0.
        -11    1    3    3    0    0 -0.52154392196E+01  0.85324966389E+01  0.34696742563E+02  0.36109115883E+02  0.51100000000E-03 0.  1.
         11    1    3    3    0    0  0.52154392196E+01 -0.85324966389E+01  0.34877322624E+02  0.36282667195E+02  0.51100000000E-03 0. -1.
<mgrwt>
<rscale>  0 0.20000493E+02</rscale>
<asrwt>0</asrwt>
<pdfrwt beam="1">  1        2 0.10920448E-01 0.20000493E+02</pdfrwt>
<pdfrwt beam="2">  1       -2 0.21674757E-03 0.20000493E+02</pdfrwt>
<totfact> 0.49144748E+06</totfact>
</mgrwt>
</event>
<event>
 5    1  0.4046313E-006  0.2000007E+02  0.7818608E-02  0.1745327E+00
         -2   -1    0    0    0  501 -0.00000000000E+00  0.00000000000E+00  0.99963567234E+01  0.99963570615E+01  0.26000000000E-02 0.  1.
          2   -1    0    0  501    0  0.00000000000E+00 -0.00000000000E+00 -0.10003714994E+02  0.10003715332E+02  0.26000000000E-02 0. -1.
       1023    2    1    2    0    0  0.00000000000E+00  0.00000000000E+00 -0.73582709395E-02  0.20000072394E+02  0.20000071040E+02 0.  0.
        -11    1    3    3    0    0  0.93356735128E+01 -0.35840892193E+01 -0.18330799435E-01  0.10000041587E+02  0.51100000000E-03 0. -1.
         11    1    3    3    0    0 -0.93356735128E+01  0.35840892193E+01  0.10972528496E-01  0.10000030806E+02  0.51100000000E-03 0.  1.
<mgrwt>
<rscale>  0 0.20000071E+02</rscale>
<asrwt>0</asrwt>
<pdfrwt beam="2">  1        2 0.15390331E-02 0.20000071E+02</pdfrwt>
<pdfrwt beam="1">  1       -2 0.15379011E-02 0.20000071E+02</pdfrwt>
<totfact> 0.39463918E+06</totfact>
</mgrwt>
</event>
<event>
 5    1  0.4046313E-006  0.2000082E+02  0.7818608E-02  0.1745312E+00
          2   -1    0    0  501    0  0.00000000000E+00  0.00000000000E+00  0.31430993804E+02  0.31430993911E+02  0.26000000000E-02 0.  1.
         -2   -1    0    0    0  501 -0.00000000000E+00 -0.00000000000E+00 -0.31818339921E+01  0.31818350544E+01  0.26000000000E-02 0. -1.
       1023    2    1    2    0    0  0.00000000000E+00  0.00000000000E+00  0.28249159812E+02  0.34612828966E+02  0.20000822457E+02 0.  0.
        -11    1    3    3    0    0  0.50255245018E+01 -0.86459060977E+01  0.14080946700E+02  0.17270803369E+02  0.51100000000E-03 0. -1.
         11    1    3    3    0    0 -0.50255245018E+01  0.86459060977E+01  0.14168213112E+02  0.17342025597E+02  0.51100000000E-03 0.  1.
<mgrwt>
<rscale>  0 0.20000822E+02</rscale>
<asrwt>0</asrwt>
<pdfrwt beam="1">  1        2 0.48355375E-02 0.20000822E+02</pdfrwt>
<pdfrwt beam="2">  1       -2 0.48951302E-03 0.20000822E+02</pdfrwt>
<totfact> 0.43594729E+06</totfact>
</mgrwt>
</event>
<event>
 5    1  0.4046313E-006  0.2000004E+02  0.7818608E-02  0.1745327E+00
         -2   -1    0    0    0  501 -0.00000000000E+00  0.00000000000E+00  0.87267277684E+00  0.87267664999E+00  0.26000000000E-02 0. -1.
          2   -1    0    0  501    0  0.00000000000E+00 -0.00000000000E+00 -0.11459067579E+03  0.11459067582E+03  0.26000000000E-02 0.  1.
       1023    2    1    2    0    0  0.00000000000E+00  0.00000000000E+00 -0.11371800301E+03  0.11546335247E+03  0.20000038855E+02 0.  0.
        -11    1    3    3    0    0  0.92800959869E+01  0.37255807634E+01 -0.56951143831E+02  0.57822425731E+02  0.51100000000E-03 0.  1.
         11    1    3    3    0    0 -0.92800959869E+01 -0.37255807634E+01 -0.56766859183E+02  0.57640926739E+02  0.51100000000E-03 0. -1.
<mgrwt>
<rscale>  0 0.20000039E+02</rscale>
<asrwt>0</asrwt>
<pdfrwt beam="2">  1        2 0.17629323E-01 0.20000039E+02</pdfrwt>
<pdfrwt beam="1">  1       -2 0.13425774E-03 0.20000039E+02</pdfrwt>
<totfact> 0.54471898E+06</totfact>
</mgrwt>
</event>
<event>
 5    1  0.4046313E-006  0.2001081E+02  0.7818608E-02  0.1745113E+00
          2   -1    0    0  501    0  0.00000000000E+00  0.00000000000E+00  0.32561300525E+01  0.32561310905E+01  0.26000000000E-02 0.  1.
         -2   -1    0    0    0  501 -0.00000000000E+00 -0.00000000000E+00 -0.30744498675E+02  0.30744498785E+02  0.26000000000E-02 0. -1.
       1023    2    1    2    0    0  0.00000000000E+00  0.00000000000E+00 -0.27488368622E+02  0.34000629875E+02  0.20010807640E+02 0.  0.
        -11    1    3    3    0    0  0.99776365618E+01  0.73223731314E+00 -0.13511818553E+02  0.16812455018E+02  0.51100000000E-03 0.  1.
         11    1    3    3    0    0 -0.99776365618E+01 -0.73223731314E+00 -0.13976550069E+02  0.17188174858E+02  0.51100000000E-03 0. -1.
<mgrwt>
<rscale>  0 0.20010808E+02</rscale>
<asrwt>0</asrwt>
<pdfrwt beam="1">  1        2 0.50094319E-03 0.20010808E+02</pdfrwt>
<pdfrwt beam="2">  1       -2 0.47299228E-02 0.20010808E+02</pdfrwt>
<totfact> 0.35930979E+06</totfact>
</mgrwt>
</event>
<event>
 5    1  0.4046313E-006  0.2000014E+02  0.7818608E-02  0.1745325E+00
         -2   -1    0    0    0  501 -0.00000000000E+00  0.00000000000E+00  0.91778893780E+01  0.91778897462E+01  0.26000000000E-02 0.  1.
          2   -1    0    0  501    0  0.00000000000E+00 -0.00000000000E+00 -0.10895902002E+02  0.10895902313E+02  0.26000000000E-02 0. -1.
       1023    2    1    2    0    0  0.00000000000E+00  0.00000000000E+00 -0.17180126243E+01  0.20073792059E+02  0.20000139006E+02 0.  0.
        -11    1    3    3    0    0 -0.87887420325E+01 -0.47705377684E+01 -0.89619252719E+00  0.10040078606E+02  0.51100000000E-03 0. -1.
         11    1    3    3    0    0  0.87887420325E+01  0.47705377684E+01 -0.82182009716E+00  0.10033713452E+02  0.51100000000E-03 0.  1.
<mgrwt>
<rscale>  0 0.20000139E+02</rscale>
<asrwt>0</asrwt>
<pdfrwt beam="2">  1        2 0.16762927E-02 0.20000139E+02</pdfrwt>
<pdfrwt beam="1">  1       -2 0.14119830E-02 0.20000139E+02</pdfrwt>
<totfact> 0.39712292E+06</totfact>
</mgrwt>
</event>
<event>
 5    1  0.4046313E-006  0.2000141E+02  0.7818608E-02  0.1745300E+00
          2   -1    0    0  501    0  0.00000000000E+00  0.00000000000E+00  0.17773199237E+02  0.17773199427E+02  0.26000000000E-02 0. -1.
         -2   -1    0    0    0  501 -0.00000000000E+00 -0.00000000000E+00 -0.56272425204E+01  0.56272431210E+01  0.26000000000E-02 0.  1.
       1023    2    1    2    0    0  0.00000000000E+00  0.00000000000E+00  0.12145956716E+02  0.23400442548E+02  0.20001411122E+02 0.  0.
        -11    1    3    3    0    0 -0.44582537697E+01 -0.89519840095E+01  0.60633964033E+01  0.11695247778E+02  0.51100000000E-03 0.  1.
         11    1    3    3    0    0  0.44582537697E+01  0.89519840095E+01  0.60825603130E+01  0.11705194770E+02  0.51100000000E-03 0. -1.
<mgrwt>
<rscale>  0 0.20001411E+02</rscale>
<asrwt>0</asrwt>
<pdfrwt beam="1">  1        2 0.27343384E-02 0.20001411E+02</pdfrwt>
<pdfrwt beam="2">  1       -2 0.86572969E-03 0.20001411E+02</pdfrwt>
<totfact> 0.41249351E+06</totfact>
</mgrwt>
</event>
<event>
 5    1  0.4132412E-006  0.2000076E+02  0.7818608E-02  0.1745313E+00
          2   -1    0    0  501    0  0.00000000000E+00  0.00000000000E+00  0.57948251935E+02  0.57948251993E+02  0.26000000000E-02 0. -1.
         -2   -1    0    0    0  501 -0.00000000000E+00 -0.00000000000E+00 -0.17258084824E+01  0.17258104409E+01  0.26000000000E-02 0.  1.
       1023    2    1    2    0    0  0.00000000000E+00  0.00000000000E+00  0.56222443453E+02  0.59674062434E+02  0.20000764476E+02 0.  0.
        -11    1    3    3    0    0  0.79954374996E+01  0.60064095614E+01  0.28291920163E+02  0.30007277841E+02  0.51100000000E-03 0.  1.
         11    1    3    3    0    0 -0.79954374996E+01 -0.60064095614E+01  0.27930523290E+02  0.29666784594E+02  0.51100000000E-03 0. -1.
<mgrwt>
<rscale>  0 0.20000764E+02</rscale>
<asrwt>0</asrwt>
<pdfrwt beam="1">  1        2 0.89151141E-02 0.20000764E+02</pdfrwt>
<pdfrwt beam="2">  1       -2 0.26550920E-03 0.20000764E+02</pdfrwt>
<totfact> 0.47416710E+06</totfact>
</mgrwt>
</event>
<event>
 5    1  0.4046313E-006  0.2000057E+02  0.7818608E-02  0.1745317E+00
         -2   -1    0    0    0  501 -0.00000000000E+00  0.00000000000E+00  0.24390747106E+02  0.24390747244E+02  0.26000000000E-02 0.  1.
          2   -1    0    0  501    0  0.00000000000E+00 -0.00000000000E+00 -0.41001489694E+01  0.41001497938E+01  0.26000000000E-02 0. -1.
       1023    2    1    2    0    0  0.00000000000E+00  0.00000000000E+00  0.20290598136E+02  0.28490897038E+02  0.20000571024E+02 0.  0.
        -11    1    3    3    0    0 -0.80747575630E+01 -0.58994849406E+01  0.10157863776E+02  0.14254396831E+02  0.51100000000E-03 0. -1.
         11    1    3    3    0    0  0.80747575630E+01  0.58994849406E+01  0.10132734361E+02  0.14236500207E+02  0.51100000000E-03 0.  1.
<mgrwt>
<rscale>  0 0.20000571E+02</rscale>
<asrwt>0</asrwt>
<pdfrwt beam="2">  1        2 0.63079223E-03 0.20000571E+02</pdfrwt>
<pdfrwt beam="1">  1       -2 0.37524227E-02 0.20000571E+02</pdfrwt>
<totfact> 0.36789920E+06</totfact>
</mgrwt>
</event>
<event>
 5    1  0.4046313E-006  0.2000121E+02  0.7818608E-02  0.1745304E+00
          2   -1    0    0  501    0  0.00000000000E+00  0.00000000000E+00  0.27570072138E+01  0.27570084398E+01  0.26000000000E-02 0.  1.
         -2   -1    0    0    0  501 -0.00000000000E+00 -0.00000000000E+00 -0.36275599449E+02  0.36275599542E+02  0.26000000000E-02 0. -1.
       1023    2    1    2    0    0  0.00000000000E+00  0.00000000000E+00 -0.33518592235E+02  0.39032607982E+02  0.20001211474E+02 0.  0.
        -11    1    3    3    0    0  0.30065961209E+01  0.95377026174E+01 -0.16625174573E+02  0.19401129382E+02  0.51100000000E-03 0.  1.
         11    1    3    3    0    0 -0.30065961209E+01 -0.95377026174E+01 -0.16893417662E+02  0.19631478600E+02  0.51100000000E-03 0. -1.
<mgrwt>
<rscale>  0 0.20001211E+02</rscale>
<asrwt>0</asrwt>
<pdfrwt beam="1">  1        2 0.42415508E-03 0.20001211E+02</pdfrwt>
<pdfrwt beam="2">  1       -2 0.55808612E-02 0.20001211E+02</pdfrwt>
<totfact> 0.35324057E+06</totfact>
</mgrwt>
</event>
<event>
 5    1  0.4046313E-006  0.2000006E+02  0.7818608E-02  0.1745327E+00
          2   -1    0    0  501    0  0.00000000000E+00  0.00000000000E+00  0.14584311345E+02  0.14584311577E+02  0.26000000000E-02 0.  1.
         -2   -1    0    0    0  501 -0.00000000000E+00 -0.00000000000E+00 -0.68567256633E+01  0.68567261562E+01  0.26000000000E-02 0. -1.
       1023    2    1    2    0    0  0.00000000000E+00  0.00000000000E+00  0.77275856818E+01  0.21441037733E+02  0.20000062965E+02 0.  0.
        -11    1    3    3    0    0  0.96093775289E+01 -0.27677166532E+01  0.38472741051E+01  0.10714565333E+02  0.51100000000E-03 0. -1.
         11    1    3    3    0    0 -0.96093775289E+01  0.27677166532E+01  0.38803115767E+01  0.10726472400E+02  0.51100000000E-03 0.  1.
<mgrwt>
<rscale>  0 0.20000063E+02</rscale>
<asrwt>0</asrwt>
<pdfrwt beam="1">  1        2 0.22437402E-02 0.20000063E+02</pdfrwt>
<pdfrwt beam="2">  1       -2 0.10548809E-02 0.20000063E+02</pdfrwt>
<totfact> 0.40599354E+06</totfact>
</mgrwt>
</event>
<event>
 4    1  0.4046313E-006  0.2004649E+02  0.7818608E-02  0.1744405E+00
          2   -1    0    0  501    0  0.00000000000E+00  0.00000000000E+00  0.13195946786E+01  0.13195972400E+01  0.26000000000E-02 0. -1.
         -2   -1    0    0    0  501 -0.00000000000E+00 -0.00000000000E+00 -0.76133493765E+02  0.76133493809E+02  0.26000000000E-02 0.  1.
        -11    1    1    2    0    0  0.51981148739E+01  0.85661216079E+01 -0.38404168338E+02  0.39689784373E+02  0.51100000000E-03 0.  1.
         11    1    1    2    0    0 -0.51981148739E+01 -0.85661216079E+01 -0.36409730749E+02  0.37763306676E+02  0.51100000000E-03 0. -1.
<mgrwt>
<rscale>  0 0.20046491E+02</rscale>
<asrwt>0</asrwt>
<pdfrwt beam="1">  1        2 0.20301483E-03 0.20046491E+02</pdfrwt>
<pdfrwt beam="2">  1       -2 0.11712842E-01 0.20046491E+02</pdfrwt>
<totfact> 0.31411724E+06</totfact>
</mgrwt>
</event>
<event>
 5    1  0.4095721E-006  0.2000160E+02  0.7818608E-02  0.1745296E+00
         -2   -1    0    0    0  501 -0.00000000000E+00  0.00000000000E+00  0.19306465360E+01  0.19306482867E+01  0.26000000000E-02 0.  1.
          2   -1    0    0  501    0  0.00000000000E+00 -0.00000000000E+00 -0.51804387208E+02  0.51804387273E+02  0.26000000000E-02 0. -1.
       1023    2    1    2    0    0  0.00000000000E+00  0.00000000000E+00 -0.49873740672E+02  0.53735035560E+02  0.20001600886E+02 0.  0.
        -11    1    3    3    0    0  0.97477540769E+01  0.22342689828E+01 -0.25133223054E+02  0.27049760974E+02  0.51100000000E-03 0.  1.
         11    1    3    3    0    0 -0.97477540769E+01 -0.22342689828E+01 -0.24740517618E+02  0.26685274586E+02  0.51100000000E-03 0. -1.
<mgrwt>
<rscale>  0 0.20001601E+02</rscale>
<asrwt>0</asrwt>
<pdfrwt beam="2">  1        2 0.79699048E-02 0.20001601E+02</pdfrwt>
<pdfrwt beam="1">  1       -2 0.29702272E-03 0.20001601E+02</pdfrwt>
<totfact> 0.46570972E+06</totfact>
</mgrwt>
</event>
<event>
 5    1  0.4172932E-006  0.2000071E+02  0.7818608E-02  0.1745314E+00
         -2   -1    0    0    0  501 -0.00000000000E+00  0.00000000000E+00  0.12172966999E+01  0.12172994766E+01  0.26000000000E-02 0. -1.
          2   -1    0    0  501    0  0.00000000000E+00 -0.00000000000E+00 -0.82155008144E+02  0.82155008185E+02  0.26000000000E-02 0.  1.
       1023    2    1    2    0    0  0.00000000000E+00  0.00000000000E+00 -0.80937711444E+02  0.83372307662E+02  0.20000713763E+02 0.  0.
        -11    1    3    3    0    0  0.82817744530E+01 -0.56049928980E+01 -0.40712060746E+02  0.41922256904E+02  0.51100000000E-03 0. -1.
         11    1    3    3    0    0 -0.82817744530E+01  0.56049928980E+01 -0.40225650698E+02  0.41450050757E+02  0.51100000000E-03 0.  1.
<mgrwt>
<rscale>  0 0.20000714E+02</rscale>
<asrwt>0</asrwt>
<pdfrwt beam="2">  1        2 0.12639228E-01 0.20000714E+02</pdfrwt>
<pdfrwt beam="1">  1       -2 0.18727670E-03 0.20000714E+02</pdfrwt>
<totfact> 0.50566482E+06</totfact>
</mgrwt>
</event>
<event>
 5    1  0.4046313E-006  0.2000686E+02  0.7818608E-02  0.1745192E+00
          2   -1    0    0  501    0  0.00000000000E+00  0.00000000000E+00  0.35115867652E+01  0.35115877278E+01  0.26000000000E-02 0. -1.
         -2   -1    0    0    0  501 -0.00000000000E+00 -0.00000000000E+00 -0.28496676500E+02  0.28496676618E+02  0.26000000000E-02 0.  1.
       1023    2    1    2    0    0  0.00000000000E+00  0.00000000000E+00 -0.24985089735E+02  0.32008264346E+02  0.20006855760E+02 0.  0.
        -11    1    3    3    0    0  0.14938727896E+01 -0.98909858970E+01 -0.12375950336E+02  0.15913120527E+02  0.51100000000E-03 0.  1.
         11    1    3    3    0    0 -0.14938727896E+01  0.98909858970E+01 -0.12609139399E+02  0.16095143819E+02  0.51100000000E-03 0. -1.
<mgrwt>
<rscale>  0 0.20006856E+02</rscale>
<asrwt>0</asrwt>
<pdfrwt beam="1">  1        2 0.54024422E-03 0.20006856E+02</pdfrwt>
<pdfrwt beam="2">  1       -2 0.43841040E-02 0.20006856E+02</pdfrwt>
<totfact> 0.36224688E+06</totfact>
</mgrwt>
</event>
<event>
 5    1  0.4046313E-006  0.2000696E+02  0.7818608E-02  0.1745190E+00
         -2   -1    0    0    0  501 -0.00000000000E+00  0.00000000000E+00  0.47729570648E+01  0.47729577730E+01  0.26000000000E-02 0.  1.
          2   -1    0    0  501    0  0.00000000000E+00 -0.00000000000E+00 -0.20965953795E+02  0.20965953956E+02  0.26000000000E-02 0. -1.
       1023    2    1    2    0    0  0.00000000000E+00  0.00000000000E+00 -0.16192996730E+02  0.25738911729E+02  0.20006959636E+02 0.  0.
        -11    1    3    3    0    0 -0.58870675757E+01 -0.80876346261E+01 -0.80360230387E+01  0.12831409316E+02  0.51100000000E-03 0. -1.
         11    1    3    3    0    0  0.58870675757E+01  0.80876346261E+01 -0.81569736912E+01  0.12907502413E+02  0.51100000000E-03 0.  1.
<mgrwt>
<rscale>  0 0.20006960E+02</rscale>
<asrwt>0</asrwt>
<pdfrwt beam="2">  1        2 0.32255314E-02 0.20006960E+02</pdfrwt>
<pdfrwt beam="1">  1       -2 0.73430117E-03 0.20006960E+02</pdfrwt>
<totfact> 0.41821352E+06</totfact>
</mgrwt>
</event>
<event>
 5    1  0.4046313E-006  0.2000113E+02  0.7818608E-02  0.1745306E+00
         -2   -1    0    0    0  501 -0.00000000000E+00  0.00000000000E+00  0.69389336841E+01  0.69389341712E+01  0.26000000000E-02 0. -1.
          2   -1    0    0  501    0  0.00000000000E+00 -0.00000000000E+00 -0.14413057436E+02  0.14413057670E+02  0.26000000000E-02 0.  1.
       1023    2    1    2    0    0  0.00000000000E+00  0.00000000000E+00 -0.74741237517E+01  0.21351991842E+02  0.20001125712E+02 0.  0.
        -11    1    3    3    0    0 -0.68677961883E+01  0.72687384084E+01 -0.38442135005E+01  0.10713503639E+02  0.51100000000E-03 0.  1.
         11    1    3    3    0    0  0.68677961883E+01 -0.72687384084E+01 -0.36299102512E+01  0.10638488202E+02  0.51100000000E-03 0. -1.
<mgrwt>
<rscale>  0 0.20001126E+02</rscale>
<asrwt>0</asrwt>
<pdfrwt beam="2">  1        2 0.22173935E-02 0.20001126E+02</pdfrwt>
<pdfrwt beam="1">  1       -2 0.10675283E-02 0.20001126E+02</pdfrwt>
<totfact> 0.40556962E+06</totfact>
</mgrwt>
</event>
<event>
 5    1  0.4046313E-006  0.2000427E+02  0.7818608E-02  0.1745243E+00
         -2   -1    0    0    0  501 -0.00000000000E+00  0.00000000000E+00  0.25225480140E+01  0.25225493539E+01  0.26000000000E-02 0. -1.
          2   -1    0    0  501    0  0.00000000000E+00 -0.00000000000E+00 -0.39659373709E+02  0.39659373794E+02  0.26000000000E-02 0.  1.
       1023    2    1    2    0    0  0.00000000000E+00  0.00000000000E+00 -0.37136825695E+02  0.42181923148E+02  0.20004269988E+02 0.  0.
        -11    1    3    3    0    0 -0.91842014460E+01 -0.39565693475E+01 -0.18983269731E+02  0.21456200203E+02  0.51100000000E-03 0.  1.
         11    1    3    3    0    0  0.91842014460E+01  0.39565693475E+01 -0.18153555964E+02  0.20725722945E+02  0.51100000000E-03 0. -1.
<mgrwt>
<rscale>  0 0.20004270E+02</rscale>
<asrwt>0</asrwt>
<pdfrwt beam="2">  1        2 0.61014418E-02 0.20004270E+02</pdfrwt>
<pdfrwt beam="1">  1       -2 0.38808445E-03 0.20004270E+02</pdfrwt>
<totfact> 0.44824792E+06</totfact>
</mgrwt>
</event>
<event>
 5    1  0.4046313E-006  0.2000142E+02  0.7818608E-02  0.1745300E+00
          2   -1    0    0  501    0  0.00000000000E+00  0.00000000000E+00  0.10896880677E+02  0.10896880987E+02  0.26000000000E-02 0. -1.
         -2   -1    0    0    0  501 -0.00000000000E+00 -0.00000000000E+00 -0.91782426106E+01  0.91782429789E+01  0.26000000000E-02 0.  1.
       1023    2    1    2    0    0  0.00000000000E+00  0.00000000000E+00  0.17186380660E+01  0.20075123966E+02  0.20001422085E+02 0.  0.
        -11    1    3    3    0    0 -0.86268051402E+01  0.50588048713E+01  0.82842501914E+00  0.10034917136E+02  0.51100000000E-03 0. -1.
         11    1    3    3    0    0  0.86268051402E+01 -0.50588048713E+01  0.89021304687E+00  0.10040206830E+02  0.51100000000E-03 0.  1.
<mgrwt>
<rscale>  0 0.20001422E+02</rscale>
<asrwt>0</asrwt>
<pdfrwt beam="1">  1        2 0.16764432E-02 0.20001422E+02</pdfrwt>
<pdfrwt beam="2">  1       -2 0.14120374E-02 0.20001422E+02</pdfrwt>
<totfact> 0.39706749E+06</totfact>
</mgrwt>
</event>
<event>
 5    1  0.4046313E-006  0.2000138E+02  0.7818608E-02  0.1745301E+00
         -2   -1    0    0    0  501 -0.00000000000E+00  0.00000000000E+00  0.53019192030E+02  0.53019192094E+02  0.26000000000E-02 0. -1.
          2   -1    0    0  501    0  0.00000000000E+00 -0.00000000000E+00 -0.18863686422E+01  0.18863704340E+01  0.26000000000E-02 0.  1.
       1023    2    1    2    0    0  0.00000000000E+00  0.00000000000E+00  0.51132823388E+02  0.54905562528E+02  0.20001379175E+02 0.  0.
        -11    1    3    3    0    0 -0.88133614721E+01  0.47263566924E+01  0.25571860004E+02  0.27457855203E+02  0.51100000000E-03 0.  1.
         11    1    3    3    0    0  0.88133614721E+01 -0.47263566924E+01  0.25560963384E+02  0.27447707325E+02  0.51100000000E-03 0. -1.
<mgrwt>
<rscale>  0 0.20001379E+02</rscale>
<asrwt>0</asrwt>
<pdfrwt beam="2">  1        2 0.29021075E-03 0.20001379E+02</pdfrwt>
<pdfrwt beam="1">  1       -2 0.81567977E-02 0.20001379E+02</pdfrwt>
<totfact> 0.33602679E+06</totfact>
</mgrwt>
</event>
<event>
 5    1  0.4046313E-006  0.2000833E+02  0.7818608E-02  0.1745162E+00
         -2   -1    0    0    0  501 -0.00000000000E+00  0.00000000000E+00  0.13952562854E+01  0.13952587079E+01  0.26000000000E-02 0. -1.
          2   -1    0    0  501    0  0.00000000000E+00 -0.00000000000E+00 -0.71731076589E+02  0.71731076636E+02  0.26000000000E-02 0.  1.
       1023    2    1    2    0    0  0.00000000000E+00  0.00000000000E+00 -0.70335820303E+02  0.73126335344E+02  0.20008330841E+02 0.  0.
        -11    1    3    3    0    0  0.91256202044E+00  0.99623837482E+01 -0.35307851822E+02  0.36697769141E+02  0.51100000000E-03 0.  1.
         11    1    3    3    0    0 -0.91256202044E+00 -0.99623837482E+01 -0.35027968481E+02  0.36428566202E+02  0.51100000000E-03 0. -1.
<mgrwt>
<rscale>  0 0.20008331E+02</rscale>
<asrwt>0</asrwt>
<pdfrwt beam="2">  1        2 0.11035548E-01 0.20008331E+02</pdfrwt>
<pdfrwt beam="1">  1       -2 0.21465506E-03 0.20008331E+02</pdfrwt>
<totfact> 0.49198833E+06</totfact>
</mgrwt>
</event>
<event>
 5    1  0.4046313E-006  0.2000171E+02  0.7818608E-02  0.1745294E+00
         -2   -1    0    0    0  501 -0.00000000000E+00  0.00000000000E+00  0.18676349153E+02  0.18676349334E+02  0.26000000000E-02 0.  1.
          2   -1    0    0  501    0  0.00000000000E+00 -0.00000000000E+00 -0.53552816022E+01  0.53552822333E+01  0.26000000000E-02 0. -1.
       1023    2    1    2    0    0  0.00000000000E+00  0.00000000000E+00  0.13321067551E+02  0.24031631568E+02  0.20001711804E+02 0.  0.
        -11    1    3    3    0    0 -0.22925559149E+01  0.97342707591E+01  0.67478266338E+01  0.12064203429E+02  0.51100000000E-03 0.  1.
         11    1    3    3    0    0  0.22925559149E+01 -0.97342707591E+01  0.65732409174E+01  0.11967428139E+02  0.51100000000E-03 0. -1.
<mgrwt>
<rscale>  0 0.20001712E+02</rscale>
<asrwt>0</asrwt>
<pdfrwt beam="2">  1        2 0.82388952E-03 0.20001712E+02</pdfrwt>
<pdfrwt beam="1">  1       -2 0.28732846E-02 0.20001712E+02</pdfrwt>
<totfact> 0.37638414E+06</totfact>
</mgrwt>
</event>
<event>
 5    1  0.4046313E-006  0.2000051E+02  0.7818608E-02  0.1745318E+00
          2   -1    0    0  501    0  0.00000000000E+00  0.00000000000E+00  0.25967034028E+01  0.25967047044E+01  0.26000000000E-02 0. -1.
         -2   -1    0    0    0  501 -0.00000000000E+00 -0.00000000000E+00 -0.38512336864E+02  0.38512336952E+02  0.26000000000E-02 0.  1.
       1023    2    1    2    0    0  0.00000000000E+00  0.00000000000E+00 -0.35915633462E+02  0.41109041657E+02  0.20000514468E+02 0.  0.
        -11    1    3    3    0    0  0.99975356079E+01 -0.23324473669E+00 -0.17947928346E+02  0.20545881668E+02  0.51100000000E-03 0.  1.
         11    1    3    3    0    0 -0.99975356079E+01  0.23324473669E+00 -0.17967705115E+02  0.20563159988E+02  0.51100000000E-03 0. -1.
<mgrwt>
<rscale>  0 0.20000514E+02</rscale>
<asrwt>0</asrwt>
<pdfrwt beam="1">  1        2 0.39949297E-03 0.20000514E+02</pdfrwt>
<pdfrwt beam="2">  1       -2 0.59249746E-02 0.20000514E+02</pdfrwt>
<totfact> 0.35079460E+06</totfact>
</mgrwt>
</event>
<event>
 5    1  0.4193297E-006  0.2000031E+02  0.7818608E-02  0.1745322E+00
          2   -1    0    0  501    0  0.00000000000E+00  0.00000000000E+00  0.94882878821E+02  0.94882878857E+02  0.26000000000E-02 0.  1.
         -2   -1    0    0    0  501 -0.00000000000E+00 -0.00000000000E+00 -0.10539622707E+01  0.10539654777E+01  0.26000000000E-02 0. -1.
       1023    2    1    2    0    0  0.00000000000E+00  0.00000000000E+00  0.93828916550E+02  0.95936844335E+02  0.20000312993E+02 0.  0.
        -11    1    3    3    0    0 -0.79627095640E+01  0.60496040627E+01  0.47039246261E+02  0.48090468307E+02  0.51100000000E-03 0.  1.
         11    1    3    3    0    0  0.79627095640E+01 -0.60496040627E+01  0.46789670289E+02  0.47846376027E+02  0.51100000000E-03 0. -1.
<mgrwt>
<rscale>  0 0.20000313E+02</rscale>
<asrwt>0</asrwt>
<pdfrwt beam="1">  1        2 0.14597368E-01 0.20000313E+02</pdfrwt>
<pdfrwt beam="2">  1       -2 0.16214828E-03 0.20000313E+02</pdfrwt>
<totfact> 0.52139305E+06</totfact>
</mgrwt>
</event>
<event>
 5    1  0.4046313E-006  0.2000204E+02  0.7818608E-02  0.1745287E+00
         -2   -1    0    0    0  501 -0.00000000000E+00  0.00000000000E+00  0.30778057363E+01  0.30778068345E+01  0.26000000000E-02 0.  1.
          2   -1    0    0  501    0  0.00000000000E+00 -0.00000000000E+00 -0.32497313954E+02  0.32497314058E+02  0.26000000000E-02 0. -1.
       1023    2    1    2    0    0  0.00000000000E+00  0.00000000000E+00 -0.29419508218E+02  0.35575120893E+02  0.20002043964E+02 0.  0.
        -11    1    3    3    0    0 -0.65800819979E+01 -0.75310835744E+01 -0.14844521741E+02  0.17899009047E+02  0.51100000000E-03 0.  1.
         11    1    3    3    0    0  0.65800819979E+01  0.75310835744E+01 -0.14574986477E+02  0.17676111845E+02  0.51100000000E-03 0. -1.
<mgrwt>
<rscale>  0 0.20002044E+02</rscale>
<asrwt>0</asrwt>
<pdfrwt beam="2">  1        2 0.49995866E-02 0.20002044E+02</pdfrwt>
<pdfrwt beam="1">  1       -2 0.47350869E-03 0.20002044E+02</pdfrwt>
<totfact> 0.43754860E+06</totfact>
</mgrwt>
</event>
<event>
 5    1  0.4046313E-006  0.2000729E+02  0.7818608E-02  0.1745183E+00
         -2   -1    0    0    0  501 -0.00000000000E+00  0.00000000000E+00  0.15302186418E+01  0.15302208506E+01  0.26000000000E-02 0.  1.
          2   -1    0    0  501    0  0.00000000000E+00 -0.00000000000E+00 -0.65397753635E+02  0.65397753687E+02  0.26000000000E-02 0. -1.
       1023    2    1    2    0    0  0.00000000000E+00  0.00000000000E+00 -0.63867534993E+02  0.66927974538E+02  0.20007292410E+02 0.  0.
        -11    1    3    3    0    0 -0.68146956894E+01  0.73232185802E+01 -0.31740746972E+02  0.33279793063E+02  0.51100000000E-03 0. -1.
         11    1    3    3    0    0  0.68146956894E+01 -0.73232185802E+01 -0.32126788022E+02  0.33648181475E+02  0.51100000000E-03 0.  1.
<mgrwt>
<rscale>  0 0.20007292E+02</rscale>
<asrwt>0</asrwt>
<pdfrwt beam="2">  1        2 0.10061191E-01 0.20007292E+02</pdfrwt>
<pdfrwt beam="1">  1       -2 0.23541848E-03 0.20007292E+02</pdfrwt>
<totfact> 0.48377732E+06</totfact>
</mgrwt>
</event>
<event>
 5    1  0.4046313E-006  0.2000006E+02  0.7818608E-02  0.1745327E+00
          2   -1    0    0  501    0  0.00000000000E+00  0.00000000000E+00  0.13923124965E+01  0.13923149241E+01  0.26000000000E-02 0. -1.
         -2   -1    0    0    0  501 -0.00000000000E+00 -0.00000000000E+00 -0.71823295595E+02  0.71823295642E+02  0.26000000000E-02 0.  1.
       1023    2    1    2    0    0  0.00000000000E+00  0.00000000000E+00 -0.70430983098E+02  0.73215610566E+02  0.20000056259E+02 0.  0.
        -11    1    3    3    0    0  0.98863466091E+01 -0.15034529834E+01 -0.35283208896E+02  0.36672947119E+02  0.51100000000E-03 0. -1.
         11    1    3    3    0    0 -0.98863466091E+01  0.15034529834E+01 -0.35147774202E+02  0.36542663447E+02  0.51100000000E-03 0.  1.
<mgrwt>
<rscale>  0 0.20000056E+02</rscale>
<asrwt>0</asrwt>
<pdfrwt beam="1">  1        2 0.21420217E-03 0.20000056E+02</pdfrwt>
<pdfrwt beam="2">  1       -2 0.11049735E-01 0.20000056E+02</pdfrwt>
<totfact> 0.31929009E+06</totfact>
</mgrwt>
</event>
<event>
 5    1  0.4046313E-006  0.2000054E+02  0.7818608E-02  0.1745317E+00
          2   -1    0    0  501    0  0.00000000000E+00  0.00000000000E+00  0.86755971939E+02  0.86755971978E+02  0.26000000000E-02 0. -1.
         -2   -1    0    0    0  501 -0.00000000000E+00 -0.00000000000E+00 -0.11527192652E+01  0.11527221974E+01  0.26000000000E-02 0.  1.
       1023    2    1    2    0    0  0.00000000000E+00  0.00000000000E+00  0.85603252674E+02  0.87908694175E+02  0.20000541074E+02 0.  0.
        -11    1    3    3    0    0 -0.53704879242E+01  0.84356633056E+01  0.42566791144E+02  0.43725670544E+02  0.51100000000E-03 0.  1.
         11    1    3    3    0    0  0.53704879242E+01 -0.84356633056E+01  0.43036461530E+02  0.44183023631E+02  0.51100000000E-03 0. -1.
<mgrwt>
<rscale>  0 0.20000541E+02</rscale>
<asrwt>0</asrwt>
<pdfrwt beam="1">  1        2 0.13347077E-01 0.20000541E+02</pdfrwt>
<pdfrwt beam="2">  1       -2 0.17734160E-03 0.20000541E+02</pdfrwt>
<totfact> 0.51141124E+06</totfact>
</mgrwt>
</event>
<event>
 5    1  0.4046313E-006  0.2000010E+02  0.7818608E-02  0.1745326E+00
          2   -1    0    0  501    0  0.00000000000E+00  0.00000000000E+00  0.31853197370E+01  0.31853207981E+01  0.26000000000E-02 0. -1.
         -2   -1    0    0    0  501 -0.00000000000E+00 -0.00000000000E+00 -0.31394323126E+02  0.31394323233E+02  0.26000000000E-02 0.  1.
       1023    2    1    2    0    0  0.00000000000E+00  0.00000000000E+00 -0.28209003389E+02  0.34579644031E+02  0.20000097729E+02 0.  0.
        -11    1    3    3    0    0 -0.54071868019E+00  0.99854190951E+01 -0.14100326062E+02  0.17286415664E+02  0.51100000000E-03 0.  1.
         11    1    3    3    0    0  0.54071868019E+00 -0.99854190951E+01 -0.14108677327E+02  0.17293228367E+02  0.51100000000E-03 0. -1.
<mgrwt>
<rscale>  0 0.20000098E+02</rscale>
<asrwt>0</asrwt>
<pdfrwt beam="1">  1        2 0.49004930E-03 0.20000098E+02</pdfrwt>
<pdfrwt beam="2">  1       -2 0.48298957E-02 0.20000098E+02</pdfrwt>
<totfact> 0.35894410E+06</totfact>
</mgrwt>
</event>
<event>
 5    1  0.4046313E-006  0.2000066E+02  0.7818608E-02  0.1745315E+00
         -2   -1    0    0    0  501 -0.00000000000E+00  0.00000000000E+00  0.86790051389E+02  0.86790051428E+02  0.26000000000E-02 0.  1.
          2   -1    0    0  501    0  0.00000000000E+00 -0.00000000000E+00 -0.11522801327E+01  0.11522830660E+01  0.26000000000E-02 0. -1.
       1023    2    1    2    0    0  0.00000000000E+00  0.00000000000E+00  0.85637771256E+02  0.87942334494E+02  0.20000658252E+02 0.  0.
        -11    1    3    3    0    0  0.76548063130E+01 -0.64348613182E+01  0.43063006327E+02  0.44208890668E+02  0.51100000000E-03 0. -1.
         11    1    3    3    0    0 -0.76548063130E+01  0.64348613182E+01  0.42574764928E+02  0.43733443826E+02  0.51100000000E-03 0.  1.
<mgrwt>
<rscale>  0 0.20000658E+02</rscale>
<asrwt>0</asrwt>
<pdfrwt beam="2">  1        2 0.17727413E-03 0.20000658E+02</pdfrwt>
<pdfrwt beam="1">  1       -2 0.13352314E-01 0.20000658E+02</pdfrwt>
<totfact> 0.30720094E+06</totfact>
</mgrwt>
</event>
<event>
 5    1  0.4046313E-006  0.2000029E+02  0.7818608E-02  0.1745322E+00
         -2   -1    0    0    0  501 -0.00000000000E+00  0.00000000000E+00  0.14662321575E+01  0.14662344627E+01  0.26000000000E-02 0.  1.
          2   -1    0    0  501    0  0.00000000000E+00 -0.00000000000E+00 -0.68203949357E+02  0.68203949407E+02  0.26000000000E-02 0. -1.
       1023    2    1    2    0    0  0.00000000000E+00  0.00000000000E+00 -0.66737717200E+02  0.69670183870E+02  0.20000290583E+02 0.  0.
        -11    1    3    3    0    0  0.31103432297E+01  0.95040781325E+01 -0.33249735047E+02  0.34720982375E+02  0.51100000000E-03 0. -1.
         11    1    3    3    0    0 -0.31103432297E+01 -0.95040781325E+01 -0.33487982153E+02  0.34949201495E+02  0.51100000000E-03 0.  1.
<mgrwt>
<rscale>  0 0.20000291E+02</rscale>
<asrwt>0</asrwt>
<pdfrwt beam="2">  1        2 0.10492913E-01 0.20000291E+02</pdfrwt>
<pdfrwt beam="1">  1       -2 0.22557441E-03 0.20000291E+02</pdfrwt>
<totfact> 0.48784028E+06</totfact>
</mgrwt>
</event>
<event>
 5    1  0.4046313E-006  0.2000589E+02  0.7818608E-02  0.1745211E+00
         -2   -1    0    0    0  501 -0.00000000000E+00  0.00000000000E+00  0.32944606374E+01  0.32944616634E+01  0.26000000000E-02 0.  1.
          2   -1    0    0  501    0  0.00000000000E+00 -0.00000000000E+00 -0.30371868588E+02  0.30371868699E+02  0.26000000000E-02 0. -1.
       1023    2    1    2    0    0  0.00000000000E+00  0.00000000000E+00 -0.27077407950E+02  0.33666330362E+02  0.20005893601E+02 0.  0.
        -11    1    3    3    0    0 -0.76839442154E+01  0.64023946654E+01 -0.13271097010E+02  0.16617932250E+02  0.51100000000E-03 0.  1.
         11    1    3    3    0    0  0.76839442154E+01 -0.64023946654E+01 -0.13806310940E+02  0.17048398112E+02  0.51100000000E-03 0. -1.
<mgrwt>
<rscale>  0 0.20005894E+02</rscale>
<asrwt>0</asrwt>
<pdfrwt beam="2">  1        2 0.46725951E-02 0.20005894E+02</pdfrwt>
<pdfrwt beam="1">  1       -2 0.50684021E-03 0.20005894E+02</pdfrwt>
<totfact> 0.43403461E+06</totfact>
</mgrwt>
</event>
<event>
 5    1  0.4046313E-006  0.2000040E+02  0.7818608E-02  0.1745320E+00
         -2   -1    0    0    0  501 -0.00000000000E+00  0.00000000000E+00  0.12396159208E+01  0.12396186475E+01  0.26000000000E-02 0.  1.
          2   -1    0    0  501    0  0.00000000000E+00 -0.00000000000E+00 -0.80673274612E+02  0.80673274654E+02  0.26000000000E-02 0. -1.
       1023    2    1    2    0    0  0.00000000000E+00  0.00000000000E+00 -0.79433658691E+02  0.81912893301E+02  0.20000398894E+02 0.  0.
        -11    1    3    3    0    0 -0.15596604869E+01  0.98777738677E+01 -0.39585304619E+02  0.40828902746E+02  0.51100000000E-03 0.  1.
         11    1    3    3    0    0  0.15596604869E+01 -0.98777738677E+01 -0.39848354072E+02  0.41083990555E+02  0.51100000000E-03 0. -1.
<mgrwt>
<rscale>  0 0.20000399E+02</rscale>
<asrwt>0</asrwt>
<pdfrwt beam="2">  1        2 0.12411269E-01 0.20000399E+02</pdfrwt>
<pdfrwt beam="1">  1       -2 0.19071042E-03 0.20000399E+02</pdfrwt>
<totfact> 0.50382173E+06</totfact>
</mgrwt>
</event>
<event>
 5    1  0.4046313E-006  0.2000068E+02  0.7818608E-02  0.1745314E+00
          2   -1    0    0  501    0  0.00000000000E+00  0.00000000000E+00  0.40660749990E+02  0.40660750073E+02  0.26000000000E-02 0. -1.
         -2   -1    0    0    0  501 -0.00000000000E+00 -0.00000000000E+00 -0.24595416683E+01  0.24595430426E+01  0.26000000000E-02 0.  1.
       1023    2    1    2    0    0  0.00000000000E+00  0.00000000000E+00  0.38201208322E+02  0.43120293116E+02  0.20000684017E+02 0.  0.
        -11    1    3    3    0    0  0.99845644985E+01  0.55724832899E+00  0.18951452611E+02  0.21428009946E+02  0.51100000000E-03 0. -1.
         11    1    3    3    0    0 -0.99845644985E+01 -0.55724832899E+00  0.19249755710E+02  0.21692283169E+02  0.51100000000E-03 0.  1.
<mgrwt>
<rscale>  0 0.20000684E+02</rscale>
<asrwt>0</asrwt>
<pdfrwt beam="1">  1        2 0.62554997E-02 0.20000684E+02</pdfrwt>
<pdfrwt beam="2">  1       -2 0.37839117E-03 0.20000684E+02</pdfrwt>
<totfact> 0.44989859E+06</totfact>
</mgrwt>
</event>
<event>
 5    1  0.4046313E-006  0.2000275E+02  0.7818608E-02  0.1745273E+00
          2   -1    0    0  501    0  0.00000000000E+00  0.00000000000E+00  0.47528185788E+01  0.47528192900E+01  0.26000000000E-02 0.  1.
         -2   -1    0    0    0  501 -0.00000000000E+00 -0.00000000000E+00 -0.21045923549E+02  0.21045923709E+02  0.26000000000E-02 0. -1.
       1023    2    1    2    0    0  0.00000000000E+00  0.00000000000E+00 -0.16293104970E+02  0.25798742999E+02  0.20002746581E+02 0.  0.
        -11    1    3    3    0    0  0.22897227001E+00  0.99987518788E+01 -0.81465909777E+01  0.12899395810E+02  0.51100000000E-03 0.  1.
         11    1    3    3    0    0 -0.22897227001E+00 -0.99987518788E+01 -0.81465139921E+01  0.12899347190E+02  0.51100000000E-03 0. -1.
<mgrwt>
<rscale>  0 0.20002747E+02</rscale>
<asrwt>0</asrwt>
<pdfrwt beam="1">  1        2 0.73120294E-03 0.20002747E+02</pdfrwt>
<pdfrwt beam="2">  1       -2 0.32378344E-02 0.20002747E+02</pdfrwt>
<totfact> 0.37262318E+06</totfact>
</mgrwt>
</event>
<event>
 5    1  0.4046313E-006  0.2000119E+02  0.7818608E-02  0.1745304E+00
          2   -1    0    0  501    0  0.00000000000E+00  0.00000000000E+00  0.90681019924E+01  0.90681023651E+01  0.26000000000E-02 0.  1.
         -2   -1    0    0    0  501 -0.00000000000E+00 -0.00000000000E+00 -0.11028974969E+02  0.11028975275E+02  0.26000000000E-02 0. -1.
       1023    2    1    2    0    0  0.00000000000E+00  0.00000000000E+00 -0.19608729765E+01  0.20097077641E+02  0.20001187636E+02 0.  0.
        -11    1    3    3    0    0  0.89576130671E+01 -0.44465349159E+01 -0.10176523440E+01  0.10052169973E+02  0.51100000000E-03 0. -1.
         11    1    3    3    0    0 -0.89576130671E+01  0.44465349159E+01 -0.94322063249E+00  0.10044907667E+02  0.51100000000E-03 0.  1.
<mgrwt>
<rscale>  0 0.20001188E+02</rscale>
<asrwt>0</asrwt>
<pdfrwt beam="1">  1        2 0.13950927E-02 0.20001188E+02</pdfrwt>
<pdfrwt beam="2">  1       -2 0.16967654E-02 0.20001188E+02</pdfrwt>
<totfact> 0.39176423E+06</totfact>
</mgrwt>
</event>
<event>
 5    1  0.4083428E-006  0.2000243E+02  0.7818608E-02  0.1745280E+00
         -2   -1    0    0    0  501 -0.00000000000E+00  0.00000000000E+00  0.25343711749E+01  0.25343725086E+01  0.26000000000E-02 0.  1.
          2   -1    0    0  501    0  0.00000000000E+00 -0.00000000000E+00 -0.39467114398E+02  0.39467114484E+02  0.26000000000E-02 0. -1.
       1023    2    1    2    0    0  0.00000000000E+00  0.00000000000E+00 -0.36932743223E+02  0.42001486992E+02  0.20002434541E+02 0.  0.
        -11    1    3    3    0    0  0.92055092072E+01 -0.39063860992E+01 -0.18785478539E+02  0.21281340566E+02  0.51100000000E-03 0. -1.
         11    1    3    3    0    0 -0.92055092072E+01  0.39063860992E+01 -0.18147264685E+02  0.20720146426E+02  0.51100000000E-03 0.  1.
<mgrwt>
<rscale>  0 0.20002435E+02</rscale>
<asrwt>0</asrwt>
<pdfrwt beam="2">  1        2 0.60718634E-02 0.20002435E+02</pdfrwt>
<pdfrwt beam="1">  1       -2 0.38990339E-03 0.20002435E+02</pdfrwt>
<totfact> 0.44805641E+06</totfact>
</mgrwt>
</event>
<event>
 5    1  0.4046313E-006  0.2000022E+02  0.7818608E-02  0.1745324E+00
          2   -1    0    0  501    0  0.00000000000E+00  0.00000000000E+00  0.73217181722E+02  0.73217181769E+02  0.26000000000E-02 0. -1.
         -2   -1    0    0    0  501 -0.00000000000E+00 -0.00000000000E+00 -0.13658278196E+01  0.13658302943E+01  0.26000000000E-02 0.  1.
       1023    2    1    2    0    0  0.00000000000E+00  0.00000000000E+00  0.71851353903E+02  0.74583012063E+02  0.20000215767E+02 0.  0.
        -11    1    3    3    0    0 -0.66677694136E+01  0.74526720103E+01  0.36023517008E+02  0.37385762624E+02  0.51100000000E-03 0.  1.
         11    1    3    3    0    0  0.66677694136E+01 -0.74526720103E+01  0.35827836895E+02  0.37197249439E+02  0.51100000000E-03 0. -1.
<mgrwt>
<rscale>  0 0.20000216E+02</rscale>
<asrwt>0</asrwt>
<pdfrwt beam="1">  1        2 0.11264182E-01 0.20000216E+02</pdfrwt>
<pdfrwt beam="2">  1       -2 0.21012755E-03 0.20000216E+02</pdfrwt>
<totfact> 0.49434690E+06</totfact>
</mgrwt>
</event>
<event>
 5    1  0.4046313E-006  0.2000060E+02  0.7818608E-02  0.1745316E+00
          2   -1    0    0  501    0  0.00000000000E+00  0.00000000000E+00  0.55260472937E+01  0.55260479053E+01  0.26000000000E-02 0. -1.
         -2   -1    0    0    0  501 -0.00000000000E+00 -0.00000000000E+00 -0.18097204586E+02  0.18097204773E+02  0.26000000000E-02 0.  1.
       1023    2    1    2    0    0  0.00000000000E+00  0.00000000000E+00 -0.12571157293E+02  0.23623252678E+02  0.20000601777E+02 0.  0.
        -11    1    3    3    0    0  0.44547353188E+01 -0.89529556115E+01 -0.61945731648E+01  0.11763197605E+02  0.51100000000E-03 0.  1.
         11    1    3    3    0    0 -0.44547353188E+01  0.89529556115E+01 -0.63765841278E+01  0.11860055073E+02  0.51100000000E-03 0. -1.
<mgrwt>
<rscale>  0 0.20000602E+02</rscale>
<asrwt>0</asrwt>
<pdfrwt beam="1">  1        2 0.85016119E-03 0.20000602E+02</pdfrwt>
<pdfrwt beam="2">  1       -2 0.27841853E-02 0.20000602E+02</pdfrwt>
<totfact> 0.37738744E+06</totfact>
</mgrwt>
</event>
<event>
 5    1  0.4046313E-006  0.2000501E+02  0.7818608E-02  0.1745228E+00
          2   -1    0    0  501    0  0.00000000000E+00  0.00000000000E+00  0.50763846941E+01  0.50763853600E+01  0.26000000000E-02 0.  1.
         -2   -1    0    0    0  501 -0.00000000000E+00 -0.00000000000E+00 -0.19708935966E+02  0.19708936137E+02  0.26000000000E-02 0. -1.
       1023    2    1    2    0    0  0.00000000000E+00  0.00000000000E+00 -0.14632551272E+02  0.24785321497E+02  0.20005014496E+02 0.  0.
        -11    1    3    3    0    0  0.98390462296E+01 -0.17993407232E+01 -0.72227920096E+01  0.12337470665E+02  0.51100000000E-03 0. -1.
         11    1    3    3    0    0 -0.98390462296E+01  0.17993407232E+01 -0.74097592620E+01  0.12447850832E+02  0.51100000000E-03 0.  1.
<mgrwt>
<rscale>  0 0.20005014E+02</rscale>
<asrwt>0</asrwt>
<pdfrwt beam="1">  1        2 0.78098233E-03 0.20005014E+02</pdfrwt>
<pdfrwt beam="2">  1       -2 0.30321440E-02 0.20005014E+02</pdfrwt>
<totfact> 0.37459190E+06</totfact>
</mgrwt>
</event>
<event>
 5    1  0.4046313E-006  0.2000163E+02  0.7818608E-02  0.1745296E+00
         -2   -1    0    0    0  501 -0.00000000000E+00  0.00000000000E+00  0.20246831074E+01  0.20246847768E+01  0.26000000000E-02 0. -1.
          2   -1    0    0  501    0  0.00000000000E+00 -0.00000000000E+00 -0.49398462100E+02  0.49398462168E+02  0.26000000000E-02 0.  1.
       1023    2    1    2    0    0  0.00000000000E+00  0.00000000000E+00 -0.47373778992E+02  0.51423146945E+02  0.20001627577E+02 0.  0.
        -11    1    3    3    0    0 -0.97237673372E+01  0.23375393034E+01 -0.23627426284E+02  0.25656792751E+02  0.51100000000E-03 0.  1.
         11    1    3    3    0    0  0.97237673372E+01 -0.23375393034E+01 -0.23746352709E+02  0.25766354194E+02  0.51100000000E-03 0. -1.
<mgrwt>
<rscale>  0 0.20001628E+02</rscale>
<asrwt>0</asrwt>
<pdfrwt beam="2">  1        2 0.75997626E-02 0.20001628E+02</pdfrwt>
<pdfrwt beam="1">  1       -2 0.31148988E-03 0.20001628E+02</pdfrwt>
<totfact> 0.46235558E+06</totfact>
</mgrwt>
</event>
<event>
 5    1  0.4046313E-006  0.2000042E+02  0.7818608E-02  0.1745320E+00
          2   -1    0    0  501    0  0.00000000000E+00  0.00000000000E+00  0.19157593035E+01  0.19157610678E+01  0.26000000000E-02 0. -1.
         -2   -1    0    0    0  501 -0.00000000000E+00 -0.00000000000E+00 -0.52200805596E+02  0.52200805661E+02  0.26000000000E-02 0.  1.
       1023    2    1    2    0    0  0.00000000000E+00  0.00000000000E+00 -0.50285046293E+02  0.54116566729E+02  0.20000422842E+02 0.  0.
        -11    1    3    3    0    0  0.81229745564E+01  0.58327606035E+01 -0.25087316336E+02  0.27006985265E+02  0.51100000000E-03 0. -1.
         11    1    3    3    0    0 -0.81229745564E+01 -0.58327606035E+01 -0.25197729957E+02  0.27109581464E+02  0.51100000000E-03 0.  1.
<mgrwt>
<rscale>  0 0.20000423E+02</rscale>
<asrwt>0</asrwt>
<pdfrwt beam="1">  1        2 0.29473238E-03 0.20000423E+02</pdfrwt>
<pdfrwt beam="2">  1       -2 0.80308922E-02 0.20000423E+02</pdfrwt>
<totfact> 0.33684344E+06</totfact>
</mgrwt>
</event>
<event>
 5    1  0.4046313E-006  0.2000263E+02  0.7818608E-02  0.1745276E+00
         -2   -1    0    0    0  501 -0.00000000000E+00  0.00000000000E+00  0.14308072765E+02  0.14308073001E+02  0.26000000000E-02 0.  1.
          2   -1    0    0  501    0  0.00000000000E+00 -0.00000000000E+00 -0.69909015763E+01  0.69909020598E+01  0.26000000000E-02 0. -1.
       1023    2    1    2    0    0  0.00000000000E+00  0.00000000000E+00  0.73171711889E+01  0.21298975061E+02  0.20002633438E+02 0.  0.
        -11    1    3    3    0    0  0.10001003882E+02 -0.35571927454E-01  0.35833537014E+01  0.10623641938E+02  0.51100000000E-03 0.  1.
         11    1    3    3    0    0 -0.10001003882E+02  0.35571927454E-01  0.37338174875E+01  0.10675333124E+02  0.51100000000E-03 0. -1.
<mgrwt>
<rscale>  0 0.20002633E+02</rscale>
<asrwt>0</asrwt>
<pdfrwt beam="2">  1        2 0.10755234E-02 0.20002633E+02</pdfrwt>
<pdfrwt beam="1">  1       -2 0.22012420E-02 0.20002633E+02</pdfrwt>
<totfact> 0.38423763E+06</totfact>
</mgrwt>
</event>
<event>
 5    1  0.4046313E-006  0.2000077E+02  0.7818608E-02  0.1745313E+00
         -2   -1    0    0    0  501 -0.00000000000E+00  0.00000000000E+00  0.26112796822E+01  0.26112809765E+01  0.26000000000E-02 0. -1.
          2   -1    0    0  501    0  0.00000000000E+00 -0.00000000000E+00 -0.38298328257E+02  0.38298328346E+02  0.26000000000E-02 0.  1.
       1023    2    1    2    0    0  0.00000000000E+00  0.00000000000E+00 -0.35687048575E+02  0.40909609322E+02  0.20000767457E+02 0.  0.
        -11    1    3    3    0    0 -0.93837664144E+01  0.34569502214E+01 -0.17937200682E+02  0.20536522235E+02  0.51100000000E-03 0.  1.
         11    1    3    3    0    0  0.93837664144E+01 -0.34569502214E+01 -0.17749847894E+02  0.20373087087E+02  0.51100000000E-03 0. -1.
<mgrwt>
<rscale>  0 0.20000767E+02</rscale>
<asrwt>0</asrwt>
<pdfrwt beam="2">  1        2 0.58920502E-02 0.20000767E+02</pdfrwt>
<pdfrwt beam="1">  1       -2 0.40173547E-03 0.20000767E+02</pdfrwt>
<totfact> 0.44640944E+06</totfact>
</mgrwt>
</event>
<event>
 5    1  0.4046313E-006  0.2000037E+02  0.7818608E-02  0.1745321E+00
          2   -1    0    0  501    0  0.00000000000E+00  0.00000000000E+00  0.43347797767E+02  0.43347797845E+02  0.26000000000E-02 0. -1.
         -2   -1    0    0    0  501 -0.00000000000E+00 -0.00000000000E+00 -0.23070065480E+01  0.23070080131E+01  0.26000000000E-02 0.  1.
       1023    2    1    2    0    0  0.00000000000E+00  0.00000000000E+00  0.41040791219E+02  0.45654805858E+02  0.20000368848E+02 0.  0.
        -11    1    3    3    0    0  0.31739145053E+01 -0.94830207246E+01  0.20411567992E+02  0.22729573765E+02  0.51100000000E-03 0.  1.
         11    1    3    3    0    0 -0.31739145053E+01  0.94830207246E+01  0.20629223227E+02  0.22925232094E+02  0.51100000000E-03 0. -1.
<mgrwt>
<rscale>  0 0.20000369E+02</rscale>
<asrwt>0</asrwt>
<pdfrwt beam="1">  1        2 0.66688911E-02 0.20000369E+02</pdfrwt>
<pdfrwt beam="2">  1       -2 0.35492426E-03 0.20000369E+02</pdfrwt>
<totfact> 0.45382058E+06</totfact>
</mgrwt>
</event>
<event>
 5    1  0.4046313E-006  0.2000030E+02  0.7818608E-02  0.1745322E+00
          2   -1    0    0  501    0  0.00000000000E+00  0.00000000000E+00  0.88866511282E+01  0.88866515086E+01  0.26000000000E-02 0.  1.
         -2   -1    0    0    0  501 -0.00000000000E+00 -0.00000000000E+00 -0.11253164632E+02  0.11253164932E+02  0.26000000000E-02 0. -1.
       1023    2    1    2    0    0  0.00000000000E+00  0.00000000000E+00 -0.23665135037E+01  0.20139816441E+02  0.20000295501E+02 0.  0.
        -11    1    3    3    0    0  0.81182896344E+01 -0.58392028323E+01 -0.11770118057E+01  0.10069174413E+02  0.51100000000E-03 0. -1.
         11    1    3    3    0    0 -0.81182896344E+01  0.58392028323E+01 -0.11895016980E+01  0.10070642028E+02  0.51100000000E-03 0.  1.
<mgrwt>
<rscale>  0 0.20000296E+02</rscale>
<asrwt>0</asrwt>
<pdfrwt beam="1">  1        2 0.13671771E-02 0.20000296E+02</pdfrwt>
<pdfrwt beam="2">  1       -2 0.17312562E-02 0.20000296E+02</pdfrwt>
<totfact> 0.39122509E+06</totfact>
</mgrwt>
</event>
<event>
 5    1  0.4046313E-006  0.2000023E+02  0.7818608E-02  0.1745323E+00
          2   -1    0    0  501    0  0.00000000000E+00  0.00000000000E+00  0.10737164340E+03  0.10737164343E+03  0.26000000000E-02 0.  1.
         -2   -1    0    0    0  501 -0.00000000000E+00 -0.00000000000E+00 -0.93136444079E+00  0.93136806987E+00  0.26000000000E-02 0. -1.
       1023    2    1    2    0    0  0.00000000000E+00  0.00000000000E+00  0.10644027895E+03  0.10830301150E+03  0.20000232882E+02 0.  0.
        -11    1    3    3    0    0  0.88434939218E+01 -0.46684930836E+01  0.53161778108E+02  0.54094148152E+02  0.51100000000E-03 0. -1.
         11    1    3    3    0    0 -0.88434939218E+01  0.46684930836E+01  0.53278500846E+02  0.54208863344E+02  0.51100000000E-03 0.  1.
<mgrwt>
<rscale>  0 0.20000233E+02</rscale>
<asrwt>0</asrwt>
<pdfrwt beam="1">  1        2 0.16518706E-01 0.20000233E+02</pdfrwt>
<pdfrwt beam="2">  1       -2 0.14328720E-03 0.20000233E+02</pdfrwt>
<totfact> 0.53630598E+06</totfact>
</mgrwt>
</event>
<event>
 5    1  0.4046313E-006  0.2000013E+02  0.7818608E-02  0.1745325E+00
         -2   -1    0    0    0  501 -0.00000000000E+00  0.00000000000E+00  0.81380781603E+02  0.81380781644E+02  0.26000000000E-02 0. -1.
          2   -1    0    0  501    0  0.00000000000E+00 -0.00000000000E+00 -0.12288061130E+01  0.12288088636E+01  0.26000000000E-02 0.  1.
       1023    2    1    2    0    0  0.00000000000E+00  0.00000000000E+00  0.80151975490E+02  0.82609590508E+02  0.20000131724E+02 0.  0.
        -11    1    3    3    0    0 -0.71387054116E+00  0.99745354136E+01  0.39998811715E+02  0.41229915192E+02  0.51100000000E-03 0.  1.
         11    1    3    3    0    0  0.71387054116E+00 -0.99745354136E+01  0.40153163775E+02  0.41379675316E+02  0.51100000000E-03 0. -1.
<mgrwt>
<rscale>  0 0.20000132E+02</rscale>
<asrwt>0</asrwt>
<pdfrwt beam="2">  1        2 0.18904728E-03 0.20000132E+02</pdfrwt>
<pdfrwt beam="1">  1       -2 0.12520122E-01 0.20000132E+02</pdfrwt>
<totfact> 0.31147017E+06</totfact>
</mgrwt>
</event>
<event>
 5    1  0.4046313E-006  0.2000043E+02  0.7818608E-02  0.1745319E+00
          2   -1    0    0  501    0  0.00000000000E+00  0.00000000000E+00  0.96061247943E+01  0.96061251462E+01  0.26000000000E-02 0. -1.
         -2   -1    0    0    0  501 -0.00000000000E+00 -0.00000000000E+00 -0.10410474700E+02  0.10410475024E+02  0.26000000000E-02 0.  1.
       1023    2    1    2    0    0  0.00000000000E+00  0.00000000000E+00 -0.80434990543E+00  0.20016600171E+02  0.20000432586E+02 0.  0.
        -11    1    3    3    0    0  0.86444164563E+01  0.50277606786E+01 -0.40568959327E+00  0.10008441318E+02  0.51100000000E-03 0. -1.
         11    1    3    3    0    0 -0.86444164563E+01 -0.50277606786E+01 -0.39866031217E+00  0.10008158852E+02  0.51100000000E-03 0.  1.
<mgrwt>
<rscale>  0 0.20000433E+02</rscale>
<asrwt>0</asrwt>
<pdfrwt beam="1">  1        2 0.14778654E-02 0.20000433E+02</pdfrwt>
<pdfrwt beam="2">  1       -2 0.16016115E-02 0.20000433E+02</pdfrwt>
<totfact> 0.39345289E+06</totfact>
</mgrwt>
</event>
<event>
 5    1  0.4046313E-006  0.2000185E+02  0.7818608E-02  0.1745291E+00
          2   -1    0    0  501    0  0.00000000000E+00  0.00000000000E+00  0.11192251232E+01  0.11192281432E+01  0.26000000000E-02 0. -1.
         -2   -1    0    0    0  501 -0.00000000000E+00 -0.00000000000E+00 -0.89363970354E+02  0.89363970392E+02  0.26000000000E-02 0.  1.
       1023    2    1    2    0    0  0.00000000000E+00  0.00000000000E+00 -0.88244745231E+02  0.90483198535E+02  0.20001853821E+02 0.  0.
        -11    1    3    3    0    0 -0.48076768601E+01 -0.87695319332E+01 -0.44079055140E+02  0.45199353418E+02  0.51100000000E-03 0. -1.
         11    1    3    3    0    0  0.48076768601E+01  0.87695319332E+01 -0.44165690091E+02  0.45283845117E+02  0.51100000000E-03 0.  1.
<mgrwt>
<rscale>  0 0.20001854E+02</rscale>
<asrwt>0</asrwt>
<pdfrwt beam="1">  1        2 0.17218879E-03 0.20001854E+02</pdfrwt>
<pdfrwt beam="2">  1       -2 0.13748298E-01 0.20001854E+02</pdfrwt>
<totfact> 0.30517749E+06</totfact>
</mgrwt>
</event>
<event>
 5    1  0.4046313E-006  0.2000092E+02  0.7818608E-02  0.1745310E+00
          2   -1    0    0  501    0  0.00000000000E+00  0.00000000000E+00  0.88846140361E+01  0.88846144166E+01  0.26000000000E-02 0.  1.
         -2   -1    0    0    0  501 -0.00000000000E+00 -0.00000000000E+00 -0.11256443472E+02  0.11256443773E+02  0.26000000000E-02 0. -1.
       1023    2    1    2    0    0  0.00000000000E+00  0.00000000000E+00 -0.23718294363E+01  0.20141058189E+02  0.20000916232E+02 0.  0.
        -11    1    3    3    0    0 -0.58535577621E+01 -0.81082641285E+01 -0.11528730196E+01  0.10066638074E+02  0.51100000000E-03 0.  1.
         11    1    3    3    0    0  0.58535577621E+01  0.81082641285E+01 -0.12189564166E+01  0.10074420115E+02  0.51100000000E-03 0. -1.
<mgrwt>
<rscale>  0 0.20000916E+02</rscale>
<asrwt>0</asrwt>
<pdfrwt beam="1">  1        2 0.13668638E-02 0.20000916E+02</pdfrwt>
<pdfrwt beam="2">  1       -2 0.17317606E-02 0.20000916E+02</pdfrwt>
<totfact> 0.39119071E+06</totfact>
</mgrwt>
</event>
<event>
 5    1  0.4046313E-006  0.2000021E+02  0.7818608E-02  0.1745324E+00
         -2   -1    0    0    0  501 -0.00000000000E+00  0.00000000000E+00  0.57143151748E+01  0.57143157663E+01  0.26000000000E-02 0.  1.
          2   -1    0    0  501    0  0.00000000000E+00 -0.00000000000E+00 -0.17500268673E+02  0.17500268866E+02  0.26000000000E-02 0. -1.
       1023    2    1    2    0    0  0.00000000000E+00  0.00000000000E+00 -0.11785953498E+02  0.23214584632E+02  0.20000205994E+02 0.  0.
        -11    1    3    3    0    0 -0.99999618016E+01  0.51242660496E-01 -0.58766505655E+01  0.11599003577E+02  0.51100000000E-03 0.  1.
         11    1    3    3    0    0  0.99999618016E+01 -0.51242660496E-01 -0.59093029324E+01  0.11615581055E+02  0.51100000000E-03 0. -1.
<mgrwt>
<rscale>  0 0.20000206E+02</rscale>
<asrwt>0</asrwt>
<pdfrwt beam="2">  1        2 0.26923490E-02 0.20000206E+02</pdfrwt>
<pdfrwt beam="1">  1       -2 0.87912549E-03 0.20000206E+02</pdfrwt>
<totfact> 0.41201448E+06</totfact>
</mgrwt>
</event>
<event>
 5    1  0.4046313E-006  0.2000018E+02  0.7818608E-02  0.1745324E+00
         -2   -1    0    0    0  501 -0.00000000000E+00  0.00000000000E+00  0.60254595680E+02  0.60254595736E+02  0.26000000000E-02 0. -1.
          2   -1    0    0  501    0  0.00000000000E+00 -0.00000000000E+00 -0.16596536345E+01  0.16596556711E+01  0.26000000000E-02 0.  1.
       1023    2    1    2    0    0  0.00000000000E+00  0.00000000000E+00  0.58594942046E+02  0.61914251408E+02  0.20000182349E+02 0.  0.
        -11    1    3    3    0    0 -0.83560899811E+01  0.54933106350E+01  0.29193789436E+02  0.30859002632E+02  0.51100000000E-03 0.  1.
         11    1    3    3    0    0  0.83560899811E+01 -0.54933106350E+01  0.29401152609E+02  0.31055248776E+02  0.51100000000E-03 0. -1.
<mgrwt>
<rscale>  0 0.20000182E+02</rscale>
<asrwt>0</asrwt>
<pdfrwt beam="2">  1        2 0.25533146E-03 0.20000182E+02</pdfrwt>
<pdfrwt beam="1">  1       -2 0.92699391E-02 0.20000182E+02</pdfrwt>
<totfact> 0.32936271E+06</totfact>
</mgrwt>
</event>
<event>
 5    1  0.4046313E-006  0.2000040E+02  0.7818608E-02  0.1745320E+00
         -2   -1    0    0    0  501 -0.00000000000E+00  0.00000000000E+00  0.12671768127E+01  0.12671794800E+01  0.26000000000E-02 0.  1.
          2   -1    0    0  501    0  0.00000000000E+00 -0.00000000000E+00 -0.78918619715E+02  0.78918619757E+02  0.26000000000E-02 0. -1.
       1023    2    1    2    0    0  0.00000000000E+00  0.00000000000E+00 -0.77651442902E+02  0.80185799237E+02  0.20000395361E+02 0.  0.
        -11    1    3    3    0    0 -0.88123980091E+01  0.47269515876E+01 -0.38669238486E+02  0.39941362462E+02  0.51100000000E-03 0.  1.
         11    1    3    3    0    0  0.88123980091E+01 -0.47269515876E+01 -0.38982204416E+02  0.40244436776E+02  0.51100000000E-03 0. -1.
<mgrwt>
<rscale>  0 0.20000395E+02</rscale>
<asrwt>0</asrwt>
<pdfrwt beam="2">  1        2 0.12141322E-01 0.20000395E+02</pdfrwt>
<pdfrwt beam="1">  1       -2 0.19495055E-03 0.20000395E+02</pdfrwt>
<totfact> 0.50160838E+06</totfact>
</mgrwt>
</event>
<event>
 4    1  0.4046313E-006  0.2025316E+02  0.7818608E-02  0.1740340E+00
          2   -1    0    0  501    0  0.00000000000E+00  0.00000000000E+00  0.11742430960E+02  0.11742431248E+02  0.26000000000E-02 0.  1.
         -2   -1    0    0    0  501 -0.00000000000E+00 -0.00000000000E+00 -0.87330850517E+01  0.87330854387E+01  0.26000000000E-02 0. -1.
        -11    1    1    2    0    0 -0.17461016708E+01 -0.99527199631E+01  0.21769161896E+01  0.10336559876E+02  0.51100000000E-03 0.  1.
         11    1    1    2    0    0  0.17461016708E+01  0.99527199631E+01  0.83242971838E+00  0.10138956810E+02  0.51100000000E-03 0. -1.
<mgrwt>
<rscale>  0 0.20253163E+02</rscale>
<asrwt>0</asrwt>
<pdfrwt beam="1">  1        2 0.18065279E-02 0.20253163E+02</pdfrwt>
<pdfrwt beam="2">  1       -2 0.13435516E-02 0.20253163E+02</pdfrwt>
<totfact> 0.38805615E+06</totfact>
</mgrwt>
</event>
<event>
 5    1  0.4046313E-006  0.2000240E+02  0.7818608E-02  0.1745280E+00
         -2   -1    0    0    0  501 -0.00000000000E+00  0.00000000000E+00  0.67315090273E+02  0.67315090323E+02  0.26000000000E-02 0. -1.
          2   -1    0    0  501    0  0.00000000000E+00 -0.00000000000E+00 -0.14859064724E+01  0.14859087471E+01  0.26000000000E-02 0.  1.
       1023    2    1    2    0    0  0.00000000000E+00  0.00000000000E+00  0.65829183801E+02  0.68800999070E+02  0.20002400686E+02 0.  0.
        -11    1    3    3    0    0  0.83057126474E+01 -0.55706181465E+01  0.33209658335E+02  0.34682820764E+02  0.51100000000E-03 0. -1.
         11    1    3    3    0    0 -0.83057126474E+01  0.55706181465E+01  0.32619525465E+02  0.34118178307E+02  0.51100000000E-03 0.  1.
<mgrwt>
<rscale>  0 0.20002401E+02</rscale>
<asrwt>0</asrwt>
<pdfrwt beam="2">  1        2 0.22860122E-03 0.20002401E+02</pdfrwt>
<pdfrwt beam="1">  1       -2 0.10356166E-01 0.20002401E+02</pdfrwt>
<totfact> 0.32304666E+06</totfact>
</mgrwt>
</event>
<event>
 5    1  0.4046313E-006  0.2000675E+02  0.7818608E-02  0.1745194E+00
         -2   -1    0    0    0  501 -0.00000000000E+00  0.00000000000E+00  0.10507454855E+01  0.10507487023E+01  0.26000000000E-02 0.  1.
          2   -1    0    0  501    0  0.00000000000E+00 -0.00000000000E+00 -0.95234630106E+02  0.95234630142E+02  0.26000000000E-02 0. -1.
       1023    2    1    2    0    0  0.00000000000E+00  0.00000000000E+00 -0.94183884621E+02  0.96285378844E+02  0.20006750283E+02 0.  0.
        -11    1    3    3    0    0  0.81183077747E+01  0.58409259526E+01 -0.48103477938E+02  0.49132147593E+02  0.51100000000E-03 0.  1.
         11    1    3    3    0    0 -0.81183077747E+01 -0.58409259526E+01 -0.46080406682E+02  0.47153231251E+02  0.51100000000E-03 0. -1.
<mgrwt>
<rscale>  0 0.20006750E+02</rscale>
<asrwt>0</asrwt>
<pdfrwt beam="2">  1        2 0.14651475E-01 0.20006750E+02</pdfrwt>
<pdfrwt beam="1">  1       -2 0.16165348E-03 0.20006750E+02</pdfrwt>
<totfact> 0.52144895E+06</totfact>
</mgrwt>
</event>
<event>
 5    1  0.4046313E-006  0.2000209E+02  0.7818608E-02  0.1745287E+00
          2   -1    0    0  501    0  0.00000000000E+00  0.00000000000E+00  0.44970929656E+01  0.44970937172E+01  0.26000000000E-02 0.  1.
         -2   -1    0    0    0  501 -0.00000000000E+00 -0.00000000000E+00 -0.22241228685E+02  0.22241228837E+02  0.26000000000E-02 0. -1.
       1023    2    1    2    0    0  0.00000000000E+00  0.00000000000E+00 -0.17744135720E+02  0.26738322555E+02  0.20002088406E+02 0.  0.
        -11    1    3    3    0    0 -0.99602171405E+01  0.90257399126E+00 -0.88481701667E+01  0.13353302245E+02  0.51100000000E-03 0.  1.
         11    1    3    3    0    0  0.99602171405E+01 -0.90257399126E+00 -0.88959655531E+01  0.13385020309E+02  0.51100000000E-03 0. -1.
<mgrwt>
<rscale>  0 0.20002088E+02</rscale>
<asrwt>0</asrwt>
<pdfrwt beam="1">  1        2 0.69186054E-03 0.20002088E+02</pdfrwt>
<pdfrwt beam="2">  1       -2 0.34217275E-02 0.20002088E+02</pdfrwt>
<totfact> 0.37087899E+06</totfact>
</mgrwt>
</event>
<event>
 5    1  0.4046313E-006  0.2000033E+02  0.7818608E-02  0.1745322E+00
          2   -1    0    0  501    0  0.00000000000E+00  0.00000000000E+00  0.47937090842E+02  0.47937090913E+02  0.26000000000E-02 0.  1.
         -2   -1    0    0    0  501 -0.00000000000E+00 -0.00000000000E+00 -0.20861349072E+01  0.20861365274E+01  0.26000000000E-02 0. -1.
       1023    2    1    2    0    0  0.00000000000E+00  0.00000000000E+00  0.45850955935E+02  0.50023227440E+02  0.20000328081E+02 0.  0.
        -11    1    3    3    0    0  0.20623113812E+00 -0.99978929234E+01  0.23059851027E+02  0.25134779168E+02  0.51100000000E-03 0. -1.
         11    1    3    3    0    0 -0.20623113812E+00  0.99978929234E+01  0.22791104909E+02  0.24888448272E+02  0.51100000000E-03 0.  1.
<mgrwt>
<rscale>  0 0.20000328E+02</rscale>
<asrwt>0</asrwt>
<pdfrwt beam="1">  1        2 0.73749374E-02 0.20000328E+02</pdfrwt>
<pdfrwt beam="2">  1       -2 0.32094395E-03 0.20000328E+02</pdfrwt>
<totfact> 0.46036824E+06</totfact>
</mgrwt>
</event>
<event>
 5    1  0.4046313E-006  0.2001064E+02  0.7818608E-02  0.1745117E+00
          2   -1    0    0  501    0  0.00000000000E+00  0.00000000000E+00  0.97948945392E+00  0.97949290469E+00  0.26000000000E-02 0. -1.
         -2   -1    0    0    0  501 -0.00000000000E+00 -0.00000000000E+00 -0.10220244016E+03  0.10220244020E+03  0.26000000000E-02 0.  1.
       1023    2    1    2    0    0  0.00000000000E+00  0.00000000000E+00 -0.10122295071E+03  0.10318193310E+03  0.20010636376E+02 0.  0.
        -11    1    3    3    0    0 -0.32508516886E+01  0.94616434907E+01 -0.49966260422E+02  0.50958001482E+02  0.51100000000E-03 0.  1.
         11    1    3    3    0    0  0.32508516886E+01 -0.94616434907E+01 -0.51256690288E+02  0.52223931619E+02  0.51100000000E-03 0. -1.
<mgrwt>
<rscale>  0 0.20010636E+02</rscale>
<asrwt>0</asrwt>
<pdfrwt beam="1">  1        2 0.15069103E-03 0.20010636E+02</pdfrwt>
<pdfrwt beam="2">  1       -2 0.15723444E-01 0.20010636E+02</pdfrwt>
<totfact> 0.29537274E+06</totfact>
</mgrwt>
</event>
<event>
 5    1  0.4046313E-006  0.2000147E+02  0.7818608E-02  0.1745299E+00
         -2   -1    0    0    0  501 -0.00000000000E+00  0.00000000000E+00  0.63255357834E+01  0.63255363178E+01  0.26000000000E-02 0. -1.
          2   -1    0    0  501    0  0.00000000000E+00 -0.00000000000E+00 -0.15811260498E+02  0.15811260712E+02  0.26000000000E-02 0.  1.
       1023    2    1    2    0    0  0.00000000000E+00  0.00000000000E+00 -0.94857247148E+01  0.22136797030E+02  0.20001470180E+02 0.  0.
        -11    1    3    3    0    0  0.63454520161E+01  0.77296518029E+01 -0.46883743086E+01  0.11045050122E+02  0.51100000000E-03 0.  1.
         11    1    3    3    0    0 -0.63454520161E+01 -0.77296518029E+01 -0.47973504062E+01  0.11091746908E+02  0.51100000000E-03 0. -1.
<mgrwt>
<rscale>  0 0.20001470E+02</rscale>
<asrwt>0</asrwt>
<pdfrwt beam="2">  1        2 0.24325017E-02 0.20001470E+02</pdfrwt>
<pdfrwt beam="1">  1       -2 0.97315941E-03 0.20001470E+02</pdfrwt>
<totfact> 0.40854122E+06</totfact>
</mgrwt>
</event>
<event>
 5    1  0.4046313E-006  0.2000033E+02  0.7818608E-02  0.1745322E+00
         -2   -1    0    0    0  501 -0.00000000000E+00  0.00000000000E+00  0.41308571372E+01  0.41308579554E+01  0.26000000000E-02 0.  1.
          2   -1    0    0  501    0  0.00000000000E+00 -0.00000000000E+00 -0.24208843193E+02  0.24208843333E+02  0.26000000000E-02 0. -1.
       1023    2    1    2    0    0  0.00000000000E+00  0.00000000000E+00 -0.20077986056E+02  0.28339701288E+02  0.20000328623E+02 0.  0.
        -11    1    3    3    0    0 -0.38623311604E+01  0.92240333255E+01 -0.99627766037E+01  0.14115853169E+02  0.51100000000E-03 0.  1.
         11    1    3    3    0    0  0.38623311604E+01 -0.92240333255E+01 -0.10115209453E+02  0.14223848119E+02  0.51100000000E-03 0. -1.
<mgrwt>
<rscale>  0 0.20000329E+02</rscale>
<asrwt>0</asrwt>
<pdfrwt beam="2">  1        2 0.37244374E-02 0.20000329E+02</pdfrwt>
<pdfrwt beam="1">  1       -2 0.63551657E-03 0.20000329E+02</pdfrwt>
<totfact> 0.42420910E+06</totfact>
</mgrwt>
</event>
<event>
 5    1  0.4046313E-006  0.2000060E+02  0.7818608E-02  0.1745316E+00
         -2   -1    0    0    0  501 -0.00000000000E+00  0.00000000000E+00  0.11566116812E+03  0.11566116815E+03  0.26000000000E-02 0.  1.
          2   -1    0    0  501    0  0.00000000000E+00 -0.00000000000E+00 -0.86464428792E+00  0.86464819704E+00  0.26000000000E-02 0. -1.
       1023    2    1    2    0    0  0.00000000000E+00  0.00000000000E+00  0.11479652383E+03  0.11652581634E+03  0.20000599772E+02 0.  0.
        -11    1    3    3    0    0 -0.99980924425E+01 -0.19830983735E+00  0.56993849563E+02  0.57864497471E+02  0.51100000000E-03 0. -1.
         11    1    3    3    0    0  0.99980924425E+01  0.19830983735E+00  0.57802674265E+02  0.58661318872E+02  0.51100000000E-03 0.  1.
<mgrwt>
<rscale>  0 0.20000600E+02</rscale>
<asrwt>0</asrwt>
<pdfrwt beam="2">  1        2 0.13302259E-03 0.20000600E+02</pdfrwt>
<pdfrwt beam="1">  1       -2 0.17794014E-01 0.20000600E+02</pdfrwt>
<totfact> 0.28630296E+06</totfact>
</mgrwt>
</event>
<event>
 5    1  0.4046313E-006  0.2000111E+02  0.7818608E-02  0.1745306E+00
          2   -1    0    0  501    0  0.00000000000E+00  0.00000000000E+00  0.42876048863E+01  0.42876056747E+01  0.26000000000E-02 0.  1.
         -2   -1    0    0    0  501 -0.00000000000E+00 -0.00000000000E+00 -0.23325622635E+02  0.23325622780E+02  0.26000000000E-02 0. -1.
       1023    2    1    2    0    0  0.00000000000E+00  0.00000000000E+00 -0.19038017749E+02  0.27613228455E+02  0.20001106617E+02 0.  0.
        -11    1    3    3    0    0  0.99384674231E+01  0.11122318718E+01 -0.94782463952E+01  0.13778510422E+02  0.51100000000E-03 0. -1.
         11    1    3    3    0    0 -0.99384674231E+01 -0.11122318718E+01 -0.95597713539E+01  0.13834718033E+02  0.51100000000E-03 0.  1.
<mgrwt>
<rscale>  0 0.20001107E+02</rscale>
<asrwt>0</asrwt>
<pdfrwt beam="1">  1        2 0.65963161E-03 0.20001107E+02</pdfrwt>
<pdfrwt beam="2">  1       -2 0.35885573E-02 0.20001107E+02</pdfrwt>
<totfact> 0.36936319E+06</totfact>
</mgrwt>
</event>
<event>
 5    1  0.4588104E-006  0.2000126E+02  0.7818608E-02  0.1745303E+00
          2   -1    0    0  501    0  0.00000000000E+00  0.00000000000E+00  0.10780755904E+03  0.10780755907E+03  0.26000000000E-02 0. -1.
         -2   -1    0    0    0  501 -0.00000000000E+00 -0.00000000000E+00 -0.92769407184E+00  0.92769771528E+00  0.26000000000E-02 0.  1.
       1023    2    1    2    0    0  0.00000000000E+00  0.00000000000E+00  0.10687986496E+03  0.10873525678E+03  0.20001263281E+02 0.  0.
        -11    1    3    3    0    0 -0.11825779032E+01 -0.99304039077E+01  0.53629871251E+02  0.54554326161E+02  0.51100000000E-03 0. -1.
         11    1    3    3    0    0  0.11825779032E+01  0.99304039077E+01  0.53249993714E+02  0.54180930622E+02  0.51100000000E-03 0.  1.
<mgrwt>
<rscale>  0 0.20001263E+02</rscale>
<asrwt>0</asrwt>
<pdfrwt beam="1">  1        2 0.16585787E-01 0.20001263E+02</pdfrwt>
<pdfrwt beam="2">  1       -2 0.14272238E-03 0.20001263E+02</pdfrwt>
<totfact> 0.53675666E+06</totfact>
</mgrwt>
</event>
<event>
 5    1  0.4077617E-006  0.2000039E+02  0.7818608E-02  0.1745320E+00
         -2   -1    0    0    0  501 -0.00000000000E+00  0.00000000000E+00  0.98359603332E+00  0.98359946968E+00  0.26000000000E-02 0.  1.
          2   -1    0    0  501    0  0.00000000000E+00 -0.00000000000E+00 -0.10167150341E+03  0.10167150344E+03  0.26000000000E-02 0. -1.
       1023    2    1    2    0    0  0.00000000000E+00  0.00000000000E+00 -0.10068790737E+03  0.10265510291E+03  0.20000386550E+02 0.  0.
        -11    1    3    3    0    0 -0.91918029664E+01  0.39387099273E+01 -0.50520833992E+02  0.51501042176E+02  0.51100000000E-03 0. -1.
         11    1    3    3    0    0  0.91918029664E+01 -0.39387099273E+01 -0.50167073381E+02  0.51154060733E+02  0.51100000000E-03 0.  1.
<mgrwt>
<rscale>  0 0.20000387E+02</rscale>
<asrwt>0</asrwt>
<pdfrwt beam="2">  1        2 0.15641762E-01 0.20000387E+02</pdfrwt>
<pdfrwt beam="1">  1       -2 0.15132281E-03 0.20000387E+02</pdfrwt>
<totfact> 0.52955427E+06</totfact>
</mgrwt>
</event>
<event>
 5    1  0.4046313E-006  0.2000543E+02  0.7818608E-02  0.1745220E+00
          2   -1    0    0  501    0  0.00000000000E+00  0.00000000000E+00  0.25513473006E+02  0.25513473139E+02  0.26000000000E-02 0.  1.
         -2   -1    0    0    0  501 -0.00000000000E+00 -0.00000000000E+00 -0.39216253646E+01  0.39216262265E+01  0.26000000000E-02 0. -1.
       1023    2    1    2    0    0  0.00000000000E+00  0.00000000000E+00  0.21591847641E+02  0.29435099365E+02  0.20005429015E+02 0.  0.
        -11    1    3    3    0    0  0.47865294815E+01 -0.87831333165E+01  0.10797963396E+02  0.14719045794E+02  0.51100000000E-03 0. -1.
         11    1    3    3    0    0 -0.47865294815E+01  0.87831333165E+01  0.10793884245E+02  0.14716053571E+02  0.51100000000E-03 0.  1.
<mgrwt>
<rscale>  0 0.20005429E+02</rscale>
<asrwt>0</asrwt>
<pdfrwt beam="1">  1        2 0.39251497E-02 0.20005429E+02</pdfrwt>
<pdfrwt beam="2">  1       -2 0.60332706E-03 0.20005429E+02</pdfrwt>
<totfact> 0.42616933E+06</totfact>
</mgrwt>
</event>
<event>
 5    1  0.4046313E-006  0.2001106E+02  0.7818608E-02  0.1745108E+00
          2   -1    0    0  501    0  0.00000000000E+00  0.00000000000E+00  0.26518645649E+02  0.26518645777E+02  0.26000000000E-02 0. -1.
         -2   -1    0    0    0  501 -0.00000000000E+00 -0.00000000000E+00 -0.37751023067E+01  0.37751032021E+01  0.26000000000E-02 0.  1.
       1023    2    1    2    0    0  0.00000000000E+00  0.00000000000E+00  0.22743543343E+02  0.30293748979E+02  0.20011058528E+02 0.  0.
        -11    1    3    3    0    0  0.29696381889E+01 -0.95545447663E+01  0.11295492102E+02  0.15089606316E+02  0.51100000000E-03 0.  1.
         11    1    3    3    0    0 -0.29696381889E+01  0.95545447663E+01  0.11448051240E+02  0.15204142663E+02  0.51100000000E-03 0. -1.
<mgrwt>
<rscale>  0 0.20011059E+02</rscale>
<asrwt>0</asrwt>
<pdfrwt beam="1">  1        2 0.40797917E-02 0.20011059E+02</pdfrwt>
<pdfrwt beam="2">  1       -2 0.58078505E-03 0.20011059E+02</pdfrwt>
<totfact> 0.42756990E+06</totfact>
</mgrwt>
</event>
<event>
 5    1  0.4046313E-006  0.2000025E+02  0.7818608E-02  0.1745323E+00
         -2   -1    0    0    0  501 -0.00000000000E+00  0.00000000000E+00  0.18744034279E+01  0.18744052311E+01  0.26000000000E-02 0.  1.
          2   -1    0    0  501    0  0.00000000000E+00 -0.00000000000E+00 -0.53351609084E+02  0.53351609147E+02  0.26000000000E-02 0. -1.
       1023    2    1    2    0    0  0.00000000000E+00  0.00000000000E+00 -0.51477205656E+02  0.55226014378E+02  0.20000249048E+02 0.  0.
        -11    1    3    3    0    0  0.33193175676E+01  0.94331659247E+01 -0.25734947234E+02  0.27609599742E+02  0.51100000000E-03 0. -1.
         11    1    3    3    0    0 -0.33193175676E+01 -0.94331659247E+01 -0.25742258421E+02  0.27616414636E+02  0.51100000000E-03 0.  1.
<mgrwt>
<rscale>  0 0.20000249E+02</rscale>
<asrwt>0</asrwt>
<pdfrwt beam="2">  1        2 0.82079389E-02 0.20000249E+02</pdfrwt>
<pdfrwt beam="1">  1       -2 0.28836994E-03 0.20000249E+02</pdfrwt>
<totfact> 0.46791821E+06</totfact>
</mgrwt>
</event>
<event>
 5    1  0.4046313E-006  0.2000045E+02  0.7818608E-02  0.1745319E+00
         -2   -1    0    0    0  501 -0.00000000000E+00  0.00000000000E+00  0.16966362404E+01  0.16966382326E+01  0.26000000000E-02 0.  1.
          2   -1    0    0  501    0  0.00000000000E+00 -0.00000000000E+00 -0.58942766165E+02  0.58942766222E+02  0.26000000000E-02 0. -1.
       1023    2    1    2    0    0  0.00000000000E+00  0.00000000000E+00 -0.57246129925E+02  0.60639404455E+02  0.20000449528E+02 0.  0.
        -11    1    3    3    0    0 -0.25081675192E+01  0.96804325740E+01 -0.28462175696E+02  0.30167816042E+02  0.51100000000E-03 0. -1.
         11    1    3    3    0    0  0.25081675192E+01 -0.96804325740E+01 -0.28783954229E+02  0.30471588413E+02  0.51100000000E-03 0.  1.
<mgrwt>
<rscale>  0 0.20000450E+02</rscale>
<asrwt>0</asrwt>
<pdfrwt beam="2">  1        2 0.90681165E-02 0.20000450E+02</pdfrwt>
<pdfrwt beam="1">  1       -2 0.26102116E-03 0.20000450E+02</pdfrwt>
<totfact> 0.47552884E+06</totfact>
</mgrwt>
</event>
<event>
 5    1  0.4046313E-006  0.2000220E+02  0.7818608E-02  0.1745284E+00
          2   -1    0    0  501    0  0.00000000000E+00  0.00000000000E+00  0.36984759740E+02  0.36984759831E+02  0.26000000000E-02 0.  1.
         -2   -1    0    0    0  501 -0.00000000000E+00 -0.00000000000E+00 -0.27044105752E+01  0.27044118250E+01  0.26000000000E-02 0. -1.
       1023    2    1    2    0    0  0.00000000000E+00  0.00000000000E+00  0.34280349164E+02  0.39689171656E+02  0.20002200077E+02 0.  0.
        -11    1    3    3    0    0 -0.92135508194E+01 -0.38899523545E+01  0.17194648918E+02  0.19891636426E+02  0.51100000000E-03 0. -1.
         11    1    3    3    0    0  0.92135508194E+01  0.38899523545E+01  0.17085700246E+02  0.19797535230E+02  0.51100000000E-03 0.  1.
<mgrwt>
<rscale>  0 0.20002200E+02</rscale>
<asrwt>0</asrwt>
<pdfrwt beam="1">  1        2 0.56899626E-02 0.20002200E+02</pdfrwt>
<pdfrwt beam="2">  1       -2 0.41606331E-03 0.20002200E+02</pdfrwt>
<totfact> 0.44437786E+06</totfact>
</mgrwt>
</event>
<event>
 4    1  0.4046313E-006  0.2042472E+02  0.7818608E-02  0.1737012E+00
         -2   -1    0    0    0  501 -0.00000000000E+00  0.00000000000E+00  0.10991521320E+02  0.10991521628E+02  0.26000000000E-02 0. -1.
          2   -1    0    0  501    0  0.00000000000E+00 -0.00000000000E+00 -0.94884305546E+01  0.94884309109E+01  0.26000000000E-02 0.  1.
        -11    1    1    2    0    0  0.20995113842E+01  0.99937332149E+01  0.85000282284E+00  0.10247202383E+02  0.51100000000E-03 0.  1.
         11    1    1    2    0    0 -0.20995113842E+01 -0.99937332149E+01  0.65308794279E+00  0.10232750155E+02  0.51100000000E-03 0. -1.
<mgrwt>
<rscale>  0 0.20424720E+02</rscale>
<asrwt>0</asrwt>
<pdfrwt beam="2">  1        2 0.14597586E-02 0.20424720E+02</pdfrwt>
<pdfrwt beam="1">  1       -2 0.16910033E-02 0.20424720E+02</pdfrwt>
<totfact> 0.37461545E+06</totfact>
</mgrwt>
</event>
<event>
 5    1  0.4046313E-006  0.2000046E+02  0.7818608E-02  0.1745319E+00
         -2   -1    0    0    0  501 -0.00000000000E+00  0.00000000000E+00  0.68134678112E+01  0.68134683073E+01  0.26000000000E-02 0.  1.
          2   -1    0    0  501    0  0.00000000000E+00 -0.00000000000E+00 -0.14677481892E+02  0.14677482123E+02  0.26000000000E-02 0. -1.
       1023    2    1    2    0    0  0.00000000000E+00  0.00000000000E+00 -0.78640140811E+01  0.21490950430E+02  0.20000455818E+02 0.  0.
        -11    1    3    3    0    0 -0.69798251418E+01  0.71614522068E+01 -0.39167636894E+01  0.10739897336E+02  0.51100000000E-03 0.  1.
         11    1    3    3    0    0  0.69798251418E+01 -0.71614522068E+01 -0.39472503917E+01  0.10751053094E+02  0.51100000000E-03 0. -1.
<mgrwt>
<rscale>  0 0.20000456E+02</rscale>
<asrwt>0</asrwt>
<pdfrwt beam="2">  1        2 0.22580742E-02 0.20000456E+02</pdfrwt>
<pdfrwt beam="1">  1       -2 0.10482259E-02 0.20000456E+02</pdfrwt>
<totfact> 0.40617839E+06</totfact>
</mgrwt>
</event>
<event>
 5    1  0.4046313E-006  0.2000059E+02  0.7818608E-02  0.1745316E+00
         -2   -1    0    0    0  501 -0.00000000000E+00  0.00000000000E+00  0.75040618756E+02  0.75040618801E+02  0.26000000000E-02 0. -1.
          2   -1    0    0  501    0  0.00000000000E+00 -0.00000000000E+00 -0.13326886051E+01  0.13326911413E+01  0.26000000000E-02 0.  1.
       1023    2    1    2    0    0  0.00000000000E+00  0.00000000000E+00  0.73707930151E+02  0.76373309943E+02  0.20000587602E+02 0.  0.
        -11    1    3    3    0    0  0.75457760104E+01 -0.65625242282E+01  0.36931848316E+02  0.38261820137E+02  0.51100000000E-03 0.  1.
         11    1    3    3    0    0 -0.75457760104E+01  0.65625242282E+01  0.36776081835E+02  0.38111489806E+02  0.51100000000E-03 0. -1.
<mgrwt>
<rscale>  0 0.20000588E+02</rscale>
<asrwt>0</asrwt>
<pdfrwt beam="2">  1        2 0.20502923E-03 0.20000588E+02</pdfrwt>
<pdfrwt beam="1">  1       -2 0.11544710E-01 0.20000588E+02</pdfrwt>
<totfact> 0.31659244E+06</totfact>
</mgrwt>
</event>
<event>
 5    1  0.4046313E-006  0.2000050E+02  0.7818608E-02  0.1745318E+00
          2   -1    0    0  501    0  0.00000000000E+00  0.00000000000E+00  0.32463778103E+02  0.32463778207E+02  0.26000000000E-02 0.  1.
         -2   -1    0    0    0  501 -0.00000000000E+00 -0.00000000000E+00 -0.30805086950E+01  0.30805097922E+01  0.26000000000E-02 0. -1.
       1023    2    1    2    0    0  0.00000000000E+00  0.00000000000E+00  0.29383269408E+02  0.35544287999E+02  0.20000497201E+02 0.  0.
        -11    1    3    3    0    0  0.94954698619E+01 -0.31370388994E+01  0.14697489001E+02  0.17776983550E+02  0.51100000000E-03 0.  1.
         11    1    3    3    0    0 -0.94954698619E+01  0.31370388994E+01  0.14685780407E+02  0.17767304449E+02  0.51100000000E-03 0. -1.
<mgrwt>
<rscale>  0 0.20000497E+02</rscale>
<asrwt>0</asrwt>
<pdfrwt beam="1">  1        2 0.49944277E-02 0.20000497E+02</pdfrwt>
<pdfrwt beam="2">  1       -2 0.47392448E-03 0.20000497E+02</pdfrwt>
<totfact> 0.43757237E+06</totfact>
</mgrwt>
</event>
<event>
 5    1  0.4046313E-006  0.2000220E+02  0.7818608E-02  0.1745284E+00
          2   -1    0    0  501    0  0.00000000000E+00  0.00000000000E+00  0.11399344704E+03  0.11399344707E+03  0.26000000000E-02 0. -1.
         -2   -1    0    0    0  501 -0.00000000000E+00 -0.00000000000E+00 -0.87743424237E+00  0.87743809450E+00  0.26000000000E-02 0.  1.
       1023    2    1    2    0    0  0.00000000000E+00  0.00000000000E+00  0.11311601279E+03  0.11487088516E+03  0.20002197558E+02 0.  0.
        -11    1    3    3    0    0  0.65157439730E+01  0.75870075939E+01  0.56178245053E+02  0.57061482817E+02  0.51100000000E-03 0. -1.
         11    1    3    3    0    0 -0.65157439730E+01 -0.75870075939E+01  0.56937767740E+02  0.57809402343E+02  0.51100000000E-03 0.  1.
<mgrwt>
<rscale>  0 0.20002198E+02</rscale>
<asrwt>0</asrwt>
<pdfrwt beam="1">  1        2 0.17537447E-01 0.20002198E+02</pdfrwt>
<pdfrwt beam="2">  1       -2 0.13499023E-03 0.20002198E+02</pdfrwt>
<totfact> 0.54390017E+06</totfact>
</mgrwt>
</event>
<event>
 5    1  0.4046313E-006  0.2000027E+02  0.7818608E-02  0.1745323E+00
          2   -1    0    0  501    0  0.00000000000E+00  0.00000000000E+00  0.64461617235E+02  0.64461617287E+02  0.26000000000E-02 0. -1.
         -2   -1    0    0    0  501 -0.00000000000E+00 -0.00000000000E+00 -0.15513518371E+01  0.15513540159E+01  0.26000000000E-02 0.  1.
       1023    2    1    2    0    0  0.00000000000E+00  0.00000000000E+00  0.62910265398E+02  0.66012971303E+02  0.20000272194E+02 0.  0.
        -11    1    3    3    0    0  0.44864358095E+01 -0.89372314351E+01  0.31529649277E+02  0.33077499842E+02  0.51100000000E-03 0. -1.
         11    1    3    3    0    0 -0.44864358095E+01  0.89372314351E+01  0.31380616121E+02  0.32935471461E+02  0.51100000000E-03 0.  1.
<mgrwt>
<rscale>  0 0.20000272E+02</rscale>
<asrwt>0</asrwt>
<pdfrwt beam="1">  1        2 0.99171695E-02 0.20000272E+02</pdfrwt>
<pdfrwt beam="2">  1       -2 0.23866975E-03 0.20000272E+02</pdfrwt>
<totfact> 0.48291664E+06</totfact>
</mgrwt>
</event>
<event>
 5    1  0.4046313E-006  0.2000077E+02  0.7818608E-02  0.1745313E+00
          2   -1    0    0  501    0  0.00000000000E+00  0.00000000000E+00  0.14793775456E+01  0.14793798304E+01  0.26000000000E-02 0.  1.
         -2   -1    0    0    0  501 -0.00000000000E+00 -0.00000000000E+00 -0.67601160962E+02  0.67601161012E+02  0.26000000000E-02 0. -1.
       1023    2    1    2    0    0  0.00000000000E+00  0.00000000000E+00 -0.66121783416E+02  0.69080540842E+02  0.20000772008E+02 0.  0.
        -11    1    3    3    0    0  0.91003031087E+01 -0.41457238536E+01 -0.32812378670E+02  0.34302401333E+02  0.51100000000E-03 0. -1.
         11    1    3    3    0    0 -0.91003031087E+01  0.41457238536E+01 -0.33309404746E+02  0.34778139509E+02  0.51100000000E-03 0.  1.
<mgrwt>
<rscale>  0 0.20000772E+02</rscale>
<asrwt>0</asrwt>
<pdfrwt beam="1">  1        2 0.22759678E-03 0.20000772E+02</pdfrwt>
<pdfrwt beam="2">  1       -2 0.10400176E-01 0.20000772E+02</pdfrwt>
<totfact> 0.32285736E+06</totfact>
</mgrwt>
</event>
<event>
 5    1  0.4046313E-006  0.2000009E+02  0.7818608E-02  0.1745326E+00
          2   -1    0    0  501    0  0.00000000000E+00  0.00000000000E+00  0.13800569822E+02  0.13800570067E+02  0.26000000000E-02 0. -1.
         -2   -1    0    0    0  501 -0.00000000000E+00 -0.00000000000E+00 -0.72461448991E+01  0.72461453655E+01  0.26000000000E-02 0.  1.
       1023    2    1    2    0    0  0.00000000000E+00  0.00000000000E+00  0.65544249234E+01  0.21046715433E+02  0.20000093611E+02 0.  0.
        -11    1    3    3    0    0 -0.97450289547E+01 -0.22437746980E+01  0.33073764615E+01  0.10532751471E+02  0.51100000000E-03 0.  1.
         11    1    3    3    0    0  0.97450289547E+01  0.22437746980E+01  0.32470484619E+01  0.10513963962E+02  0.51100000000E-03 0. -1.
<mgrwt>
<rscale>  0 0.20000094E+02</rscale>
<asrwt>0</asrwt>
<pdfrwt beam="1">  1        2 0.21231646E-02 0.20000094E+02</pdfrwt>
<pdfrwt beam="2">  1       -2 0.11147916E-02 0.20000094E+02</pdfrwt>
<totfact> 0.40425207E+06</totfact>
</mgrwt>
</event>
<event>
 5    1  0.4046313E-006  0.2000072E+02  0.7818608E-02  0.1745314E+00
         -2   -1    0    0    0  501 -0.00000000000E+00  0.00000000000E+00  0.40298855221E+01  0.40298863609E+01  0.26000000000E-02 0. -1.
          2   -1    0    0  501    0  0.00000000000E+00 -0.00000000000E+00 -0.24816394810E+02  0.24816394946E+02  0.26000000000E-02 0.  1.
       1023    2    1    2    0    0  0.00000000000E+00  0.00000000000E+00 -0.20786509287E+02  0.28846281307E+02  0.20000724409E+02 0.  0.
        -11    1    3    3    0    0 -0.30849002226E+01 -0.95122979031E+01 -0.10512389087E+02  0.14508988433E+02  0.51100000000E-03 0. -1.
         11    1    3    3    0    0  0.30849002226E+01  0.95122979031E+01 -0.10274120201E+02  0.14337292873E+02  0.51100000000E-03 0.  1.
<mgrwt>
<rscale>  0 0.20000724E+02</rscale>
<asrwt>0</asrwt>
<pdfrwt beam="2">  1        2 0.38179069E-02 0.20000724E+02</pdfrwt>
<pdfrwt beam="1">  1       -2 0.61998248E-03 0.20000724E+02</pdfrwt>
<totfact> 0.42522190E+06</totfact>
</mgrwt>
</event>
<event>
 5    1  0.4046313E-006  0.2000187E+02  0.7818608E-02  0.1745291E+00
         -2   -1    0    0    0  501 -0.00000000000E+00  0.00000000000E+00  0.20127760515E+01  0.20127777308E+01  0.26000000000E-02 0.  1.
          2   -1    0    0  501    0  0.00000000000E+00 -0.00000000000E+00 -0.49691905950E+02  0.49691906018E+02  0.26000000000E-02 0. -1.
       1023    2    1    2    0    0  0.00000000000E+00  0.00000000000E+00 -0.47679129898E+02  0.51704683748E+02  0.20001872254E+02 0.  0.
        -11    1    3    3    0    0 -0.47649274199E+01 -0.87926606534E+01 -0.23690877879E+02  0.25715231082E+02  0.51100000000E-03 0. -1.
         11    1    3    3    0    0  0.47649274199E+01  0.87926606534E+01 -0.23988252019E+02  0.25989452666E+02  0.51100000000E-03 0.  1.
<mgrwt>
<rscale>  0 0.20001872E+02</rscale>
<asrwt>0</asrwt>
<pdfrwt beam="2">  1        2 0.76449078E-02 0.20001872E+02</pdfrwt>
<pdfrwt beam="1">  1       -2 0.30965803E-03 0.20001872E+02</pdfrwt>
<totfact> 0.46275379E+06</totfact>
</mgrwt>
</event>
<event>
 4    1  0.4046313E-006  0.2002119E+02  0.7818608E-02  0.1744907E+00
          2   -1    0    0  501    0  0.00000000000E+00  0.00000000000E+00  0.37126786881E+01  0.37126795985E+01  0.26000000000E-02 0. -1.
         -2   -1    0    0    0  501 -0.00000000000E+00 -0.00000000000E+00 -0.26991826092E+02  0.26991826217E+02  0.26000000000E-02 0.  1.
        -11    1    1    2    0    0  0.97970215662E+01  0.20279952064E+01 -0.12165482433E+02  0.15750979627E+02  0.51100000000E-03 0.  1.
         11    1    1    2    0    0 -0.97970215662E+01 -0.20279952064E+01 -0.11113664971E+02  0.14953526188E+02  0.51100000000E-03 0. -1.
<mgrwt>
<rscale>  0 0.20021188E+02</rscale>
<asrwt>0</asrwt>
<pdfrwt beam="1">  1        2 0.57118143E-03 0.20021188E+02</pdfrwt>
<pdfrwt beam="2">  1       -2 0.41525886E-02 0.20021188E+02</pdfrwt>
<totfact> 0.36360642E+06</totfact>
</mgrwt>
</event>
<event>
 5    1  0.4102696E-006  0.2000211E+02  0.7818608E-02  0.1745286E+00
          2   -1    0    0  501    0  0.00000000000E+00  0.00000000000E+00  0.84139742112E+02  0.84139742152E+02  0.26000000000E-02 0.  1.
         -2   -1    0    0    0  501 -0.00000000000E+00 -0.00000000000E+00 -0.11887477583E+01  0.11887506016E+01  0.26000000000E-02 0. -1.
       1023    2    1    2    0    0  0.00000000000E+00  0.00000000000E+00  0.82950994354E+02  0.85328492754E+02  0.20002105173E+02 0.  0.
        -11    1    3    3    0    0 -0.54638232249E+01  0.83765289372E+01  0.41638014005E+02  0.42822235016E+02  0.51100000000E-03 0.  1.
         11    1    3    3    0    0  0.54638232249E+01 -0.83765289372E+01  0.41312980349E+02  0.42506257738E+02  0.51100000000E-03 0. -1.
<mgrwt>
<rscale>  0 0.20002105E+02</rscale>
<asrwt>0</asrwt>
<pdfrwt beam="1">  1        2 0.12944579E-01 0.20002105E+02</pdfrwt>
<pdfrwt beam="2">  1       -2 0.18288445E-03 0.20002105E+02</pdfrwt>
<totfact> 0.50806748E+06</totfact>
</mgrwt>
</event>
<event>
 5    1  0.4046313E-006  0.2000210E+02  0.7818608E-02  0.1745286E+00
          2   -1    0    0  501    0  0.00000000000E+00  0.00000000000E+00  0.70394662584E+02  0.70394662632E+02  0.26000000000E-02 0.  1.
         -2   -1    0    0    0  501 -0.00000000000E+00 -0.00000000000E+00 -0.14208599785E+01  0.14208623574E+01  0.26000000000E-02 0. -1.
       1023    2    1    2    0    0  0.00000000000E+00  0.00000000000E+00  0.68973802606E+02  0.71815524990E+02  0.20002104480E+02 0.  0.
        -11    1    3    3    0    0  0.56255907636E+00  0.99851577019E+01  0.34362598662E+02  0.35788378478E+02  0.51100000000E-03 0. -1.
         11    1    3    3    0    0 -0.56255907636E+00 -0.99851577019E+01  0.34611203944E+02  0.36027146512E+02  0.51100000000E-03 0.  1.
<mgrwt>
<rscale>  0 0.20002104E+02</rscale>
<asrwt>0</asrwt>
<pdfrwt beam="1">  1        2 0.10829949E-01 0.20002104E+02</pdfrwt>
<pdfrwt beam="2">  1       -2 0.21859401E-03 0.20002104E+02</pdfrwt>
<totfact> 0.49059662E+06</totfact>
</mgrwt>
</event>
<event>
 5    1  0.4046313E-006  0.2000053E+02  0.7818608E-02  0.1745318E+00
          2   -1    0    0  501    0  0.00000000000E+00  0.00000000000E+00  0.19572542093E+02  0.19572542265E+02  0.26000000000E-02 0.  1.
         -2   -1    0    0    0  501 -0.00000000000E+00 -0.00000000000E+00 -0.51094678487E+01  0.51094685102E+01  0.26000000000E-02 0. -1.
       1023    2    1    2    0    0  0.00000000000E+00  0.00000000000E+00  0.14463074244E+02  0.24682010776E+02  0.20000528476E+02 0.  0.
        -11    1    3    3    0    0 -0.96784620636E+01 -0.25157714336E+01  0.73050729783E+01  0.12384095659E+02  0.51100000000E-03 0. -1.
         11    1    3    3    0    0  0.96784620636E+01  0.25157714336E+01  0.71580012658E+01  0.12297915116E+02  0.51100000000E-03 0.  1.
<mgrwt>
<rscale>  0 0.20000528E+02</rscale>
<asrwt>0</asrwt>
<pdfrwt beam="1">  1        2 0.30111604E-02 0.20000528E+02</pdfrwt>
<pdfrwt beam="2">  1       -2 0.78607204E-03 0.20000528E+02</pdfrwt>
<totfact> 0.41596353E+06</totfact>
</mgrwt>
</event>
<event>
 5    1  0.4046313E-006  0.2000167E+02  0.7818608E-02  0.1745295E+00
          2   -1    0    0  501    0  0.00000000000E+00  0.00000000000E+00  0.11741304799E+03  0.11741304802E+03  0.26000000000E-02 0.  1.
         -2   -1    0    0    0  501 -0.00000000000E+00 -0.00000000000E+00 -0.85183393915E+00  0.85183790705E+00  0.26000000000E-02 0. -1.
       1023    2    1    2    0    0  0.00000000000E+00  0.00000000000E+00  0.11656121405E+03  0.11826488592E+03  0.20001665482E+02 0.  0.
        -11    1    3    3    0    0 -0.19717561345E+01  0.98045308935E+01  0.58265015005E+02  0.59117075554E+02  0.51100000000E-03 0.  1.
         11    1    3    3    0    0  0.19717561345E+01 -0.98045308935E+01  0.58296199044E+02  0.59147810370E+02  0.51100000000E-03 0. -1.
<mgrwt>
<rscale>  0 0.20001665E+02</rscale>
<asrwt>0</asrwt>
<pdfrwt beam="1">  1        2 0.18063536E-01 0.20001665E+02</pdfrwt>
<pdfrwt beam="2">  1       -2 0.13105175E-03 0.20001665E+02</pdfrwt>
<totfact> 0.54786631E+06</totfact>
</mgrwt>
</event>
<event>
 5    1  0.4046313E-006  0.2000005E+02  0.7818608E-02  0.1745327E+00
          2   -1    0    0  501    0  0.00000000000E+00  0.00000000000E+00  0.35160678468E+01  0.35160688081E+01  0.26000000000E-02 0.  1.
         -2   -1    0    0    0  501 -0.00000000000E+00 -0.00000000000E+00 -0.28440992152E+02  0.28440992270E+02  0.26000000000E-02 0. -1.
       1023    2    1    2    0    0  0.00000000000E+00  0.00000000000E+00 -0.24924924305E+02  0.31957061078E+02  0.20000047529E+02 0.  0.
        -11    1    3    3    0    0  0.59511804044E+01 -0.80364125297E+01 -0.12463568742E+02  0.15979393624E+02  0.51100000000E-03 0.  1.
         11    1    3    3    0    0 -0.59511804044E+01  0.80364125297E+01 -0.12461355563E+02  0.15977667455E+02  0.51100000000E-03 0. -1.
<mgrwt>
<rscale>  0 0.20000048E+02</rscale>
<asrwt>0</asrwt>
<pdfrwt beam="1">  1        2 0.54093362E-03 0.20000048E+02</pdfrwt>
<pdfrwt beam="2">  1       -2 0.43755372E-02 0.20000048E+02</pdfrwt>
<totfact> 0.36258601E+06</totfact>
</mgrwt>
</event>
<event>
 5    1  0.4046313E-006  0.2000013E+02  0.7818608E-02  0.1745325E+00
          2   -1    0    0  501    0  0.00000000000E+00  0.00000000000E+00  0.19088532251E+02  0.19088532428E+02  0.26000000000E-02 0. -1.
         -2   -1    0    0    0  501 -0.00000000000E+00 -0.00000000000E+00 -0.52388168786E+01  0.52388175238E+01  0.26000000000E-02 0.  1.
       1023    2    1    2    0    0  0.00000000000E+00  0.00000000000E+00  0.13849715372E+02  0.24327349951E+02  0.20000133494E+02 0.  0.
        -11    1    3    3    0    0 -0.75857211978E+01 -0.65159588731E+01  0.69506191200E+01  0.12178341124E+02  0.51100000000E-03 0.  1.
         11    1    3    3    0    0  0.75857211978E+01  0.65159588731E+01  0.68990962520E+01  0.12149008827E+02  0.51100000000E-03 0. -1.
<mgrwt>
<rscale>  0 0.20000133E+02</rscale>
<asrwt>0</asrwt>
<pdfrwt beam="1">  1        2 0.29366973E-02 0.20000133E+02</pdfrwt>
<pdfrwt beam="2">  1       -2 0.80597189E-03 0.20000133E+02</pdfrwt>
<totfact> 0.41507614E+06</totfact>
</mgrwt>
</event>
<event>
 5    1  0.4046313E-006  0.2000415E+02  0.7818608E-02  0.1745246E+00
          2   -1    0    0  501    0  0.00000000000E+00  0.00000000000E+00  0.62470178998E+02  0.62470179052E+02  0.26000000000E-02 0.  1.
         -2   -1    0    0    0  501 -0.00000000000E+00 -0.00000000000E+00 -0.16014268985E+01  0.16014290091E+01  0.26000000000E-02 0. -1.
       1023    2    1    2    0    0  0.00000000000E+00  0.00000000000E+00  0.60868752099E+02  0.64071608061E+02  0.20004149005E+02 0.  0.
        -11    1    3    3    0    0  0.55112170659E+01 -0.83462108019E+01  0.30134842755E+02  0.31751244014E+02  0.51100000000E-03 0. -1.
         11    1    3    3    0    0 -0.55112170659E+01  0.83462108019E+01  0.30733909344E+02  0.32320364047E+02  0.51100000000E-03 0.  1.
<mgrwt>
<rscale>  0 0.20004149E+02</rscale>
<asrwt>0</asrwt>
<pdfrwt beam="1">  1        2 0.96107954E-02 0.20004149E+02</pdfrwt>
<pdfrwt beam="2">  1       -2 0.24637358E-03 0.20004149E+02</pdfrwt>
<totfact> 0.48006395E+06</totfact>
</mgrwt>
</event>
<event>
 5    1  0.4046313E-006  0.2001085E+02  0.7818608E-02  0.1745112E+00
          2   -1    0    0  501    0  0.00000000000E+00  0.00000000000E+00  0.84331629378E+02  0.84331629418E+02  0.26000000000E-02 0. -1.
         -2   -1    0    0    0  501 -0.00000000000E+00 -0.00000000000E+00 -0.11870801485E+01  0.11870829958E+01  0.26000000000E-02 0.  1.
       1023    2    1    2    0    0  0.00000000000E+00  0.00000000000E+00  0.83144549229E+02  0.85518712414E+02  0.20010849716E+02 0.  0.
        -11    1    3    3    0    0 -0.27228079868E+01 -0.96262787575E+01  0.40837010296E+02  0.42044504234E+02  0.51100000000E-03 0. -1.
         11    1    3    3    0    0  0.27228079868E+01  0.96262787575E+01  0.42307538933E+02  0.43474208180E+02  0.51100000000E-03 0.  1.
<mgrwt>
<rscale>  0 0.20010850E+02</rscale>
<asrwt>0</asrwt>
<pdfrwt beam="1">  1        2 0.12974100E-01 0.20010850E+02</pdfrwt>
<pdfrwt beam="2">  1       -2 0.18262789E-03 0.20010850E+02</pdfrwt>
<totfact> 0.50781588E+06</totfact>
</mgrwt>
</event>
<event>
 5    1  0.4046313E-006  0.2000009E+02  0.7818608E-02  0.1745326E+00
         -2   -1    0    0    0  501 -0.00000000000E+00  0.00000000000E+00  0.49509780620E+01  0.49509787446E+01  0.26000000000E-02 0. -1.
          2   -1    0    0  501    0  0.00000000000E+00 -0.00000000000E+00 -0.20198211397E+02  0.20198211565E+02  0.26000000000E-02 0.  1.
       1023    2    1    2    0    0  0.00000000000E+00  0.00000000000E+00 -0.15247233335E+02  0.25149190309E+02  0.20000091221E+02 0.  0.
        -11    1    3    3    0    0 -0.18475860067E+01 -0.98278849832E+01 -0.76188036613E+01  0.12571677167E+02  0.51100000000E-03 0.  1.
         11    1    3    3    0    0  0.18475860067E+01  0.98278849832E+01 -0.76284296740E+01  0.12577513142E+02  0.51100000000E-03 0. -1.
<mgrwt>
<rscale>  0 0.20000091E+02</rscale>
<asrwt>0</asrwt>
<pdfrwt beam="2">  1        2 0.31074172E-02 0.20000091E+02</pdfrwt>
<pdfrwt beam="1">  1       -2 0.76168901E-03 0.20000091E+02</pdfrwt>
<totfact> 0.41714003E+06</totfact>
</mgrwt>
</event>
<event>
 5    1  0.4046313E-006  0.2000351E+02  0.7818608E-02  0.1745258E+00
          2   -1    0    0  501    0  0.00000000000E+00  0.00000000000E+00  0.31142469501E+02  0.31142469609E+02  0.26000000000E-02 0. -1.
         -2   -1    0    0    0  501 -0.00000000000E+00 -0.00000000000E+00 -0.32121758757E+01  0.32121769279E+01  0.26000000000E-02 0.  1.
       1023    2    1    2    0    0  0.00000000000E+00  0.00000000000E+00  0.27930293625E+02  0.34354646537E+02  0.20003510610E+02 0.  0.
        -11    1    3    3    0    0 -0.95295922299E+00  0.99561290783E+01  0.13879767652E+02  0.17107910096E+02  0.51100000000E-03 0.  1.
         11    1    3    3    0    0  0.95295922299E+00 -0.99561290783E+01  0.14050525973E+02  0.17246736441E+02  0.51100000000E-03 0. -1.
<mgrwt>
<rscale>  0 0.20003511E+02</rscale>
<asrwt>0</asrwt>
<pdfrwt beam="1">  1        2 0.47911493E-02 0.20003511E+02</pdfrwt>
<pdfrwt beam="2">  1       -2 0.49418099E-03 0.20003511E+02</pdfrwt>
<totfact> 0.43536397E+06</totfact>
</mgrwt>
</event>
<event>
 5    1  0.4046313E-006  0.2000361E+02  0.7818608E-02  0.1745256E+00
          2   -1    0    0  501    0  0.00000000000E+00  0.00000000000E+00  0.72455906578E+01  0.72455911243E+01  0.26000000000E-02 0. -1.
         -2   -1    0    0    0  501 -0.00000000000E+00 -0.00000000000E+00 -0.13806476194E+02  0.13806476438E+02  0.26000000000E-02 0.  1.
       1023    2    1    2    0    0  0.00000000000E+00  0.00000000000E+00 -0.65608855359E+01  0.21052067563E+02  0.20003607916E+02 0.  0.
        -11    1    3    3    0    0  0.99521336697E+01  0.98283934005E+00 -0.34473238455E+01  0.10578042338E+02  0.51100000000E-03 0. -1.
         11    1    3    3    0    0 -0.99521336697E+01 -0.98283934005E+00 -0.31135616904E+01  0.10474025225E+02  0.51100000000E-03 0.  1.
<mgrwt>
<rscale>  0 0.20003608E+02</rscale>
<asrwt>0</asrwt>
<pdfrwt beam="1">  1        2 0.11147063E-02 0.20003608E+02</pdfrwt>
<pdfrwt beam="2">  1       -2 0.21240733E-02 0.20003608E+02</pdfrwt>
<totfact> 0.38522733E+06</totfact>
</mgrwt>
</event>
<event>
 5    1  0.4046313E-006  0.2000180E+02  0.7818608E-02  0.1745292E+00
          2   -1    0    0  501    0  0.00000000000E+00  0.00000000000E+00  0.30237443951E+02  0.30237444062E+02  0.26000000000E-02 0.  1.
         -2   -1    0    0    0  501 -0.00000000000E+00 -0.00000000000E+00 -0.33077512723E+01  0.33077522942E+01  0.26000000000E-02 0. -1.
       1023    2    1    2    0    0  0.00000000000E+00  0.00000000000E+00  0.26929692678E+02  0.33545196357E+02  0.20001796191E+02 0.  0.
        -11    1    3    3    0    0  0.86968496802E+01 -0.49378307963E+01  0.13423933158E+02  0.16739753554E+02  0.51100000000E-03 0.  1.
         11    1    3    3    0    0 -0.86968496802E+01  0.49378307963E+01  0.13505759520E+02  0.16805442803E+02  0.51100000000E-03 0. -1.
<mgrwt>
<rscale>  0 0.20001796E+02</rscale>
<asrwt>0</asrwt>
<pdfrwt beam="1">  1        2 0.46519144E-02 0.20001796E+02</pdfrwt>
<pdfrwt beam="2">  1       -2 0.50888491E-03 0.20001796E+02</pdfrwt>
<totfact> 0.43402127E+06</totfact>
</mgrwt>
</event>
<event>
 5    1  0.4046313E-006  0.2000008E+02  0.7818608E-02  0.1745326E+00
          2   -1    0    0  501    0  0.00000000000E+00  0.00000000000E+00  0.16161050741E+01  0.16161071655E+01  0.26000000000E-02 0. -1.
         -2   -1    0    0    0  501 -0.00000000000E+00 -0.00000000000E+00 -0.61877623699E+02  0.61877623754E+02  0.26000000000E-02 0.  1.
       1023    2    1    2    0    0  0.00000000000E+00  0.00000000000E+00 -0.60261518625E+02  0.63493730920E+02  0.20000080976E+02 0.  0.
        -11    1    3    3    0    0 -0.88728679274E+01 -0.46122683944E+01 -0.30137496915E+02  0.31753260077E+02  0.51100000000E-03 0. -1.
         11    1    3    3    0    0  0.88728679274E+01  0.46122683944E+01 -0.30124021711E+02  0.31740470842E+02  0.51100000000E-03 0.  1.
<mgrwt>
<rscale>  0 0.20000081E+02</rscale>
<asrwt>0</asrwt>
<pdfrwt beam="1">  1        2 0.24863176E-03 0.20000081E+02</pdfrwt>
<pdfrwt beam="2">  1       -2 0.95196328E-02 0.20000081E+02</pdfrwt>
<totfact> 0.32790647E+06</totfact>
</mgrwt>
</event>
<event>
 5    1  0.4097493E-006  0.2000249E+02  0.7818608E-02  0.1745279E+00
         -2   -1    0    0    0  501 -0.00000000000E+00  0.00000000000E+00  0.16586855788E+01  0.16586876166E+01  0.26000000000E-02 0. -1.
          2   -1    0    0  501    0  0.00000000000E+00 -0.00000000000E+00 -0.60303650801E+02  0.60303650857E+02  0.26000000000E-02 0.  1.
       1023    2    1    2    0    0  0.00000000000E+00  0.00000000000E+00 -0.58644965222E+02  0.61962338473E+02  0.20002485926E+02 0.  0.
        -11    1    3    3    0    0 -0.91605346985E+01 -0.40136550254E+01 -0.29341557330E+02  0.30999222723E+02  0.51100000000E-03 0.  1.
         11    1    3    3    0    0  0.91605346985E+01  0.40136550254E+01 -0.29303407892E+02  0.30963115750E+02  0.51100000000E-03 0. -1.
<mgrwt>
<rscale>  0 0.20002486E+02</rscale>
<asrwt>0</asrwt>
<pdfrwt beam="2">  1        2 0.92774832E-02 0.20002486E+02</pdfrwt>
<pdfrwt beam="1">  1       -2 0.25518260E-03 0.20002486E+02</pdfrwt>
<totfact> 0.47725367E+06</totfact>
</mgrwt>
</event>
<event>
 4    1  0.4046313E-006  0.2011218E+02  0.7818608E-02  0.1743106E+00
          2   -1    0    0  501    0  0.00000000000E+00  0.00000000000E+00  0.87663899452E+01  0.87663903308E+01  0.26000000000E-02 0.  1.
         -2   -1    0    0    0  501 -0.00000000000E+00 -0.00000000000E+00 -0.11535522919E+02  0.11535523212E+02  0.26000000000E-02 0. -1.
        -11    1    1    2    0    0  0.78035538264E+01  0.62681368225E+01 -0.23632007508E+01  0.10284440169E+02  0.51100000000E-03 0.  1.
         11    1    1    2    0    0 -0.78035538264E+01 -0.62681368225E+01 -0.40593222247E+00  0.10017473373E+02  0.51100000000E-03 0. -1.
<mgrwt>
<rscale>  0 0.20112175E+02</rscale>
<asrwt>0</asrwt>
<pdfrwt beam="1">  1        2 0.13486754E-02 0.20112175E+02</pdfrwt>
<pdfrwt beam="2">  1       -2 0.17746959E-02 0.20112175E+02</pdfrwt>
<totfact> 0.38586730E+06</totfact>
</mgrwt>
</event>
<event>
 5    1  0.4241777E-006  0.2000135E+02  0.7818608E-02  0.1745301E+00
          2   -1    0    0  501    0  0.00000000000E+00  0.00000000000E+00  0.50096589203E+02  0.50096589271E+02  0.26000000000E-02 0. -1.
         -2   -1    0    0    0  501 -0.00000000000E+00 -0.00000000000E+00 -0.19964132442E+01  0.19964149372E+01  0.26000000000E-02 0.  1.
       1023    2    1    2    0    0  0.00000000000E+00  0.00000000000E+00  0.48100175959E+02  0.52093004208E+02  0.20001353957E+02 0.  0.
        -11    1    3    3    0    0 -0.72843570313E+01  0.68518608943E+01  0.24208183854E+02  0.26192480235E+02  0.51100000000E-03 0. -1.
         11    1    3    3    0    0  0.72843570313E+01 -0.68518608943E+01  0.23891992105E+02  0.25900523974E+02  0.51100000000E-03 0.  1.
<mgrwt>
<rscale>  0 0.20001354E+02</rscale>
<asrwt>0</asrwt>
<pdfrwt beam="1">  1        2 0.77071681E-02 0.20001354E+02</pdfrwt>
<pdfrwt beam="2">  1       -2 0.30714062E-03 0.20001354E+02</pdfrwt>
<totfact> 0.46334620E+06</totfact>
</mgrwt>
</event>
<event>
 5    1  0.4046313E-006  0.2000078E+02  0.7818608E-02  0.1745313E+00
         -2   -1    0    0    0  501 -0.00000000000E+00  0.00000000000E+00  0.73860171900E+01  0.73860176476E+01  0.26000000000E-02 0.  1.
          2   -1    0    0  501    0  0.00000000000E+00 -0.00000000000E+00 -0.13540153566E+02  0.13540153815E+02  0.26000000000E-02 0. -1.
       1023    2    1    2    0    0  0.00000000000E+00  0.00000000000E+00 -0.61541363759E+01  0.20926171463E+02  0.20000781424E+02 0.  0.
        -11    1    3    3    0    0 -0.17726219436E+01  0.98419073309E+01 -0.30249049950E+01  0.10447745161E+02  0.51100000000E-03 0. -1.
         11    1    3    3    0    0  0.17726219436E+01 -0.98419073309E+01 -0.31292313809E+01  0.10478426302E+02  0.51100000000E-03 0.  1.
<mgrwt>
<rscale>  0 0.20000781E+02</rscale>
<asrwt>0</asrwt>
<pdfrwt beam="2">  1        2 0.20831006E-02 0.20000781E+02</pdfrwt>
<pdfrwt beam="1">  1       -2 0.11363104E-02 0.20000781E+02</pdfrwt>
<totfact> 0.40362834E+06</totfact>
</mgrwt>
</event>
<event>
 5    1  0.4253094E-006  0.2000060E+02  0.7818608E-02  0.1745316E+00
          2   -1    0    0  501    0  0.00000000000E+00  0.00000000000E+00  0.92218137127E+02  0.92218137164E+02  0.26000000000E-02 0. -1.
         -2   -1    0    0    0  501 -0.00000000000E+00 -0.00000000000E+00 -0.10844492464E+01  0.10844523632E+01  0.26000000000E-02 0.  1.
       1023    2    1    2    0    0  0.00000000000E+00  0.00000000000E+00  0.91133687880E+02  0.93302589527E+02  0.20000603634E+02 0.  0.
        -11    1    3    3    0    0 -0.83862211088E+01  0.54473405991E+01  0.45278818096E+02  0.46369964336E+02  0.51100000000E-03 0.  1.
         11    1    3    3    0    0  0.83862211088E+01 -0.54473405991E+01  0.45854869784E+02  0.46932625190E+02  0.51100000000E-03 0. -1.
<mgrwt>
<rscale>  0 0.20000604E+02</rscale>
<asrwt>0</asrwt>
<pdfrwt beam="1">  1        2 0.14187409E-01 0.20000604E+02</pdfrwt>
<pdfrwt beam="2">  1       -2 0.16683855E-03 0.20000604E+02</pdfrwt>
<totfact> 0.51813145E+06</totfact>
</mgrwt>
</event>
<event>
 5    1  0.4046313E-006  0.2000099E+02  0.7818608E-02  0.1745308E+00
         -2   -1    0    0    0  501 -0.00000000000E+00  0.00000000000E+00  0.14318520853E+02  0.14318521089E+02  0.26000000000E-02 0. -1.
          2   -1    0    0  501    0  0.00000000000E+00 -0.00000000000E+00 -0.69846513200E+01  0.69846518039E+01  0.26000000000E-02 0.  1.
       1023    2    1    2    0    0  0.00000000000E+00  0.00000000000E+00  0.73338695330E+01  0.21303172893E+02  0.20000988300E+02 0.  0.
        -11    1    3    3    0    0 -0.13436061538E+01 -0.99097499870E+01  0.37076419165E+01  0.10665600365E+02  0.51100000000E-03 0. -1.
         11    1    3    3    0    0  0.13436061538E+01  0.99097499870E+01  0.36262276165E+01  0.10637572528E+02  0.51100000000E-03 0.  1.
<mgrwt>
<rscale>  0 0.20000988E+02</rscale>
<asrwt>0</asrwt>
<pdfrwt beam="2">  1        2 0.10745618E-02 0.20000988E+02</pdfrwt>
<pdfrwt beam="1">  1       -2 0.22028494E-02 0.20000988E+02</pdfrwt>
<totfact> 0.38428468E+06</totfact>
</mgrwt>
</event>
<event>
 5    1  0.4046313E-006  0.2000017E+02  0.7818608E-02  0.1745325E+00
          2   -1    0    0  501    0  0.00000000000E+00  0.00000000000E+00  0.45469153875E+01  0.45469161309E+01  0.26000000000E-02 0.  1.
         -2   -1    0    0    0  501 -0.00000000000E+00 -0.00000000000E+00 -0.21993306819E+02  0.21993306973E+02  0.26000000000E-02 0. -1.
       1023    2    1    2    0    0  0.00000000000E+00  0.00000000000E+00 -0.17446391431E+02  0.26540223103E+02  0.20000171709E+02 0.  0.
        -11    1    3    3    0    0 -0.92185081640E+01  0.38754894259E+01 -0.86734415285E+01  0.13237405307E+02  0.51100000000E-03 0.  1.
         11    1    3    3    0    0  0.92185081640E+01 -0.38754894259E+01 -0.87729499028E+01  0.13302817796E+02  0.51100000000E-03 0. -1.
<mgrwt>
<rscale>  0 0.20000172E+02</rscale>
<asrwt>0</asrwt>
<pdfrwt beam="1">  1        2 0.69952553E-03 0.20000172E+02</pdfrwt>
<pdfrwt beam="2">  1       -2 0.33835857E-02 0.20000172E+02</pdfrwt>
<totfact> 0.37131848E+06</totfact>
</mgrwt>
</event>
<event>
 5    1  0.4046313E-006  0.2000275E+02  0.7818608E-02  0.1745273E+00
         -2   -1    0    0    0  501 -0.00000000000E+00  0.00000000000E+00  0.25177261670E+02  0.25177261804E+02  0.26000000000E-02 0. -1.
          2   -1    0    0  501    0  0.00000000000E+00 -0.00000000000E+00 -0.39729277507E+01  0.39729286015E+01  0.26000000000E-02 0.  1.
       1023    2    1    2    0    0  0.00000000000E+00  0.00000000000E+00  0.21204333919E+02  0.29150190405E+02  0.20002745405E+02 0.  0.
        -11    1    3    3    0    0 -0.23398473530E+01 -0.97236432327E+01  0.10686291947E+02  0.14636289119E+02  0.51100000000E-03 0.  1.
         11    1    3    3    0    0  0.23398473530E+01  0.97236432327E+01  0.10518041972E+02  0.14513901286E+02  0.51100000000E-03 0. -1.
<mgrwt>
<rscale>  0 0.20002745E+02</rscale>
<asrwt>0</asrwt>
<pdfrwt beam="2">  1        2 0.61121976E-03 0.20002745E+02</pdfrwt>
<pdfrwt beam="1">  1       -2 0.38734248E-02 0.20002745E+02</pdfrwt>
<totfact> 0.36673995E+06</totfact>
</mgrwt>
</event>
<event>
 5    1  0.4046313E-006  0.2000189E+02  0.7818608E-02  0.1745290E+00
          2   -1    0    0  501    0  0.00000000000E+00  0.00000000000E+00  0.12199593525E+02  0.12199593802E+02  0.26000000000E-02 0. -1.
         -2   -1    0    0    0  501 -0.00000000000E+00 -0.00000000000E+00 -0.81985447889E+01  0.81985452011E+01  0.26000000000E-02 0.  1.
       1023    2    1    2    0    0  0.00000000000E+00  0.00000000000E+00  0.40010487359E+01  0.20398139003E+02  0.20001892005E+02 0.  0.
        -11    1    3    3    0    0  0.31836203219E+01 -0.94802273573E+01  0.20960365127E+01  0.10217803992E+02  0.51100000000E-03 0.  1.
         11    1    3    3    0    0 -0.31836203219E+01  0.94802273573E+01  0.19050122232E+01  0.10180335011E+02  0.51100000000E-03 0. -1.
<mgrwt>
<rscale>  0 0.20001892E+02</rscale>
<asrwt>0</asrwt>
<pdfrwt beam="1">  1        2 0.18768606E-02 0.20001892E+02</pdfrwt>
<pdfrwt beam="2">  1       -2 0.12613146E-02 0.20001892E+02</pdfrwt>
<totfact> 0.40039619E+06</totfact>
</mgrwt>
</event>
<event>
 5    1  0.4046313E-006  0.2000099E+02  0.7818608E-02  0.1745308E+00
         -2   -1    0    0    0  501 -0.00000000000E+00  0.00000000000E+00  0.54229978149E+02  0.54229978212E+02  0.26000000000E-02 0.  1.
          2   -1    0    0  501    0  0.00000000000E+00 -0.00000000000E+00 -0.18441806014E+01  0.18441824342E+01  0.26000000000E-02 0. -1.
       1023    2    1    2    0    0  0.00000000000E+00  0.00000000000E+00  0.52385797548E+02  0.56074160646E+02  0.20000992661E+02 0.  0.
        -11    1    3    3    0    0 -0.20686511698E+01 -0.97837933650E+01  0.26443599898E+02  0.28271291200E+02  0.51100000000E-03 0.  1.
         11    1    3    3    0    0  0.20686511698E+01  0.97837933650E+01  0.25942197650E+02  0.27802869446E+02  0.51100000000E-03 0. -1.
<mgrwt>
<rscale>  0 0.20000993E+02</rscale>
<asrwt>0</asrwt>
<pdfrwt beam="2">  1        2 0.28372026E-03 0.20000993E+02</pdfrwt>
<pdfrwt beam="1">  1       -2 0.83430731E-02 0.20000993E+02</pdfrwt>
<totfact> 0.33489396E+06</totfact>
</mgrwt>
</event>
<event>
 5    1  0.4046313E-006  0.2000045E+02  0.7818608E-02  0.1745319E+00
         -2   -1    0    0    0  501 -0.00000000000E+00  0.00000000000E+00  0.37995368902E+01  0.37995377798E+01  0.26000000000E-02 0. -1.
          2   -1    0    0  501    0  0.00000000000E+00 -0.00000000000E+00 -0.26320176931E+02  0.26320177060E+02  0.26000000000E-02 0.  1.
       1023    2    1    2    0    0  0.00000000000E+00  0.00000000000E+00 -0.22520640041E+02  0.30119714840E+02  0.20000449849E+02 0.  0.
        -11    1    3    3    0    0 -0.79758154686E+01 -0.60323139045E+01 -0.11192054601E+02  0.15008815073E+02  0.51100000000E-03 0.  1.
         11    1    3    3    0    0  0.79758154686E+01  0.60323139045E+01 -0.11328585440E+02  0.15110899767E+02  0.51100000000E-03 0. -1.
<mgrwt>
<rscale>  0 0.20000450E+02</rscale>
<asrwt>0</asrwt>
<pdfrwt beam="2">  1        2 0.40492579E-02 0.20000450E+02</pdfrwt>
<pdfrwt beam="1">  1       -2 0.58454423E-03 0.20000450E+02</pdfrwt>
<totfact> 0.42775094E+06</totfact>
</mgrwt>
</event>
<event>
 5    1  0.4046313E-006  0.2000234E+02  0.7818608E-02  0.1745281E+00
         -2   -1    0    0    0  501 -0.00000000000E+00  0.00000000000E+00  0.69341621615E+01  0.69341626490E+01  0.26000000000E-02 0. -1.
          2   -1    0    0  501    0  0.00000000000E+00 -0.00000000000E+00 -0.14424733124E+02  0.14424733358E+02  0.26000000000E-02 0.  1.
       1023    2    1    2    0    0  0.00000000000E+00  0.00000000000E+00 -0.74905709623E+01  0.21358896007E+02  0.20002344495E+02 0.  0.
        -11    1    3    3    0    0  0.81101831605E+01  0.58519952267E+01 -0.36916065971E+01  0.10660622803E+02  0.51100000000E-03 0. -1.
         11    1    3    3    0    0 -0.81101831605E+01 -0.58519952267E+01 -0.37989643652E+01  0.10698273204E+02  0.51100000000E-03 0.  1.
<mgrwt>
<rscale>  0 0.20002344E+02</rscale>
<asrwt>0</asrwt>
<pdfrwt beam="2">  1        2 0.22191898E-02 0.20002344E+02</pdfrwt>
<pdfrwt beam="1">  1       -2 0.10667942E-02 0.20002344E+02</pdfrwt>
<totfact> 0.40553927E+06</totfact>
</mgrwt>
</event>
<event>
 5    1  0.4046313E-006  0.2000057E+02  0.7818608E-02  0.1745317E+00
          2   -1    0    0  501    0  0.00000000000E+00  0.00000000000E+00  0.15551725450E+01  0.15551747184E+01  0.26000000000E-02 0. -1.
         -2   -1    0    0    0  501 -0.00000000000E+00 -0.00000000000E+00 -0.64305144562E+02  0.64305144614E+02  0.26000000000E-02 0.  1.
       1023    2    1    2    0    0  0.00000000000E+00  0.00000000000E+00 -0.62749972017E+02  0.65860319333E+02  0.20000566854E+02 0.  0.
        -11    1    3    3    0    0  0.95859861171E+01  0.28485719086E+01 -0.31331225336E+02  0.32888465654E+02  0.51100000000E-03 0.  1.
         11    1    3    3    0    0 -0.95859861171E+01 -0.28485719086E+01 -0.31418746681E+02  0.32971853679E+02  0.51100000000E-03 0. -1.
<mgrwt>
<rscale>  0 0.20000567E+02</rscale>
<asrwt>0</asrwt>
<pdfrwt beam="1">  1        2 0.23925753E-03 0.20000567E+02</pdfrwt>
<pdfrwt beam="2">  1       -2 0.98930973E-02 0.20000567E+02</pdfrwt>
<totfact> 0.32573518E+06</totfact>
</mgrwt>
</event>
<event>
 4    1  0.4046313E-006  0.2002145E+02  0.7818608E-02  0.1744902E+00
         -2   -1    0    0    0  501 -0.00000000000E+00  0.00000000000E+00  0.11995697696E+02  0.11995697978E+02  0.26000000000E-02 0. -1.
          2   -1    0    0  501    0  0.00000000000E+00 -0.00000000000E+00 -0.83542089990E+01  0.83542094036E+01  0.26000000000E-02 0.  1.
        -11    1    1    2    0    0 -0.99377026843E+01  0.11855773083E+01  0.15911082915E+01  0.10133861754E+02  0.51100000000E-03 0. -1.
         11    1    1    2    0    0  0.99377026843E+01 -0.11855773083E+01  0.20503804058E+01  0.10216045628E+02  0.51100000000E-03 0.  1.
<mgrwt>
<rscale>  0 0.20021446E+02</rscale>
<asrwt>0</asrwt>
<pdfrwt beam="2">  1        2 0.12852630E-02 0.20021446E+02</pdfrwt>
<pdfrwt beam="1">  1       -2 0.18454920E-02 0.20021446E+02</pdfrwt>
<totfact> 0.38851320E+06</totfact>
</mgrwt>
</event>
<event>
 5    1  0.4046313E-006  0.2000023E+02  0.7818608E-02  0.1745324E+00
          2   -1    0    0  501    0  0.00000000000E+00  0.00000000000E+00  0.14431821912E+01  0.14431845333E+01  0.26000000000E-02 0. -1.
         -2   -1    0    0    0  501 -0.00000000000E+00 -0.00000000000E+00 -0.69292835902E+02  0.69292835951E+02  0.26000000000E-02 0.  1.
       1023    2    1    2    0    0  0.00000000000E+00  0.00000000000E+00 -0.67849653711E+02  0.70736020484E+02  0.20000227130E+02 0.  0.
        -11    1    3    3    0    0  0.98580925333E+01  0.16791777161E+01 -0.33835014439E+02  0.35281862601E+02  0.51100000000E-03 0. -1.
         11    1    3    3    0    0 -0.98580925333E+01 -0.16791777161E+01 -0.34014639271E+02  0.35454157883E+02  0.51100000000E-03 0.  1.
<mgrwt>
<rscale>  0 0.20000227E+02</rscale>
<asrwt>0</asrwt>
<pdfrwt beam="1">  1        2 0.22202827E-03 0.20000227E+02</pdfrwt>
<pdfrwt beam="2">  1       -2 0.10660434E-01 0.20000227E+02</pdfrwt>
<totfact> 0.32142619E+06</totfact>
</mgrwt>
</event>
<event>
 5    1  0.4046313E-006  0.2000319E+02  0.7818608E-02  0.1745265E+00
         -2   -1    0    0    0  501 -0.00000000000E+00  0.00000000000E+00  0.68864709094E+02  0.68864709143E+02  0.26000000000E-02 0.  1.
          2   -1    0    0  501    0  0.00000000000E+00 -0.00000000000E+00 -0.14525852690E+01  0.14525875959E+01  0.26000000000E-02 0. -1.
       1023    2    1    2    0    0  0.00000000000E+00  0.00000000000E+00  0.67412123825E+02  0.70317296739E+02  0.20003194297E+02 0.  0.
        -11    1    3    3    0    0  0.98957717173E+01  0.14450661394E+01  0.33241945621E+02  0.34713707133E+02  0.51100000000E-03 0.  1.
         11    1    3    3    0    0 -0.98957717173E+01 -0.14450661394E+01  0.34170178204E+02  0.35603589605E+02  0.51100000000E-03 0. -1.
<mgrwt>
<rscale>  0 0.20003194E+02</rscale>
<asrwt>0</asrwt>
<pdfrwt beam="2">  1        2 0.22347482E-03 0.20003194E+02</pdfrwt>
<pdfrwt beam="1">  1       -2 0.10594572E-01 0.20003194E+02</pdfrwt>
<totfact> 0.32168755E+06</totfact>
</mgrwt>
</event>
<event>
 5    1  0.4046313E-006  0.2000058E+02  0.7818608E-02  0.1745316E+00
          2   -1    0    0  501    0  0.00000000000E+00  0.00000000000E+00  0.20054167703E+02  0.20054167871E+02  0.26000000000E-02 0. -1.
         -2   -1    0    0    0  501 -0.00000000000E+00 -0.00000000000E+00 -0.49867847755E+01  0.49867854533E+01  0.26000000000E-02 0.  1.
       1023    2    1    2    0    0  0.00000000000E+00  0.00000000000E+00  0.15067382927E+02  0.25040953325E+02  0.20000582870E+02 0.  0.
        -11    1    3    3    0    0 -0.89149870223E+00 -0.99602829356E+01  0.74562848658E+01  0.12473900366E+02  0.51100000000E-03 0. -1.
         11    1    3    3    0    0  0.89149870223E+00  0.99602829356E+01  0.76110980616E+01  0.12567052958E+02  0.51100000000E-03 0.  1.
<mgrwt>
<rscale>  0 0.20000583E+02</rscale>
<asrwt>0</asrwt>
<pdfrwt beam="1">  1        2 0.30852566E-02 0.20000583E+02</pdfrwt>
<pdfrwt beam="2">  1       -2 0.76719774E-03 0.20000583E+02</pdfrwt>
<totfact> 0.41685224E+06</totfact>
</mgrwt>
</event>
<event>
 5    1  0.4096894E-006  0.2000076E+02  0.7818608E-02  0.1745313E+00
          2   -1    0    0  501    0  0.00000000000E+00  0.00000000000E+00  0.60222892978E+02  0.60222893034E+02  0.26000000000E-02 0.  1.
         -2   -1    0    0    0  501 -0.00000000000E+00 -0.00000000000E+00 -0.16606229970E+01  0.16606250324E+01  0.26000000000E-02 0. -1.
       1023    2    1    2    0    0  0.00000000000E+00  0.00000000000E+00  0.58562269981E+02  0.61883518067E+02  0.20000758560E+02 0.  0.
        -11    1    3    3    0    0 -0.94627881533E+01  0.32346272472E+01  0.29343969302E+02  0.31001221068E+02  0.51100000000E-03 0. -1.
         11    1    3    3    0    0  0.94627881533E+01 -0.32346272472E+01  0.29218300679E+02  0.30882296998E+02  0.51100000000E-03 0.  1.
<mgrwt>
<rscale>  0 0.20000759E+02</rscale>
<asrwt>0</asrwt>
<pdfrwt beam="1">  1        2 0.92650607E-02 0.20000759E+02</pdfrwt>
<pdfrwt beam="2">  1       -2 0.25548062E-03 0.20000759E+02</pdfrwt>
<totfact> 0.47723676E+06</totfact>
</mgrwt>
</event>
<event>
 5    1  0.4046313E-006  0.2000091E+02  0.7818608E-02  0.1745310E+00
          2   -1    0    0  501    0  0.00000000000E+00  0.00000000000E+00  0.26256517675E+02  0.26256517804E+02  0.26000000000E-02 0. -1.
         -2   -1    0    0    0  501 -0.00000000000E+00 -0.00000000000E+00 -0.38089240954E+01  0.38089249828E+01  0.26000000000E-02 0.  1.
       1023    2    1    2    0    0  0.00000000000E+00  0.00000000000E+00  0.22447593579E+02  0.30065442786E+02  0.20000909790E+02 0.  0.
        -11    1    3    3    0    0 -0.55541031718E+01 -0.83161137775E+01  0.11137608741E+02  0.14968371292E+02  0.51100000000E-03 0.  1.
         11    1    3    3    0    0  0.55541031718E+01  0.83161137775E+01  0.11309984838E+02  0.15097071494E+02  0.51100000000E-03 0. -1.
<mgrwt>
<rscale>  0 0.20000910E+02</rscale>
<asrwt>0</asrwt>
<pdfrwt beam="1">  1        2 0.40394642E-02 0.20000910E+02</pdfrwt>
<pdfrwt beam="2">  1       -2 0.58598842E-03 0.20000910E+02</pdfrwt>
<totfact> 0.42762338E+06</totfact>
</mgrwt>
</event>
<event>
 5    1  0.4046313E-006  0.2000584E+02  0.7818608E-02  0.1745212E+00
         -2   -1    0    0    0  501 -0.00000000000E+00  0.00000000000E+00  0.61746937375E+01  0.61746942849E+01  0.26000000000E-02 0.  1.
          2   -1    0    0  501    0  0.00000000000E+00 -0.00000000000E+00 -0.16204599345E+02  0.16204599553E+02  0.26000000000E-02 0. -1.
       1023    2    1    2    0    0  0.00000000000E+00  0.00000000000E+00 -0.10029905607E+02  0.22379293838E+02  0.20005843801E+02 0.  0.
        -11    1    3    3    0    0  0.71205596548E+01 -0.70252213978E+01 -0.49608310427E+01  0.11165390740E+02  0.51100000000E-03 0.  1.
         11    1    3    3    0    0 -0.71205596548E+01  0.70252213978E+01 -0.50690745644E+01  0.11213903098E+02  0.51100000000E-03 0. -1.
<mgrwt>
<rscale>  0 0.20005844E+02</rscale>
<asrwt>0</asrwt>
<pdfrwt beam="2">  1        2 0.24930153E-02 0.20005844E+02</pdfrwt>
<pdfrwt beam="1">  1       -2 0.94995295E-03 0.20005844E+02</pdfrwt>
<totfact> 0.40915127E+06</totfact>
</mgrwt>
</event>
<event>
 5    1  0.4046313E-006  0.2000015E+02  0.7818608E-02  0.1745325E+00
          2   -1    0    0  501    0  0.00000000000E+00  0.00000000000E+00  0.39551078076E+02  0.39551078162E+02  0.26000000000E-02 0.  1.
         -2   -1    0    0    0  501 -0.00000000000E+00 -0.00000000000E+00 -0.25284125329E+01  0.25284138697E+01  0.26000000000E-02 0. -1.
       1023    2    1    2    0    0  0.00000000000E+00  0.00000000000E+00  0.37022665543E+02  0.42079492031E+02  0.20000147142E+02 0.  0.
        -11    1    3    3    0    0 -0.16989412081E+01  0.98546973828E+01  0.18504872860E+02  0.21034062412E+02  0.51100000000E-03 0.  1.
         11    1    3    3    0    0  0.16989412081E+01 -0.98546973828E+01  0.18517792684E+02  0.21045429620E+02  0.51100000000E-03 0. -1.
<mgrwt>
<rscale>  0 0.20000147E+02</rscale>
<asrwt>0</asrwt>
<pdfrwt beam="1">  1        2 0.60847813E-02 0.20000147E+02</pdfrwt>
<pdfrwt beam="2">  1       -2 0.38898665E-03 0.20000147E+02</pdfrwt>
<totfact> 0.44829473E+06</totfact>
</mgrwt>
</event>
<event>
 5    1  0.4046313E-006  0.2000049E+02  0.7818608E-02  0.1745318E+00
          2   -1    0    0  501    0  0.00000000000E+00  0.00000000000E+00  0.30055781785E+01  0.30055793031E+01  0.26000000000E-02 0.  1.
         -2   -1    0    0    0  501 -0.00000000000E+00 -0.00000000000E+00 -0.33273075818E+02  0.33273075919E+02  0.26000000000E-02 0. -1.
       1023    2    1    2    0    0  0.00000000000E+00  0.00000000000E+00 -0.30267497639E+02  0.36278655222E+02  0.20000485279E+02 0.  0.
        -11    1    3    3    0    0 -0.40202855534E+01 -0.91564014433E+01 -0.15223884097E+02  0.18214528009E+02  0.51100000000E-03 0. -1.
         11    1    3    3    0    0  0.40202855534E+01  0.91564014433E+01 -0.15043613543E+02  0.18064127214E+02  0.51100000000E-03 0.  1.
<mgrwt>
<rscale>  0 0.20000485E+02</rscale>
<asrwt>0</asrwt>
<pdfrwt beam="1">  1        2 0.46239676E-03 0.20000485E+02</pdfrwt>
<pdfrwt beam="2">  1       -2 0.51189346E-02 0.20000485E+02</pdfrwt>
<totfact> 0.35670294E+06</totfact>
</mgrwt>
</event>
<event>
 5    1  0.4046313E-006  0.2000036E+02  0.7818608E-02  0.1745321E+00
         -2   -1    0    0    0  501 -0.00000000000E+00  0.00000000000E+00  0.10596545914E+02  0.10596546233E+02  0.26000000000E-02 0. -1.
          2   -1    0    0  501    0  0.00000000000E+00 -0.00000000000E+00 -0.94373736350E+01  0.94373739931E+01  0.26000000000E-02 0.  1.
       1023    2    1    2    0    0  0.00000000000E+00  0.00000000000E+00  0.11591722792E+01  0.20033920226E+02  0.20000356978E+02 0.  0.
        -11    1    3    3    0    0 -0.18823005687E+01  0.98212594533E+01  0.52137774263E+00  0.10013592147E+02  0.51100000000E-03 0.  1.
         11    1    3    3    0    0  0.18823005687E+01 -0.98212594533E+01  0.63779453660E+00  0.10020328079E+02  0.51100000000E-03 0. -1.
<mgrwt>
<rscale>  0 0.20000357E+02</rscale>
<asrwt>0</asrwt>
<pdfrwt beam="2">  1        2 0.14519037E-02 0.20000357E+02</pdfrwt>
<pdfrwt beam="1">  1       -2 0.16302379E-02 0.20000357E+02</pdfrwt>
<totfact> 0.39294659E+06</totfact>
</mgrwt>
</event>
<event>
 4    1  0.4046313E-006  0.2002456E+02  0.7818608E-02  0.1744840E+00
         -2   -1    0    0    0  501 -0.00000000000E+00  0.00000000000E+00  0.11814149900E+01  0.11814178509E+01  0.26000000000E-02 0.  1.
          2   -1    0    0  501    0  0.00000000000E+00 -0.00000000000E+00 -0.84852174234E+02  0.84852174274E+02  0.26000000000E-02 0. -1.
        -11    1    1    2    0    0  0.18172196858E+01 -0.98459332075E+01 -0.41695038953E+02  0.42880309720E+02  0.51100000000E-03 0. -1.
         11    1    1    2    0    0 -0.18172196858E+01  0.98459332075E+01 -0.41975720291E+02  0.43153282405E+02  0.51100000000E-03 0.  1.
<mgrwt>
<rscale>  0 0.20024560E+02</rscale>
<asrwt>0</asrwt>
<pdfrwt beam="2">  1        2 0.13054176E-01 0.20024560E+02</pdfrwt>
<pdfrwt beam="1">  1       -2 0.18175644E-03 0.20024560E+02</pdfrwt>
<totfact> 0.50769475E+06</totfact>
</mgrwt>
</event>
<event>
 5    1  0.4105465E-006  0.2000688E+02  0.7818608E-02  0.1745191E+00
          2   -1    0    0  501    0  0.00000000000E+00  0.00000000000E+00  0.97367550082E+02  0.97367550117E+02  0.26000000000E-02 0. -1.
         -2   -1    0    0    0  501 -0.00000000000E+00 -0.00000000000E+00 -0.10277411468E+01  0.10277444356E+01  0.26000000000E-02 0.  1.
       1023    2    1    2    0    0  0.00000000000E+00  0.00000000000E+00  0.96339808936E+02  0.98395294553E+02  0.20006878926E+02 0.  0.
        -11    1    3    3    0    0 -0.84788277371E+01  0.53018881709E+01  0.49454857402E+02  0.50455757440E+02  0.51100000000E-03 0. -1.
         11    1    3    3    0    0  0.84788277371E+01 -0.53018881709E+01  0.46884951534E+02  0.47939537112E+02  0.51100000000E-03 0.  1.
<mgrwt>
<rscale>  0 0.20006879E+02</rscale>
<asrwt>0</asrwt>
<pdfrwt beam="1">  1        2 0.14979626E-01 0.20006879E+02</pdfrwt>
<pdfrwt beam="2">  1       -2 0.15811425E-03 0.20006879E+02</pdfrwt>
<totfact> 0.52401854E+06</totfact>
</mgrwt>
</event>
<event>
 5    1  0.4082026E-006  0.2000132E+02  0.7818608E-02  0.1745302E+00
          2   -1    0    0  501    0  0.00000000000E+00  0.00000000000E+00  0.41657691386E+02  0.41657691467E+02  0.26000000000E-02 0. -1.
         -2   -1    0    0    0  501 -0.00000000000E+00 -0.00000000000E+00 -0.24008335318E+01  0.24008349397E+01  0.26000000000E-02 0.  1.
       1023    2    1    2    0    0  0.00000000000E+00  0.00000000000E+00  0.39256857854E+02  0.44058526407E+02  0.20001321470E+02 0.  0.
        -11    1    3    3    0    0  0.10371921558E+01 -0.99467260320E+01  0.19649157813E+02  0.22047732975E+02  0.51100000000E-03 0. -1.
         11    1    3    3    0    0 -0.10371921558E+01  0.99467260320E+01  0.19607700041E+02  0.22010793432E+02  0.51100000000E-03 0.  1.
<mgrwt>
<rscale>  0 0.20001321E+02</rscale>
<asrwt>0</asrwt>
<pdfrwt beam="1">  1        2 0.64088752E-02 0.20001321E+02</pdfrwt>
<pdfrwt beam="2">  1       -2 0.36935915E-03 0.20001321E+02</pdfrwt>
<totfact> 0.45132256E+06</totfact>
</mgrwt>
</event>
<event>
 5    1  0.4046313E-006  0.2000048E+02  0.7818608E-02  0.1745318E+00
          2   -1    0    0  501    0  0.00000000000E+00  0.00000000000E+00  0.18843382028E+01  0.18843399965E+01  0.26000000000E-02 0.  1.
         -2   -1    0    0    0  501 -0.00000000000E+00 -0.00000000000E+00 -0.53071572224E+02  0.53071572288E+02  0.26000000000E-02 0. -1.
       1023    2    1    2    0    0  0.00000000000E+00  0.00000000000E+00 -0.51187234021E+02  0.54955912284E+02  0.20000484200E+02 0.  0.
        -11    1    3    3    0    0 -0.36334691885E+01 -0.93167310938E+01 -0.25495881872E+02  0.27386923327E+02  0.51100000000E-03 0. -1.
         11    1    3    3    0    0  0.36334691885E+01  0.93167310938E+01 -0.25691352149E+02  0.27568988957E+02  0.51100000000E-03 0.  1.
<mgrwt>
<rscale>  0 0.20000484E+02</rscale>
<asrwt>0</asrwt>
<pdfrwt beam="1">  1        2 0.28989837E-03 0.20000484E+02</pdfrwt>
<pdfrwt beam="2">  1       -2 0.81648563E-02 0.20000484E+02</pdfrwt>
<totfact> 0.33600979E+06</totfact>
</mgrwt>
</event>
<event>
 5    1  0.4054356E-006  0.2000055E+02  0.7818608E-02  0.1745317E+00
          2   -1    0    0  501    0  0.00000000000E+00  0.00000000000E+00  0.91831554995E+02  0.91831555032E+02  0.26000000000E-02 0.  1.
         -2   -1    0    0    0  501 -0.00000000000E+00 -0.00000000000E+00 -0.10890082098E+01  0.10890113136E+01  0.26000000000E-02 0. -1.
       1023    2    1    2    0    0  0.00000000000E+00  0.00000000000E+00  0.90742546786E+02  0.92920566346E+02  0.20000546315E+02 0.  0.
        -11    1    3    3    0    0  0.40224629268E+01 -0.91554232149E+01  0.45645370511E+02  0.46727955568E+02  0.51100000000E-03 0.  1.
         11    1    3    3    0    0 -0.40224629268E+01  0.91554232149E+01  0.45097176275E+02  0.46192610778E+02  0.51100000000E-03 0. -1.
<mgrwt>
<rscale>  0 0.20000546E+02</rscale>
<asrwt>0</asrwt>
<pdfrwt beam="1">  1        2 0.14127935E-01 0.20000546E+02</pdfrwt>
<pdfrwt beam="2">  1       -2 0.16753993E-03 0.20000546E+02</pdfrwt>
<totfact> 0.51766208E+06</totfact>
</mgrwt>
</event>
<event>
 5    1  0.4046313E-006  0.2000368E+02  0.7818608E-02  0.1745255E+00
          2   -1    0    0  501    0  0.00000000000E+00  0.00000000000E+00  0.15687942406E+02  0.15687942621E+02  0.26000000000E-02 0.  1.
         -2   -1    0    0    0  501 -0.00000000000E+00 -0.00000000000E+00 -0.63766670666E+01  0.63766675967E+01  0.26000000000E-02 0. -1.
       1023    2    1    2    0    0  0.00000000000E+00  0.00000000000E+00  0.93112753391E+01  0.22064610218E+02  0.20003679052E+02 0.  0.
        -11    1    3    3    0    0  0.96708945201E+01  0.25515598296E+01  0.46428091962E+01  0.11026891487E+02  0.51100000000E-03 0. -1.
         11    1    3    3    0    0 -0.96708945201E+01 -0.25515598296E+01  0.46684661428E+01  0.11037718730E+02  0.51100000000E-03 0.  1.
<mgrwt>
<rscale>  0 0.20003679E+02</rscale>
<asrwt>0</asrwt>
<pdfrwt beam="1">  1        2 0.24135297E-02 0.20003679E+02</pdfrwt>
<pdfrwt beam="2">  1       -2 0.98102576E-03 0.20003679E+02</pdfrwt>
<totfact> 0.40818214E+06</totfact>
</mgrwt>
</event>
<event>
 5    1  0.4046313E-006  0.2000036E+02  0.7818608E-02  0.1745321E+00
          2   -1    0    0  501    0  0.00000000000E+00  0.00000000000E+00  0.47667784640E+02  0.47667784711E+02  0.26000000000E-02 0.  1.
         -2   -1    0    0    0  501 -0.00000000000E+00 -0.00000000000E+00 -0.20979271672E+01  0.20979287783E+01  0.26000000000E-02 0. -1.
       1023    2    1    2    0    0  0.00000000000E+00  0.00000000000E+00  0.45569857473E+02  0.49765713489E+02  0.20000358222E+02 0.  0.
        -11    1    3    3    0    0  0.82088012363E+01 -0.57112089730E+01  0.22873123404E+02  0.24963615527E+02  0.51100000000E-03 0.  1.
         11    1    3    3    0    0 -0.82088012363E+01  0.57112089730E+01  0.22696734069E+02  0.24802097962E+02  0.51100000000E-03 0. -1.
<mgrwt>
<rscale>  0 0.20000358E+02</rscale>
<asrwt>0</asrwt>
<pdfrwt beam="1">  1        2 0.73335044E-02 0.20000358E+02</pdfrwt>
<pdfrwt beam="2">  1       -2 0.32275820E-03 0.20000358E+02</pdfrwt>
<totfact> 0.45998660E+06</totfact>
</mgrwt>
</event>
<event>
 5    1  0.4046313E-006  0.2000045E+02  0.7818608E-02  0.1745319E+00
         -2   -1    0    0    0  501 -0.00000000000E+00  0.00000000000E+00  0.19224071395E+01  0.19224088978E+01  0.26000000000E-02 0. -1.
          2   -1    0    0  501    0  0.00000000000E+00 -0.00000000000E+00 -0.52020422018E+02  0.52020422083E+02  0.26000000000E-02 0.  1.
       1023    2    1    2    0    0  0.00000000000E+00  0.00000000000E+00 -0.50098014878E+02  0.53942830981E+02  0.20000447981E+02 0.  0.
        -11    1    3    3    0    0 -0.40143196159E+01  0.91591329885E+01 -0.25050957275E+02  0.26973226350E+02  0.51100000000E-03 0.  1.
         11    1    3    3    0    0  0.40143196159E+01 -0.91591329885E+01 -0.25047057603E+02  0.26969604630E+02  0.51100000000E-03 0. -1.
<mgrwt>
<rscale>  0 0.20000448E+02</rscale>
<asrwt>0</asrwt>
<pdfrwt beam="2">  1        2 0.80031409E-02 0.20000448E+02</pdfrwt>
<pdfrwt beam="1">  1       -2 0.29575512E-03 0.20000448E+02</pdfrwt>
<totfact> 0.46606889E+06</totfact>
</mgrwt>
</event>
<event>
 5    1  0.4449921E-006  0.2000130E+02  0.7818608E-02  0.1745302E+00
          2   -1    0    0  501    0  0.00000000000E+00  0.00000000000E+00  0.10844999578E+03  0.10844999581E+03  0.26000000000E-02 0.  1.
         -2   -1    0    0    0  501 -0.00000000000E+00 -0.00000000000E+00 -0.92220226490E+00  0.92220593004E+00  0.26000000000E-02 0. -1.
       1023    2    1    2    0    0  0.00000000000E+00  0.00000000000E+00  0.10752779351E+03  0.10937220174E+03  0.20001303345E+02 0.  0.
        -11    1    3    3    0    0 -0.29716642372E+01 -0.95483576728E+01  0.53187494413E+02  0.54119418740E+02  0.51100000000E-03 0. -1.
         11    1    3    3    0    0  0.29716642372E+01  0.95483576728E+01  0.54340299101E+02  0.55252783000E+02  0.51100000000E-03 0.  1.
<mgrwt>
<rscale>  0 0.20001303E+02</rscale>
<asrwt>0</asrwt>
<pdfrwt beam="1">  1        2 0.16684609E-01 0.20001303E+02</pdfrwt>
<pdfrwt beam="2">  1       -2 0.14187761E-03 0.20001303E+02</pdfrwt>
<totfact> 0.53750695E+06</totfact>
</mgrwt>
</event>
<event>
 5    1  0.4046313E-006  0.2000056E+02  0.7818608E-02  0.1745317E+00
         -2   -1    0    0    0  501 -0.00000000000E+00  0.00000000000E+00  0.41500644084E+01  0.41500652229E+01  0.26000000000E-02 0. -1.
          2   -1    0    0  501    0  0.00000000000E+00 -0.00000000000E+00 -0.24097359817E+02  0.24097359957E+02  0.26000000000E-02 0.  1.
       1023    2    1    2    0    0  0.00000000000E+00  0.00000000000E+00 -0.19947295409E+02  0.28247425180E+02  0.20000560872E+02 0.  0.
        -11    1    3    3    0    0 -0.96371120581E+01  0.26702044093E+01 -0.10031675965E+02  0.14164690019E+02  0.51100000000E-03 0.  1.
         11    1    3    3    0    0  0.96371120581E+01 -0.26702044093E+01 -0.99156194436E+01  0.14082735161E+02  0.51100000000E-03 0. -1.
<mgrwt>
<rscale>  0 0.20000561E+02</rscale>
<asrwt>0</asrwt>
<pdfrwt beam="2">  1        2 0.37072861E-02 0.20000561E+02</pdfrwt>
<pdfrwt beam="1">  1       -2 0.63847154E-03 0.20000561E+02</pdfrwt>
<totfact> 0.42400769E+06</totfact>
</mgrwt>
</event>
<event>
 4    1  0.4046313E-006  0.2014968E+02  0.7818608E-02  0.1742368E+00
         -2   -1    0    0    0  501 -0.00000000000E+00  0.00000000000E+00  0.10364090189E+02  0.10364090515E+02  0.26000000000E-02 0. -1.
          2   -1    0    0  501    0  0.00000000000E+00 -0.00000000000E+00 -0.97936592565E+01  0.97936596016E+01  0.26000000000E-02 0.  1.
        -11    1    1    2    0    0 -0.95580260768E+01 -0.29926221506E+01  0.13768558793E+01  0.10109766674E+02  0.51100000000E-03 0. -1.
         11    1    1    2    0    0  0.95580260768E+01  0.29926221506E+01 -0.80642494657E+00  0.10047983443E+02  0.51100000000E-03 0.  1.
<mgrwt>
<rscale>  0 0.20149677E+02</rscale>
<asrwt>0</asrwt>
<pdfrwt beam="2">  1        2 0.15067169E-02 0.20149677E+02</pdfrwt>
<pdfrwt beam="1">  1       -2 0.15944755E-02 0.20149677E+02</pdfrwt>
<totfact> 0.38736782E+06</totfact>
</mgrwt>
</event>
<event>
 4    1  0.4046313E-006  0.2001272E+02  0.7818608E-02  0.1745075E+00
         -2   -1    0    0    0  501 -0.00000000000E+00  0.00000000000E+00  0.86240476487E+01  0.86240480406E+01  0.26000000000E-02 0.  1.
          2   -1    0    0  501    0  0.00000000000E+00 -0.00000000000E+00 -0.11610242118E+02  0.11610242409E+02  0.26000000000E-02 0. -1.
        -11    1    1    2    0    0 -0.38025898293E+00 -0.99975716362E+01 -0.13143566173E+01  0.10090766527E+02  0.51100000000E-03 0.  1.
         11    1    1    2    0    0  0.38025898293E+00  0.99975716362E+01 -0.16718378520E+01  0.10143523923E+02  0.51100000000E-03 0. -1.
<mgrwt>
<rscale>  0 0.20012725E+02</rscale>
<asrwt>0</asrwt>
<pdfrwt beam="2">  1        2 0.17861912E-02 0.20012725E+02</pdfrwt>
<pdfrwt beam="1">  1       -2 0.13267766E-02 0.20012725E+02</pdfrwt>
<totfact> 0.39842534E+06</totfact>
</mgrwt>
</event>
<event>
 5    1  0.4046313E-006  0.2000293E+02  0.7818608E-02  0.1745270E+00
          2   -1    0    0  501    0  0.00000000000E+00  0.00000000000E+00  0.59639654232E+02  0.59639654289E+02  0.26000000000E-02 0.  1.
         -2   -1    0    0    0  501 -0.00000000000E+00 -0.00000000000E+00 -0.16772270466E+01  0.16772290618E+01  0.26000000000E-02 0. -1.
       1023    2    1    2    0    0  0.00000000000E+00  0.00000000000E+00  0.57962427186E+02  0.61316883351E+02  0.20002930250E+02 0.  0.
        -11    1    3    3    0    0 -0.42833475847E+01 -0.90374186767E+01  0.29243148316E+02  0.30906046763E+02  0.51100000000E-03 0. -1.
         11    1    3    3    0    0  0.42833475847E+01  0.90374186767E+01  0.28719278870E+02  0.30410836587E+02  0.51100000000E-03 0.  1.
<mgrwt>
<rscale>  0 0.20002930E+02</rscale>
<asrwt>0</asrwt>
<pdfrwt beam="1">  1        2 0.91753333E-02 0.20002930E+02</pdfrwt>
<pdfrwt beam="2">  1       -2 0.25803504E-03 0.20002930E+02</pdfrwt>
<totfact> 0.47633725E+06</totfact>
</mgrwt>
</event>
<event>
 5    1  0.4046313E-006  0.2000262E+02  0.7818608E-02  0.1745276E+00
          2   -1    0    0  501    0  0.00000000000E+00  0.00000000000E+00  0.44659418073E+01  0.44659425641E+01  0.26000000000E-02 0.  1.
         -2   -1    0    0    0  501 -0.00000000000E+00 -0.00000000000E+00 -0.22397560670E+02  0.22397560821E+02  0.26000000000E-02 0. -1.
       1023    2    1    2    0    0  0.00000000000E+00  0.00000000000E+00 -0.17931618863E+02  0.26863503385E+02  0.20002621305E+02 0.  0.
        -11    1    3    3    0    0 -0.48501889700E+01  0.87464985462E+01 -0.89999080465E+01  0.13454512811E+02  0.51100000000E-03 0. -1.
         11    1    3    3    0    0  0.48501889700E+01 -0.87464985462E+01 -0.89317108164E+01  0.13408990575E+02  0.51100000000E-03 0.  1.
<mgrwt>
<rscale>  0 0.20002621E+02</rscale>
<asrwt>0</asrwt>
<pdfrwt beam="1">  1        2 0.68706805E-03 0.20002621E+02</pdfrwt>
<pdfrwt beam="2">  1       -2 0.34457786E-02 0.20002621E+02</pdfrwt>
<totfact> 0.37063046E+06</totfact>
</mgrwt>
</event>
<event>
 5    1  0.4124608E-006  0.2000101E+02  0.7818608E-02  0.1745308E+00
          2   -1    0    0  501    0  0.00000000000E+00  0.00000000000E+00  0.46748557758E+02  0.46748557830E+02  0.26000000000E-02 0.  1.
         -2   -1    0    0    0  501 -0.00000000000E+00 -0.00000000000E+00 -0.21393179333E+01  0.21393195132E+01  0.26000000000E-02 0. -1.
       1023    2    1    2    0    0  0.00000000000E+00  0.00000000000E+00  0.44609239824E+02  0.48887877343E+02  0.20001006810E+02 0.  0.
        -11    1    3    3    0    0  0.97353506076E+01  0.22868178006E+01  0.22448831619E+02  0.24575529057E+02  0.51100000000E-03 0. -1.
         11    1    3    3    0    0 -0.97353506076E+01 -0.22868178006E+01  0.22160408205E+02  0.24312348286E+02  0.51100000000E-03 0.  1.
<mgrwt>
<rscale>  0 0.20001007E+02</rscale>
<asrwt>0</asrwt>
<pdfrwt beam="1">  1        2 0.71920867E-02 0.20001007E+02</pdfrwt>
<pdfrwt beam="2">  1       -2 0.32912593E-03 0.20001007E+02</pdfrwt>
<totfact> 0.45865251E+06</totfact>
</mgrwt>
</event>
<event>
 5    1  0.4046313E-006  0.2000364E+02  0.7818608E-02  0.1745256E+00
          2   -1    0    0  501    0  0.00000000000E+00  0.00000000000E+00  0.13461784860E+02  0.13461785111E+02  0.26000000000E-02 0. -1.
         -2   -1    0    0    0  501 -0.00000000000E+00 -0.00000000000E+00 -0.74311423733E+01  0.74311428282E+01  0.26000000000E-02 0.  1.
       1023    2    1    2    0    0  0.00000000000E+00  0.00000000000E+00  0.60306424867E+01  0.20892927939E+02  0.20003644395E+02 0.  0.
        -11    1    3    3    0    0 -0.31892049623E+00 -0.99954837926E+01  0.28500446024E+01  0.10398757667E+02  0.51100000000E-03 0.  1.
         11    1    3    3    0    0  0.31892049623E+00  0.99954837926E+01  0.31805978843E+01  0.10494170272E+02  0.51100000000E-03 0. -1.
<mgrwt>
<rscale>  0 0.20003644E+02</rscale>
<asrwt>0</asrwt>
<pdfrwt beam="1">  1        2 0.20710439E-02 0.20003644E+02</pdfrwt>
<pdfrwt beam="2">  1       -2 0.11432527E-02 0.20003644E+02</pdfrwt>
<totfact> 0.40331763E+06</totfact>
</mgrwt>
</event>
<event>
 5    1  0.4046313E-006  0.2000051E+02  0.7818608E-02  0.1745318E+00
         -2   -1    0    0    0  501 -0.00000000000E+00  0.00000000000E+00  0.53700464530E+02  0.53700464593E+02  0.26000000000E-02 0.  1.
          2   -1    0    0  501    0  0.00000000000E+00 -0.00000000000E+00 -0.18622755502E+01  0.18622773652E+01  0.26000000000E-02 0. -1.
       1023    2    1    2    0    0  0.00000000000E+00  0.00000000000E+00  0.51838188980E+02  0.55562741959E+02  0.20000511424E+02 0.  0.
        -11    1    3    3    0    0 -0.81416703473E+01 -0.58066516636E+01  0.26011835931E+02  0.27867895657E+02  0.51100000000E-03 0. -1.
         11    1    3    3    0    0  0.81416703473E+01  0.58066516636E+01  0.25826353050E+02  0.27694846302E+02  0.51100000000E-03 0.  1.
<mgrwt>
<rscale>  0 0.20000511E+02</rscale>
<asrwt>0</asrwt>
<pdfrwt beam="2">  1        2 0.28650408E-03 0.20000511E+02</pdfrwt>
<pdfrwt beam="1">  1       -2 0.82616099E-02 0.20000511E+02</pdfrwt>
<totfact> 0.33541188E+06</totfact>
</mgrwt>
</event>
<event>
 5    1  0.4046313E-006  0.2000139E+02  0.7818608E-02  0.1745301E+00
          2   -1    0    0  501    0  0.00000000000E+00  0.00000000000E+00  0.23742253079E+02  0.23742253221E+02  0.26000000000E-02 0. -1.
         -2   -1    0    0    0  501 -0.00000000000E+00 -0.00000000000E+00 -0.42124833179E+01  0.42124841203E+01  0.26000000000E-02 0.  1.
       1023    2    1    2    0    0  0.00000000000E+00  0.00000000000E+00  0.19529769761E+02  0.27954737341E+02  0.20001385775E+02 0.  0.
        -11    1    3    3    0    0 -0.37009353995E+01 -0.92901728799E+01  0.96277807594E+01  0.13881584837E+02  0.51100000000E-03 0. -1.
         11    1    3    3    0    0  0.37009353995E+01  0.92901728799E+01  0.99019890013E+01  0.14073152504E+02  0.51100000000E-03 0.  1.
<mgrwt>
<rscale>  0 0.20001386E+02</rscale>
<asrwt>0</asrwt>
<pdfrwt beam="1">  1        2 0.36526544E-02 0.20001386E+02</pdfrwt>
<pdfrwt beam="2">  1       -2 0.64807443E-03 0.20001386E+02</pdfrwt>
<totfact> 0.42336000E+06</totfact>
</mgrwt>
</event>
<event>
 5    1  0.4046313E-006  0.2000069E+02  0.7818608E-02  0.1745314E+00
         -2   -1    0    0    0  501 -0.00000000000E+00  0.00000000000E+00  0.19530896448E+02  0.19530896621E+02  0.26000000000E-02 0. -1.
          2   -1    0    0  501    0  0.00000000000E+00 -0.00000000000E+00 -0.51204476255E+01  0.51204482856E+01  0.26000000000E-02 0.  1.
       1023    2    1    2    0    0  0.00000000000E+00  0.00000000000E+00  0.14410448823E+02  0.24651344907E+02  0.20000694249E+02 0.  0.
        -11    1    3    3    0    0 -0.57882881019E+01  0.81549160715E+01  0.72085005977E+01  0.12327587615E+02  0.51100000000E-03 0. -1.
         11    1    3    3    0    0  0.57882881019E+01 -0.81549160715E+01  0.72019482249E+01  0.12323757291E+02  0.51100000000E-03 0.  1.
<mgrwt>
<rscale>  0 0.20000694E+02</rscale>
<asrwt>0</asrwt>
<pdfrwt beam="2">  1        2 0.78776124E-03 0.20000694E+02</pdfrwt>
<pdfrwt beam="1">  1       -2 0.30047533E-02 0.20000694E+02</pdfrwt>
<totfact> 0.37504904E+06</totfact>
</mgrwt>
</event>
<event>
 5    1  0.4046313E-006  0.2000033E+02  0.7818608E-02  0.1745322E+00
         -2   -1    0    0    0  501 -0.00000000000E+00  0.00000000000E+00  0.17396555340E+01  0.17396574769E+01  0.26000000000E-02 0.  1.
          2   -1    0    0  501    0  0.00000000000E+00 -0.00000000000E+00 -0.57484509577E+02  0.57484509636E+02  0.26000000000E-02 0. -1.
       1023    2    1    2    0    0  0.00000000000E+00  0.00000000000E+00 -0.55744854043E+02  0.59224167113E+02  0.20000330445E+02 0.  0.
        -11    1    3    3    0    0  0.79433400130E+01  0.60748365955E+01 -0.27709859879E+02  0.29459066940E+02  0.51100000000E-03 0.  1.
         11    1    3    3    0    0 -0.79433400130E+01 -0.60748365955E+01 -0.28034994165E+02  0.29765100173E+02  0.51100000000E-03 0. -1.
<mgrwt>
<rscale>  0 0.20000330E+02</rscale>
<asrwt>0</asrwt>
<pdfrwt beam="2">  1        2 0.88437694E-02 0.20000330E+02</pdfrwt>
<pdfrwt beam="1">  1       -2 0.26763951E-03 0.20000330E+02</pdfrwt>
<totfact> 0.47356167E+06</totfact>
</mgrwt>
</event>
<event>
 5    1  0.4046313E-006  0.2000093E+02  0.7818608E-02  0.1745310E+00
         -2   -1    0    0    0  501 -0.00000000000E+00  0.00000000000E+00  0.16363097852E+01  0.16363118509E+01  0.26000000000E-02 0. -1.
          2   -1    0    0  501    0  0.00000000000E+00 -0.00000000000E+00 -0.61118774684E+02  0.61118774739E+02  0.26000000000E-02 0.  1.
       1023    2    1    2    0    0  0.00000000000E+00  0.00000000000E+00 -0.59482464899E+02  0.62755086590E+02  0.20000931541E+02 0.  0.
        -11    1    3    3    0    0  0.64827773765E+01 -0.76140904642E+01 -0.29451292087E+02  0.31102723063E+02  0.51100000000E-03 0.  1.
         11    1    3    3    0    0 -0.64827773765E+01  0.76140904642E+01 -0.30031172812E+02  0.31652363527E+02  0.51100000000E-03 0. -1.
<mgrwt>
<rscale>  0 0.20000932E+02</rscale>
<asrwt>0</asrwt>
<pdfrwt beam="2">  1        2 0.94028868E-02 0.20000932E+02</pdfrwt>
<pdfrwt beam="1">  1       -2 0.25174018E-03 0.20000932E+02</pdfrwt>
<totfact> 0.47842954E+06</totfact>
</mgrwt>
</event>
<event>
 5    1  0.4046313E-006  0.2000047E+02  0.7818608E-02  0.1745319E+00
          2   -1    0    0  501    0  0.00000000000E+00  0.00000000000E+00  0.48471568006E+02  0.48471568075E+02  0.26000000000E-02 0. -1.
         -2   -1    0    0    0  501 -0.00000000000E+00 -0.00000000000E+00 -0.20631617731E+01  0.20631634113E+01  0.26000000000E-02 0.  1.
       1023    2    1    2    0    0  0.00000000000E+00  0.00000000000E+00  0.46408406233E+02  0.50534731487E+02  0.20000472929E+02 0.  0.
        -11    1    3    3    0    0  0.99885650261E+01 -0.47844377174E+00  0.23371601174E+02  0.25421095205E+02  0.51100000000E-03 0. -1.
         11    1    3    3    0    0 -0.99885650261E+01  0.47844377174E+00  0.23036805058E+02  0.25113636281E+02  0.51100000000E-03 0.  1.
<mgrwt>
<rscale>  0 0.20000473E+02</rscale>
<asrwt>0</asrwt>
<pdfrwt beam="1">  1        2 0.74571643E-02 0.20000473E+02</pdfrwt>
<pdfrwt beam="2">  1       -2 0.31740964E-03 0.20000473E+02</pdfrwt>
<totfact> 0.46111371E+06</totfact>
</mgrwt>
</event>
<event>
 5    1  0.4046313E-006  0.2000033E+02  0.7818608E-02  0.1745322E+00
          2   -1    0    0  501    0  0.00000000000E+00  0.00000000000E+00  0.14051145898E+02  0.14051146139E+02  0.26000000000E-02 0.  1.
         -2   -1    0    0    0  501 -0.00000000000E+00 -0.00000000000E+00 -0.71170896319E+01  0.71170901069E+01  0.26000000000E-02 0. -1.
       1023    2    1    2    0    0  0.00000000000E+00  0.00000000000E+00  0.69340562662E+01  0.21168236246E+02  0.20000327233E+02 0.  0.
        -11    1    3    3    0    0  0.19020385447E+01  0.98176114420E+01  0.34725325786E+01  0.10585921208E+02  0.51100000000E-03 0.  1.
         11    1    3    3    0    0 -0.19020385447E+01 -0.98176114420E+01  0.34615236876E+01  0.10582315038E+02  0.51100000000E-03 0. -1.
<mgrwt>
<rscale>  0 0.20000327E+02</rscale>
<asrwt>0</asrwt>
<pdfrwt beam="1">  1        2 0.21617148E-02 0.20000327E+02</pdfrwt>
<pdfrwt beam="2">  1       -2 0.10949369E-02 0.20000327E+02</pdfrwt>
<totfact> 0.40480437E+06</totfact>
</mgrwt>
</event>
<event>
 5    1  0.4046313E-006  0.2000372E+02  0.7818608E-02  0.1745254E+00
          2   -1    0    0  501    0  0.00000000000E+00  0.00000000000E+00  0.34209550933E+01  0.34209560813E+01  0.26000000000E-02 0.  1.
         -2   -1    0    0    0  501 -0.00000000000E+00 -0.00000000000E+00 -0.29242458120E+02  0.29242458236E+02  0.26000000000E-02 0. -1.
       1023    2    1    2    0    0  0.00000000000E+00  0.00000000000E+00 -0.25821503027E+02  0.32663414317E+02  0.20003715062E+02 0.  0.
        -11    1    3    3    0    0 -0.50185768706E+01  0.86515998342E+01 -0.12862857698E+02  0.16293845523E+02  0.51100000000E-03 0.  1.
         11    1    3    3    0    0  0.50185768706E+01 -0.86515998342E+01 -0.12958645329E+02  0.16369568794E+02  0.51100000000E-03 0. -1.
<mgrwt>
<rscale>  0 0.20003715E+02</rscale>
<asrwt>0</asrwt>
<pdfrwt beam="1">  1        2 0.52630089E-03 0.20003715E+02</pdfrwt>
<pdfrwt beam="2">  1       -2 0.44988396E-02 0.20003715E+02</pdfrwt>
<totfact> 0.36143517E+06</totfact>
</mgrwt>
</event>
<event>
 5    1  0.4046313E-006  0.2000058E+02  0.7818608E-02  0.1745316E+00
          2   -1    0    0  501    0  0.00000000000E+00  0.00000000000E+00  0.13716052748E+02  0.13716052994E+02  0.26000000000E-02 0. -1.
         -2   -1    0    0    0  501 -0.00000000000E+00 -0.00000000000E+00 -0.72911525067E+01  0.72911529703E+01  0.26000000000E-02 0.  1.
       1023    2    1    2    0    0  0.00000000000E+00  0.00000000000E+00  0.64249002409E+01  0.21007205964E+02  0.20000583975E+02 0.  0.
        -11    1    3    3    0    0  0.25999152502E+01  0.96564029887E+01  0.32258013379E+01  0.10507686354E+02  0.51100000000E-03 0.  1.
         11    1    3    3    0    0 -0.25999152502E+01 -0.96564029887E+01  0.31990989031E+01  0.10499519610E+02  0.51100000000E-03 0. -1.
<mgrwt>
<rscale>  0 0.20000584E+02</rscale>
<asrwt>0</asrwt>
<pdfrwt beam="1">  1        2 0.21101620E-02 0.20000584E+02</pdfrwt>
<pdfrwt beam="2">  1       -2 0.11217158E-02 0.20000584E+02</pdfrwt>
<totfact> 0.40403821E+06</totfact>
</mgrwt>
</event>
<event>
 5    1  0.4624378E-006  0.2000114E+02  0.7818608E-02  0.1745305E+00
          2   -1    0    0  501    0  0.00000000000E+00  0.00000000000E+00  0.10839704462E+03  0.10839704465E+03  0.26000000000E-02 0. -1.
         -2   -1    0    0    0  501 -0.00000000000E+00 -0.00000000000E+00 -0.92263781396E+00  0.92264147736E+00  0.26000000000E-02 0.  1.
       1023    2    1    2    0    0  0.00000000000E+00  0.00000000000E+00  0.10747440681E+03  0.10931968613E+03  0.20001141391E+02 0.  0.
        -11    1    3    3    0    0 -0.10977851315E+01  0.99401237228E+01  0.53818668614E+02  0.54739933170E+02  0.51100000000E-03 0. -1.
         11    1    3    3    0    0  0.10977851315E+01 -0.99401237228E+01  0.53655738195E+02  0.54579752961E+02  0.51100000000E-03 0.  1.
<mgrwt>
<rscale>  0 0.20001141E+02</rscale>
<asrwt>0</asrwt>
<pdfrwt beam="1">  1        2 0.16676464E-01 0.20001141E+02</pdfrwt>
<pdfrwt beam="2">  1       -2 0.14194461E-03 0.20001141E+02</pdfrwt>
<totfact> 0.53745455E+06</totfact>
</mgrwt>
</event>
<event>
 5    1  0.4046313E-006  0.2000026E+02  0.7818608E-02  0.1745323E+00
         -2   -1    0    0    0  501 -0.00000000000E+00  0.00000000000E+00  0.74837032929E+01  0.74837037446E+01  0.26000000000E-02 0.  1.
          2   -1    0    0  501    0  0.00000000000E+00 -0.00000000000E+00 -0.13362720027E+02  0.13362720280E+02  0.26000000000E-02 0. -1.
       1023    2    1    2    0    0  0.00000000000E+00  0.00000000000E+00 -0.58790167337E+01  0.20846424024E+02  0.20000263919E+02 0.  0.
        -11    1    3    3    0    0 -0.99392378202E+01  0.11013862822E+01 -0.29043351856E+01  0.10413292626E+02  0.51100000000E-03 0.  1.
         11    1    3    3    0    0  0.99392378202E+01 -0.11013862822E+01 -0.29746815480E+01  0.10433131398E+02  0.51100000000E-03 0. -1.
<mgrwt>
<rscale>  0 0.20000264E+02</rscale>
<asrwt>0</asrwt>
<pdfrwt beam="2">  1        2 0.20558031E-02 0.20000264E+02</pdfrwt>
<pdfrwt beam="1">  1       -2 0.11513390E-02 0.20000264E+02</pdfrwt>
<totfact> 0.40324418E+06</totfact>
</mgrwt>
</event>
<event>
 5    1  0.4046313E-006  0.2000038E+02  0.7818608E-02  0.1745321E+00
         -2   -1    0    0    0  501 -0.00000000000E+00  0.00000000000E+00  0.25394850523E+02  0.25394850656E+02  0.26000000000E-02 0.  1.
          2   -1    0    0  501    0  0.00000000000E+00 -0.00000000000E+00 -0.39379556876E+01  0.39379565460E+01  0.26000000000E-02 0. -1.
       1023    2    1    2    0    0  0.00000000000E+00  0.00000000000E+00  0.21456894836E+02  0.29332807202E+02  0.20000381056E+02 0.  0.
        -11    1    3    3    0    0 -0.44345175846E+01 -0.89631840416E+01  0.10707916828E+02  0.14651385512E+02  0.51100000000E-03 0. -1.
         11    1    3    3    0    0  0.44345175846E+01  0.89631840416E+01  0.10748978007E+02  0.14681421690E+02  0.51100000000E-03 0.  1.
<mgrwt>
<rscale>  0 0.20000381E+02</rscale>
<asrwt>0</asrwt>
<pdfrwt beam="2">  1        2 0.60583941E-03 0.20000381E+02</pdfrwt>
<pdfrwt beam="1">  1       -2 0.39069002E-02 0.20000381E+02</pdfrwt>
<totfact> 0.36654103E+06</totfact>
</mgrwt>
</event>
<event>
 5    1  0.4046313E-006  0.2000495E+02  0.7818608E-02  0.1745230E+00
          2   -1    0    0  501    0  0.00000000000E+00  0.00000000000E+00  0.12013709084E+02  0.12013709365E+02  0.26000000000E-02 0. -1.
         -2   -1    0    0    0  501 -0.00000000000E+00 -0.00000000000E+00 -0.83279403187E+01  0.83279407246E+01  0.26000000000E-02 0.  1.
       1023    2    1    2    0    0  0.00000000000E+00  0.00000000000E+00  0.36857687654E+01  0.20341650090E+02  0.20004945313E+02 0.  0.
        -11    1    3    3    0    0 -0.70030371416E+01  0.71413079084E+01  0.19374613565E+01  0.10187961750E+02  0.51100000000E-03 0. -1.
         11    1    3    3    0    0  0.70030371416E+01 -0.71413079084E+01  0.17483074089E+01  0.10153688340E+02  0.51100000000E-03 0.  1.
<mgrwt>
<rscale>  0 0.20004945E+02</rscale>
<asrwt>0</asrwt>
<pdfrwt beam="1">  1        2 0.18482630E-02 0.20004945E+02</pdfrwt>
<pdfrwt beam="2">  1       -2 0.12812216E-02 0.20004945E+02</pdfrwt>
<totfact> 0.39979659E+06</totfact>
</mgrwt>
</event>
<event>
 5    1  0.4046313E-006  0.2000049E+02  0.7818608E-02  0.1745318E+00
         -2   -1    0    0    0  501 -0.00000000000E+00  0.00000000000E+00  0.57862852866E+02  0.57862852924E+02  0.26000000000E-02 0.  1.
          2   -1    0    0  501    0  0.00000000000E+00 -0.00000000000E+00 -0.17283075691E+01  0.17283095248E+01  0.26000000000E-02 0. -1.
       1023    2    1    2    0    0  0.00000000000E+00  0.00000000000E+00  0.56134545297E+02  0.59591162449E+02  0.20000486653E+02 0.  0.
        -11    1    3    3    0    0  0.40922672165E+01 -0.91243657962E+01  0.27875005234E+02  0.29614466384E+02  0.51100000000E-03 0. -1.
         11    1    3    3    0    0 -0.40922672165E+01  0.91243657962E+01  0.28259540063E+02  0.29976696065E+02  0.51100000000E-03 0.  1.
<mgrwt>
<rscale>  0 0.20000487E+02</rscale>
<asrwt>0</asrwt>
<pdfrwt beam="2">  1        2 0.26589360E-03 0.20000487E+02</pdfrwt>
<pdfrwt beam="1">  1       -2 0.89019784E-02 0.20000487E+02</pdfrwt>
<totfact> 0.33153318E+06</totfact>
</mgrwt>
</event>
<event>
 5    1  0.4046313E-006  0.2000009E+02  0.7818608E-02  0.1745326E+00
         -2   -1    0    0    0  501 -0.00000000000E+00  0.00000000000E+00  0.28154846100E+02  0.28154846220E+02  0.26000000000E-02 0.  1.
          2   -1    0    0  501    0  0.00000000000E+00 -0.00000000000E+00 -0.35518192962E+01  0.35518202478E+01  0.26000000000E-02 0. -1.
       1023    2    1    2    0    0  0.00000000000E+00  0.00000000000E+00  0.24603026804E+02  0.31706666468E+02  0.20000094265E+02 0.  0.
        -11    1    3    3    0    0 -0.70087733388E+01 -0.71328656875E+01  0.12327357505E+02  0.15873387161E+02  0.51100000000E-03 0. -1.
         11    1    3    3    0    0  0.70087733388E+01  0.71328656875E+01  0.12275669299E+02  0.15833279307E+02  0.51100000000E-03 0.  1.
<mgrwt>
<rscale>  0 0.20000094E+02</rscale>
<asrwt>0</asrwt>
<pdfrwt beam="2">  1        2 0.54643382E-03 0.20000094E+02</pdfrwt>
<pdfrwt beam="1">  1       -2 0.43315148E-02 0.20000094E+02</pdfrwt>
<totfact> 0.36294709E+06</totfact>
</mgrwt>
</event>
<event>
 5    1  0.4046313E-006  0.2000351E+02  0.7818608E-02  0.1745258E+00
          2   -1    0    0  501    0  0.00000000000E+00  0.00000000000E+00  0.11016527901E+02  0.11016528208E+02  0.26000000000E-02 0. -1.
         -2   -1    0    0    0  501 -0.00000000000E+00 -0.00000000000E+00 -0.90804591894E+01  0.90804595617E+01  0.26000000000E-02 0.  1.
       1023    2    1    2    0    0  0.00000000000E+00  0.00000000000E+00  0.19360687117E+01  0.20096987770E+02  0.20003513575E+02 0.  0.
        -11    1    3    3    0    0  0.18987342286E+01  0.98193401418E+01  0.86505618211E+00  0.10038573352E+02  0.51100000000E-03 0. -1.
         11    1    3    3    0    0 -0.18987342286E+01 -0.98193401418E+01  0.10710125295E+01  0.10058414417E+02  0.51100000000E-03 0.  1.
<mgrwt>
<rscale>  0 0.20003514E+02</rscale>
<asrwt>0</asrwt>
<pdfrwt beam="1">  1        2 0.16948505E-02 0.20003514E+02</pdfrwt>
<pdfrwt beam="2">  1       -2 0.13969938E-02 0.20003514E+02</pdfrwt>
<totfact> 0.39729333E+06</totfact>
</mgrwt>
</event>
<event>
 4    1  0.4046313E-006  0.2001954E+02  0.7818608E-02  0.1744940E+00
         -2   -1    0    0    0  501 -0.00000000000E+00  0.00000000000E+00  0.24293057424E+01  0.24293071337E+01  0.26000000000E-02 0.  1.
          2   -1    0    0  501    0  0.00000000000E+00 -0.00000000000E+00 -0.41244497905E+02  0.41244497987E+02  0.26000000000E-02 0. -1.
        -11    1    1    2    0    0 -0.77973502705E+01 -0.62766913828E+01 -0.19404874182E+02  0.21834483466E+02  0.51100000000E-03 0.  1.
         11    1    1    2    0    0  0.77973502705E+01  0.62766913828E+01 -0.19410317980E+02  0.21839321654E+02  0.51100000000E-03 0. -1.
<mgrwt>
<rscale>  0 0.20019543E+02</rscale>
<asrwt>0</asrwt>
<pdfrwt beam="2">  1        2 0.63453070E-02 0.20019543E+02</pdfrwt>
<pdfrwt beam="1">  1       -2 0.37373949E-03 0.20019543E+02</pdfrwt>
<totfact> 0.44980463E+06</totfact>
</mgrwt>
</event>
<event>
 5    1  0.4046313E-006  0.2000049E+02  0.7818608E-02  0.1745318E+00
         -2   -1    0    0    0  501 -0.00000000000E+00  0.00000000000E+00  0.80078851150E+01  0.80078855371E+01  0.26000000000E-02 0.  1.
          2   -1    0    0  501    0  0.00000000000E+00 -0.00000000000E+00 -0.12488297538E+02  0.12488297809E+02  0.26000000000E-02 0. -1.
       1023    2    1    2    0    0  0.00000000000E+00  0.00000000000E+00 -0.44804124234E+01  0.20496183346E+02  0.20000485901E+02 0.  0.
        -11    1    3    3    0    0 -0.39555757471E+01  0.91844858188E+01 -0.23008294656E+01  0.10261343759E+02  0.51100000000E-03 0. -1.
         11    1    3    3    0    0  0.39555757471E+01 -0.91844858188E+01 -0.21795829578E+01  0.10234839587E+02  0.51100000000E-03 0.  1.
<mgrwt>
<rscale>  0 0.20000486E+02</rscale>
<asrwt>0</asrwt>
<pdfrwt beam="2">  1        2 0.19212766E-02 0.20000486E+02</pdfrwt>
<pdfrwt beam="1">  1       -2 0.12319824E-02 0.20000486E+02</pdfrwt>
<totfact> 0.40116586E+06</totfact>
</mgrwt>
</event>
<event>
 5    1  0.4046313E-006  0.2000104E+02  0.7818608E-02  0.1745307E+00
         -2   -1    0    0    0  501 -0.00000000000E+00  0.00000000000E+00  0.13983129940E+02  0.13983130181E+02  0.26000000000E-02 0. -1.
          2   -1    0    0  501    0  0.00000000000E+00 -0.00000000000E+00 -0.71522207650E+01  0.71522212376E+01  0.26000000000E-02 0.  1.
       1023    2    1    2    0    0  0.00000000000E+00  0.00000000000E+00  0.68309091745E+01  0.21135351419E+02  0.20001043959E+02 0.  0.
        -11    1    3    3    0    0  0.99134786117E+01  0.13165729533E+01  0.34198209495E+01  0.10569086910E+02  0.51100000000E-03 0.  1.
         11    1    3    3    0    0 -0.99134786117E+01 -0.13165729533E+01  0.34110882250E+01  0.10566264509E+02  0.51100000000E-03 0. -1.
<mgrwt>
<rscale>  0 0.20001044E+02</rscale>
<asrwt>0</asrwt>
<pdfrwt beam="2">  1        2 0.11003417E-02 0.20001044E+02</pdfrwt>
<pdfrwt beam="1">  1       -2 0.21512508E-02 0.20001044E+02</pdfrwt>
<totfact> 0.38496716E+06</totfact>
</mgrwt>
</event>
<event>
 5    1  0.4046313E-006  0.2000077E+02  0.7818608E-02  0.1745313E+00
         -2   -1    0    0    0  501 -0.00000000000E+00  0.00000000000E+00  0.28047134809E+01  0.28047146860E+01  0.26000000000E-02 0. -1.
          2   -1    0    0  501    0  0.00000000000E+00 -0.00000000000E+00 -0.35657009381E+02  0.35657009476E+02  0.26000000000E-02 0.  1.
       1023    2    1    2    0    0  0.00000000000E+00  0.00000000000E+00 -0.32852295900E+02  0.38461724162E+02  0.20000771975E+02 0.  0.
        -11    1    3    3    0    0 -0.92238153377E+01  0.38630411037E+01 -0.16573401986E+02  0.19356639936E+02  0.51100000000E-03 0. -1.
         11    1    3    3    0    0  0.92238153377E+01 -0.38630411037E+01 -0.16278893915E+02  0.19105084226E+02  0.51100000000E-03 0.  1.
<mgrwt>
<rscale>  0 0.20000772E+02</rscale>
<asrwt>0</asrwt>
<pdfrwt beam="2">  1        2 0.54856935E-02 0.20000772E+02</pdfrwt>
<pdfrwt beam="1">  1       -2 0.43149451E-03 0.20000772E+02</pdfrwt>
<totfact> 0.44244927E+06</totfact>
</mgrwt>
</event>
<event>
 4    1  0.4046313E-006  0.2005440E+02  0.7818608E-02  0.1744248E+00
         -2   -1    0    0    0  501 -0.00000000000E+00  0.00000000000E+00  0.12411771032E+01  0.12411798264E+01  0.26000000000E-02 0.  1.
          2   -1    0    0  501    0  0.00000000000E+00 -0.00000000000E+00 -0.81007505794E+02  0.81007505836E+02  0.26000000000E-02 0. -1.
        -11    1    1    2    0    0  0.62430262394E+01  0.78228548025E+01 -0.37380574881E+02  0.38697284305E+02  0.51100000000E-03 0.  1.
         11    1    1    2    0    0 -0.62430262394E+01 -0.78228548025E+01 -0.42385753811E+02  0.43551401358E+02  0.51100000000E-03 0. -1.
<mgrwt>
<rscale>  0 0.20054404E+02</rscale>
<asrwt>0</asrwt>
<pdfrwt beam="2">  1        2 0.12462689E-01 0.20054404E+02</pdfrwt>
<pdfrwt beam="1">  1       -2 0.19095060E-03 0.20054404E+02</pdfrwt>
<totfact> 0.50124162E+06</totfact>
</mgrwt>
</event>
<event>
 5    1  0.4046313E-006  0.2000018E+02  0.7818608E-02  0.1745324E+00
          2   -1    0    0  501    0  0.00000000000E+00  0.00000000000E+00  0.67708808533E+02  0.67708808583E+02  0.26000000000E-02 0.  1.
         -2   -1    0    0    0  501 -0.00000000000E+00 -0.00000000000E+00 -0.14769386732E+01  0.14769409617E+01  0.26000000000E-02 0. -1.
       1023    2    1    2    0    0  0.00000000000E+00  0.00000000000E+00  0.66231869860E+02  0.69185749545E+02  0.20000183872E+02 0.  0.
        -11    1    3    3    0    0  0.30206462272E-01 -0.10000003298E+02  0.33217385251E+02  0.34689993681E+02  0.51100000000E-03 0. -1.
         11    1    3    3    0    0 -0.30206462272E-01  0.10000003298E+02  0.33014484609E+02  0.34495755864E+02  0.51100000000E-03 0.  1.
<mgrwt>
<rscale>  0 0.20000184E+02</rscale>
<asrwt>0</asrwt>
<pdfrwt beam="1">  1        2 0.10416740E-01 0.20000184E+02</pdfrwt>
<pdfrwt beam="2">  1       -2 0.22722152E-03 0.20000184E+02</pdfrwt>
<totfact> 0.48719799E+06</totfact>
</mgrwt>
</event>
<event>
 5    1  0.4046313E-006  0.2000203E+02  0.7818608E-02  0.1745288E+00
         -2   -1    0    0    0  501 -0.00000000000E+00  0.00000000000E+00  0.73751291257E+01  0.73751295840E+01  0.26000000000E-02 0.  1.
          2   -1    0    0  501    0  0.00000000000E+00 -0.00000000000E+00 -0.13561838002E+02  0.13561838251E+02  0.26000000000E-02 0. -1.
       1023    2    1    2    0    0  0.00000000000E+00  0.00000000000E+00 -0.61867088765E+01  0.20936967835E+02  0.20002031282E+02 0.  0.
        -11    1    3    3    0    0  0.98412810971E+01 -0.17768969077E+01 -0.32086735962E+01  0.10502559819E+02  0.51100000000E-03 0. -1.
         11    1    3    3    0    0 -0.98412810971E+01  0.17768969077E+01 -0.29780352804E+01  0.10434408016E+02  0.51100000000E-03 0.  1.
<mgrwt>
<rscale>  0 0.20002031E+02</rscale>
<asrwt>0</asrwt>
<pdfrwt beam="2">  1        2 0.20864367E-02 0.20002031E+02</pdfrwt>
<pdfrwt beam="1">  1       -2 0.11346353E-02 0.20002031E+02</pdfrwt>
<totfact> 0.40362071E+06</totfact>
</mgrwt>
</event>
<event>
 4    1  0.4046313E-006  0.2002103E+02  0.7818608E-02  0.1744910E+00
          2   -1    0    0  501    0  0.00000000000E+00  0.00000000000E+00  0.13477911712E+02  0.13477911962E+02  0.26000000000E-02 0. -1.
         -2   -1    0    0    0  501 -0.00000000000E+00 -0.00000000000E+00 -0.74351546163E+01  0.74351550709E+01  0.26000000000E-02 0.  1.
        -11    1    1    2    0    0  0.43467246141E+01  0.90061633330E+01  0.25480074286E+01  0.10319754598E+02  0.51100000000E-03 0. -1.
         11    1    1    2    0    0 -0.43467246141E+01 -0.90061633330E+01  0.34947496668E+01  0.10593312435E+02  0.51100000000E-03 0.  1.
<mgrwt>
<rscale>  0 0.20021025E+02</rscale>
<asrwt>0</asrwt>
<pdfrwt beam="1">  1        2 0.20735249E-02 0.20021025E+02</pdfrwt>
<pdfrwt beam="2">  1       -2 0.11438700E-02 0.20021025E+02</pdfrwt>
<totfact> 0.40256042E+06</totfact>
</mgrwt>
</event>
<event>
 5    1  0.4046313E-006  0.2000026E+02  0.7818608E-02  0.1745323E+00
         -2   -1    0    0    0  501 -0.00000000000E+00  0.00000000000E+00  0.11070707752E+03  0.11070707755E+03  0.26000000000E-02 0.  1.
          2   -1    0    0  501    0  0.00000000000E+00 -0.00000000000E+00 -0.90330621942E+00  0.90330996122E+00  0.26000000000E-02 0. -1.
       1023    2    1    2    0    0  0.00000000000E+00  0.00000000000E+00  0.10980377130E+03  0.11161038751E+03  0.20000260216E+02 0.  0.
        -11    1    3    3    0    0  0.61928064751E+01 -0.78518081427E+01  0.54738352385E+02  0.55644307573E+02  0.51100000000E-03 0. -1.
         11    1    3    3    0    0 -0.61928064751E+01  0.78518081427E+01  0.55065418916E+02  0.55966079940E+02  0.51100000000E-03 0.  1.
<mgrwt>
<rscale>  0 0.20000260E+02</rscale>
<asrwt>0</asrwt>
<pdfrwt beam="2">  1        2 0.13897056E-03 0.20000260E+02</pdfrwt>
<pdfrwt beam="1">  1       -2 0.17031848E-01 0.20000260E+02</pdfrwt>
<totfact> 0.28970521E+06</totfact>
</mgrwt>
</event>
<event>
 5    1  0.4046313E-006  0.2000027E+02  0.7818608E-02  0.1745323E+00
          2   -1    0    0  501    0  0.00000000000E+00  0.00000000000E+00  0.11125728955E+03  0.11125728958E+03  0.26000000000E-02 0. -1.
         -2   -1    0    0    0  501 -0.00000000000E+00 -0.00000000000E+00 -0.89883981749E+00  0.89884357789E+00  0.26000000000E-02 0.  1.
       1023    2    1    2    0    0  0.00000000000E+00  0.00000000000E+00  0.11035844973E+03  0.11215613316E+03  0.20000269439E+02 0.  0.
        -11    1    3    3    0    0  0.42700990857E+01 -0.90425879917E+01  0.55047668831E+02  0.55948619177E+02  0.51100000000E-03 0.  1.
         11    1    3    3    0    0 -0.42700990857E+01  0.90425879917E+01  0.55310780898E+02  0.56207513978E+02  0.51100000000E-03 0. -1.
<mgrwt>
<rscale>  0 0.20000269E+02</rscale>
<asrwt>0</asrwt>
<pdfrwt beam="1">  1        2 0.17116502E-01 0.20000269E+02</pdfrwt>
<pdfrwt beam="2">  1       -2 0.13828337E-03 0.20000269E+02</pdfrwt>
<totfact> 0.54084411E+06</totfact>
</mgrwt>
</event>
<event>
 5    1  0.4046313E-006  0.2000011E+02  0.7818608E-02  0.1745326E+00
          2   -1    0    0  501    0  0.00000000000E+00  0.00000000000E+00  0.40816265412E+01  0.40816273693E+01  0.26000000000E-02 0. -1.
         -2   -1    0    0    0  501 -0.00000000000E+00 -0.00000000000E+00 -0.24500307475E+02  0.24500307613E+02  0.26000000000E-02 0.  1.
       1023    2    1    2    0    0  0.00000000000E+00  0.00000000000E+00 -0.20418680933E+02  0.28581934982E+02  0.20000111906E+02 0.  0.
        -11    1    3    3    0    0  0.97067745736E+01  0.24039342153E+01 -0.10248385348E+02  0.14318860808E+02  0.51100000000E-03 0.  1.
         11    1    3    3    0    0 -0.97067745736E+01 -0.24039342153E+01 -0.10170295586E+02  0.14263074174E+02  0.51100000000E-03 0. -1.
<mgrwt>
<rscale>  0 0.20000112E+02</rscale>
<asrwt>0</asrwt>
<pdfrwt beam="1">  1        2 0.62794263E-03 0.20000112E+02</pdfrwt>
<pdfrwt beam="2">  1       -2 0.37692781E-02 0.20000112E+02</pdfrwt>
<totfact> 0.36776698E+06</totfact>
</mgrwt>
</event>
<event>
 5    1  0.4046313E-006  0.2000059E+02  0.7818608E-02  0.1745316E+00
          2   -1    0    0  501    0  0.00000000000E+00  0.00000000000E+00  0.85076281247E+01  0.85076285220E+01  0.26000000000E-02 0.  1.
         -2   -1    0    0    0  501 -0.00000000000E+00 -0.00000000000E+00 -0.11754855783E+02  0.11754856071E+02  0.26000000000E-02 0. -1.
       1023    2    1    2    0    0  0.00000000000E+00  0.00000000000E+00 -0.32472276585E+01  0.20262484593E+02  0.20000594851E+02 0.  0.
        -11    1    3    3    0    0 -0.83253910722E+01 -0.55400619961E+01 -0.15840523431E+01  0.10124902247E+02  0.51100000000E-03 0. -1.
         11    1    3    3    0    0  0.83253910722E+01  0.55400619961E+01 -0.16631753154E+01  0.10137582346E+02  0.51100000000E-03 0.  1.
<mgrwt>
<rscale>  0 0.20000595E+02</rscale>
<asrwt>0</asrwt>
<pdfrwt beam="1">  1        2 0.13088659E-02 0.20000595E+02</pdfrwt>
<pdfrwt beam="2">  1       -2 0.18084394E-02 0.20000595E+02</pdfrwt>
<totfact> 0.38996398E+06</totfact>
</mgrwt>
</event>
<event>
 5    1  0.4046313E-006  0.2000025E+02  0.7818608E-02  0.1745323E+00
         -2   -1    0    0    0  501 -0.00000000000E+00  0.00000000000E+00  0.19753122556E+01  0.19753139667E+01  0.26000000000E-02 0. -1.
          2   -1    0    0  501    0  0.00000000000E+00 -0.00000000000E+00 -0.50626172308E+02  0.50626172375E+02  0.26000000000E-02 0.  1.
       1023    2    1    2    0    0  0.00000000000E+00  0.00000000000E+00 -0.48650860053E+02  0.52601486342E+02  0.20000254536E+02 0.  0.
        -11    1    3    3    0    0 -0.72262074904E+01 -0.69125568050E+01 -0.24241070188E+02  0.26222719164E+02  0.51100000000E-03 0.  1.
         11    1    3    3    0    0  0.72262074904E+01  0.69125568050E+01 -0.24409789865E+02  0.26378767177E+02  0.51100000000E-03 0. -1.
<mgrwt>
<rscale>  0 0.20000255E+02</rscale>
<asrwt>0</asrwt>
<pdfrwt beam="2">  1        2 0.77886410E-02 0.20000255E+02</pdfrwt>
<pdfrwt beam="1">  1       -2 0.30389437E-03 0.20000255E+02</pdfrwt>
<totfact> 0.46414176E+06</totfact>
</mgrwt>
</event>
<event>
 5    1  0.4046313E-006  0.2000665E+02  0.7818608E-02  0.1745196E+00
          2   -1    0    0  501    0  0.00000000000E+00  0.00000000000E+00  0.77662764527E+01  0.77662768879E+01  0.26000000000E-02 0. -1.
         -2   -1    0    0    0  501 -0.00000000000E+00 -0.00000000000E+00 -0.12884752939E+02  0.12884753201E+02  0.26000000000E-02 0.  1.
       1023    2    1    2    0    0  0.00000000000E+00  0.00000000000E+00 -0.51184764860E+01  0.20651030089E+02  0.20006654948E+02 0.  0.
        -11    1    3    3    0    0  0.13894876025E+01 -0.99043111068E+01 -0.27669814673E+01  0.10377005396E+02  0.51100000000E-03 0.  1.
         11    1    3    3    0    0 -0.13894876025E+01  0.99043111068E+01 -0.23514950187E+01  0.10274024692E+02  0.51100000000E-03 0. -1.
<mgrwt>
<rscale>  0 0.20006655E+02</rscale>
<asrwt>0</asrwt>
<pdfrwt beam="1">  1        2 0.11948118E-02 0.20006655E+02</pdfrwt>
<pdfrwt beam="2">  1       -2 0.19822697E-02 0.20006655E+02</pdfrwt>
<totfact> 0.38708537E+06</totfact>
</mgrwt>
</event>
<event>
 5    1  0.4046313E-006  0.2000010E+02  0.7818608E-02  0.1745326E+00
         -2   -1    0    0    0  501 -0.00000000000E+00  0.00000000000E+00  0.33833266231E+01  0.33833276222E+01  0.26000000000E-02 0.  1.
          2   -1    0    0  501    0  0.00000000000E+00 -0.00000000000E+00 -0.29557005566E+02  0.29557005680E+02  0.26000000000E-02 0. -1.
       1023    2    1    2    0    0  0.00000000000E+00  0.00000000000E+00 -0.26173678943E+02  0.32940333302E+02  0.20000102217E+02 0.  0.
        -11    1    3    3    0    0  0.73834722621E+00 -0.99727309259E+01 -0.13049895003E+02  0.16440811373E+02  0.51100000000E-03 0. -1.
         11    1    3    3    0    0 -0.73834722621E+00  0.99727309259E+01 -0.13123783940E+02  0.16499521930E+02  0.51100000000E-03 0.  1.
<mgrwt>
<rscale>  0 0.20000102E+02</rscale>
<asrwt>0</asrwt>
<pdfrwt beam="2">  1        2 0.45472315E-02 0.20000102E+02</pdfrwt>
<pdfrwt beam="1">  1       -2 0.52051189E-03 0.20000102E+02</pdfrwt>
<totfact> 0.43302280E+06</totfact>
</mgrwt>
</event>
<event>
 5    1  0.4046313E-006  0.2000134E+02  0.7818608E-02  0.1745302E+00
          2   -1    0    0  501    0  0.00000000000E+00  0.00000000000E+00  0.19198090901E+02  0.19198091077E+02  0.26000000000E-02 0.  1.
         -2   -1    0    0    0  501 -0.00000000000E+00 -0.00000000000E+00 -0.52095466970E+01  0.52095473458E+01  0.26000000000E-02 0. -1.
       1023    2    1    2    0    0  0.00000000000E+00  0.00000000000E+00  0.13988544204E+02  0.24407638423E+02  0.20001336066E+02 0.  0.
        -11    1    3    3    0    0  0.32610843059E+01 -0.94540044517E+01  0.69672644821E+01  0.12188340562E+02  0.51100000000E-03 0. -1.
         11    1    3    3    0    0 -0.32610843059E+01  0.94540044517E+01  0.70212797216E+01  0.12219297861E+02  0.51100000000E-03 0.  1.
<mgrwt>
<rscale>  0 0.20001336E+02</rscale>
<asrwt>0</asrwt>
<pdfrwt beam="1">  1        2 0.29535525E-02 0.20001336E+02</pdfrwt>
<pdfrwt beam="2">  1       -2 0.80146879E-03 0.20001336E+02</pdfrwt>
<totfact> 0.41522582E+06</totfact>
</mgrwt>
</event>
<event>
 5    1  0.4046313E-006  0.2000059E+02  0.7818608E-02  0.1745316E+00
         -2   -1    0    0    0  501 -0.00000000000E+00  0.00000000000E+00  0.42957557523E+01  0.42957565391E+01  0.26000000000E-02 0.  1.
          2   -1    0    0  501    0  0.00000000000E+00 -0.00000000000E+00 -0.23280150180E+02  0.23280150325E+02  0.26000000000E-02 0. -1.
       1023    2    1    2    0    0  0.00000000000E+00  0.00000000000E+00 -0.18984394428E+02  0.27575906864E+02  0.20000585181E+02 0.  0.
        -11    1    3    3    0    0 -0.30165312079E+01  0.95343813564E+01 -0.95532880781E+01  0.13830010909E+02  0.51100000000E-03 0.  1.
         11    1    3    3    0    0  0.30165312079E+01 -0.95343813564E+01 -0.94311063497E+01  0.13745895955E+02  0.51100000000E-03 0. -1.
<mgrwt>
<rscale>  0 0.20000585E+02</rscale>
<asrwt>0</asrwt>
<pdfrwt beam="2">  1        2 0.35815615E-02 0.20000585E+02</pdfrwt>
<pdfrwt beam="1">  1       -2 0.66088559E-03 0.20000585E+02</pdfrwt>
<totfact> 0.42260125E+06</totfact>
</mgrwt>
</event>
<event>
 5    1  0.4046313E-006  0.2000040E+02  0.7818608E-02  0.1745320E+00
         -2   -1    0    0    0  501 -0.00000000000E+00  0.00000000000E+00  0.48063339805E+01  0.48063346837E+01  0.26000000000E-02 0. -1.
          2   -1    0    0  501    0  0.00000000000E+00 -0.00000000000E+00 -0.20806710198E+02  0.20806710361E+02  0.26000000000E-02 0.  1.
       1023    2    1    2    0    0  0.00000000000E+00  0.00000000000E+00 -0.16000376218E+02  0.25613045044E+02  0.20000400929E+02 0.  0.
        -11    1    3    3    0    0 -0.99011435213E+01  0.14038478681E+01 -0.80309552946E+01  0.12825742671E+02  0.51100000000E-03 0.  1.
         11    1    3    3    0    0  0.99011435213E+01 -0.14038478681E+01 -0.79694209231E+01  0.12787302373E+02  0.51100000000E-03 0. -1.
<mgrwt>
<rscale>  0 0.20000401E+02</rscale>
<asrwt>0</asrwt>
<pdfrwt beam="2">  1        2 0.32010324E-02 0.20000401E+02</pdfrwt>
<pdfrwt beam="1">  1       -2 0.73943608E-03 0.20000401E+02</pdfrwt>
<totfact> 0.41823456E+06</totfact>
</mgrwt>
</event>
<event>
 4    1  0.4046313E-006  0.2002161E+02  0.7818608E-02  0.1744899E+00
         -2   -1    0    0    0  501 -0.00000000000E+00  0.00000000000E+00  0.42535240225E+02  0.42535240305E+02  0.26000000000E-02 0.  1.
          2   -1    0    0  501    0  0.00000000000E+00 -0.00000000000E+00 -0.23560744420E+01  0.23560758766E+01  0.26000000000E-02 0. -1.
        -11    1    1    2    0    0 -0.99934192688E+01 -0.58807327685E+00  0.20189029979E+02  0.22534666419E+02  0.51100000000E-03 0. -1.
         11    1    1    2    0    0  0.99934192688E+01  0.58807327685E+00  0.19990135804E+02  0.22356649762E+02  0.51100000000E-03 0.  1.
<mgrwt>
<rscale>  0 0.20021611E+02</rscale>
<asrwt>0</asrwt>
<pdfrwt beam="2">  1        2 0.36247312E-03 0.20021611E+02</pdfrwt>
<pdfrwt beam="1">  1       -2 0.65438830E-02 0.20021611E+02</pdfrwt>
<totfact> 0.34570240E+06</totfact>
</mgrwt>
</event>
<event>
 4    1  0.4046313E-006  0.2002547E+02  0.7818608E-02  0.1744822E+00
          2   -1    0    0  501    0  0.00000000000E+00  0.00000000000E+00  0.10338305029E+01  0.10338337723E+01  0.26000000000E-02 0. -1.
         -2   -1    0    0    0  501 -0.00000000000E+00 -0.00000000000E+00 -0.96973998172E+02  0.96973998206E+02  0.26000000000E-02 0.  1.
        -11    1    1    2    0    0  0.87435001739E+01  0.48727400900E+01 -0.46747056162E+02  0.47806690446E+02  0.51100000000E-03 0. -1.
         11    1    1    2    0    0 -0.87435001739E+01 -0.48727400900E+01 -0.49193111506E+02  0.50201141533E+02  0.51100000000E-03 0.  1.
<mgrwt>
<rscale>  0 0.20025468E+02</rscale>
<asrwt>0</asrwt>
<pdfrwt beam="1">  1        2 0.15905118E-03 0.20025468E+02</pdfrwt>
<pdfrwt beam="2">  1       -2 0.14919070E-01 0.20025468E+02</pdfrwt>
<totfact> 0.29869171E+06</totfact>
</mgrwt>
</event>
<event>
 4    1  0.4046313E-006  0.2027401E+02  0.7818608E-02  0.1739933E+00
         -2   -1    0    0    0  501 -0.00000000000E+00  0.00000000000E+00  0.32680428826E+01  0.32680439169E+01  0.26000000000E-02 0. -1.
          2   -1    0    0  501    0  0.00000000000E+00 -0.00000000000E+00 -0.31443557695E+02  0.31443557803E+02  0.26000000000E-02 0.  1.
        -11    1    1    2    0    0  0.81159855331E+01 -0.60660704989E+01 -0.14608428595E+02  0.17778431279E+02  0.51100000000E-03 0.  1.
         11    1    1    2    0    0 -0.81159855331E+01  0.60660704989E+01 -0.13567086218E+02  0.16933170441E+02  0.51100000000E-03 0. -1.
<mgrwt>
<rscale>  0 0.20274014E+02</rscale>
<asrwt>0</asrwt>
<pdfrwt beam="2">  1        2 0.48374703E-02 0.20274014E+02</pdfrwt>
<pdfrwt beam="1">  1       -2 0.50277594E-03 0.20274014E+02</pdfrwt>
<totfact> 0.42289878E+06</totfact>
</mgrwt>
</event>
<event>
 5    1  0.4119519E-006  0.2000085E+02  0.7818608E-02  0.1745311E+00
         -2   -1    0    0    0  501 -0.00000000000E+00  0.00000000000E+00  0.13171801363E+01  0.13171827024E+01  0.26000000000E-02 0. -1.
          2   -1    0    0  501    0  0.00000000000E+00 -0.00000000000E+00 -0.75926128146E+02  0.75926128190E+02  0.26000000000E-02 0.  1.
       1023    2    1    2    0    0  0.00000000000E+00  0.00000000000E+00 -0.74608948009E+02  0.77243310893E+02  0.20000848847E+02 0.  0.
        -11    1    3    3    0    0  0.86830474596E+00 -0.99625371204E+01 -0.37115694460E+02  0.38439314178E+02  0.51100000000E-03 0. -1.
         11    1    3    3    0    0 -0.86830474596E+00  0.99625371204E+01 -0.37493253550E+02  0.38803996714E+02  0.51100000000E-03 0.  1.
<mgrwt>
<rscale>  0 0.20000849E+02</rscale>
<asrwt>0</asrwt>
<pdfrwt beam="2">  1        2 0.11680940E-01 0.20000849E+02</pdfrwt>
<pdfrwt beam="1">  1       -2 0.20264336E-03 0.20000849E+02</pdfrwt>
<totfact> 0.49778225E+06</totfact>
</mgrwt>
</event>
<event>
 5    1  0.4046313E-006  0.2000041E+02  0.7818608E-02  0.1745320E+00
         -2   -1    0    0    0  501 -0.00000000000E+00  0.00000000000E+00  0.42774479059E+01  0.42774486961E+01  0.26000000000E-02 0. -1.
          2   -1    0    0  501    0  0.00000000000E+00 -0.00000000000E+00 -0.23379370944E+02  0.23379371089E+02  0.26000000000E-02 0.  1.
       1023    2    1    2    0    0  0.00000000000E+00  0.00000000000E+00 -0.19101923038E+02  0.27656819785E+02  0.20000405417E+02 0.  0.
        -11    1    3    3    0    0  0.22893711413E+01  0.97344437711E+01 -0.96320443122E+01  0.13884411894E+02  0.51100000000E-03 0.  1.
         11    1    3    3    0    0 -0.22893711413E+01 -0.97344437711E+01 -0.94698787259E+01  0.13772407890E+02  0.51100000000E-03 0. -1.
<mgrwt>
<rscale>  0 0.20000405E+02</rscale>
<asrwt>0</asrwt>
<pdfrwt beam="2">  1        2 0.35968263E-02 0.20000405E+02</pdfrwt>
<pdfrwt beam="1">  1       -2 0.65806899E-03 0.20000405E+02</pdfrwt>
<totfact> 0.42278137E+06</totfact>
</mgrwt>
</event>
<event>
 5    1  0.4046313E-006  0.2000161E+02  0.7818608E-02  0.1745296E+00
          2   -1    0    0  501    0  0.00000000000E+00  0.00000000000E+00  0.55850432696E+01  0.55850438748E+01  0.26000000000E-02 0. -1.
         -2   -1    0    0    0  501 -0.00000000000E+00 -0.00000000000E+00 -0.17907844897E+02  0.17907845085E+02  0.26000000000E-02 0.  1.
       1023    2    1    2    0    0  0.00000000000E+00  0.00000000000E+00 -0.12322801627E+02  0.23492888960E+02  0.20001609729E+02 0.  0.
        -11    1    3    3    0    0 -0.91426388764E+01 -0.40520895373E+01 -0.62717237171E+01  0.11804312512E+02  0.51100000000E-03 0.  1.
         11    1    3    3    0    0  0.91426388764E+01  0.40520895373E+01 -0.60510779100E+01  0.11688576448E+02  0.51100000000E-03 0. -1.
<mgrwt>
<rscale>  0 0.20001610E+02</rscale>
<asrwt>0</asrwt>
<pdfrwt beam="1">  1        2 0.85923750E-03 0.20001610E+02</pdfrwt>
<pdfrwt beam="2">  1       -2 0.27550531E-02 0.20001610E+02</pdfrwt>
<totfact> 0.37766432E+06</totfact>
</mgrwt>
</event>
<event>
 5    1  0.4046313E-006  0.2000061E+02  0.7818608E-02  0.1745316E+00
          2   -1    0    0  501    0  0.00000000000E+00  0.00000000000E+00  0.21969316824E+01  0.21969332209E+01  0.26000000000E-02 0.  1.
         -2   -1    0    0    0  501 -0.00000000000E+00 -0.00000000000E+00 -0.45520787095E+02  0.45520787169E+02  0.26000000000E-02 0. -1.
       1023    2    1    2    0    0  0.00000000000E+00  0.00000000000E+00 -0.43323855412E+02  0.47717720390E+02  0.20000609776E+02 0.  0.
        -11    1    3    3    0    0 -0.72536125496E+01  0.68841146718E+01 -0.21631026130E+02  0.23830804047E+02  0.51100000000E-03 0.  1.
         11    1    3    3    0    0  0.72536125496E+01 -0.68841146718E+01 -0.21692829282E+02  0.23886916343E+02  0.51100000000E-03 0. -1.
<mgrwt>
<rscale>  0 0.20000610E+02</rscale>
<asrwt>0</asrwt>
<pdfrwt beam="1">  1        2 0.33798965E-03 0.20000610E+02</pdfrwt>
<pdfrwt beam="2">  1       -2 0.70031974E-02 0.20000610E+02</pdfrwt>
<totfact> 0.34342045E+06</totfact>
</mgrwt>
</event>
<event>
 5    1  0.4046313E-006  0.2000024E+02  0.7818608E-02  0.1745323E+00
          2   -1    0    0  501    0  0.00000000000E+00  0.00000000000E+00  0.26921023021E+01  0.26921035577E+01  0.26000000000E-02 0.  1.
         -2   -1    0    0    0  501 -0.00000000000E+00 -0.00000000000E+00 -0.37146585630E+02  0.37146585721E+02  0.26000000000E-02 0. -1.
       1023    2    1    2    0    0  0.00000000000E+00  0.00000000000E+00 -0.34454483328E+02  0.39838689279E+02  0.20000243550E+02 0.  0.
        -11    1    3    3    0    0  0.96230254039E+01  0.27202344047E+01 -0.17250987377E+02  0.19939881115E+02  0.51100000000E-03 0. -1.
         11    1    3    3    0    0 -0.96230254039E+01 -0.27202344047E+01 -0.17203495951E+02  0.19898808164E+02  0.51100000000E-03 0.  1.
<mgrwt>
<rscale>  0 0.20000244E+02</rscale>
<asrwt>0</asrwt>
<pdfrwt beam="1">  1        2 0.41416972E-03 0.20000244E+02</pdfrwt>
<pdfrwt beam="2">  1       -2 0.57148590E-02 0.20000244E+02</pdfrwt>
<totfact> 0.35230685E+06</totfact>
</mgrwt>
</event>
<event>
 5    1  0.4046313E-006  0.2000186E+02  0.7818608E-02  0.1745291E+00
          2   -1    0    0  501    0  0.00000000000E+00  0.00000000000E+00  0.75638586521E+01  0.75638590989E+01  0.26000000000E-02 0.  1.
         -2   -1    0    0    0  501 -0.00000000000E+00 -0.00000000000E+00 -0.13223222021E+02  0.13223222277E+02  0.26000000000E-02 0. -1.
       1023    2    1    2    0    0  0.00000000000E+00  0.00000000000E+00 -0.56593633690E+01  0.20787081376E+02  0.20001858873E+02 0.  0.
        -11    1    3    3    0    0  0.88700549777E+01 -0.46195160723E+01 -0.28005586741E+01  0.10385611836E+02  0.51100000000E-03 0.  1.
         11    1    3    3    0    0 -0.88700549777E+01  0.46195160723E+01 -0.28588046949E+01  0.10401469540E+02  0.51100000000E-03 0. -1.
<mgrwt>
<rscale>  0 0.20001859E+02</rscale>
<asrwt>0</asrwt>
<pdfrwt beam="1">  1        2 0.11636706E-02 0.20001859E+02</pdfrwt>
<pdfrwt beam="2">  1       -2 0.20343419E-02 0.20001859E+02</pdfrwt>
<totfact> 0.38654147E+06</totfact>
</mgrwt>
</event>
<event>
 5    1  0.4046313E-006  0.2000107E+02  0.7818608E-02  0.1745307E+00
         -2   -1    0    0    0  501 -0.00000000000E+00  0.00000000000E+00  0.17985950423E+01  0.17985969215E+01  0.26000000000E-02 0. -1.
          2   -1    0    0  501    0  0.00000000000E+00 -0.00000000000E+00 -0.55604846264E+02  0.55604846325E+02  0.26000000000E-02 0.  1.
       1023    2    1    2    0    0  0.00000000000E+00  0.00000000000E+00 -0.53806251222E+02  0.57403443246E+02  0.20001065621E+02 0.  0.
        -11    1    3    3    0    0 -0.56547975702E+01 -0.82482033628E+01 -0.26809598098E+02  0.28614055020E+02  0.51100000000E-03 0.  1.
         11    1    3    3    0    0  0.56547975702E+01  0.82482033628E+01 -0.26996653124E+02  0.28789388226E+02  0.51100000000E-03 0. -1.
<mgrwt>
<rscale>  0 0.20001066E+02</rscale>
<asrwt>0</asrwt>
<pdfrwt beam="2">  1        2 0.85545906E-02 0.20001066E+02</pdfrwt>
<pdfrwt beam="1">  1       -2 0.27670712E-03 0.20001066E+02</pdfrwt>
<totfact> 0.47096580E+06</totfact>
</mgrwt>
</event>
<event>
 5    1  0.4046313E-006  0.2000137E+02  0.7818608E-02  0.1745301E+00
          2   -1    0    0  501    0  0.00000000000E+00  0.00000000000E+00  0.11089867979E+02  0.11089868284E+02  0.26000000000E-02 0.  1.
         -2   -1    0    0    0  501 -0.00000000000E+00 -0.00000000000E+00 -0.90184790278E+01  0.90184794026E+01  0.26000000000E-02 0. -1.
       1023    2    1    2    0    0  0.00000000000E+00  0.00000000000E+00  0.20713889510E+01  0.20108347686E+02  0.20001374815E+02 0.  0.
        -11    1    3    3    0    0 -0.79728489894E+01 -0.60367466022E+01  0.96377297785E+00  0.10046765109E+02  0.51100000000E-03 0.  1.
         11    1    3    3    0    0  0.79728489894E+01  0.60367466022E+01  0.11076159732E+01  0.10061582577E+02  0.51100000000E-03 0. -1.
<mgrwt>
<rscale>  0 0.20001375E+02</rscale>
<asrwt>0</asrwt>
<pdfrwt beam="1">  1        2 0.17061336E-02 0.20001375E+02</pdfrwt>
<pdfrwt beam="2">  1       -2 0.13874584E-02 0.20001375E+02</pdfrwt>
<totfact> 0.39758524E+06</totfact>
</mgrwt>
</event>
<event>
 5    1  0.4046313E-006  0.2000005E+02  0.7818608E-02  0.1745327E+00
         -2   -1    0    0    0  501 -0.00000000000E+00  0.00000000000E+00  0.21872590851E+01  0.21872606304E+01  0.26000000000E-02 0. -1.
          2   -1    0    0  501    0  0.00000000000E+00 -0.00000000000E+00 -0.45719553452E+02  0.45719553526E+02  0.26000000000E-02 0.  1.
       1023    2    1    2    0    0  0.00000000000E+00  0.00000000000E+00 -0.43532294367E+02  0.47906814156E+02  0.20000054744E+02 0.  0.
        -11    1    3    3    0    0 -0.34315290322E+01  0.93928214652E+01 -0.21747500124E+02  0.23936462739E+02  0.51100000000E-03 0. -1.
         11    1    3    3    0    0  0.34315290322E+01 -0.93928214652E+01 -0.21784794243E+02  0.23970351417E+02  0.51100000000E-03 0.  1.
<mgrwt>
<rscale>  0 0.20000055E+02</rscale>
<asrwt>0</asrwt>
<pdfrwt beam="2">  1        2 0.70337769E-02 0.20000055E+02</pdfrwt>
<pdfrwt beam="1">  1       -2 0.33650156E-03 0.20000055E+02</pdfrwt>
<totfact> 0.45723797E+06</totfact>
</mgrwt>
</event>
<event>
 5    1  0.4046313E-006  0.2000042E+02  0.7818608E-02  0.1745320E+00
          2   -1    0    0  501    0  0.00000000000E+00  0.00000000000E+00  0.12490461034E+01  0.12490488095E+01  0.26000000000E-02 0.  1.
         -2   -1    0    0    0  501 -0.00000000000E+00 -0.00000000000E+00 -0.80064339999E+02  0.80064340041E+02  0.26000000000E-02 0. -1.
       1023    2    1    2    0    0  0.00000000000E+00  0.00000000000E+00 -0.78815293895E+02  0.81313388850E+02  0.20000416359E+02 0.  0.
        -11    1    3    3    0    0  0.71245139602E+01  0.70174622112E+01 -0.39300982991E+02  0.40553307379E+02  0.51100000000E-03 0.  1.
         11    1    3    3    0    0 -0.71245139602E+01 -0.70174622112E+01 -0.39514310904E+02  0.40760081471E+02  0.51100000000E-03 0. -1.
<mgrwt>
<rscale>  0 0.20000416E+02</rscale>
<asrwt>0</asrwt>
<pdfrwt beam="1">  1        2 0.19216121E-03 0.20000416E+02</pdfrwt>
<pdfrwt beam="2">  1       -2 0.12317587E-01 0.20000416E+02</pdfrwt>
<totfact> 0.31251251E+06</totfact>
</mgrwt>
</event>
<event>
 5    1  0.4046313E-006  0.2000053E+02  0.7818608E-02  0.1745318E+00
         -2   -1    0    0    0  501 -0.00000000000E+00  0.00000000000E+00  0.10319701158E+03  0.10319701161E+03  0.26000000000E-02 0. -1.
          2   -1    0    0  501    0  0.00000000000E+00 -0.00000000000E+00 -0.96906989848E+00  0.96907338636E+00  0.26000000000E-02 0.  1.
       1023    2    1    2    0    0  0.00000000000E+00  0.00000000000E+00  0.10222794168E+03  0.10416608500E+03  0.20000530083E+02 0.  0.
        -11    1    3    3    0    0  0.99986074307E+01 -0.17052895855E+00  0.51446232259E+02  0.52409121769E+02  0.51100000000E-03 0. -1.
         11    1    3    3    0    0 -0.99986074307E+01  0.17052895855E+00  0.50781709423E+02  0.51756963231E+02  0.51100000000E-03 0.  1.
<mgrwt>
<rscale>  0 0.20000530E+02</rscale>
<asrwt>0</asrwt>
<pdfrwt beam="2">  1        2 0.14908795E-03 0.20000530E+02</pdfrwt>
<pdfrwt beam="1">  1       -2 0.15876463E-01 0.20000530E+02</pdfrwt>
<totfact> 0.29498489E+06</totfact>
</mgrwt>
</event>
<event>
 5    1  0.4046313E-006  0.2000578E+02  0.7818608E-02  0.1745213E+00
         -2   -1    0    0    0  501 -0.00000000000E+00  0.00000000000E+00  0.11459627596E+02  0.11459627891E+02  0.26000000000E-02 0. -1.
          2   -1    0    0  501    0  0.00000000000E+00 -0.00000000000E+00 -0.87313338563E+01  0.87313342434E+01  0.26000000000E-02 0.  1.
       1023    2    1    2    0    0  0.00000000000E+00  0.00000000000E+00  0.27282937399E+01  0.20190962134E+02  0.20005783293E+02 0.  0.
        -11    1    3    3    0    0 -0.84765625086E+01 -0.53102967178E+01  0.14453769003E+01  0.10106457235E+02  0.51100000000E-03 0.  1.
         11    1    3    3    0    0  0.84765625086E+01  0.53102967178E+01  0.12829168396E+01  0.10084504900E+02  0.51100000000E-03 0. -1.
<mgrwt>
<rscale>  0 0.20005783E+02</rscale>
<asrwt>0</asrwt>
<pdfrwt beam="2">  1        2 0.13432822E-02 0.20005783E+02</pdfrwt>
<pdfrwt beam="1">  1       -2 0.17630197E-02 0.20005783E+02</pdfrwt>
<totfact> 0.39047451E+06</totfact>
</mgrwt>
</event>
<event>
 4    1  0.4046313E-006  0.2002260E+02  0.7818608E-02  0.1744879E+00
          2   -1    0    0  501    0  0.00000000000E+00  0.00000000000E+00  0.61331290188E+01  0.61331295699E+01  0.26000000000E-02 0. -1.
         -2   -1    0    0    0  501 -0.00000000000E+00 -0.00000000000E+00 -0.16341760431E+02  0.16341760638E+02  0.26000000000E-02 0.  1.
        -11    1    1    2    0    0 -0.49500374863E+01 -0.86905714365E+01 -0.56028143516E+01  0.11463875083E+02  0.51100000000E-03 0.  1.
         11    1    1    2    0    0  0.49500374863E+01  0.86905714365E+01 -0.46058170606E+01  0.11011015124E+02  0.51100000000E-03 0. -1.
<mgrwt>
<rscale>  0 0.20022601E+02</rscale>
<asrwt>0</asrwt>
<pdfrwt beam="1">  1        2 0.94355837E-03 0.20022601E+02</pdfrwt>
<pdfrwt beam="2">  1       -2 0.25141170E-02 0.20022601E+02</pdfrwt>
<totfact> 0.37953587E+06</totfact>
</mgrwt>
</event>
<event>
 5    1  0.4046313E-006  0.2000077E+02  0.7818608E-02  0.1745313E+00
          2   -1    0    0  501    0  0.00000000000E+00  0.00000000000E+00  0.99430765198E+01  0.99430768598E+01  0.26000000000E-02 0. -1.
         -2   -1    0    0    0  501 -0.00000000000E+00 -0.00000000000E+00 -0.10058023140E+02  0.10058023476E+02  0.26000000000E-02 0.  1.
       1023    2    1    2    0    0  0.00000000000E+00  0.00000000000E+00 -0.11494662055E+00  0.20001100336E+02  0.20000770034E+02 0.  0.
        -11    1    3    3    0    0  0.88360552578E+01  0.46831420896E+01 -0.60279147475E-01  0.10000566293E+02  0.51100000000E-03 0.  1.
         11    1    3    3    0    0 -0.88360552578E+01 -0.46831420896E+01 -0.54667473074E-01  0.10000534043E+02  0.51100000000E-03 0. -1.
<mgrwt>
<rscale>  0 0.20000770E+02</rscale>
<asrwt>0</asrwt>
<pdfrwt beam="1">  1        2 0.15297041E-02 0.20000770E+02</pdfrwt>
<pdfrwt beam="2">  1       -2 0.15473882E-02 0.20000770E+02</pdfrwt>
<totfact> 0.39443191E+06</totfact>
</mgrwt>
</event>
<event>
 5    1  0.4046313E-006  0.2000266E+02  0.7818608E-02  0.1745275E+00
         -2   -1    0    0    0  501 -0.00000000000E+00  0.00000000000E+00  0.10954483480E+01  0.10954514335E+01  0.26000000000E-02 0.  1.
          2   -1    0    0  501    0  0.00000000000E+00 -0.00000000000E+00 -0.91310949921E+02  0.91310949958E+02  0.26000000000E-02 0. -1.
       1023    2    1    2    0    0  0.00000000000E+00  0.00000000000E+00 -0.90215501573E+02  0.92406401392E+02  0.20002657175E+02 0.  0.
        -11    1    3    3    0    0 -0.44858932113E+01 -0.89388506106E+01 -0.45029745798E+02  0.46127045158E+02  0.51100000000E-03 0. -1.
         11    1    3    3    0    0  0.44858932113E+01  0.89388506106E+01 -0.45185755776E+02  0.46279356234E+02  0.51100000000E-03 0.  1.
<mgrwt>
<rscale>  0 0.20002657E+02</rscale>
<asrwt>0</asrwt>
<pdfrwt beam="2">  1        2 0.14047833E-01 0.20002657E+02</pdfrwt>
<pdfrwt beam="1">  1       -2 0.16853083E-03 0.20002657E+02</pdfrwt>
<totfact> 0.51690419E+06</totfact>
</mgrwt>
</event>
<event>
 5    1  0.4046313E-006  0.2000279E+02  0.7818608E-02  0.1745273E+00
          2   -1    0    0  501    0  0.00000000000E+00  0.00000000000E+00  0.41082917571E+01  0.41082925799E+01  0.26000000000E-02 0. -1.
         -2   -1    0    0    0  501 -0.00000000000E+00 -0.00000000000E+00 -0.24347811270E+02  0.24347811409E+02  0.26000000000E-02 0.  1.
       1023    2    1    2    0    0  0.00000000000E+00  0.00000000000E+00 -0.20239519513E+02  0.28456103989E+02  0.20002792408E+02 0.  0.
        -11    1    3    3    0    0  0.96776599045E+01 -0.25239114117E+01 -0.10082236266E+02  0.14201363260E+02  0.51100000000E-03 0. -1.
         11    1    3    3    0    0 -0.96776599045E+01  0.25239114117E+01 -0.10157283246E+02  0.14254740729E+02  0.51100000000E-03 0.  1.
<mgrwt>
<rscale>  0 0.20002792E+02</rscale>
<asrwt>0</asrwt>
<pdfrwt beam="1">  1        2 0.63204497E-03 0.20002792E+02</pdfrwt>
<pdfrwt beam="2">  1       -2 0.37458171E-02 0.20002792E+02</pdfrwt>
<totfact> 0.36786944E+06</totfact>
</mgrwt>
</event>
<event>
 5    1  0.4046313E-006  0.2000011E+02  0.7818608E-02  0.1745326E+00
         -2   -1    0    0    0  501 -0.00000000000E+00  0.00000000000E+00  0.14719322824E+01  0.14719345787E+01  0.26000000000E-02 0. -1.
          2   -1    0    0  501    0  0.00000000000E+00 -0.00000000000E+00 -0.67938574401E+02  0.67938574451E+02  0.26000000000E-02 0.  1.
       1023    2    1    2    0    0  0.00000000000E+00  0.00000000000E+00 -0.66466642119E+02  0.69410509030E+02  0.20000106230E+02 0.  0.
        -11    1    3    3    0    0 -0.90949947840E+01 -0.41570807045E+01 -0.33134430853E+02  0.34610558480E+02  0.51100000000E-03 0. -1.
         11    1    3    3    0    0  0.90949947840E+01  0.41570807045E+01 -0.33332211266E+02  0.34799950549E+02  0.51100000000E-03 0.  1.
<mgrwt>
<rscale>  0 0.20000106E+02</rscale>
<asrwt>0</asrwt>
<pdfrwt beam="2">  1        2 0.10452086E-01 0.20000106E+02</pdfrwt>
<pdfrwt beam="1">  1       -2 0.22645135E-03 0.20000106E+02</pdfrwt>
<totfact> 0.48750303E+06</totfact>
</mgrwt>
</event>
<event>
 5    1  0.4046313E-006  0.2000062E+02  0.7818608E-02  0.1745316E+00
         -2   -1    0    0    0  501 -0.00000000000E+00  0.00000000000E+00  0.41176899664E+01  0.41176907872E+01  0.26000000000E-02 0. -1.
          2   -1    0    0  501    0  0.00000000000E+00 -0.00000000000E+00 -0.24286965818E+02  0.24286965957E+02  0.26000000000E-02 0.  1.
       1023    2    1    2    0    0  0.00000000000E+00  0.00000000000E+00 -0.20169275852E+02  0.28404656744E+02  0.20000620900E+02 0.  0.
        -11    1    3    3    0    0 -0.63247925713E+01 -0.77461665223E+01 -0.10069609833E+02  0.14191657384E+02  0.51100000000E-03 0. -1.
         11    1    3    3    0    0  0.63247925713E+01  0.77461665223E+01 -0.10099666019E+02  0.14212999360E+02  0.51100000000E-03 0.  1.
<mgrwt>
<rscale>  0 0.20000621E+02</rscale>
<asrwt>0</asrwt>
<pdfrwt beam="2">  1        2 0.37364563E-02 0.20000621E+02</pdfrwt>
<pdfrwt beam="1">  1       -2 0.63349085E-03 0.20000621E+02</pdfrwt>
<totfact> 0.42432835E+06</totfact>
</mgrwt>
</event>
<event>
 5    1  0.4046313E-006  0.2000072E+02  0.7818608E-02  0.1745314E+00
          2   -1    0    0  501    0  0.00000000000E+00  0.00000000000E+00  0.15340722216E+01  0.15340744248E+01  0.26000000000E-02 0.  1.
         -2   -1    0    0    0  501 -0.00000000000E+00 -0.00000000000E+00 -0.65190607367E+02  0.65190607419E+02  0.26000000000E-02 0. -1.
       1023    2    1    2    0    0  0.00000000000E+00  0.00000000000E+00 -0.63656535145E+02  0.66724681844E+02  0.20000717498E+02 0.  0.
        -11    1    3    3    0    0  0.99563042944E+01  0.93764535074E+00 -0.31831320608E+02  0.33365253572E+02  0.51100000000E-03 0. -1.
         11    1    3    3    0    0 -0.99563042944E+01 -0.93764535074E+00 -0.31825214537E+02  0.33359428272E+02  0.51100000000E-03 0.  1.
<mgrwt>
<rscale>  0 0.20000717E+02</rscale>
<asrwt>0</asrwt>
<pdfrwt beam="1">  1        2 0.23601133E-03 0.20000717E+02</pdfrwt>
<pdfrwt beam="2">  1       -2 0.10029322E-01 0.20000717E+02</pdfrwt>
<totfact> 0.32495269E+06</totfact>
</mgrwt>
</event>
<event>
 5    1  0.4046313E-006  0.2000031E+02  0.7818608E-02  0.1745322E+00
         -2   -1    0    0    0  501 -0.00000000000E+00  0.00000000000E+00  0.32814271094E+02  0.32814271197E+02  0.26000000000E-02 0.  1.
          2   -1    0    0  501    0  0.00000000000E+00 -0.00000000000E+00 -0.30475496481E+01  0.30475507572E+01  0.26000000000E-02 0. -1.
       1023    2    1    2    0    0  0.00000000000E+00  0.00000000000E+00  0.29766721446E+02  0.35861821955E+02  0.20000314203E+02 0.  0.
        -11    1    3    3    0    0 -0.99576350061E+01 -0.92038709400E+00  0.14953599396E+02  0.17989211836E+02  0.51100000000E-03 0.  1.
         11    1    3    3    0    0  0.99576350061E+01  0.92038709400E+00  0.14813122050E+02  0.17872610119E+02  0.51100000000E-03 0. -1.
<mgrwt>
<rscale>  0 0.20000314E+02</rscale>
<asrwt>0</asrwt>
<pdfrwt beam="2">  1        2 0.46885386E-03 0.20000314E+02</pdfrwt>
<pdfrwt beam="1">  1       -2 0.50483498E-02 0.20000314E+02</pdfrwt>
<totfact> 0.35724738E+06</totfact>
</mgrwt>
</event>
<event>
 5    1  0.4087910E-006  0.2000121E+02  0.7818608E-02  0.1745304E+00
         -2   -1    0    0    0  501 -0.00000000000E+00  0.00000000000E+00  0.22078745519E+01  0.22078760828E+01  0.26000000000E-02 0.  1.
          2   -1    0    0  501    0  0.00000000000E+00 -0.00000000000E+00 -0.45297877921E+02  0.45297877996E+02  0.26000000000E-02 0. -1.
       1023    2    1    2    0    0  0.00000000000E+00  0.00000000000E+00 -0.43090003369E+02  0.47505754078E+02  0.20001206969E+02 0.  0.
        -11    1    3    3    0    0  0.64606854056E+01  0.76330347337E+01 -0.21762617751E+02  0.23950265276E+02  0.51100000000E-03 0. -1.
         11    1    3    3    0    0 -0.64606854056E+01 -0.76330347337E+01 -0.21327385618E+02  0.23555488802E+02  0.51100000000E-03 0.  1.
<mgrwt>
<rscale>  0 0.20001207E+02</rscale>
<asrwt>0</asrwt>
<pdfrwt beam="2">  1        2 0.69689037E-02 0.20001207E+02</pdfrwt>
<pdfrwt beam="1">  1       -2 0.33967317E-03 0.20001207E+02</pdfrwt>
<totfact> 0.45657756E+06</totfact>
</mgrwt>
</event>
<event>
 5    1  0.4046313E-006  0.2000096E+02  0.7818608E-02  0.1745309E+00
          2   -1    0    0  501    0  0.00000000000E+00  0.00000000000E+00  0.58020300417E+02  0.58020300476E+02  0.26000000000E-02 0. -1.
         -2   -1    0    0    0  501 -0.00000000000E+00 -0.00000000000E+00 -0.17236998925E+01  0.17237018534E+01  0.26000000000E-02 0.  1.
       1023    2    1    2    0    0  0.00000000000E+00  0.00000000000E+00  0.56296600525E+02  0.59744002329E+02  0.20000964568E+02 0.  0.
        -11    1    3    3    0    0 -0.51522924091E+01  0.85710528766E+01  0.28220310327E+02  0.29939856040E+02  0.51100000000E-03 0.  1.
         11    1    3    3    0    0  0.51522924091E+01 -0.85710528766E+01  0.28076290198E+02  0.29804146289E+02  0.51100000000E-03 0. -1.
<mgrwt>
<rscale>  0 0.20000965E+02</rscale>
<asrwt>0</asrwt>
<pdfrwt beam="1">  1        2 0.89261999E-02 0.20000965E+02</pdfrwt>
<pdfrwt beam="2">  1       -2 0.26518476E-03 0.20000965E+02</pdfrwt>
<totfact> 0.47425418E+06</totfact>
</mgrwt>
</event>
<event>
 4    1  0.4046313E-006  0.2001952E+02  0.7818608E-02  0.1744940E+00
         -2   -1    0    0    0  501 -0.00000000000E+00  0.00000000000E+00  0.79426349725E+01  0.79426353980E+01  0.26000000000E-02 0.  1.
          2   -1    0    0  501    0  0.00000000000E+00 -0.00000000000E+00 -0.12614872120E+02  0.12614872388E+02  0.26000000000E-02 0. -1.
        -11    1    1    2    0    0  0.48692977514E+01 -0.87413593794E+01 -0.20569546072E+01  0.10215306501E+02  0.51100000000E-03 0. -1.
         11    1    1    2    0    0 -0.48692977514E+01  0.87413593794E+01 -0.26152825402E+01  0.10342201285E+02  0.51100000000E-03 0.  1.
<mgrwt>
<rscale>  0 0.20019524E+02</rscale>
<asrwt>0</asrwt>
<pdfrwt beam="2">  1        2 0.19407496E-02 0.20019524E+02</pdfrwt>
<pdfrwt beam="1">  1       -2 0.12219439E-02 0.20019524E+02</pdfrwt>
<totfact> 0.40060453E+06</totfact>
</mgrwt>
</event>
<event>
 5    1  0.4046313E-006  0.2000399E+02  0.7818608E-02  0.1745249E+00
         -2   -1    0    0    0  501 -0.00000000000E+00  0.00000000000E+00  0.11454317214E+02  0.11454317510E+02  0.26000000000E-02 0.  1.
          2   -1    0    0  501    0  0.00000000000E+00 -0.00000000000E+00 -0.87338159255E+01  0.87338163125E+01  0.26000000000E-02 0. -1.
       1023    2    1    2    0    0  0.00000000000E+00  0.00000000000E+00  0.27205012890E+01  0.20188133822E+02  0.20003990101E+02 0.  0.
        -11    1    3    3    0    0  0.71152025794E+00 -0.99762295666E+01  0.12672761371E+01  0.10081537904E+02  0.51100000000E-03 0. -1.
         11    1    3    3    0    0 -0.71152025794E+00  0.99762295666E+01  0.14532251518E+01  0.10106595918E+02  0.51100000000E-03 0.  1.
<mgrwt>
<rscale>  0 0.20003990E+02</rscale>
<asrwt>0</asrwt>
<pdfrwt beam="2">  1        2 0.13436640E-02 0.20003990E+02</pdfrwt>
<pdfrwt beam="1">  1       -2 0.17622027E-02 0.20003990E+02</pdfrwt>
<totfact> 0.39056289E+06</totfact>
</mgrwt>
</event>
<event>
 5    1  0.4046313E-006  0.2000075E+02  0.7818608E-02  0.1745313E+00
          2   -1    0    0  501    0  0.00000000000E+00  0.00000000000E+00  0.17588004487E+01  0.17588023705E+01  0.26000000000E-02 0.  1.
         -2   -1    0    0    0  501 -0.00000000000E+00 -0.00000000000E+00 -0.56861178574E+02  0.56861178634E+02  0.26000000000E-02 0. -1.
       1023    2    1    2    0    0  0.00000000000E+00  0.00000000000E+00 -0.55102378126E+02  0.58619981004E+02  0.20000752432E+02 0.  0.
        -11    1    3    3    0    0  0.75382885176E+01  0.65711615314E+01 -0.27667192774E+02  0.29419033191E+02  0.51100000000E-03 0.  1.
         11    1    3    3    0    0 -0.75382885176E+01 -0.65711615314E+01 -0.27435185352E+02  0.29200947814E+02  0.51100000000E-03 0. -1.
<mgrwt>
<rscale>  0 0.20000752E+02</rscale>
<asrwt>0</asrwt>
<pdfrwt beam="1">  1        2 0.27058488E-03 0.20000752E+02</pdfrwt>
<pdfrwt beam="2">  1       -2 0.87478724E-02 0.20000752E+02</pdfrwt>
<totfact> 0.33244627E+06</totfact>
</mgrwt>
</event>
<event>
 5    1  0.4046313E-006  0.2000096E+02  0.7818608E-02  0.1745309E+00
          2   -1    0    0  501    0  0.00000000000E+00  0.00000000000E+00  0.10578763315E+02  0.10578763634E+02  0.26000000000E-02 0. -1.
         -2   -1    0    0    0  501 -0.00000000000E+00 -0.00000000000E+00 -0.94538076816E+01  0.94538080391E+01  0.26000000000E-02 0.  1.
       1023    2    1    2    0    0  0.00000000000E+00  0.00000000000E+00  0.11249556333E+01  0.20032571674E+02  0.20000960044E+02 0.  0.
        -11    1    3    3    0    0 -0.94175741630E+01  0.33636812732E+01  0.49495030243E+00  0.10012493740E+02  0.51100000000E-03 0.  1.
         11    1    3    3    0    0  0.94175741630E+01 -0.33636812732E+01  0.63000533085E+00  0.10020077934E+02  0.51100000000E-03 0. -1.
<mgrwt>
<rscale>  0 0.20000960E+02</rscale>
<asrwt>0</asrwt>
<pdfrwt beam="1">  1        2 0.16275021E-02 0.20000960E+02</pdfrwt>
<pdfrwt beam="2">  1       -2 0.14544320E-02 0.20000960E+02</pdfrwt>
<totfact> 0.39622203E+06</totfact>
</mgrwt>
</event>
<event>
 5    1  0.4046313E-006  0.2000009E+02  0.7818608E-02  0.1745326E+00
          2   -1    0    0  501    0  0.00000000000E+00  0.00000000000E+00  0.83886028271E+02  0.83886028311E+02  0.26000000000E-02 0.  1.
         -2   -1    0    0    0  501 -0.00000000000E+00 -0.00000000000E+00 -0.11921025425E+01  0.11921053779E+01  0.26000000000E-02 0. -1.
       1023    2    1    2    0    0  0.00000000000E+00  0.00000000000E+00  0.82693925728E+02  0.85078133689E+02  0.20000086991E+02 0.  0.
        -11    1    3    3    0    0 -0.87286137818E+01  0.48797005768E+01  0.41458976776E+02  0.42647941707E+02  0.51100000000E-03 0.  1.
         11    1    3    3    0    0  0.87286137818E+01 -0.48797005768E+01  0.41234948953E+02  0.42430191982E+02  0.51100000000E-03 0. -1.
<mgrwt>
<rscale>  0 0.20000087E+02</rscale>
<asrwt>0</asrwt>
<pdfrwt beam="1">  1        2 0.12905538E-01 0.20000087E+02</pdfrwt>
<pdfrwt beam="2">  1       -2 0.18340069E-03 0.20000087E+02</pdfrwt>
<totfact> 0.50786399E+06</totfact>
</mgrwt>
</event>
<event>
 5    1  0.4046313E-006  0.2000033E+02  0.7818608E-02  0.1745322E+00
         -2   -1    0    0    0  501 -0.00000000000E+00  0.00000000000E+00  0.29313185038E+01  0.29313196568E+01  0.26000000000E-02 0.  1.
          2   -1    0    0  501    0  0.00000000000E+00 -0.00000000000E+00 -0.34115445407E+02  0.34115445506E+02  0.26000000000E-02 0. -1.
       1023    2    1    2    0    0  0.00000000000E+00  0.00000000000E+00 -0.31184126904E+02  0.37046765163E+02  0.20000325955E+02 0.  0.
        -11    1    3    3    0    0 -0.97987853307E+01  0.19960356830E+01 -0.15691932135E+02  0.18607447079E+02  0.51100000000E-03 0. -1.
         11    1    3    3    0    0  0.97987853307E+01 -0.19960356830E+01 -0.15492194769E+02  0.18439318085E+02  0.51100000000E-03 0.  1.
<mgrwt>
<rscale>  0 0.20000326E+02</rscale>
<asrwt>0</asrwt>
<pdfrwt beam="2">  1        2 0.52485299E-02 0.20000326E+02</pdfrwt>
<pdfrwt beam="1">  1       -2 0.45097220E-03 0.20000326E+02</pdfrwt>
<totfact> 0.44012529E+06</totfact>
</mgrwt>
</event>
<event>
 5    1  0.4046313E-006  0.2000017E+02  0.7818608E-02  0.1745325E+00
         -2   -1    0    0    0  501 -0.00000000000E+00  0.00000000000E+00  0.33934513606E+02  0.33934513706E+02  0.26000000000E-02 0.  1.
          2   -1    0    0  501    0  0.00000000000E+00 -0.00000000000E+00 -0.29469008121E+01  0.29469019591E+01  0.26000000000E-02 0. -1.
       1023    2    1    2    0    0  0.00000000000E+00  0.00000000000E+00  0.30987612794E+02  0.36881415665E+02  0.20000166869E+02 0.  0.
        -11    1    3    3    0    0 -0.88818441293E+01 -0.45950527243E+01  0.15490232625E+02  0.18437705164E+02  0.51100000000E-03 0.  1.
         11    1    3    3    0    0  0.88818441293E+01  0.45950527243E+01  0.15497380169E+02  0.18443710501E+02  0.51100000000E-03 0. -1.
<mgrwt>
<rscale>  0 0.20000167E+02</rscale>
<asrwt>0</asrwt>
<pdfrwt beam="2">  1        2 0.45336946E-03 0.20000167E+02</pdfrwt>
<pdfrwt beam="1">  1       -2 0.52206945E-02 0.20000167E+02</pdfrwt>
<totfact> 0.35594631E+06</totfact>
</mgrwt>
</event>
<event>
 5    1  0.4046313E-006  0.2000007E+02  0.7818608E-02  0.1745327E+00
         -2   -1    0    0    0  501 -0.00000000000E+00  0.00000000000E+00  0.11807646279E+02  0.11807646565E+02  0.26000000000E-02 0. -1.
          2   -1    0    0  501    0  0.00000000000E+00 -0.00000000000E+00 -0.84691492525E+01  0.84691496516E+01  0.26000000000E-02 0.  1.
       1023    2    1    2    0    0  0.00000000000E+00  0.00000000000E+00  0.33384970264E+01  0.20276796217E+02  0.20000072560E+02 0.  0.
        -11    1    3    3    0    0 -0.96468357557E+01 -0.26342506181E+01  0.16722776300E+01  0.10138896841E+02  0.51100000000E-03 0. -1.
         11    1    3    3    0    0  0.96468357557E+01  0.26342506181E+01  0.16662193964E+01  0.10137899376E+02  0.51100000000E-03 0.  1.
<mgrwt>
<rscale>  0 0.20000073E+02</rscale>
<asrwt>0</asrwt>
<pdfrwt beam="2">  1        2 0.13029461E-02 0.20000073E+02</pdfrwt>
<pdfrwt beam="1">  1       -2 0.18165610E-02 0.20000073E+02</pdfrwt>
<totfact> 0.38985765E+06</totfact>
</mgrwt>
</event>
<event>
 5    1  0.4046313E-006  0.2000185E+02  0.7818608E-02  0.1745291E+00
          2   -1    0    0  501    0  0.00000000000E+00  0.00000000000E+00  0.17774877325E+02  0.17774877516E+02  0.26000000000E-02 0. -1.
         -2   -1    0    0    0  501 -0.00000000000E+00 -0.00000000000E+00 -0.56269589536E+01  0.56269595543E+01  0.26000000000E-02 0.  1.
       1023    2    1    2    0    0  0.00000000000E+00  0.00000000000E+00  0.12147918372E+02  0.23401837070E+02  0.20001851351E+02 0.  0.
        -11    1    3    3    0    0  0.46730154346E+01  0.88419812305E+01  0.60406860519E+01  0.11683646416E+02  0.51100000000E-03 0. -1.
         11    1    3    3    0    0 -0.46730154346E+01 -0.88419812305E+01  0.61072323200E+01  0.11718190654E+02  0.51100000000E-03 0.  1.
<mgrwt>
<rscale>  0 0.20001851E+02</rscale>
<asrwt>0</asrwt>
<pdfrwt beam="1">  1        2 0.27345965E-02 0.20001851E+02</pdfrwt>
<pdfrwt beam="2">  1       -2 0.86568608E-03 0.20001851E+02</pdfrwt>
<totfact> 0.41247628E+06</totfact>
</mgrwt>
</event>
<event>
 5    1  0.4776395E-006  0.2000205E+02  0.7818608E-02  0.1745287E+00
         -2   -1    0    0    0  501 -0.00000000000E+00  0.00000000000E+00  0.46315887277E+01  0.46315894575E+01  0.26000000000E-02 0.  1.
          2   -1    0    0  501    0  0.00000000000E+00 -0.00000000000E+00 -0.21595292616E+02  0.21595292772E+02  0.26000000000E-02 0. -1.
       1023    2    1    2    0    0  0.00000000000E+00  0.00000000000E+00 -0.16963703888E+02  0.26226882230E+02  0.20002052442E+02 0.  0.
        -11    1    3    3    0    0 -0.99928106124E+01  0.40494421657E+00 -0.85038497692E+01  0.13127669439E+02  0.51100000000E-03 0. -1.
         11    1    3    3    0    0  0.99928106124E+01 -0.40494421657E+00 -0.84598541189E+01  0.13099212790E+02  0.51100000000E-03 0.  1.
<mgrwt>
<rscale>  0 0.20002052E+02</rscale>
<asrwt>0</asrwt>
<pdfrwt beam="2">  1        2 0.33223527E-02 0.20002052E+02</pdfrwt>
<pdfrwt beam="1">  1       -2 0.71255219E-03 0.20002052E+02</pdfrwt>
<totfact> 0.41957344E+06</totfact>
</mgrwt>
</event>
<event>
 5    1  0.4221745E-006  0.2000181E+02  0.7818608E-02  0.1745292E+00
         -2   -1    0    0    0  501 -0.00000000000E+00  0.00000000000E+00  0.10525697821E+01  0.10525729932E+01  0.26000000000E-02 0. -1.
          2   -1    0    0  501    0  0.00000000000E+00 -0.00000000000E+00 -0.95022597082E+02  0.95022597117E+02  0.26000000000E-02 0.  1.
       1023    2    1    2    0    0  0.00000000000E+00  0.00000000000E+00 -0.93970027300E+02  0.96075170110E+02  0.20001806945E+02 0.  0.
        -11    1    3    3    0    0  0.78128202801E+01  0.62421570981E+01 -0.46429319863E+02  0.47494067305E+02  0.51100000000E-03 0.  1.
         11    1    3    3    0    0 -0.78128202801E+01 -0.62421570981E+01 -0.47540707437E+02  0.48581102805E+02  0.51100000000E-03 0. -1.
<mgrwt>
<rscale>  0 0.20001807E+02</rscale>
<asrwt>0</asrwt>
<pdfrwt beam="2">  1        2 0.14618855E-01 0.20001807E+02</pdfrwt>
<pdfrwt beam="1">  1       -2 0.16193414E-03 0.20001807E+02</pdfrwt>
<totfact> 0.52147648E+06</totfact>
</mgrwt>
</event>
<event>
 5    1  0.4046313E-006  0.2000304E+02  0.7818608E-02  0.1745268E+00
          2   -1    0    0  501    0  0.00000000000E+00  0.00000000000E+00  0.10625796245E+02  0.10625796563E+02  0.26000000000E-02 0. -1.
         -2   -1    0    0    0  501 -0.00000000000E+00 -0.00000000000E+00 -0.94139222221E+01  0.94139225812E+01  0.26000000000E-02 0.  1.
       1023    2    1    2    0    0  0.00000000000E+00  0.00000000000E+00  0.12118740232E+01  0.20039719145E+02  0.20003042387E+02 0.  0.
        -11    1    3    3    0    0  0.95467406330E+01  0.29788125098E+01  0.73596421177E+00  0.10027722786E+02  0.51100000000E-03 0.  1.
         11    1    3    3    0    0 -0.95467406330E+01 -0.29788125098E+01  0.47590981146E+00  0.10011996359E+02  0.51100000000E-03 0. -1.
<mgrwt>
<rscale>  0 0.20003042E+02</rscale>
<asrwt>0</asrwt>
<pdfrwt beam="1">  1        2 0.16347379E-02 0.20003042E+02</pdfrwt>
<pdfrwt beam="2">  1       -2 0.14482958E-02 0.20003042E+02</pdfrwt>
<totfact> 0.39625735E+06</totfact>
</mgrwt>
</event>
<event>
 5    1  0.4046313E-006  0.2000230E+02  0.7818608E-02  0.1745282E+00
         -2   -1    0    0    0  501 -0.00000000000E+00  0.00000000000E+00  0.16672805618E+02  0.16672805820E+02  0.26000000000E-02 0. -1.
          2   -1    0    0  501    0  0.00000000000E+00 -0.00000000000E+00 -0.59991722354E+01  0.59991727988E+01  0.26000000000E-02 0.  1.
       1023    2    1    2    0    0  0.00000000000E+00  0.00000000000E+00  0.10673633382E+02  0.22671978619E+02  0.20002303990E+02 0.  0.
        -11    1    3    3    0    0 -0.91345299694E+01 -0.40722722661E+01  0.53383370347E+01  0.11336705065E+02  0.51100000000E-03 0. -1.
         11    1    3    3    0    0  0.91345299694E+01  0.40722722661E+01  0.53352963475E+01  0.11335273554E+02  0.51100000000E-03 0.  1.
<mgrwt>
<rscale>  0 0.20002304E+02</rscale>
<asrwt>0</asrwt>
<pdfrwt beam="2">  1        2 0.92294964E-03 0.20002304E+02</pdfrwt>
<pdfrwt beam="1">  1       -2 0.25650470E-02 0.20002304E+02</pdfrwt>
<totfact> 0.37977508E+06</totfact>
</mgrwt>
</event>
<event>
 5    1  0.4046313E-006  0.2000106E+02  0.7818608E-02  0.1745307E+00
         -2   -1    0    0    0  501 -0.00000000000E+00  0.00000000000E+00  0.88691732213E+02  0.88691732251E+02  0.26000000000E-02 0.  1.
          2   -1    0    0  501    0  0.00000000000E+00 -0.00000000000E+00 -0.11276184542E+01  0.11276214516E+01  0.26000000000E-02 0. -1.
       1023    2    1    2    0    0  0.00000000000E+00  0.00000000000E+00  0.87564113759E+02  0.89819353703E+02  0.20001057002E+02 0.  0.
        -11    1    3    3    0    0 -0.29123498025E+01  0.95669300920E+01  0.44012676091E+02  0.45134505533E+02  0.51100000000E-03 0.  1.
         11    1    3    3    0    0  0.29123498025E+01 -0.95669300920E+01  0.43551437668E+02  0.44684848170E+02  0.51100000000E-03 0. -1.
<mgrwt>
<rscale>  0 0.20001057E+02</rscale>
<asrwt>0</asrwt>
<pdfrwt beam="2">  1        2 0.17347993E-03 0.20001057E+02</pdfrwt>
<pdfrwt beam="1">  1       -2 0.13644887E-01 0.20001057E+02</pdfrwt>
<totfact> 0.30571951E+06</totfact>
</mgrwt>
</event>
<event>
 5    1  0.4046313E-006  0.2000202E+02  0.7818608E-02  0.1745288E+00
         -2   -1    0    0    0  501 -0.00000000000E+00  0.00000000000E+00  0.74734848944E+01  0.74734853467E+01  0.26000000000E-02 0. -1.
          2   -1    0    0  501    0  0.00000000000E+00 -0.00000000000E+00 -0.13383336879E+02  0.13383337132E+02  0.26000000000E-02 0.  1.
       1023    2    1    2    0    0  0.00000000000E+00  0.00000000000E+00 -0.59098519848E+01  0.20856822478E+02  0.20002017234E+02 0.  0.
        -11    1    3    3    0    0  0.37438021909E+01  0.92736530012E+01 -0.30164231975E+01  0.10445836683E+02  0.51100000000E-03 0. -1.
         11    1    3    3    0    0 -0.37438021909E+01 -0.92736530012E+01 -0.28934287872E+01  0.10410985796E+02  0.51100000000E-03 0.  1.
<mgrwt>
<rscale>  0 0.20002017E+02</rscale>
<asrwt>0</asrwt>
<pdfrwt beam="2">  1        2 0.20589750E-02 0.20002017E+02</pdfrwt>
<pdfrwt beam="1">  1       -2 0.11497670E-02 0.20002017E+02</pdfrwt>
<totfact> 0.40321154E+06</totfact>
</mgrwt>
</event>
<event>
 5    1  0.4046313E-006  0.2000239E+02  0.7818608E-02  0.1745281E+00
          2   -1    0    0  501    0  0.00000000000E+00  0.00000000000E+00  0.36511477139E+01  0.36511486396E+01  0.26000000000E-02 0. -1.
         -2   -1    0    0    0  501 -0.00000000000E+00 -0.00000000000E+00 -0.27395186487E+02  0.27395186610E+02  0.26000000000E-02 0.  1.
       1023    2    1    2    0    0  0.00000000000E+00  0.00000000000E+00 -0.23744038773E+02  0.31046335250E+02  0.20002388737E+02 0.  0.
        -11    1    3    3    0    0  0.72739711791E+01  0.68625739516E+01 -0.11661990259E+02  0.15362538691E+02  0.51100000000E-03 0. -1.
         11    1    3    3    0    0 -0.72739711791E+01 -0.68625739516E+01 -0.12082048513E+02  0.15683796559E+02  0.51100000000E-03 0.  1.
<mgrwt>
<rscale>  0 0.20002389E+02</rscale>
<asrwt>0</asrwt>
<pdfrwt beam="1">  1        2 0.56171513E-03 0.20002389E+02</pdfrwt>
<pdfrwt beam="2">  1       -2 0.42146440E-02 0.20002389E+02</pdfrwt>
<totfact> 0.36382920E+06</totfact>
</mgrwt>
</event>
<event>
 5    1  0.4046313E-006  0.2000067E+02  0.7818608E-02  0.1745315E+00
          2   -1    0    0  501    0  0.00000000000E+00  0.00000000000E+00  0.26595309153E+02  0.26595309280E+02  0.26000000000E-02 0. -1.
         -2   -1    0    0    0  501 -0.00000000000E+00 -0.00000000000E+00 -0.37603144196E+01  0.37603153185E+01  0.26000000000E-02 0.  1.
       1023    2    1    2    0    0  0.00000000000E+00  0.00000000000E+00  0.22834994733E+02  0.30355624598E+02  0.20000673996E+02 0.  0.
        -11    1    3    3    0    0  0.95387002257E+01 -0.30029489087E+01  0.11345734771E+02  0.15123828943E+02  0.51100000000E-03 0. -1.
         11    1    3    3    0    0 -0.95387002257E+01  0.30029489087E+01  0.11489259962E+02  0.15231795655E+02  0.51100000000E-03 0.  1.
<mgrwt>
<rscale>  0 0.20000674E+02</rscale>
<asrwt>0</asrwt>
<pdfrwt beam="1">  1        2 0.40915861E-02 0.20000674E+02</pdfrwt>
<pdfrwt beam="2">  1       -2 0.57851000E-03 0.20000674E+02</pdfrwt>
<totfact> 0.42819507E+06</totfact>
</mgrwt>
</event>
<event>
 5    1  0.4046313E-006  0.2000049E+02  0.7818608E-02  0.1745318E+00
         -2   -1    0    0    0  501 -0.00000000000E+00  0.00000000000E+00  0.36678687641E+02  0.36678687733E+02  0.26000000000E-02 0. -1.
          2   -1    0    0  501    0  0.00000000000E+00 -0.00000000000E+00 -0.27265105436E+01  0.27265117833E+01  0.26000000000E-02 0.  1.
       1023    2    1    2    0    0  0.00000000000E+00  0.00000000000E+00  0.33952177097E+02  0.39405199516E+02  0.20000485476E+02 0.  0.
        -11    1    3    3    0    0 -0.80005576581E+01  0.59995200035E+01  0.17057117825E+02  0.19772415934E+02  0.51100000000E-03 0. -1.
         11    1    3    3    0    0  0.80005576581E+01 -0.59995200035E+01  0.16895059272E+02  0.19632783582E+02  0.51100000000E-03 0.  1.
<mgrwt>
<rscale>  0 0.20000485E+02</rscale>
<asrwt>0</asrwt>
<pdfrwt beam="2">  1        2 0.41946329E-03 0.20000485E+02</pdfrwt>
<pdfrwt beam="1">  1       -2 0.56428747E-02 0.20000485E+02</pdfrwt>
<totfact> 0.35281786E+06</totfact>
</mgrwt>
</event>
<event>
 5    1  0.4046313E-006  0.2000505E+02  0.7818608E-02  0.1745228E+00
          2   -1    0    0  501    0  0.00000000000E+00  0.00000000000E+00  0.18587307482E+02  0.18587307664E+02  0.26000000000E-02 0.  1.
         -2   -1    0    0    0  501 -0.00000000000E+00 -0.00000000000E+00 -0.53827311875E+01  0.53827318154E+01  0.26000000000E-02 0. -1.
       1023    2    1    2    0    0  0.00000000000E+00  0.00000000000E+00  0.13204576294E+02  0.23970039479E+02  0.20005048301E+02 0.  0.
        -11    1    3    3    0    0 -0.99480088277E+01  0.10410483814E+01  0.65281569701E+01  0.11944182478E+02  0.51100000000E-03 0. -1.
         11    1    3    3    0    0  0.99480088277E+01 -0.10410483814E+01  0.66764193243E+01  0.12025857002E+02  0.51100000000E-03 0.  1.
<mgrwt>
<rscale>  0 0.20005048E+02</rscale>
<asrwt>0</asrwt>
<pdfrwt beam="1">  1        2 0.28595858E-02 0.20005048E+02</pdfrwt>
<pdfrwt beam="2">  1       -2 0.82811255E-03 0.20005048E+02</pdfrwt>
<totfact> 0.41389573E+06</totfact>
</mgrwt>
</event>
<event>
 5    1  0.4046313E-006  0.2000051E+02  0.7818608E-02  0.1745318E+00
         -2   -1    0    0    0  501 -0.00000000000E+00  0.00000000000E+00  0.51670329421E+01  0.51670335963E+01  0.26000000000E-02 0.  1.
          2   -1    0    0  501    0  0.00000000000E+00 -0.00000000000E+00 -0.19354446473E+02  0.19354446647E+02  0.26000000000E-02 0. -1.
       1023    2    1    2    0    0  0.00000000000E+00  0.00000000000E+00 -0.14187413530E+02  0.24521480243E+02  0.20000507260E+02 0.  0.
        -11    1    3    3    0    0  0.42761883974E+01  0.90396543468E+01 -0.71706108436E+01  0.12305234579E+02  0.51100000000E-03 0. -1.
         11    1    3    3    0    0 -0.42761883974E+01 -0.90396543468E+01 -0.70168026868E+01  0.12216245664E+02  0.51100000000E-03 0.  1.
<mgrwt>
<rscale>  0 0.20000507E+02</rscale>
<asrwt>0</asrwt>
<pdfrwt beam="2">  1        2 0.29776072E-02 0.20000507E+02</pdfrwt>
<pdfrwt beam="1">  1       -2 0.79492822E-03 0.20000507E+02</pdfrwt>
<totfact> 0.41555764E+06</totfact>
</mgrwt>
</event>
<event>
 5    1  0.4046313E-006  0.2000100E+02  0.7818608E-02  0.1745308E+00
          2   -1    0    0  501    0  0.00000000000E+00  0.00000000000E+00  0.25866773107E+02  0.25866773238E+02  0.26000000000E-02 0.  1.
         -2   -1    0    0    0  501 -0.00000000000E+00 -0.00000000000E+00 -0.38663506745E+01  0.38663515487E+01  0.26000000000E-02 0. -1.
       1023    2    1    2    0    0  0.00000000000E+00  0.00000000000E+00  0.22000422433E+02  0.29733124787E+02  0.20001003034E+02 0.  0.
        -11    1    3    3    0    0  0.48764563960E+01  0.87309701230E+01  0.11028575586E+02  0.14887550033E+02  0.51100000000E-03 0.  1.
         11    1    3    3    0    0 -0.48764563960E+01 -0.87309701230E+01  0.10971846847E+02  0.14845574753E+02  0.51100000000E-03 0. -1.
<mgrwt>
<rscale>  0 0.20001003E+02</rscale>
<asrwt>0</asrwt>
<pdfrwt beam="1">  1        2 0.39795037E-02 0.20001003E+02</pdfrwt>
<pdfrwt beam="2">  1       -2 0.59482325E-03 0.20001003E+02</pdfrwt>
<totfact> 0.42697122E+06</totfact>
</mgrwt>
</event>
<event>
 4    1  0.4046313E-006  0.2002654E+02  0.7818608E-02  0.1744801E+00
          2   -1    0    0  501    0  0.00000000000E+00  0.00000000000E+00  0.44202955901E+02  0.44202955977E+02  0.26000000000E-02 0.  1.
         -2   -1    0    0    0  501 -0.00000000000E+00 -0.00000000000E+00 -0.22682998131E+01  0.22683013032E+01  0.26000000000E-02 0. -1.
        -11    1    1    2    0    0 -0.64216324654E+01 -0.76827849099E+01  0.21095381247E+02  0.23351181077E+02  0.51100000000E-03 0.  1.
         11    1    1    2    0    0  0.64216324654E+01  0.76827849099E+01  0.20839274841E+02  0.23120076203E+02  0.51100000000E-03 0. -1.
<mgrwt>
<rscale>  0 0.20026542E+02</rscale>
<asrwt>0</asrwt>
<pdfrwt beam="1">  1        2 0.68004540E-02 0.20026542E+02</pdfrwt>
<pdfrwt beam="2">  1       -2 0.34896937E-03 0.20026542E+02</pdfrwt>
<totfact> 0.45372608E+06</totfact>
</mgrwt>
</event>
<event>
 5    1  0.4046313E-006  0.2000254E+02  0.7818608E-02  0.1745277E+00
          2   -1    0    0  501    0  0.00000000000E+00  0.00000000000E+00  0.26713537315E+02  0.26713537441E+02  0.26000000000E-02 0. -1.
         -2   -1    0    0    0  501 -0.00000000000E+00 -0.00000000000E+00 -0.37443721144E+01  0.37443730171E+01  0.26000000000E-02 0.  1.
       1023    2    1    2    0    0  0.00000000000E+00  0.00000000000E+00  0.22969165200E+02  0.30457910458E+02  0.20002543825E+02 0.  0.
        -11    1    3    3    0    0  0.18767380789E+01  0.98225054845E+01  0.11708786166E+02  0.15398033431E+02  0.51100000000E-03 0.  1.
         11    1    3    3    0    0 -0.18767380789E+01 -0.98225054845E+01  0.11260379034E+02  0.15059877027E+02  0.51100000000E-03 0. -1.
<mgrwt>
<rscale>  0 0.20002544E+02</rscale>
<asrwt>0</asrwt>
<pdfrwt beam="1">  1        2 0.41097753E-02 0.20002544E+02</pdfrwt>
<pdfrwt beam="2">  1       -2 0.57605729E-03 0.20002544E+02</pdfrwt>
<totfact> 0.42830017E+06</totfact>
</mgrwt>
</event>
<event>
 5    1  0.4084066E-006  0.2000150E+02  0.7818608E-02  0.1745298E+00
         -2   -1    0    0    0  501 -0.00000000000E+00  0.00000000000E+00  0.13596749403E+01  0.13596774262E+01  0.26000000000E-02 0. -1.
          2   -1    0    0  501    0  0.00000000000E+00 -0.00000000000E+00 -0.73557958787E+02  0.73557958833E+02  0.26000000000E-02 0.  1.
       1023    2    1    2    0    0  0.00000000000E+00  0.00000000000E+00 -0.72198283847E+02  0.74917636260E+02  0.20001500750E+02 0.  0.
        -11    1    3    3    0    0 -0.39562468646E+01  0.91846434484E+01 -0.36375486897E+02  0.37725132363E+02  0.51100000000E-03 0.  1.
         11    1    3    3    0    0  0.39562468646E+01 -0.91846434484E+01 -0.35822796950E+02  0.37192503897E+02  0.51100000000E-03 0. -1.
<mgrwt>
<rscale>  0 0.20001501E+02</rscale>
<asrwt>0</asrwt>
<pdfrwt beam="2">  1        2 0.11316606E-01 0.20001501E+02</pdfrwt>
<pdfrwt beam="1">  1       -2 0.20918101E-03 0.20001501E+02</pdfrwt>
<totfact> 0.49471457E+06</totfact>
</mgrwt>
</event>
<event>
 5    1  0.4046313E-006  0.2000062E+02  0.7818608E-02  0.1745316E+00
          2   -1    0    0  501    0  0.00000000000E+00  0.00000000000E+00  0.15831334143E+02  0.15831334357E+02  0.26000000000E-02 0. -1.
         -2   -1    0    0    0  501 -0.00000000000E+00 -0.00000000000E+00 -0.63169752802E+01  0.63169758152E+01  0.26000000000E-02 0.  1.
       1023    2    1    2    0    0  0.00000000000E+00  0.00000000000E+00  0.95143588632E+01  0.22148310172E+02  0.20000615463E+02 0.  0.
        -11    1    3    3    0    0  0.58911494473E+01 -0.80806770873E+01  0.46948262378E+01  0.11047369717E+02  0.51100000000E-03 0. -1.
         11    1    3    3    0    0 -0.58911494473E+01  0.80806770873E+01  0.48195326253E+01  0.11100940455E+02  0.51100000000E-03 0.  1.
<mgrwt>
<rscale>  0 0.20000615E+02</rscale>
<asrwt>0</asrwt>
<pdfrwt beam="1">  1        2 0.24355899E-02 0.20000615E+02</pdfrwt>
<pdfrwt beam="2">  1       -2 0.97184242E-03 0.20000615E+02</pdfrwt>
<totfact> 0.40862246E+06</totfact>
</mgrwt>
</event>
<event>
 5    1  0.4046313E-006  0.2000062E+02  0.7818608E-02  0.1745316E+00
          2   -1    0    0  501    0  0.00000000000E+00  0.00000000000E+00  0.31969044872E+02  0.31969044978E+02  0.26000000000E-02 0.  1.
         -2   -1    0    0    0  501 -0.00000000000E+00 -0.00000000000E+00 -0.31282182998E+01  0.31282193803E+01  0.26000000000E-02 0. -1.
       1023    2    1    2    0    0  0.00000000000E+00  0.00000000000E+00  0.28840826573E+02  0.35097264359E+02  0.20000617192E+02 0.  0.
        -11    1    3    3    0    0  0.96517996008E+01  0.26165921251E+01  0.14334770873E+02  0.17478256381E+02  0.51100000000E-03 0. -1.
         11    1    3    3    0    0 -0.96517996008E+01 -0.26165921251E+01  0.14506055700E+02  0.17619007978E+02  0.51100000000E-03 0.  1.
<mgrwt>
<rscale>  0 0.20000617E+02</rscale>
<asrwt>0</asrwt>
<pdfrwt beam="1">  1        2 0.49183147E-02 0.20000617E+02</pdfrwt>
<pdfrwt beam="2">  1       -2 0.48126445E-03 0.20000617E+02</pdfrwt>
<totfact> 0.43679748E+06</totfact>
</mgrwt>
</event>
<event>
 4    1  0.4046313E-006  0.2002287E+02  0.7818608E-02  0.1744874E+00
          2   -1    0    0  501    0  0.00000000000E+00  0.00000000000E+00  0.56238447731E+01  0.56238453741E+01  0.26000000000E-02 0.  1.
         -2   -1    0    0    0  501 -0.00000000000E+00 -0.00000000000E+00 -0.17822116044E+02  0.17822116233E+02  0.26000000000E-02 0. -1.
        -11    1    1    2    0    0  0.99785491686E+00  0.99601402778E+01 -0.62975583706E+01  0.11826214546E+02  0.51100000000E-03 0. -1.
         11    1    1    2    0    0 -0.99785491686E+00 -0.99601402778E+01 -0.59007129001E+01  0.11619747062E+02  0.51100000000E-03 0.  1.
<mgrwt>
<rscale>  0 0.20022869E+02</rscale>
<asrwt>0</asrwt>
<pdfrwt beam="1">  1        2 0.86520696E-03 0.20022869E+02</pdfrwt>
<pdfrwt beam="2">  1       -2 0.27418640E-02 0.20022869E+02</pdfrwt>
<totfact> 0.37694079E+06</totfact>
</mgrwt>
</event>
<event>
 5    1  0.4046313E-006  0.2000159E+02  0.7818608E-02  0.1745296E+00
         -2   -1    0    0    0  501 -0.00000000000E+00  0.00000000000E+00  0.34240903262E+01  0.34240913133E+01  0.26000000000E-02 0.  1.
          2   -1    0    0  501    0  0.00000000000E+00 -0.00000000000E+00 -0.29209477282E+02  0.29209477398E+02  0.26000000000E-02 0. -1.
       1023    2    1    2    0    0  0.00000000000E+00  0.00000000000E+00 -0.25785386956E+02  0.32633568711E+02  0.20001590596E+02 0.  0.
        -11    1    3    3    0    0 -0.15584526602E+01 -0.98785335928E+01 -0.12825310479E+02  0.16263541736E+02  0.51100000000E-03 0. -1.
         11    1    3    3    0    0  0.15584526602E+01  0.98785335928E+01 -0.12960076477E+02  0.16370026976E+02  0.51100000000E-03 0.  1.
<mgrwt>
<rscale>  0 0.20001591E+02</rscale>
<asrwt>0</asrwt>
<pdfrwt beam="2">  1        2 0.44937657E-02 0.20001591E+02</pdfrwt>
<pdfrwt beam="1">  1       -2 0.52678323E-03 0.20001591E+02</pdfrwt>
<totfact> 0.43239570E+06</totfact>
</mgrwt>
</event>
<event>
 5    1  0.4087905E-006  0.2000073E+02  0.7818608E-02  0.1745314E+00
          2   -1    0    0  501    0  0.00000000000E+00  0.00000000000E+00  0.71548113066E+02  0.71548113114E+02  0.26000000000E-02 0. -1.
         -2   -1    0    0    0  501 -0.00000000000E+00 -0.00000000000E+00 -0.13977615013E+01  0.13977639195E+01  0.26000000000E-02 0.  1.
       1023    2    1    2    0    0  0.00000000000E+00  0.00000000000E+00  0.70150351565E+02  0.72945877033E+02  0.20000728772E+02 0.  0.
        -11    1    3    3    0    0  0.28624136990E+01  0.95815873897E+01  0.35381591665E+02  0.36767611537E+02  0.51100000000E-03 0. -1.
         11    1    3    3    0    0 -0.28624136990E+01 -0.95815873897E+01  0.34768759900E+02  0.36178265496E+02  0.51100000000E-03 0.  1.
<mgrwt>
<rscale>  0 0.20000729E+02</rscale>
<asrwt>0</asrwt>
<pdfrwt beam="1">  1        2 0.11007403E-01 0.20000729E+02</pdfrwt>
<pdfrwt beam="2">  1       -2 0.21504041E-03 0.20000729E+02</pdfrwt>
<totfact> 0.49216645E+06</totfact>
</mgrwt>
</event>
<event>
 5    1  0.4046313E-006  0.2000105E+02  0.7818608E-02  0.1745307E+00
          2   -1    0    0  501    0  0.00000000000E+00  0.00000000000E+00  0.53684426061E+01  0.53684432357E+01  0.26000000000E-02 0. -1.
         -2   -1    0    0    0  501 -0.00000000000E+00 -0.00000000000E+00 -0.18629327082E+02  0.18629327263E+02  0.26000000000E-02 0.  1.
       1023    2    1    2    0    0  0.00000000000E+00  0.00000000000E+00 -0.13260884476E+02  0.23997770499E+02  0.20001048269E+02 0.  0.
        -11    1    3    3    0    0  0.20383685198E-01  0.10000135915E+02 -0.67332981108E+01  0.12055722190E+02  0.51100000000E-03 0. -1.
         11    1    3    3    0    0 -0.20383685198E-01 -0.10000135915E+02 -0.65275863649E+01  0.11942048309E+02  0.51100000000E-03 0.  1.
<mgrwt>
<rscale>  0 0.20001048E+02</rscale>
<asrwt>0</asrwt>
<pdfrwt beam="1">  1        2 0.82591432E-03 0.20001048E+02</pdfrwt>
<pdfrwt beam="2">  1       -2 0.28660504E-02 0.20001048E+02</pdfrwt>
<totfact> 0.37648818E+06</totfact>
</mgrwt>
</event>
<event>
 4    1  0.4046313E-006  0.2002266E+02  0.7818608E-02  0.1744878E+00
          2   -1    0    0  501    0  0.00000000000E+00  0.00000000000E+00  0.18145578601E+01  0.18145597228E+01  0.26000000000E-02 0. -1.
         -2   -1    0    0    0  501 -0.00000000000E+00 -0.00000000000E+00 -0.55234741596E+02  0.55234741657E+02  0.26000000000E-02 0.  1.
        -11    1    1    2    0    0 -0.32528773135E+01  0.94667658689E+01 -0.26252238862E+02  0.28095923412E+02  0.51100000000E-03 0. -1.
         11    1    1    2    0    0  0.32528773135E+01 -0.94667658689E+01 -0.27167944874E+02  0.28953377968E+02  0.51100000000E-03 0.  1.
<mgrwt>
<rscale>  0 0.20022656E+02</rscale>
<asrwt>0</asrwt>
<pdfrwt beam="1">  1        2 0.27916294E-03 0.20022656E+02</pdfrwt>
<pdfrwt beam="2">  1       -2 0.84976514E-02 0.20022656E+02</pdfrwt>
<totfact> 0.33316123E+06</totfact>
</mgrwt>
</event>
<event>
 5    1  0.4046313E-006  0.2000107E+02  0.7818608E-02  0.1745307E+00
         -2   -1    0    0    0  501 -0.00000000000E+00  0.00000000000E+00  0.40111608843E+02  0.40111608927E+02  0.26000000000E-02 0.  1.
          2   -1    0    0  501    0  0.00000000000E+00 -0.00000000000E+00 -0.24933101105E+01  0.24933114661E+01  0.26000000000E-02 0. -1.
       1023    2    1    2    0    0  0.00000000000E+00  0.00000000000E+00  0.37618298732E+02  0.42604920393E+02  0.20001071026E+02 0.  0.
        -11    1    3    3    0    0 -0.76249924069E+01 -0.64704225232E+01  0.18677262481E+02  0.21186009791E+02  0.51100000000E-03 0. -1.
         11    1    3    3    0    0  0.76249924069E+01  0.64704225232E+01  0.18941036252E+02  0.21418910602E+02  0.51100000000E-03 0.  1.
<mgrwt>
<rscale>  0 0.20001071E+02</rscale>
<asrwt>0</asrwt>
<pdfrwt beam="2">  1        2 0.38358629E-03 0.20001071E+02</pdfrwt>
<pdfrwt beam="1">  1       -2 0.61710167E-02 0.20001071E+02</pdfrwt>
<totfact> 0.34904455E+06</totfact>
</mgrwt>
</event>
<event>
 5    1  0.4046313E-006  0.2000283E+02  0.7818608E-02  0.1745272E+00
          2   -1    0    0  501    0  0.00000000000E+00  0.00000000000E+00  0.38367157091E+01  0.38367165900E+01  0.26000000000E-02 0. -1.
         -2   -1    0    0    0  501 -0.00000000000E+00 -0.00000000000E+00 -0.26071332266E+02  0.26071332396E+02  0.26000000000E-02 0.  1.
       1023    2    1    2    0    0  0.00000000000E+00  0.00000000000E+00 -0.22234616557E+02  0.29908048986E+02  0.20002830317E+02 0.  0.
        -11    1    3    3    0    0 -0.95874598243E+01 -0.28468985495E+01 -0.11212903253E+02  0.15025092907E+02  0.51100000000E-03 0. -1.
         11    1    3    3    0    0  0.95874598243E+01  0.28468985495E+01 -0.11021713304E+02  0.14882956079E+02  0.51100000000E-03 0.  1.
<mgrwt>
<rscale>  0 0.20002830E+02</rscale>
<asrwt>0</asrwt>
<pdfrwt beam="1">  1        2 0.59026405E-03 0.20002830E+02</pdfrwt>
<pdfrwt beam="2">  1       -2 0.40109742E-02 0.20002830E+02</pdfrwt>
<totfact> 0.36554083E+06</totfact>
</mgrwt>
</event>
<event>
 5    1  0.4046313E-006  0.2000080E+02  0.7818608E-02  0.1745312E+00
          2   -1    0    0  501    0  0.00000000000E+00  0.00000000000E+00  0.30945836666E+02  0.30945836775E+02  0.26000000000E-02 0. -1.
         -2   -1    0    0    0  501 -0.00000000000E+00 -0.00000000000E+00 -0.32317094300E+01  0.32317104759E+01  0.26000000000E-02 0.  1.
       1023    2    1    2    0    0  0.00000000000E+00  0.00000000000E+00  0.27714127236E+02  0.34177547251E+02  0.20000797175E+02 0.  0.
        -11    1    3    3    0    0 -0.68514692616E+01 -0.72845819003E+01  0.13832469469E+02  0.17068830551E+02  0.51100000000E-03 0. -1.
         11    1    3    3    0    0  0.68514692616E+01  0.72845819003E+01  0.13881657767E+02  0.17108716700E+02  0.51100000000E-03 0.  1.
<mgrwt>
<rscale>  0 0.20000797E+02</rscale>
<asrwt>0</asrwt>
<pdfrwt beam="1">  1        2 0.47608979E-02 0.20000797E+02</pdfrwt>
<pdfrwt beam="2">  1       -2 0.49718617E-03 0.20000797E+02</pdfrwt>
<totfact> 0.43518743E+06</totfact>
</mgrwt>
</event>
<event>
 5    1  0.4046313E-006  0.2000213E+02  0.7818608E-02  0.1745286E+00
         -2   -1    0    0    0  501 -0.00000000000E+00  0.00000000000E+00  0.24732605321E+02  0.24732605458E+02  0.26000000000E-02 0.  1.
          2   -1    0    0  501    0  0.00000000000E+00 -0.00000000000E+00 -0.40441073114E+01  0.40441081472E+01  0.26000000000E-02 0. -1.
       1023    2    1    2    0    0  0.00000000000E+00  0.00000000000E+00  0.20688498010E+02  0.28776713605E+02  0.20002132287E+02 0.  0.
        -11    1    3    3    0    0  0.48375660630E+01  0.87525834661E+01  0.10189558901E+02  0.14277145149E+02  0.51100000000E-03 0. -1.
         11    1    3    3    0    0 -0.48375660630E+01 -0.87525834661E+01  0.10498939109E+02  0.14499568456E+02  0.51100000000E-03 0.  1.
<mgrwt>
<rscale>  0 0.20002132E+02</rscale>
<asrwt>0</asrwt>
<pdfrwt beam="2">  1        2 0.62217044E-03 0.20002132E+02</pdfrwt>
<pdfrwt beam="1">  1       -2 0.38050162E-02 0.20002132E+02</pdfrwt>
<totfact> 0.36736821E+06</totfact>
</mgrwt>
</event>
<event>
 5    1  0.4046313E-006  0.2000008E+02  0.7818608E-02  0.1745326E+00
          2   -1    0    0  501    0  0.00000000000E+00  0.00000000000E+00  0.19500934230E+02  0.19500934403E+02  0.26000000000E-02 0.  1.
         -2   -1    0    0    0  501 -0.00000000000E+00 -0.00000000000E+00 -0.51280022194E+01  0.51280028785E+01  0.26000000000E-02 0. -1.
       1023    2    1    2    0    0  0.00000000000E+00  0.00000000000E+00  0.14372932010E+02  0.24628937281E+02  0.20000084426E+02 0.  0.
        -11    1    3    3    0    0 -0.27147421178E+01 -0.96244939473E+01  0.71721319051E+01  0.12306103560E+02  0.51100000000E-03 0.  1.
         11    1    3    3    0    0  0.27147421178E+01  0.96244939473E+01  0.72008001050E+01  0.12322833721E+02  0.51100000000E-03 0. -1.
<mgrwt>
<rscale>  0 0.20000084E+02</rscale>
<asrwt>0</asrwt>
<pdfrwt beam="1">  1        2 0.30001438E-02 0.20000084E+02</pdfrwt>
<pdfrwt beam="2">  1       -2 0.78892347E-03 0.20000084E+02</pdfrwt>
<totfact> 0.41585099E+06</totfact>
</mgrwt>
</event>
<event>
 5    1  0.4046313E-006  0.2000036E+02  0.7818608E-02  0.1745321E+00
          2   -1    0    0  501    0  0.00000000000E+00  0.00000000000E+00  0.13255576237E+01  0.13255601736E+01  0.26000000000E-02 0.  1.
         -2   -1    0    0    0  501 -0.00000000000E+00 -0.00000000000E+00 -0.75442609373E+02  0.75442609418E+02  0.26000000000E-02 0. -1.
       1023    2    1    2    0    0  0.00000000000E+00  0.00000000000E+00 -0.74117051749E+02  0.76768169591E+02  0.20000362557E+02 0.  0.
        -11    1    3    3    0    0  0.41507438788E+01 -0.90980443035E+01 -0.37147757525E+02  0.38470234913E+02  0.51100000000E-03 0.  1.
         11    1    3    3    0    0 -0.41507438788E+01  0.90980443035E+01 -0.36969294224E+02  0.38297934678E+02  0.51100000000E-03 0. -1.
<mgrwt>
<rscale>  0 0.20000363E+02</rscale>
<asrwt>0</asrwt>
<pdfrwt beam="1">  1        2 0.20393220E-03 0.20000363E+02</pdfrwt>
<pdfrwt beam="2">  1       -2 0.11606552E-01 0.20000363E+02</pdfrwt>
<totfact> 0.31626900E+06</totfact>
</mgrwt>
</event>
<event>
 5    1  0.4046313E-006  0.2000245E+02  0.7818608E-02  0.1745279E+00
         -2   -1    0    0    0  501 -0.00000000000E+00  0.00000000000E+00  0.32654239755E+02  0.32654239859E+02  0.26000000000E-02 0.  1.
          2   -1    0    0  501    0  0.00000000000E+00 -0.00000000000E+00 -0.30631388475E+01  0.30631399509E+01  0.26000000000E-02 0. -1.
       1023    2    1    2    0    0  0.00000000000E+00  0.00000000000E+00  0.29591100908E+02  0.35717379810E+02  0.20002449038E+02 0.  0.
        -11    1    3    3    0    0  0.33806619980E+01  0.94124073983E+01  0.14711738044E+02  0.17789253079E+02  0.51100000000E-03 0.  1.
         11    1    3    3    0    0 -0.33806619980E+01 -0.94124073983E+01  0.14879362864E+02  0.17928126730E+02  0.51100000000E-03 0. -1.
<mgrwt>
<rscale>  0 0.20002449E+02</rscale>
<asrwt>0</asrwt>
<pdfrwt beam="2">  1        2 0.47125223E-03 0.20002449E+02</pdfrwt>
<pdfrwt beam="1">  1       -2 0.50237292E-02 0.20002449E+02</pdfrwt>
<totfact> 0.35735262E+06</totfact>
</mgrwt>
</event>
<event>
 5    1  0.4046313E-006  0.2000044E+02  0.7818608E-02  0.1745319E+00
         -2   -1    0    0    0  501 -0.00000000000E+00  0.00000000000E+00  0.24533282973E+02  0.24533283111E+02  0.26000000000E-02 0. -1.
          2   -1    0    0  501    0  0.00000000000E+00 -0.00000000000E+00 -0.40762739077E+01  0.40762747369E+01  0.26000000000E-02 0.  1.
       1023    2    1    2    0    0  0.00000000000E+00  0.00000000000E+00  0.20457009065E+02  0.28609557848E+02  0.20000439504E+02 0.  0.
        -11    1    3    3    0    0  0.68321958383E+00 -0.99768448750E+01  0.10247273538E+02  0.14318199534E+02  0.51100000000E-03 0.  1.
         11    1    3    3    0    0 -0.68321958383E+00  0.99768448750E+01  0.10209735527E+02  0.14291358314E+02  0.51100000000E-03 0. -1.
<mgrwt>
<rscale>  0 0.20000440E+02</rscale>
<asrwt>0</asrwt>
<pdfrwt beam="2">  1        2 0.62711915E-03 0.20000440E+02</pdfrwt>
<pdfrwt beam="1">  1       -2 0.37743512E-02 0.20000440E+02</pdfrwt>
<totfact> 0.36770862E+06</totfact>
</mgrwt>
</event>
<event>
 5    1  0.4046313E-006  0.2000899E+02  0.7818608E-02  0.1745149E+00
          2   -1    0    0  501    0  0.00000000000E+00  0.00000000000E+00  0.51739920231E+02  0.51739920296E+02  0.26000000000E-02 0. -1.
         -2   -1    0    0    0  501 -0.00000000000E+00 -0.00000000000E+00 -0.19344811540E+01  0.19344829013E+01  0.26000000000E-02 0.  1.
       1023    2    1    2    0    0  0.00000000000E+00  0.00000000000E+00  0.49805439077E+02  0.53674403198E+02  0.20008992903E+02 0.  0.
        -11    1    3    3    0    0  0.29722644815E+01 -0.95527415225E+01  0.24974810719E+02  0.26904096295E+02  0.51100000000E-03 0.  1.
         11    1    3    3    0    0 -0.29722644815E+01  0.95527415225E+01  0.24830628359E+02  0.26770306903E+02  0.51100000000E-03 0. -1.
<mgrwt>
<rscale>  0 0.20008993E+02</rscale>
<asrwt>0</asrwt>
<pdfrwt beam="1">  1        2 0.79599865E-02 0.20008993E+02</pdfrwt>
<pdfrwt beam="2">  1       -2 0.29761267E-03 0.20008993E+02</pdfrwt>
<totfact> 0.46523745E+06</totfact>
</mgrwt>
</event>
<event>
 5    1  0.4046313E-006  0.2000274E+02  0.7818608E-02  0.1745274E+00
         -2   -1    0    0    0  501 -0.00000000000E+00  0.00000000000E+00  0.13248187608E+02  0.13248187863E+02  0.26000000000E-02 0.  1.
          2   -1    0    0  501    0  0.00000000000E+00 -0.00000000000E+00 -0.75502726686E+01  0.75502731162E+01  0.26000000000E-02 0. -1.
       1023    2    1    2    0    0  0.00000000000E+00  0.00000000000E+00  0.56979149392E+01  0.20798460979E+02  0.20002743423E+02 0.  0.
        -11    1    3    3    0    0  0.64279672859E+00  0.99806582211E+01  0.28766572458E+01  0.10406819078E+02  0.51100000000E-03 0. -1.
         11    1    3    3    0    0 -0.64279672859E+00 -0.99806582211E+01  0.28212576934E+01  0.10391641901E+02  0.51100000000E-03 0.  1.
<mgrwt>
<rscale>  0 0.20002743E+02</rscale>
<asrwt>0</asrwt>
<pdfrwt beam="2">  1        2 0.11615805E-02 0.20002743E+02</pdfrwt>
<pdfrwt beam="1">  1       -2 0.20381827E-02 0.20002743E+02</pdfrwt>
<totfact> 0.38645050E+06</totfact>
</mgrwt>
</event>
<event>
 5    1  0.4046313E-006  0.2000450E+02  0.7818608E-02  0.1745239E+00
         -2   -1    0    0    0  501 -0.00000000000E+00  0.00000000000E+00  0.28712933160E+02  0.28712933278E+02  0.26000000000E-02 0. -1.
          2   -1    0    0  501    0  0.00000000000E+00 -0.00000000000E+00 -0.34843189746E+01  0.34843199447E+01  0.26000000000E-02 0.  1.
       1023    2    1    2    0    0  0.00000000000E+00  0.00000000000E+00  0.25228614185E+02  0.32197253222E+02  0.20004503027E+02 0.  0.
        -11    1    3    3    0    0  0.40108125224E+01 -0.91628753034E+01  0.12595664554E+02  0.16084018986E+02  0.51100000000E-03 0. -1.
         11    1    3    3    0    0 -0.40108125224E+01  0.91628753034E+01  0.12632949631E+02  0.16113234236E+02  0.51100000000E-03 0.  1.
<mgrwt>
<rscale>  0 0.20004503E+02</rscale>
<asrwt>0</asrwt>
<pdfrwt beam="2">  1        2 0.53604914E-03 0.20004503E+02</pdfrwt>
<pdfrwt beam="1">  1       -2 0.44173746E-02 0.20004503E+02</pdfrwt>
<totfact> 0.36206711E+06</totfact>
</mgrwt>
</event>
<event>
 5    1  0.4046313E-006  0.2000229E+02  0.7818608E-02  0.1745283E+00
          2   -1    0    0  501    0  0.00000000000E+00  0.00000000000E+00  0.18364117124E+01  0.18364135529E+01  0.26000000000E-02 0.  1.
         -2   -1    0    0    0  501 -0.00000000000E+00 -0.00000000000E+00 -0.54466455820E+02  0.54466455882E+02  0.26000000000E-02 0. -1.
       1023    2    1    2    0    0  0.00000000000E+00  0.00000000000E+00 -0.52630044107E+02  0.56302869434E+02  0.20002288965E+02 0.  0.
        -11    1    3    3    0    0 -0.55051680614E+01  0.83487048019E+01 -0.25968633808E+02  0.27827642541E+02  0.51100000000E-03 0.  1.
         11    1    3    3    0    0  0.55051680614E+01 -0.83487048019E+01 -0.26661410299E+02  0.28475226894E+02  0.51100000000E-03 0. -1.
<mgrwt>
<rscale>  0 0.20002289E+02</rscale>
<asrwt>0</asrwt>
<pdfrwt beam="1">  1        2 0.28252507E-03 0.20002289E+02</pdfrwt>
<pdfrwt beam="2">  1       -2 0.83794537E-02 0.20002289E+02</pdfrwt>
<totfact> 0.33462381E+06</totfact>
</mgrwt>
</event>
<event>
 5    1  0.4046313E-006  0.2000096E+02  0.7818608E-02  0.1745309E+00
          2   -1    0    0  501    0  0.00000000000E+00  0.00000000000E+00  0.15603441807E+01  0.15603463469E+01  0.26000000000E-02 0.  1.
         -2   -1    0    0    0  501 -0.00000000000E+00 -0.00000000000E+00 -0.64094556547E+02  0.64094556599E+02  0.26000000000E-02 0. -1.
       1023    2    1    2    0    0  0.00000000000E+00  0.00000000000E+00 -0.62534212366E+02  0.65654902946E+02  0.20000964093E+02 0.  0.
        -11    1    3    3    0    0  0.86672393020E+01  0.49885440411E+01 -0.31086351080E+02  0.32655287971E+02  0.51100000000E-03 0.  1.
         11    1    3    3    0    0 -0.86672393020E+01 -0.49885440411E+01 -0.31447861286E+02  0.32999614975E+02  0.51100000000E-03 0. -1.
<mgrwt>
<rscale>  0 0.20000964E+02</rscale>
<asrwt>0</asrwt>
<pdfrwt beam="1">  1        2 0.24005317E-03 0.20000964E+02</pdfrwt>
<pdfrwt beam="2">  1       -2 0.98606991E-02 0.20000964E+02</pdfrwt>
<totfact> 0.32590652E+06</totfact>
</mgrwt>
</event>
<event>
 4    1  0.4046313E-006  0.2065348E+02  0.7818608E-02  0.1732637E+00
          2   -1    0    0  501    0  0.00000000000E+00  0.00000000000E+00  0.10281634297E+03  0.10281634301E+03  0.26000000000E-02 0. -1.
         -2   -1    0    0    0  501 -0.00000000000E+00 -0.00000000000E+00 -0.10372029924E+01  0.10372062512E+01  0.26000000000E-02 0.  1.
        -11    1    1    2    0    0 -0.73197308983E+01 -0.72622010644E+01  0.48029290281E+02  0.49123627207E+02  0.51100000000E-03 0. -1.
         11    1    1    2    0    0  0.73197308983E+01  0.72622010644E+01  0.53749849701E+02  0.54729922052E+02  0.51100000000E-03 0.  1.
<mgrwt>
<rscale>  0 0.20653483E+02</rscale>
<asrwt>0</asrwt>
<pdfrwt beam="1">  1        2 0.15817896E-01 0.20653483E+02</pdfrwt>
<pdfrwt beam="2">  1       -2 0.15956998E-03 0.20653483E+02</pdfrwt>
<totfact> 0.49448947E+06</totfact>
</mgrwt>
</event>
<event>
 5    1  0.4046313E-006  0.2000184E+02  0.7818608E-02  0.1745291E+00
         -2   -1    0    0    0  501 -0.00000000000E+00  0.00000000000E+00  0.22765955692E+01  0.22765970539E+01  0.26000000000E-02 0. -1.
          2   -1    0    0  501    0  0.00000000000E+00 -0.00000000000E+00 -0.43933307420E+02  0.43933307497E+02  0.26000000000E-02 0.  1.
       1023    2    1    2    0    0  0.00000000000E+00  0.00000000000E+00 -0.41656711851E+02  0.46209904551E+02  0.20001840825E+02 0.  0.
        -11    1    3    3    0    0 -0.97196733380E+01 -0.23547064638E+01 -0.20732639219E+02  0.23018666807E+02  0.51100000000E-03 0.  1.
         11    1    3    3    0    0  0.97196733380E+01  0.23547064638E+01 -0.20924072632E+02  0.23191237744E+02  0.51100000000E-03 0. -1.
<mgrwt>
<rscale>  0 0.20001841E+02</rscale>
<asrwt>0</asrwt>
<pdfrwt beam="2">  1        2 0.67589699E-02 0.20001841E+02</pdfrwt>
<pdfrwt beam="1">  1       -2 0.35024562E-03 0.20001841E+02</pdfrwt>
<totfact> 0.45458951E+06</totfact>
</mgrwt>
</event>
<event>
 5    1  0.4046313E-006  0.2000057E+02  0.7818608E-02  0.1745317E+00
         -2   -1    0    0    0  501 -0.00000000000E+00  0.00000000000E+00  0.16667950176E+02  0.16667950379E+02  0.26000000000E-02 0. -1.
          2   -1    0    0  501    0  0.00000000000E+00 -0.00000000000E+00 -0.59998787921E+01  0.59998793554E+01  0.26000000000E-02 0.  1.
       1023    2    1    2    0    0  0.00000000000E+00  0.00000000000E+00  0.10668071384E+02  0.22667829735E+02  0.20000568937E+02 0.  0.
        -11    1    3    3    0    0  0.83637753492E+01 -0.54820277360E+01  0.53544047602E+01  0.11343501082E+02  0.51100000000E-03 0.  1.
         11    1    3    3    0    0 -0.83637753492E+01  0.54820277360E+01  0.53136666241E+01  0.11324328653E+02  0.51100000000E-03 0. -1.
<mgrwt>
<rscale>  0 0.20000569E+02</rscale>
<asrwt>0</asrwt>
<pdfrwt beam="2">  1        2 0.92305836E-03 0.20000569E+02</pdfrwt>
<pdfrwt beam="1">  1       -2 0.25643000E-02 0.20000569E+02</pdfrwt>
<totfact> 0.37985500E+06</totfact>
</mgrwt>
</event>
<event>
 4    1  0.4046313E-006  0.2001496E+02  0.7818608E-02  0.1745031E+00
          2   -1    0    0  501    0  0.00000000000E+00  0.00000000000E+00  0.28315612171E+02  0.28315612290E+02  0.26000000000E-02 0.  1.
         -2   -1    0    0    0  501 -0.00000000000E+00 -0.00000000000E+00 -0.35369069497E+01  0.35369079053E+01  0.26000000000E-02 0. -1.
        -11    1    1    2    0    0  0.33796457109E+01  0.94157220875E+01  0.11962697246E+02  0.15594356454E+02  0.51100000000E-03 0. -1.
         11    1    1    2    0    0 -0.33796457109E+01 -0.94157220875E+01  0.12816007975E+02  0.16258163741E+02  0.51100000000E-03 0.  1.
<mgrwt>
<rscale>  0 0.20014965E+02</rscale>
<asrwt>0</asrwt>
<pdfrwt beam="1">  1        2 0.43562482E-02 0.20014965E+02</pdfrwt>
<pdfrwt beam="2">  1       -2 0.54413960E-03 0.20014965E+02</pdfrwt>
<totfact> 0.43031339E+06</totfact>
</mgrwt>
</event>
<event>
 5    1  0.4046313E-006  0.2000076E+02  0.7818608E-02  0.1745313E+00
          2   -1    0    0  501    0  0.00000000000E+00  0.00000000000E+00  0.28649080254E+02  0.28649080372E+02  0.26000000000E-02 0.  1.
         -2   -1    0    0    0  501 -0.00000000000E+00 -0.00000000000E+00 -0.34907793876E+01  0.34907803558E+01  0.26000000000E-02 0. -1.
       1023    2    1    2    0    0  0.00000000000E+00  0.00000000000E+00  0.25158300866E+02  0.32139860727E+02  0.20000763613E+02 0.  0.
        -11    1    3    3    0    0 -0.32236088978E+01 -0.94665413013E+01  0.12617766338E+02  0.16100157955E+02  0.51100000000E-03 0.  1.
         11    1    3    3    0    0  0.32236088978E+01  0.94665413013E+01  0.12540534528E+02  0.16039702773E+02  0.51100000000E-03 0. -1.
<mgrwt>
<rscale>  0 0.20000764E+02</rscale>
<asrwt>0</asrwt>
<pdfrwt beam="1">  1        2 0.44075511E-02 0.20000764E+02</pdfrwt>
<pdfrwt beam="2">  1       -2 0.53704304E-03 0.20000764E+02</pdfrwt>
<totfact> 0.43153670E+06</totfact>
</mgrwt>
</event>
<event>
 5    1  0.4046313E-006  0.2000207E+02  0.7818608E-02  0.1745287E+00
          2   -1    0    0  501    0  0.00000000000E+00  0.00000000000E+00  0.18463507873E+01  0.18463526179E+01  0.26000000000E-02 0. -1.
         -2   -1    0    0    0  501 -0.00000000000E+00 -0.00000000000E+00 -0.54172071287E+02  0.54172071350E+02  0.26000000000E-02 0.  1.
       1023    2    1    2    0    0  0.00000000000E+00  0.00000000000E+00 -0.52325720500E+02  0.56018423968E+02  0.20002069842E+02 0.  0.
        -11    1    3    3    0    0  0.15214241958E+01 -0.98841169466E+01 -0.26445707862E+02  0.28273414438E+02  0.51100000000E-03 0.  1.
         11    1    3    3    0    0 -0.15214241958E+01  0.98841169466E+01 -0.25880012638E+02  0.27745009530E+02  0.51100000000E-03 0. -1.
<mgrwt>
<rscale>  0 0.20002070E+02</rscale>
<asrwt>0</asrwt>
<pdfrwt beam="1">  1        2 0.28405415E-03 0.20002070E+02</pdfrwt>
<pdfrwt beam="2">  1       -2 0.83341637E-02 0.20002070E+02</pdfrwt>
<totfact> 0.33490917E+06</totfact>
</mgrwt>
</event>
<event>
 5    1  0.4046313E-006  0.2000048E+02  0.7818608E-02  0.1745319E+00
         -2   -1    0    0    0  501 -0.00000000000E+00  0.00000000000E+00  0.65984885597E+01  0.65984890720E+01  0.26000000000E-02 0. -1.
          2   -1    0    0  501    0  0.00000000000E+00 -0.00000000000E+00 -0.15155714614E+02  0.15155714837E+02  0.26000000000E-02 0.  1.
       1023    2    1    2    0    0  0.00000000000E+00  0.00000000000E+00 -0.85572260545E+01  0.21754203909E+02  0.20000481744E+02 0.  0.
        -11    1    3    3    0    0 -0.85211867480E+01  0.52339067605E+01 -0.42564910019E+01  0.10868400042E+02  0.51100000000E-03 0.  1.
         11    1    3    3    0    0  0.85211867480E+01 -0.52339067605E+01 -0.43007350526E+01  0.10885803867E+02  0.51100000000E-03 0. -1.
<mgrwt>
<rscale>  0 0.20000482E+02</rscale>
<asrwt>0</asrwt>
<pdfrwt beam="2">  1        2 0.23316485E-02 0.20000482E+02</pdfrwt>
<pdfrwt beam="1">  1       -2 0.10151521E-02 0.20000482E+02</pdfrwt>
<totfact> 0.40720660E+06</totfact>
</mgrwt>
</event>
<event>
 5    1  0.4241464E-006  0.2000171E+02  0.7818608E-02  0.1745294E+00
          2   -1    0    0  501    0  0.00000000000E+00  0.00000000000E+00  0.61518703044E+02  0.61518703099E+02  0.26000000000E-02 0.  1.
         -2   -1    0    0    0  501 -0.00000000000E+00 -0.00000000000E+00 -0.16257989879E+01  0.16258010669E+01  0.26000000000E-02 0. -1.
       1023    2    1    2    0    0  0.00000000000E+00  0.00000000000E+00  0.59892904056E+02  0.63144504166E+02  0.20001711179E+02 0.  0.
        -11    1    3    3    0    0 -0.50955905550E+00 -0.99872467912E+01  0.30297475897E+02  0.31905200123E+02  0.51100000000E-03 0. -1.
         11    1    3    3    0    0  0.50955905550E+00  0.99872467912E+01  0.29595428159E+02  0.31239304043E+02  0.51100000000E-03 0.  1.
<mgrwt>
<rscale>  0 0.20001711E+02</rscale>
<asrwt>0</asrwt>
<pdfrwt beam="1">  1        2 0.94644149E-02 0.20001711E+02</pdfrwt>
<pdfrwt beam="2">  1       -2 0.25012311E-03 0.20001711E+02</pdfrwt>
<totfact> 0.47892341E+06</totfact>
</mgrwt>
</event>
<event>
 5    1  0.4046313E-006  0.2000123E+02  0.7818608E-02  0.1745304E+00
          2   -1    0    0  501    0  0.00000000000E+00  0.00000000000E+00  0.38133923897E+02  0.38133923985E+02  0.26000000000E-02 0.  1.
         -2   -1    0    0    0  501 -0.00000000000E+00 -0.00000000000E+00 -0.26226599678E+01  0.26226612566E+01  0.26000000000E-02 0. -1.
       1023    2    1    2    0    0  0.00000000000E+00  0.00000000000E+00  0.35511263929E+02  0.40756585242E+02  0.20001234331E+02 0.  0.
        -11    1    3    3    0    0 -0.29894334963E+01 -0.95431119112E+01  0.17616741117E+02  0.20257276851E+02  0.51100000000E-03 0. -1.
         11    1    3    3    0    0  0.29894334963E+01  0.95431119112E+01  0.17894522812E+02  0.20499308391E+02  0.51100000000E-03 0.  1.
<mgrwt>
<rscale>  0 0.20001234E+02</rscale>
<asrwt>0</asrwt>
<pdfrwt beam="1">  1        2 0.58667572E-02 0.20001234E+02</pdfrwt>
<pdfrwt beam="2">  1       -2 0.40348628E-03 0.20001234E+02</pdfrwt>
<totfact> 0.44614173E+06</totfact>
</mgrwt>
</event>
<event>
 5    1  0.4046313E-006  0.2000006E+02  0.7818608E-02  0.1745327E+00
         -2   -1    0    0    0  501 -0.00000000000E+00  0.00000000000E+00  0.10563053452E+01  0.10563085450E+01  0.26000000000E-02 0.  1.
          2   -1    0    0  501    0  0.00000000000E+00 -0.00000000000E+00 -0.94670058572E+02  0.94670058608E+02  0.26000000000E-02 0. -1.
       1023    2    1    2    0    0  0.00000000000E+00  0.00000000000E+00 -0.93613753227E+02  0.95726367153E+02  0.20000064376E+02 0.  0.
        -11    1    3    3    0    0  0.53924099446E+01  0.84215466566E+01 -0.46857167336E+02  0.47912364418E+02  0.51100000000E-03 0. -1.
         11    1    3    3    0    0 -0.53924099446E+01 -0.84215466566E+01 -0.46756585891E+02  0.47814002735E+02  0.51100000000E-03 0.  1.
<mgrwt>
<rscale>  0 0.20000064E+02</rscale>
<asrwt>0</asrwt>
<pdfrwt beam="2">  1        2 0.14564618E-01 0.20000064E+02</pdfrwt>
<pdfrwt beam="1">  1       -2 0.16250884E-03 0.20000064E+02</pdfrwt>
<totfact> 0.52114897E+06</totfact>
</mgrwt>
</event>
<event>
 5    1  0.4046313E-006  0.2000264E+02  0.7818608E-02  0.1745276E+00
         -2   -1    0    0    0  501 -0.00000000000E+00  0.00000000000E+00  0.43643882782E+01  0.43643890527E+01  0.26000000000E-02 0. -1.
          2   -1    0    0  501    0  0.00000000000E+00 -0.00000000000E+00 -0.22918762277E+02  0.22918762424E+02  0.26000000000E-02 0.  1.
       1023    2    1    2    0    0  0.00000000000E+00  0.00000000000E+00 -0.18554373999E+02  0.27283151477E+02  0.20002638827E+02 0.  0.
        -11    1    3    3    0    0 -0.96333985618E+01 -0.26872353752E+01 -0.92051677493E+01  0.13592597815E+02  0.51100000000E-03 0. -1.
         11    1    3    3    0    0  0.96333985618E+01  0.26872353752E+01 -0.93492062493E+01  0.13690553662E+02  0.51100000000E-03 0.  1.
<mgrwt>
<rscale>  0 0.20002639E+02</rscale>
<asrwt>0</asrwt>
<pdfrwt beam="2">  1        2 0.35259634E-02 0.20002639E+02</pdfrwt>
<pdfrwt beam="1">  1       -2 0.67144444E-03 0.20002639E+02</pdfrwt>
<totfact> 0.42187651E+06</totfact>
</mgrwt>
</event>
<event>
 5    1  0.4046313E-006  0.2000064E+02  0.7818608E-02  0.1745315E+00
          2   -1    0    0  501    0  0.00000000000E+00  0.00000000000E+00  0.66080251926E+01  0.66080257041E+01  0.26000000000E-02 0.  1.
         -2   -1    0    0    0  501 -0.00000000000E+00 -0.00000000000E+00 -0.15134076172E+02  0.15134076395E+02  0.26000000000E-02 0. -1.
       1023    2    1    2    0    0  0.00000000000E+00  0.00000000000E+00 -0.85260509791E+01  0.21742102099E+02  0.20000636450E+02 0.  0.
        -11    1    3    3    0    0 -0.57142549919E+01  0.82066790479E+01 -0.41936466264E+01  0.10843844493E+02  0.51100000000E-03 0.  1.
         11    1    3    3    0    0  0.57142549919E+01 -0.82066790479E+01 -0.43324043527E+01  0.10898257606E+02  0.51100000000E-03 0. -1.
<mgrwt>
<rscale>  0 0.20000636E+02</rscale>
<asrwt>0</asrwt>
<pdfrwt beam="1">  1        2 0.10166193E-02 0.20000636E+02</pdfrwt>
<pdfrwt beam="2">  1       -2 0.23283195E-02 0.20000636E+02</pdfrwt>
<totfact> 0.38269084E+06</totfact>
</mgrwt>
</event>
<event>
 5    1  0.4046313E-006  0.2000649E+02  0.7818608E-02  0.1745199E+00
          2   -1    0    0  501    0  0.00000000000E+00  0.00000000000E+00  0.35352062494E+01  0.35352072055E+01  0.26000000000E-02 0. -1.
         -2   -1    0    0    0  501 -0.00000000000E+00 -0.00000000000E+00 -0.28305242444E+02  0.28305242563E+02  0.26000000000E-02 0.  1.
       1023    2    1    2    0    0  0.00000000000E+00  0.00000000000E+00 -0.24770036194E+02  0.31840449769E+02  0.20006487658E+02 0.  0.
        -11    1    3    3    0    0 -0.85259173167E+01 -0.52302284396E+01 -0.12169539562E+02  0.15752594994E+02  0.51100000000E-03 0. -1.
         11    1    3    3    0    0  0.85259173167E+01  0.52302284396E+01 -0.12600496632E+02  0.16087854775E+02  0.51100000000E-03 0.  1.
<mgrwt>
<rscale>  0 0.20006488E+02</rscale>
<asrwt>0</asrwt>
<pdfrwt beam="1">  1        2 0.54387799E-03 0.20006488E+02</pdfrwt>
<pdfrwt beam="2">  1       -2 0.43546526E-02 0.20006488E+02</pdfrwt>
<totfact> 0.36250358E+06</totfact>
</mgrwt>
</event>
<event>
 4    1  0.4046313E-006  0.2005222E+02  0.7818608E-02  0.1744292E+00
          2   -1    0    0  501    0  0.00000000000E+00  0.00000000000E+00  0.44810998930E+01  0.44811006473E+01  0.26000000000E-02 0.  1.
         -2   -1    0    0    0  501 -0.00000000000E+00 -0.00000000000E+00 -0.22432639715E+02  0.22432639866E+02  0.26000000000E-02 0. -1.
        -11    1    1    2    0    0  0.11988495394E+01 -0.99512697996E+01 -0.86528069589E+01  0.13241453069E+02  0.51100000000E-03 0. -1.
         11    1    1    2    0    0 -0.11988495394E+01  0.99512697996E+01 -0.92987328635E+01  0.13672287445E+02  0.51100000000E-03 0.  1.
<mgrwt>
<rscale>  0 0.20052223E+02</rscale>
<asrwt>0</asrwt>
<pdfrwt beam="1">  1        2 0.68940007E-03 0.20052223E+02</pdfrwt>
<pdfrwt beam="2">  1       -2 0.34511753E-02 0.20052223E+02</pdfrwt>
<totfact> 0.36859008E+06</totfact>
</mgrwt>
</event>
<event>
 5    1  0.4046313E-006  0.2000712E+02  0.7818608E-02  0.1745187E+00
          2   -1    0    0  501    0  0.00000000000E+00  0.00000000000E+00  0.12963817936E+01  0.12963844008E+01  0.26000000000E-02 0. -1.
         -2   -1    0    0    0  501 -0.00000000000E+00 -0.00000000000E+00 -0.77192609525E+02  0.77192609569E+02  0.26000000000E-02 0.  1.
       1023    2    1    2    0    0  0.00000000000E+00  0.00000000000E+00 -0.75896227732E+02  0.78488993970E+02  0.20007118496E+02 0.  0.
        -11    1    3    3    0    0 -0.69056165040E+01 -0.72333727611E+01 -0.38924761636E+02  0.40188882660E+02  0.51100000000E-03 0.  1.
         11    1    3    3    0    0  0.69056165040E+01  0.72333727611E+01 -0.36971466096E+02  0.38300111310E+02  0.51100000000E-03 0. -1.
<mgrwt>
<rscale>  0 0.20007118E+02</rscale>
<asrwt>0</asrwt>
<pdfrwt beam="1">  1        2 0.19944362E-03 0.20007118E+02</pdfrwt>
<pdfrwt beam="2">  1       -2 0.11875783E-01 0.20007118E+02</pdfrwt>
<totfact> 0.31460376E+06</totfact>
</mgrwt>
</event>
<event>
 5    1  0.4046313E-006  0.2000056E+02  0.7818608E-02  0.1745317E+00
         -2   -1    0    0    0  501 -0.00000000000E+00  0.00000000000E+00  0.19963422831E+01  0.19963439762E+01  0.26000000000E-02 0.  1.
          2   -1    0    0  501    0  0.00000000000E+00 -0.00000000000E+00 -0.50094380378E+02  0.50094380445E+02  0.26000000000E-02 0. -1.
       1023    2    1    2    0    0  0.00000000000E+00  0.00000000000E+00 -0.48098038095E+02  0.52090724422E+02  0.20000557547E+02 0.  0.
        -11    1    3    3    0    0 -0.68099568457E+01 -0.73231799867E+01 -0.23962719954E+02  0.25965677831E+02  0.51100000000E-03 0. -1.
         11    1    3    3    0    0  0.68099568457E+01  0.73231799867E+01 -0.24135318141E+02  0.26125046591E+02  0.51100000000E-03 0.  1.
<mgrwt>
<rscale>  0 0.20000558E+02</rscale>
<asrwt>0</asrwt>
<pdfrwt beam="2">  1        2 0.77068269E-02 0.20000558E+02</pdfrwt>
<pdfrwt beam="1">  1       -2 0.30712976E-03 0.20000558E+02</pdfrwt>
<totfact> 0.46338419E+06</totfact>
</mgrwt>
</event>
<event>
 5    1  0.4046313E-006  0.2000242E+02  0.7818608E-02  0.1745280E+00
         -2   -1    0    0    0  501 -0.00000000000E+00  0.00000000000E+00  0.26638005033E+02  0.26638005160E+02  0.26000000000E-02 0. -1.
          2   -1    0    0  501    0  0.00000000000E+00 -0.00000000000E+00 -0.37549423550E+01  0.37549432551E+01  0.26000000000E-02 0.  1.
       1023    2    1    2    0    0  0.00000000000E+00  0.00000000000E+00  0.22883062678E+02  0.30392948415E+02  0.20002418749E+02 0.  0.
        -11    1    3    3    0    0 -0.12142033911E+01  0.99266575307E+01  0.11279517104E+02  0.15074492561E+02  0.51100000000E-03 0.  1.
         11    1    3    3    0    0  0.12142033911E+01 -0.99266575307E+01  0.11603545574E+02  0.15318455854E+02  0.51100000000E-03 0. -1.
<mgrwt>
<rscale>  0 0.20002419E+02</rscale>
<asrwt>0</asrwt>
<pdfrwt beam="2">  1        2 0.57768351E-03 0.20002419E+02</pdfrwt>
<pdfrwt beam="1">  1       -2 0.40981547E-02 0.20002419E+02</pdfrwt>
<totfact> 0.36481123E+06</totfact>
</mgrwt>
</event>
<event>
 5    1  0.4046313E-006  0.2000790E+02  0.7818608E-02  0.1745171E+00
         -2   -1    0    0    0  501 -0.00000000000E+00  0.00000000000E+00  0.89265754648E+00  0.89266133292E+00  0.26000000000E-02 0. -1.
          2   -1    0    0  501    0  0.00000000000E+00 -0.00000000000E+00 -0.11211326434E+03  0.11211326437E+03  0.26000000000E-02 0.  1.
       1023    2    1    2    0    0  0.00000000000E+00  0.00000000000E+00 -0.11122060679E+03  0.11300592570E+03  0.20007895154E+02 0.  0.
        -11    1    3    3    0    0 -0.14485291328E+01  0.98980622077E+01 -0.56148939021E+02  0.57033088866E+02  0.51100000000E-03 0.  1.
         11    1    3    3    0    0  0.14485291328E+01 -0.98980622077E+01 -0.55071667771E+02  0.55972836836E+02  0.51100000000E-03 0. -1.
<mgrwt>
<rscale>  0 0.20007895E+02</rscale>
<asrwt>0</asrwt>
<pdfrwt beam="2">  1        2 0.17248184E-01 0.20007895E+02</pdfrwt>
<pdfrwt beam="1">  1       -2 0.13733231E-03 0.20007895E+02</pdfrwt>
<totfact> 0.54138362E+06</totfact>
</mgrwt>
</event>
<event>
 5    1  0.4046313E-006  0.2000041E+02  0.7818608E-02  0.1745320E+00
          2   -1    0    0  501    0  0.00000000000E+00  0.00000000000E+00  0.15114719664E+02  0.15114719888E+02  0.26000000000E-02 0.  1.
         -2   -1    0    0    0  501 -0.00000000000E+00 -0.00000000000E+00 -0.66163376175E+01  0.66163381284E+01  0.26000000000E-02 0. -1.
       1023    2    1    2    0    0  0.00000000000E+00  0.00000000000E+00  0.84983820465E+01  0.21731058016E+02  0.20000409623E+02 0.  0.
        -11    1    3    3    0    0  0.97855612549E+01 -0.20600848913E+01  0.43080763502E+01  0.10888557339E+02  0.51100000000E-03 0.  1.
         11    1    3    3    0    0 -0.97855612549E+01  0.20600848913E+01  0.41903056964E+01  0.10842500677E+02  0.51100000000E-03 0. -1.
<mgrwt>
<rscale>  0 0.20000410E+02</rscale>
<asrwt>0</asrwt>
<pdfrwt beam="1">  1        2 0.23253415E-02 0.20000410E+02</pdfrwt>
<pdfrwt beam="2">  1       -2 0.10178982E-02 0.20000410E+02</pdfrwt>
<totfact> 0.40712245E+06</totfact>
</mgrwt>
</event>
<event>
 5    1  0.4046313E-006  0.2000189E+02  0.7818608E-02  0.1745290E+00
         -2   -1    0    0    0  501 -0.00000000000E+00  0.00000000000E+00  0.73594309254E+01  0.73594313847E+01  0.26000000000E-02 0.  1.
          2   -1    0    0  501    0  0.00000000000E+00 -0.00000000000E+00 -0.13590578665E+02  0.13590578914E+02  0.26000000000E-02 0. -1.
       1023    2    1    2    0    0  0.00000000000E+00  0.00000000000E+00 -0.62311477398E+01  0.20950010299E+02  0.20001893144E+02 0.  0.
        -11    1    3    3    0    0  0.98040871590E+01  0.19745381157E+01 -0.31181998358E+01  0.10475786189E+02  0.51100000000E-03 0.  1.
         11    1    3    3    0    0 -0.98040871590E+01 -0.19745381157E+01 -0.31129479040E+01  0.10474224110E+02  0.51100000000E-03 0. -1.
<mgrwt>
<rscale>  0 0.20001893E+02</rscale>
<asrwt>0</asrwt>
<pdfrwt beam="2">  1        2 0.20908583E-02 0.20001893E+02</pdfrwt>
<pdfrwt beam="1">  1       -2 0.11322202E-02 0.20001893E+02</pdfrwt>
<totfact> 0.40369268E+06</totfact>
</mgrwt>
</event>
<event>
 5    1  0.4071105E-006  0.2000267E+02  0.7818608E-02  0.1745275E+00
         -2   -1    0    0    0  501 -0.00000000000E+00  0.00000000000E+00  0.17678604667E+01  0.17678623786E+01  0.26000000000E-02 0.  1.
          2   -1    0    0  501    0  0.00000000000E+00 -0.00000000000E+00 -0.56580625941E+02  0.56580626000E+02  0.26000000000E-02 0. -1.
       1023    2    1    2    0    0  0.00000000000E+00  0.00000000000E+00 -0.54812765474E+02  0.58348488379E+02  0.20002670752E+02 0.  0.
        -11    1    3    3    0    0 -0.89176133922E+01  0.45255400151E+01 -0.27842652579E+02  0.29584077541E+02  0.51100000000E-03 0. -1.
         11    1    3    3    0    0  0.89176133922E+01 -0.45255400151E+01 -0.26970112895E+02  0.28764410838E+02  0.51100000000E-03 0.  1.
<mgrwt>
<rscale>  0 0.20002671E+02</rscale>
<asrwt>0</asrwt>
<pdfrwt beam="2">  1        2 0.87047104E-02 0.20002671E+02</pdfrwt>
<pdfrwt beam="1">  1       -2 0.27197873E-03 0.20002671E+02</pdfrwt>
<totfact> 0.47221130E+06</totfact>
</mgrwt>
</event>
<event>
 5    1  0.4046313E-006  0.2000275E+02  0.7818608E-02  0.1745273E+00
         -2   -1    0    0    0  501 -0.00000000000E+00  0.00000000000E+00  0.86437265447E+00  0.86437656481E+00  0.26000000000E-02 0. -1.
          2   -1    0    0  501    0  0.00000000000E+00 -0.00000000000E+00 -0.11572244766E+03  0.11572244769E+03  0.26000000000E-02 0.  1.
       1023    2    1    2    0    0  0.00000000000E+00  0.00000000000E+00 -0.11485807501E+03  0.11658682425E+03  0.20002754702E+02 0.  0.
        -11    1    3    3    0    0  0.13952687692E+01  0.99035095046E+01 -0.57637011610E+02  0.58498302394E+02  0.51100000000E-03 0.  1.
         11    1    3    3    0    0 -0.13952687692E+01 -0.99035095046E+01 -0.57221063396E+02  0.58088521860E+02  0.51100000000E-03 0. -1.
<mgrwt>
<rscale>  0 0.20002755E+02</rscale>
<asrwt>0</asrwt>
<pdfrwt beam="2">  1        2 0.17803441E-01 0.20002755E+02</pdfrwt>
<pdfrwt beam="1">  1       -2 0.13298080E-03 0.20002755E+02</pdfrwt>
<totfact> 0.54585974E+06</totfact>
</mgrwt>
</event>
<event>
 5    1  0.4046313E-006  0.2000072E+02  0.7818608E-02  0.1745314E+00
         -2   -1    0    0    0  501 -0.00000000000E+00  0.00000000000E+00  0.57864719018E+01  0.57864724859E+01  0.26000000000E-02 0.  1.
          2   -1    0    0  501    0  0.00000000000E+00 -0.00000000000E+00 -0.17282930969E+02  0.17282931165E+02  0.26000000000E-02 0. -1.
       1023    2    1    2    0    0  0.00000000000E+00  0.00000000000E+00 -0.11496459067E+02  0.23069403651E+02  0.20000720330E+02 0.  0.
        -11    1    3    3    0    0  0.33195909981E+01 -0.94331422834E+01 -0.56815155347E+01  0.11501455419E+02  0.51100000000E-03 0.  1.
         11    1    3    3    0    0 -0.33195909981E+01  0.94331422834E+01 -0.58149435327E+01  0.11567948231E+02  0.51100000000E-03 0. -1.
<mgrwt>
<rscale>  0 0.20000720E+02</rscale>
<asrwt>0</asrwt>
<pdfrwt beam="2">  1        2 0.26589125E-02 0.20000720E+02</pdfrwt>
<pdfrwt beam="1">  1       -2 0.89022651E-03 0.20000720E+02</pdfrwt>
<totfact> 0.41156135E+06</totfact>
</mgrwt>
</event>
<event>
 5    1  0.4046313E-006  0.2000318E+02  0.7818608E-02  0.1745265E+00
          2   -1    0    0  501    0  0.00000000000E+00  0.00000000000E+00  0.75053187738E+02  0.75053187783E+02  0.26000000000E-02 0.  1.
         -2   -1    0    0    0  501 -0.00000000000E+00 -0.00000000000E+00 -0.13328114360E+01  0.13328139720E+01  0.26000000000E-02 0. -1.
       1023    2    1    2    0    0  0.00000000000E+00  0.00000000000E+00  0.73720376302E+02  0.76386001755E+02  0.20003184296E+02 0.  0.
        -11    1    3    3    0    0  0.99263849135E+01 -0.12178226084E+01  0.37337690840E+02  0.38653840260E+02  0.51100000000E-03 0. -1.
         11    1    3    3    0    0 -0.99263849135E+01  0.12178226084E+01  0.36382685462E+02  0.37732161494E+02  0.51100000000E-03 0.  1.
<mgrwt>
<rscale>  0 0.20003184E+02</rscale>
<asrwt>0</asrwt>
<pdfrwt beam="1">  1        2 0.11546644E-01 0.20003184E+02</pdfrwt>
<pdfrwt beam="2">  1       -2 0.20504812E-03 0.20003184E+02</pdfrwt>
<totfact> 0.49653873E+06</totfact>
</mgrwt>
</event>
<event>
 5    1  0.4046313E-006  0.2000020E+02  0.7818608E-02  0.1745324E+00
         -2   -1    0    0    0  501 -0.00000000000E+00  0.00000000000E+00  0.44916262728E+02  0.44916262804E+02  0.26000000000E-02 0.  1.
          2   -1    0    0  501    0  0.00000000000E+00 -0.00000000000E+00 -0.22264096986E+01  0.22264112168E+01  0.26000000000E-02 0. -1.
       1023    2    1    2    0    0  0.00000000000E+00  0.00000000000E+00  0.42689853030E+02  0.47142674020E+02  0.20000204051E+02 0.  0.
        -11    1    3    3    0    0  0.97545399403E+01  0.22024420980E+01  0.21381413770E+02  0.23604377892E+02  0.51100000000E-03 0.  1.
         11    1    3    3    0    0 -0.97545399403E+01 -0.22024420980E+01  0.21308439260E+02  0.23538296128E+02  0.51100000000E-03 0. -1.
<mgrwt>
<rscale>  0 0.20000204E+02</rscale>
<asrwt>0</asrwt>
<pdfrwt beam="2">  1        2 0.34252471E-03 0.20000204E+02</pdfrwt>
<pdfrwt beam="1">  1       -2 0.69101941E-02 0.20000204E+02</pdfrwt>
<totfact> 0.34405119E+06</totfact>
</mgrwt>
</event>
<event>
 5    1  0.4046313E-006  0.2000071E+02  0.7818608E-02  0.1745314E+00
          2   -1    0    0  501    0  0.00000000000E+00  0.00000000000E+00  0.51099415144E+02  0.51099415210E+02  0.26000000000E-02 0. -1.
         -2   -1    0    0    0  501 -0.00000000000E+00 -0.00000000000E+00 -0.19571070478E+01  0.19571087749E+01  0.26000000000E-02 0.  1.
       1023    2    1    2    0    0  0.00000000000E+00  0.00000000000E+00  0.49142308096E+02  0.53056523985E+02  0.20000707296E+02 0.  0.
        -11    1    3    3    0    0  0.87405389224E+01 -0.48587353201E+01  0.24710093992E+02  0.26656951718E+02  0.51100000000E-03 0. -1.
         11    1    3    3    0    0 -0.87405389224E+01  0.48587353201E+01  0.24432214104E+02  0.26399572267E+02  0.51100000000E-03 0.  1.
<mgrwt>
<rscale>  0 0.20000707E+02</rscale>
<asrwt>0</asrwt>
<pdfrwt beam="1">  1        2 0.78614485E-02 0.20000707E+02</pdfrwt>
<pdfrwt beam="2">  1       -2 0.30109353E-03 0.20000707E+02</pdfrwt>
<totfact> 0.46477716E+06</totfact>
</mgrwt>
</event>
<event>
 5    1  0.4046313E-006  0.2000062E+02  0.7818608E-02  0.1745316E+00
         -2   -1    0    0    0  501 -0.00000000000E+00  0.00000000000E+00  0.45263778421E+02  0.45263778496E+02  0.26000000000E-02 0. -1.
          2   -1    0    0  501    0  0.00000000000E+00 -0.00000000000E+00 -0.22094078612E+01  0.22094093910E+01  0.26000000000E-02 0.  1.
       1023    2    1    2    0    0  0.00000000000E+00  0.00000000000E+00  0.43054370560E+02  0.47473187887E+02  0.20000618586E+02 0.  0.
        -11    1    3    3    0    0  0.86087097586E+01  0.50883360816E+01  0.21357048535E+02  0.23582293573E+02  0.51100000000E-03 0.  1.
         11    1    3    3    0    0 -0.86087097586E+01 -0.50883360816E+01  0.21697322025E+02  0.23890894313E+02  0.51100000000E-03 0. -1.
<mgrwt>
<rscale>  0 0.20000619E+02</rscale>
<asrwt>0</asrwt>
<pdfrwt beam="2">  1        2 0.33990906E-03 0.20000619E+02</pdfrwt>
<pdfrwt beam="1">  1       -2 0.69636576E-02 0.20000619E+02</pdfrwt>
<totfact> 0.34368136E+06</totfact>
</mgrwt>
</event>
<event>
 5    1  0.4046313E-006  0.2000490E+02  0.7818608E-02  0.1745231E+00
         -2   -1    0    0    0  501 -0.00000000000E+00  0.00000000000E+00  0.11197292436E+02  0.11197292737E+02  0.26000000000E-02 0.  1.
          2   -1    0    0  501    0  0.00000000000E+00 -0.00000000000E+00 -0.89351066694E+01  0.89351070477E+01  0.26000000000E-02 0. -1.
       1023    2    1    2    0    0  0.00000000000E+00  0.00000000000E+00  0.22621857661E+01  0.20132399785E+02  0.20004900316E+02 0.  0.
        -11    1    3    3    0    0 -0.64315229552E+01  0.76580853423E+01  0.93426962271E+00  0.10044083762E+02  0.51100000000E-03 0. -1.
         11    1    3    3    0    0  0.64315229552E+01 -0.76580853423E+01  0.13279161434E+01  0.10088316023E+02  0.51100000000E-03 0.  1.
<mgrwt>
<rscale>  0 0.20004900E+02</rscale>
<asrwt>0</asrwt>
<pdfrwt beam="2">  1        2 0.13746319E-02 0.20004900E+02</pdfrwt>
<pdfrwt beam="1">  1       -2 0.17226604E-02 0.20004900E+02</pdfrwt>
<totfact> 0.39117456E+06</totfact>
</mgrwt>
</event>
<event>
 5    1  0.4046313E-006  0.2001014E+02  0.7818608E-02  0.1745127E+00
         -2   -1    0    0    0  501 -0.00000000000E+00  0.00000000000E+00  0.13255949471E+01  0.13255974969E+01  0.26000000000E-02 0.  1.
          2   -1    0    0  501    0  0.00000000000E+00 -0.00000000000E+00 -0.75514252931E+02  0.75514252976E+02  0.26000000000E-02 0. -1.
       1023    2    1    2    0    0  0.00000000000E+00  0.00000000000E+00 -0.74188657984E+02  0.76839850473E+02  0.20010138611E+02 0.  0.
        -11    1    3    3    0    0  0.23864949338E+01 -0.97159253126E+01 -0.37412121343E+02  0.38726752851E+02  0.51100000000E-03 0. -1.
         11    1    3    3    0    0 -0.23864949338E+01  0.97159253126E+01 -0.36776536641E+02  0.38113097622E+02  0.51100000000E-03 0.  1.
<mgrwt>
<rscale>  0 0.20010139E+02</rscale>
<asrwt>0</asrwt>
<pdfrwt beam="2">  1        2 0.11617574E-01 0.20010139E+02</pdfrwt>
<pdfrwt beam="1">  1       -2 0.20393794E-03 0.20010139E+02</pdfrwt>
<totfact> 0.49674529E+06</totfact>
</mgrwt>
</event>
<event>
 5    1  0.4046313E-006  0.2000037E+02  0.7818608E-02  0.1745321E+00
         -2   -1    0    0    0  501 -0.00000000000E+00  0.00000000000E+00  0.17599379245E+01  0.17599398450E+01  0.26000000000E-02 0.  1.
          2   -1    0    0  501    0  0.00000000000E+00 -0.00000000000E+00 -0.56822239475E+02  0.56822239535E+02  0.26000000000E-02 0. -1.
       1023    2    1    2    0    0  0.00000000000E+00  0.00000000000E+00 -0.55062301551E+02  0.58582179380E+02  0.20000367217E+02 0.  0.
        -11    1    3    3    0    0  0.26213245220E+01  0.96505004077E+01 -0.27492784360E+02  0.29255028499E+02  0.51100000000E-03 0. -1.
         11    1    3    3    0    0 -0.26213245220E+01 -0.96505004077E+01 -0.27569517191E+02  0.29327150880E+02  0.51100000000E-03 0.  1.
<mgrwt>
<rscale>  0 0.20000367E+02</rscale>
<asrwt>0</asrwt>
<pdfrwt beam="2">  1        2 0.87418818E-02 0.20000367E+02</pdfrwt>
<pdfrwt beam="1">  1       -2 0.27075988E-03 0.20000367E+02</pdfrwt>
<totfact> 0.47266077E+06</totfact>
</mgrwt>
</event>
<event>
 5    1  0.4046313E-006  0.2000193E+02  0.7818608E-02  0.1745290E+00
          2   -1    0    0  501    0  0.00000000000E+00  0.00000000000E+00  0.39899681147E+01  0.39899689619E+01  0.26000000000E-02 0.  1.
         -2   -1    0    0    0  501 -0.00000000000E+00 -0.00000000000E+00 -0.25067681015E+02  0.25067681149E+02  0.26000000000E-02 0. -1.
       1023    2    1    2    0    0  0.00000000000E+00  0.00000000000E+00 -0.21077712900E+02  0.29057650111E+02  0.20001926130E+02 0.  0.
        -11    1    3    3    0    0  0.97023095464E+01 -0.24253309185E+01 -0.10470386694E+02  0.14479158760E+02  0.51100000000E-03 0. -1.
         11    1    3    3    0    0 -0.97023095464E+01  0.24253309185E+01 -0.10607326206E+02  0.14578491352E+02  0.51100000000E-03 0.  1.
<mgrwt>
<rscale>  0 0.20001926E+02</rscale>
<asrwt>0</asrwt>
<pdfrwt beam="1">  1        2 0.61384134E-03 0.20001926E+02</pdfrwt>
<pdfrwt beam="2">  1       -2 0.38565663E-02 0.20001926E+02</pdfrwt>
<totfact> 0.36692087E+06</totfact>
</mgrwt>
</event>
<event>
 5    1  0.4046313E-006  0.2000048E+02  0.7818608E-02  0.1745318E+00
         -2   -1    0    0    0  501 -0.00000000000E+00  0.00000000000E+00  0.66978867969E+01  0.66978873015E+01  0.26000000000E-02 0.  1.
          2   -1    0    0  501    0  0.00000000000E+00 -0.00000000000E+00 -0.14930802029E+02  0.14930802256E+02  0.26000000000E-02 0. -1.
       1023    2    1    2    0    0  0.00000000000E+00  0.00000000000E+00 -0.82329152325E+01  0.21628689557E+02  0.20000482963E+02 0.  0.
        -11    1    3    3    0    0  0.98922160710E+01  0.14656479980E+01 -0.40865165569E+01  0.10802947777E+02  0.51100000000E-03 0.  1.
         11    1    3    3    0    0 -0.98922160710E+01 -0.14656479980E+01 -0.41463986756E+01  0.10825741780E+02  0.51100000000E-03 0. -1.
<mgrwt>
<rscale>  0 0.20000483E+02</rscale>
<asrwt>0</asrwt>
<pdfrwt beam="2">  1        2 0.22970465E-02 0.20000483E+02</pdfrwt>
<pdfrwt beam="1">  1       -2 0.10304442E-02 0.20000483E+02</pdfrwt>
<totfact> 0.40672489E+06</totfact>
</mgrwt>
</event>
<event>
 5    1  0.4046313E-006  0.2000035E+02  0.7818608E-02  0.1745321E+00
          2   -1    0    0  501    0  0.00000000000E+00  0.00000000000E+00  0.47383078450E+01  0.47383085584E+01  0.26000000000E-02 0. -1.
         -2   -1    0    0    0  501 -0.00000000000E+00 -0.00000000000E+00 -0.21105318741E+02  0.21105318901E+02  0.26000000000E-02 0.  1.
       1023    2    1    2    0    0  0.00000000000E+00  0.00000000000E+00 -0.16367010896E+02  0.25843627459E+02  0.20000350862E+02 0.  0.
        -11    1    3    3    0    0 -0.77052893170E+01  0.63743215886E+01 -0.81925703454E+01  0.12927554614E+02  0.51100000000E-03 0. -1.
         11    1    3    3    0    0  0.77052893170E+01 -0.63743215886E+01 -0.81744405505E+01  0.12916072845E+02  0.51100000000E-03 0.  1.
<mgrwt>
<rscale>  0 0.20000351E+02</rscale>
<asrwt>0</asrwt>
<pdfrwt beam="1">  1        2 0.72897052E-03 0.20000351E+02</pdfrwt>
<pdfrwt beam="2">  1       -2 0.32469721E-02 0.20000351E+02</pdfrwt>
<totfact> 0.37263058E+06</totfact>
</mgrwt>
</event>
<event>
 5    1  0.4046313E-006  0.2000172E+02  0.7818608E-02  0.1745294E+00
         -2   -1    0    0    0  501 -0.00000000000E+00  0.00000000000E+00  0.27926795470E+01  0.27926807573E+01  0.26000000000E-02 0. -1.
          2   -1    0    0  501    0  0.00000000000E+00 -0.00000000000E+00 -0.35814049324E+02  0.35814049418E+02  0.26000000000E-02 0.  1.
       1023    2    1    2    0    0  0.00000000000E+00  0.00000000000E+00 -0.33021369777E+02  0.38606730175E+02  0.20001718749E+02 0.  0.
        -11    1    3    3    0    0  0.45588617290E+01 -0.89013243287E+01 -0.16472425794E+02  0.19270641060E+02  0.51100000000E-03 0.  1.
         11    1    3    3    0    0 -0.45588617290E+01  0.89013243287E+01 -0.16548943982E+02  0.19336089115E+02  0.51100000000E-03 0. -1.
<mgrwt>
<rscale>  0 0.20001719E+02</rscale>
<asrwt>0</asrwt>
<pdfrwt beam="2">  1        2 0.55098535E-02 0.20001719E+02</pdfrwt>
<pdfrwt beam="1">  1       -2 0.42964313E-03 0.20001719E+02</pdfrwt>
<totfact> 0.44263988E+06</totfact>
</mgrwt>
</event>
<event>
 5    1  0.4046313E-006  0.2000136E+02  0.7818608E-02  0.1745301E+00
          2   -1    0    0  501    0  0.00000000000E+00  0.00000000000E+00  0.16292316141E+02  0.16292316349E+02  0.26000000000E-02 0. -1.
         -2   -1    0    0    0  501 -0.00000000000E+00 -0.00000000000E+00 -0.61386991222E+01  0.61386996728E+01  0.26000000000E-02 0.  1.
       1023    2    1    2    0    0  0.00000000000E+00  0.00000000000E+00  0.10153617019E+02  0.22431016021E+02  0.20001363483E+02 0.  0.
        -11    1    3    3    0    0 -0.59538394179E+01  0.80352000754E+01  0.50415048762E+01  0.11199527479E+02  0.51100000000E-03 0.  1.
         11    1    3    3    0    0  0.59538394179E+01 -0.80352000754E+01  0.51121121427E+01  0.11231488543E+02  0.51100000000E-03 0. -1.
<mgrwt>
<rscale>  0 0.20001363E+02</rscale>
<asrwt>0</asrwt>
<pdfrwt beam="1">  1        2 0.25065102E-02 0.20001363E+02</pdfrwt>
<pdfrwt beam="2">  1       -2 0.94441533E-03 0.20001363E+02</pdfrwt>
<totfact> 0.40953820E+06</totfact>
</mgrwt>
</event>
<event>
 4    1  0.4046313E-006  0.2001548E+02  0.7818608E-02  0.1745020E+00
         -2   -1    0    0    0  501 -0.00000000000E+00  0.00000000000E+00  0.51095078700E+02  0.51095078766E+02  0.26000000000E-02 0.  1.
          2   -1    0    0  501    0  0.00000000000E+00 -0.00000000000E+00 -0.19601650712E+01  0.19601667956E+01  0.26000000000E-02 0. -1.
        -11    1    1    2    0    0 -0.47002789243E+01  0.88344745762E+01  0.24250779368E+02  0.26234345108E+02  0.51100000000E-03 0. -1.
         11    1    1    2    0    0  0.47002789243E+01 -0.88344745762E+01  0.24884134260E+02  0.26820900454E+02  0.51100000000E-03 0.  1.
<mgrwt>
<rscale>  0 0.20015478E+02</rscale>
<asrwt>0</asrwt>
<pdfrwt beam="2">  1        2 0.30156403E-03 0.20015478E+02</pdfrwt>
<pdfrwt beam="1">  1       -2 0.78607807E-02 0.20015478E+02</pdfrwt>
<totfact> 0.33735252E+06</totfact>
</mgrwt>
</event>
<event>
 5    1  0.4046313E-006  0.2000195E+02  0.7818608E-02  0.1745289E+00
          2   -1    0    0  501    0  0.00000000000E+00  0.00000000000E+00  0.32114472543E+01  0.32114483068E+01  0.26000000000E-02 0. -1.
         -2   -1    0    0    0  501 -0.00000000000E+00 -0.00000000000E+00 -0.31144667489E+02  0.31144667598E+02  0.26000000000E-02 0.  1.
       1023    2    1    2    0    0  0.00000000000E+00  0.00000000000E+00 -0.27933220235E+02  0.34356115904E+02  0.20001947589E+02 0.  0.
        -11    1    3    3    0    0  0.56940525657E+01  0.82207842518E+01 -0.14183524415E+02  0.17354419997E+02  0.51100000000E-03 0.  1.
         11    1    3    3    0    0 -0.56940525657E+01 -0.82207842518E+01 -0.13749695820E+02  0.17001695908E+02  0.51100000000E-03 0. -1.
<mgrwt>
<rscale>  0 0.20001948E+02</rscale>
<asrwt>0</asrwt>
<pdfrwt beam="1">  1        2 0.49406892E-03 0.20001948E+02</pdfrwt>
<pdfrwt beam="2">  1       -2 0.47914872E-02 0.20001948E+02</pdfrwt>
<totfact> 0.35917240E+06</totfact>
</mgrwt>
</event>
<event>
 5    1  0.4046313E-006  0.2000032E+02  0.7818608E-02  0.1745322E+00
         -2   -1    0    0    0  501 -0.00000000000E+00  0.00000000000E+00  0.31166476159E+01  0.31166487004E+01  0.26000000000E-02 0.  1.
          2   -1    0    0  501    0  0.00000000000E+00 -0.00000000000E+00 -0.32086772307E+02  0.32086772412E+02  0.26000000000E-02 0. -1.
       1023    2    1    2    0    0  0.00000000000E+00  0.00000000000E+00 -0.28970124691E+02  0.35203421113E+02  0.20000318333E+02 0.  0.
        -11    1    3    3    0    0 -0.94193232593E+01 -0.33580995373E+01 -0.14393603825E+02  0.17526446145E+02  0.51100000000E-03 0.  1.
         11    1    3    3    0    0  0.94193232593E+01  0.33580995373E+01 -0.14576520866E+02  0.17676974967E+02  0.51100000000E-03 0. -1.
<mgrwt>
<rscale>  0 0.20000318E+02</rscale>
<asrwt>0</asrwt>
<pdfrwt beam="2">  1        2 0.49364264E-02 0.20000318E+02</pdfrwt>
<pdfrwt beam="1">  1       -2 0.47948436E-03 0.20000318E+02</pdfrwt>
<totfact> 0.43699539E+06</totfact>
</mgrwt>
</event>
<event>
 5    1  0.4046313E-006  0.2000007E+02  0.7818608E-02  0.1745327E+00
         -2   -1    0    0    0  501 -0.00000000000E+00  0.00000000000E+00  0.19466049038E+01  0.19466066401E+01  0.26000000000E-02 0. -1.
          2   -1    0    0  501    0  0.00000000000E+00 -0.00000000000E+00 -0.51371817869E+02  0.51371817935E+02  0.26000000000E-02 0.  1.
       1023    2    1    2    0    0  0.00000000000E+00  0.00000000000E+00 -0.49425212965E+02  0.53318424575E+02  0.20000068062E+02 0.  0.
        -11    1    3    3    0    0 -0.52771876528E+00 -0.99860796877E+01 -0.24658907150E+02  0.26609433980E+02  0.51100000000E-03 0.  1.
         11    1    3    3    0    0  0.52771876528E+00  0.99860796877E+01 -0.24766305815E+02  0.26708990595E+02  0.51100000000E-03 0. -1.
<mgrwt>
<rscale>  0 0.20000068E+02</rscale>
<asrwt>0</asrwt>
<pdfrwt beam="2">  1        2 0.79033557E-02 0.20000068E+02</pdfrwt>
<pdfrwt beam="1">  1       -2 0.29947786E-03 0.20000068E+02</pdfrwt>
<totfact> 0.46518884E+06</totfact>
</mgrwt>
</event>
<event>
 5    1  0.4046313E-006  0.2000029E+02  0.7818608E-02  0.1745322E+00
          2   -1    0    0  501    0  0.00000000000E+00  0.00000000000E+00  0.72264354737E+01  0.72264359414E+01  0.26000000000E-02 0. -1.
         -2   -1    0    0    0  501 -0.00000000000E+00 -0.00000000000E+00 -0.13838484788E+02  0.13838485033E+02  0.26000000000E-02 0.  1.
       1023    2    1    2    0    0  0.00000000000E+00  0.00000000000E+00 -0.66120493147E+01  0.21064920974E+02  0.20000292485E+02 0.  0.
        -11    1    3    3    0    0  0.10767359591E+01 -0.99418630604E+01 -0.32490802441E+01  0.10514586256E+02  0.51100000000E-03 0.  1.
         11    1    3    3    0    0 -0.10767359591E+01  0.99418630604E+01 -0.33629690706E+01  0.10550334718E+02  0.51100000000E-03 0. -1.
<mgrwt>
<rscale>  0 0.20000292E+02</rscale>
<asrwt>0</asrwt>
<pdfrwt beam="1">  1        2 0.11117594E-02 0.20000292E+02</pdfrwt>
<pdfrwt beam="2">  1       -2 0.21289977E-02 0.20000292E+02</pdfrwt>
<totfact> 0.38529824E+06</totfact>
</mgrwt>
</event>
<event>
 4    1  0.4046313E-006  0.2007783E+02  0.7818608E-02  0.1743785E+00
          2   -1    0    0  501    0  0.00000000000E+00  0.00000000000E+00  0.23692342908E+01  0.23692357174E+01  0.26000000000E-02 0. -1.
         -2   -1    0    0    0  501 -0.00000000000E+00 -0.00000000000E+00 -0.42536859394E+02  0.42536859473E+02  0.26000000000E-02 0.  1.
        -11    1    1    2    0    0  0.66271420061E+01  0.75285614751E+01 -0.21036852348E+02  0.23305523080E+02  0.51100000000E-03 0.  1.
         11    1    1    2    0    0 -0.66271420061E+01 -0.75285614751E+01 -0.19130772755E+02  0.21600572111E+02  0.51100000000E-03 0. -1.
<mgrwt>
<rscale>  0 0.20077831E+02</rscale>
<asrwt>0</asrwt>
<pdfrwt beam="1">  1        2 0.36449773E-03 0.20077831E+02</pdfrwt>
<pdfrwt beam="2">  1       -2 0.65441318E-02 0.20077831E+02</pdfrwt>
<totfact> 0.34358934E+06</totfact>
</mgrwt>
</event>
<event>
 4    1  0.4046313E-006  0.2012034E+02  0.7818608E-02  0.1742945E+00
         -2   -1    0    0    0  501 -0.00000000000E+00  0.00000000000E+00  0.34188410637E+01  0.34188420524E+01  0.26000000000E-02 0.  1.
          2   -1    0    0  501    0  0.00000000000E+00 -0.00000000000E+00 -0.29602730361E+02  0.29602730475E+02  0.26000000000E-02 0. -1.
        -11    1    1    2    0    0 -0.56964823252E+01 -0.82888620134E+01 -0.12718039264E+02  0.16214304405E+02  0.51100000000E-03 0. -1.
         11    1    1    2    0    0  0.56964823252E+01  0.82888620134E+01 -0.13465850033E+02  0.16807268122E+02  0.51100000000E-03 0.  1.
<mgrwt>
<rscale>  0 0.20120343E+02</rscale>
<asrwt>0</asrwt>
<pdfrwt beam="2">  1        2 0.45542661E-02 0.20120343E+02</pdfrwt>
<pdfrwt beam="1">  1       -2 0.52597565E-03 0.20120343E+02</pdfrwt>
<totfact> 0.42731192E+06</totfact>
</mgrwt>
</event>
<event>
 5    1  0.4046313E-006  0.2000065E+02  0.7818608E-02  0.1745315E+00
          2   -1    0    0  501    0  0.00000000000E+00  0.00000000000E+00  0.16734314555E+02  0.16734314757E+02  0.26000000000E-02 0.  1.
         -2   -1    0    0    0  501 -0.00000000000E+00 -0.00000000000E+00 -0.59761355281E+01  0.59761360937E+01  0.26000000000E-02 0. -1.
       1023    2    1    2    0    0  0.00000000000E+00  0.00000000000E+00  0.10758179027E+02  0.22710450851E+02  0.20000654036E+02 0.  0.
        -11    1    3    3    0    0 -0.95377009682E+01  0.30060446812E+01  0.53223626846E+01  0.11328353331E+02  0.51100000000E-03 0. -1.
         11    1    3    3    0    0  0.95377009682E+01 -0.30060446812E+01  0.54358163427E+01  0.11382097520E+02  0.51100000000E-03 0.  1.
<mgrwt>
<rscale>  0 0.20000654E+02</rscale>
<asrwt>0</asrwt>
<pdfrwt beam="1">  1        2 0.25745100E-02 0.20000654E+02</pdfrwt>
<pdfrwt beam="2">  1       -2 0.91940552E-03 0.20000654E+02</pdfrwt>
<totfact> 0.41046828E+06</totfact>
</mgrwt>
</event>
<event>
 5    1  0.4046313E-006  0.2000029E+02  0.7818608E-02  0.1745322E+00
          2   -1    0    0  501    0  0.00000000000E+00  0.00000000000E+00  0.38675080565E+02  0.38675080653E+02  0.26000000000E-02 0. -1.
         -2   -1    0    0    0  501 -0.00000000000E+00 -0.00000000000E+00 -0.25857172574E+01  0.25857185646E+01  0.26000000000E-02 0.  1.
       1023    2    1    2    0    0  0.00000000000E+00  0.00000000000E+00  0.36089363308E+02  0.41260799217E+02  0.20000285200E+02 0.  0.
        -11    1    3    3    0    0  0.32842608530E+01  0.94454439792E+01  0.18061996539E+02  0.20645544327E+02  0.51100000000E-03 0.  1.
         11    1    3    3    0    0 -0.32842608530E+01 -0.94454439792E+01  0.18027366769E+02  0.20615254890E+02  0.51100000000E-03 0. -1.
<mgrwt>
<rscale>  0 0.20000285E+02</rscale>
<asrwt>0</asrwt>
<pdfrwt beam="1">  1        2 0.59500126E-02 0.20000285E+02</pdfrwt>
<pdfrwt beam="2">  1       -2 0.39780276E-03 0.20000285E+02</pdfrwt>
<totfact> 0.44699271E+06</totfact>
</mgrwt>
</event>
<event>
 5    1  0.4046313E-006  0.2000032E+02  0.7818608E-02  0.1745322E+00
         -2   -1    0    0    0  501 -0.00000000000E+00  0.00000000000E+00  0.87249732537E+01  0.87249736411E+01  0.26000000000E-02 0.  1.
          2   -1    0    0  501    0  0.00000000000E+00 -0.00000000000E+00 -0.11461715794E+02  0.11461716089E+02  0.26000000000E-02 0. -1.
       1023    2    1    2    0    0  0.00000000000E+00  0.00000000000E+00 -0.27367425407E+01  0.20186689730E+02  0.20000317061E+02 0.  0.
        -11    1    3    3    0    0  0.98503502571E+01 -0.17236805286E+01 -0.14207744513E+01  0.10100449250E+02  0.51100000000E-03 0.  1.
         11    1    3    3    0    0 -0.98503502571E+01  0.17236805286E+01 -0.13159680893E+01  0.10086240480E+02  0.51100000000E-03 0. -1.
<mgrwt>
<rscale>  0 0.20000317E+02</rscale>
<asrwt>0</asrwt>
<pdfrwt beam="2">  1        2 0.17633409E-02 0.20000317E+02</pdfrwt>
<pdfrwt beam="1">  1       -2 0.13423036E-02 0.20000317E+02</pdfrwt>
<totfact> 0.39860635E+06</totfact>
</mgrwt>
</event>
<event>
 5    1  0.4046313E-006  0.2000019E+02  0.7818608E-02  0.1745324E+00
          2   -1    0    0  501    0  0.00000000000E+00  0.00000000000E+00  0.85523968302E+02  0.85523968341E+02  0.26000000000E-02 0. -1.
         -2   -1    0    0    0  501 -0.00000000000E+00 -0.00000000000E+00 -0.11692830810E+01  0.11692859717E+01  0.26000000000E-02 0.  1.
       1023    2    1    2    0    0  0.00000000000E+00  0.00000000000E+00  0.84354685221E+02  0.86693254313E+02  0.20000185616E+02 0.  0.
        -11    1    3    3    0    0 -0.49538862106E+01 -0.86867397607E+01  0.42014021481E+02  0.43187711650E+02  0.51100000000E-03 0. -1.
         11    1    3    3    0    0  0.49538862106E+01  0.86867397607E+01  0.42340663740E+02  0.43505542663E+02  0.51100000000E-03 0.  1.
<mgrwt>
<rscale>  0 0.20000186E+02</rscale>
<asrwt>0</asrwt>
<pdfrwt beam="1">  1        2 0.13157535E-01 0.20000186E+02</pdfrwt>
<pdfrwt beam="2">  1       -2 0.17988991E-03 0.20000186E+02</pdfrwt>
<totfact> 0.50990094E+06</totfact>
</mgrwt>
</event>
<event>
 5    1  0.4046313E-006  0.2000349E+02  0.7818608E-02  0.1745259E+00
         -2   -1    0    0    0  501 -0.00000000000E+00  0.00000000000E+00  0.18585421946E+01  0.18585440132E+01  0.26000000000E-02 0. -1.
          2   -1    0    0  501    0  0.00000000000E+00 -0.00000000000E+00 -0.53824364845E+02  0.53824364908E+02  0.26000000000E-02 0.  1.
       1023    2    1    2    0    0  0.00000000000E+00  0.00000000000E+00 -0.51965822651E+02  0.55682908921E+02  0.20003490250E+02 0.  0.
        -11    1    3    3    0    0  0.94543169279E+01  0.32598825487E+01 -0.25552005862E+02  0.27439313888E+02  0.51100000000E-03 0.  1.
         11    1    3    3    0    0 -0.94543169279E+01 -0.32598825487E+01 -0.26413816789E+02  0.28243595033E+02  0.51100000000E-03 0. -1.
<mgrwt>
<rscale>  0 0.20003490E+02</rscale>
<asrwt>0</asrwt>
<pdfrwt beam="2">  1        2 0.82806705E-02 0.20003490E+02</pdfrwt>
<pdfrwt beam="1">  1       -2 0.28592975E-03 0.20003490E+02</pdfrwt>
<totfact> 0.46839998E+06</totfact>
</mgrwt>
</event>
<event>
 5    1  0.4046313E-006  0.2000070E+02  0.7818608E-02  0.1745314E+00
          2   -1    0    0  501    0  0.00000000000E+00  0.00000000000E+00  0.10274239346E+01  0.10274272244E+01  0.26000000000E-02 0.  1.
         -2   -1    0    0    0  501 -0.00000000000E+00 -0.00000000000E+00 -0.97337460672E+02  0.97337460707E+02  0.26000000000E-02 0. -1.
       1023    2    1    2    0    0  0.00000000000E+00  0.00000000000E+00 -0.96310036737E+02  0.98364887931E+02  0.20000700021E+02 0.  0.
        -11    1    3    3    0    0 -0.99642091870E+01  0.84920717595E+00 -0.48058829792E+02  0.49088264776E+02  0.51100000000E-03 0.  1.
         11    1    3    3    0    0  0.99642091870E+01 -0.84920717595E+00 -0.48251206946E+02  0.49276623155E+02  0.51100000000E-03 0. -1.
<mgrwt>
<rscale>  0 0.20000700E+02</rscale>
<asrwt>0</asrwt>
<pdfrwt beam="1">  1        2 0.15806555E-03 0.20000700E+02</pdfrwt>
<pdfrwt beam="2">  1       -2 0.14974987E-01 0.20000700E+02</pdfrwt>
<totfact> 0.29923162E+06</totfact>
</mgrwt>
</event>
<event>
 4    1  0.4046313E-006  0.2018192E+02  0.7818608E-02  0.1741734E+00
         -2   -1    0    0    0  501 -0.00000000000E+00  0.00000000000E+00  0.19476783267E+02  0.19476783441E+02  0.26000000000E-02 0. -1.
          2   -1    0    0  501    0  0.00000000000E+00 -0.00000000000E+00 -0.52281468920E+01  0.52281475385E+01  0.26000000000E-02 0.  1.
        -11    1    1    2    0    0 -0.17327533249E+01  0.98900813015E+01  0.83553582637E+01  0.13062471214E+02  0.51100000000E-03 0. -1.
         11    1    1    2    0    0  0.17327533249E+01 -0.98900813015E+01  0.58932781116E+01  0.11642459766E+02  0.51100000000E-03 0.  1.
<mgrwt>
<rscale>  0 0.20181922E+02</rscale>
<asrwt>0</asrwt>
<pdfrwt beam="2">  1        2 0.80433034E-03 0.20181922E+02</pdfrwt>
<pdfrwt beam="1">  1       -2 0.29964283E-02 0.20181922E+02</pdfrwt>
<totfact> 0.36786321E+06</totfact>
</mgrwt>
</event>
<event>
 4    1  0.4046313E-006  0.2002872E+02  0.7818608E-02  0.1744758E+00
          2   -1    0    0  501    0  0.00000000000E+00  0.00000000000E+00  0.11316970237E+03  0.11316970240E+03  0.26000000000E-02 0.  1.
         -2   -1    0    0    0  501 -0.00000000000E+00 -0.00000000000E+00 -0.88616606590E+00  0.88616988008E+00  0.26000000000E-02 0. -1.
        -11    1    1    2    0    0 -0.35477298147E+01  0.93531100986E+01  0.58814682989E+02  0.59659316043E+02  0.51100000000E-03 0.  1.
         11    1    1    2    0    0  0.35477298147E+01 -0.93531100986E+01  0.53468853316E+02  0.54396556238E+02  0.51100000000E-03 0. -1.
<mgrwt>
<rscale>  0 0.20028716E+02</rscale>
<asrwt>0</asrwt>
<pdfrwt beam="1">  1        2 0.17410729E-01 0.20028716E+02</pdfrwt>
<pdfrwt beam="2">  1       -2 0.13633349E-03 0.20028716E+02</pdfrwt>
<totfact> 0.54136529E+06</totfact>
</mgrwt>
</event>
<event>
 5    1  0.4046313E-006  0.2000139E+02  0.7818608E-02  0.1745300E+00
         -2   -1    0    0    0  501 -0.00000000000E+00  0.00000000000E+00  0.11169657097E+02  0.11169657400E+02  0.26000000000E-02 0. -1.
          2   -1    0    0  501    0  0.00000000000E+00 -0.00000000000E+00 -0.89540690110E+01  0.89540693885E+01  0.26000000000E-02 0.  1.
       1023    2    1    2    0    0  0.00000000000E+00  0.00000000000E+00  0.22155880864E+01  0.20123726788E+02  0.20001388684E+02 0.  0.
        -11    1    3    3    0    0 -0.39727725775E+01 -0.91771250914E+01  0.12149355982E+01  0.10073659497E+02  0.51100000000E-03 0.  1.
         11    1    3    3    0    0  0.39727725775E+01  0.91771250914E+01  0.10006524881E+01  0.10050067291E+02  0.51100000000E-03 0. -1.
<mgrwt>
<rscale>  0 0.20001389E+02</rscale>
<asrwt>0</asrwt>
<pdfrwt beam="2">  1        2 0.13775491E-02 0.20001389E+02</pdfrwt>
<pdfrwt beam="1">  1       -2 0.17184088E-02 0.20001389E+02</pdfrwt>
<totfact> 0.39139266E+06</totfact>
</mgrwt>
</event>
<event>
 4    1  0.4046313E-006  0.2001776E+02  0.7818608E-02  0.1744975E+00
          2   -1    0    0  501    0  0.00000000000E+00  0.00000000000E+00  0.59339849227E+02  0.59339849284E+02  0.26000000000E-02 0.  1.
         -2   -1    0    0    0  501 -0.00000000000E+00 -0.00000000000E+00 -0.16882006283E+01  0.16882026305E+01  0.26000000000E-02 0. -1.
        -11    1    1    2    0    0 -0.76144144631E+01  0.64870226109E+01  0.29868029642E+02  0.31498570839E+02  0.51100000000E-03 0.  1.
         11    1    1    2    0    0  0.76144144631E+01 -0.64870226109E+01  0.27783618957E+02  0.29529481075E+02  0.51100000000E-03 0. -1.
<mgrwt>
<rscale>  0 0.20017755E+02</rscale>
<asrwt>0</asrwt>
<pdfrwt beam="1">  1        2 0.91292066E-02 0.20017755E+02</pdfrwt>
<pdfrwt beam="2">  1       -2 0.25972336E-03 0.20017755E+02</pdfrwt>
<totfact> 0.47515034E+06</totfact>
</mgrwt>
</event>
<event>
 5    1  0.4046313E-006  0.2000199E+02  0.7818608E-02  0.1745289E+00
          2   -1    0    0  501    0  0.00000000000E+00  0.00000000000E+00  0.10105374553E+02  0.10105374887E+02  0.26000000000E-02 0.  1.
         -2   -1    0    0    0  501 -0.00000000000E+00 -0.00000000000E+00 -0.98976885768E+01  0.98976889183E+01  0.26000000000E-02 0. -1.
       1023    2    1    2    0    0  0.00000000000E+00  0.00000000000E+00  0.20768597606E+00  0.20003063806E+02  0.20001985605E+02 0.  0.
        -11    1    3    3    0    0  0.44093294270E+01  0.89764862905E+01  0.84745992576E-01  0.10001333624E+02  0.51100000000E-03 0. -1.
         11    1    3    3    0    0 -0.44093294270E+01 -0.89764862905E+01  0.12293998348E+00  0.10001730181E+02  0.51100000000E-03 0.  1.
<mgrwt>
<rscale>  0 0.20001986E+02</rscale>
<asrwt>0</asrwt>
<pdfrwt beam="1">  1        2 0.15546731E-02 0.20001986E+02</pdfrwt>
<pdfrwt beam="2">  1       -2 0.15227214E-02 0.20001986E+02</pdfrwt>
<totfact> 0.39484548E+06</totfact>
</mgrwt>
</event>
<event>
 5    1  0.4046313E-006  0.2000229E+02  0.7818608E-02  0.1745283E+00
          2   -1    0    0  501    0  0.00000000000E+00  0.00000000000E+00  0.94329410692E+01  0.94329414275E+01  0.26000000000E-02 0. -1.
         -2   -1    0    0    0  501 -0.00000000000E+00 -0.00000000000E+00 -0.10603571700E+02  0.10603572018E+02  0.26000000000E-02 0.  1.
       1023    2    1    2    0    0  0.00000000000E+00  0.00000000000E+00 -0.11706306303E+01  0.20036513446E+02  0.20002287244E+02 0.  0.
        -11    1    3    3    0    0 -0.26924532980E+01  0.96313849984E+01 -0.48518559284E+00  0.10012406657E+02  0.51100000000E-03 0.  1.
         11    1    3    3    0    0  0.26924532980E+01 -0.96313849984E+01 -0.68544503744E+00  0.10024106789E+02  0.51100000000E-03 0. -1.
<mgrwt>
<rscale>  0 0.20002287E+02</rscale>
<asrwt>0</asrwt>
<pdfrwt beam="1">  1        2 0.14512218E-02 0.20002287E+02</pdfrwt>
<pdfrwt beam="2">  1       -2 0.16313188E-02 0.20002287E+02</pdfrwt>
<totfact> 0.39284636E+06</totfact>
</mgrwt>
</event>
<event>
 5    1  0.4046313E-006  0.2000076E+02  0.7818608E-02  0.1745313E+00
          2   -1    0    0  501    0  0.00000000000E+00  0.00000000000E+00  0.66307151038E+01  0.66307156135E+01  0.26000000000E-02 0. -1.
         -2   -1    0    0    0  501 -0.00000000000E+00 -0.00000000000E+00 -0.15082472169E+02  0.15082472393E+02  0.26000000000E-02 0.  1.
       1023    2    1    2    0    0  0.00000000000E+00  0.00000000000E+00 -0.84517570655E+01  0.21713188007E+02  0.20000758384E+02 0.  0.
        -11    1    3    3    0    0 -0.15309720659E+01 -0.98823537595E+01 -0.42832463199E+01  0.10878924147E+02  0.51100000000E-03 0.  1.
         11    1    3    3    0    0  0.15309720659E+01  0.98823537595E+01 -0.41685107457E+01  0.10834263860E+02  0.51100000000E-03 0. -1.
<mgrwt>
<rscale>  0 0.20000758E+02</rscale>
<asrwt>0</asrwt>
<pdfrwt beam="1">  1        2 0.10201101E-02 0.20000758E+02</pdfrwt>
<pdfrwt beam="2">  1       -2 0.23203804E-02 0.20000758E+02</pdfrwt>
<totfact> 0.38278534E+06</totfact>
</mgrwt>
</event>
<event>
 5    1  0.4046313E-006  0.2000388E+02  0.7818608E-02  0.1745251E+00
          2   -1    0    0  501    0  0.00000000000E+00  0.00000000000E+00  0.74526586446E+02  0.74526586491E+02  0.26000000000E-02 0.  1.
         -2   -1    0    0    0  501 -0.00000000000E+00 -0.00000000000E+00 -0.13423217397E+01  0.13423242577E+01  0.26000000000E-02 0. -1.
       1023    2    1    2    0    0  0.00000000000E+00  0.00000000000E+00  0.73184264706E+02  0.75868910749E+02  0.20003875066E+02 0.  0.
        -11    1    3    3    0    0  0.58990748274E+01  0.80756948317E+01  0.37165111869E+02  0.38487159824E+02  0.51100000000E-03 0. -1.
         11    1    3    3    0    0 -0.58990748274E+01 -0.80756948317E+01  0.36019152837E+02  0.37381750925E+02  0.51100000000E-03 0.  1.
<mgrwt>
<rscale>  0 0.20003875E+02</rscale>
<asrwt>0</asrwt>
<pdfrwt beam="1">  1        2 0.11465630E-01 0.20003875E+02</pdfrwt>
<pdfrwt beam="2">  1       -2 0.20651122E-03 0.20003875E+02</pdfrwt>
<totfact> 0.49582686E+06</totfact>
</mgrwt>
</event>
<event>
 5    1  0.4046313E-006  0.2000293E+02  0.7818608E-02  0.1745270E+00
          2   -1    0    0  501    0  0.00000000000E+00  0.00000000000E+00  0.63931514082E+01  0.63931519369E+01  0.26000000000E-02 0.  1.
         -2   -1    0    0    0  501 -0.00000000000E+00 -0.00000000000E+00 -0.15646325913E+02  0.15646326129E+02  0.26000000000E-02 0. -1.
       1023    2    1    2    0    0  0.00000000000E+00  0.00000000000E+00 -0.92531745049E+01  0.22039478066E+02  0.20002933660E+02 0.  0.
        -11    1    3    3    0    0  0.22818934503E+01 -0.97364444096E+01 -0.44560694531E+01  0.10948147911E+02  0.51100000000E-03 0.  1.
         11    1    3    3    0    0 -0.22818934503E+01  0.97364444096E+01 -0.47971050519E+01  0.11091330155E+02  0.51100000000E-03 0. -1.
<mgrwt>
<rscale>  0 0.20002934E+02</rscale>
<asrwt>0</asrwt>
<pdfrwt beam="1">  1        2 0.98356181E-03 0.20002934E+02</pdfrwt>
<pdfrwt beam="2">  1       -2 0.24071271E-02 0.20002934E+02</pdfrwt>
<totfact> 0.38162317E+06</totfact>
</mgrwt>
</event>
<event>
 5    1  0.4046313E-006  0.2000038E+02  0.7818608E-02  0.1745320E+00
          2   -1    0    0  501    0  0.00000000000E+00  0.00000000000E+00  0.19627897794E+02  0.19627897966E+02  0.26000000000E-02 0.  1.
         -2   -1    0    0    0  501 -0.00000000000E+00 -0.00000000000E+00 -0.50949842268E+01  0.50949848902E+01  0.26000000000E-02 0. -1.
       1023    2    1    2    0    0  0.00000000000E+00  0.00000000000E+00  0.14532913567E+02  0.24722882856E+02  0.20000383996E+02 0.  0.
        -11    1    3    3    0    0 -0.62419722770E+01  0.78127668277E+01  0.73256916223E+01  0.12396261590E+02  0.51100000000E-03 0.  1.
         11    1    3    3    0    0  0.62419722770E+01 -0.78127668277E+01  0.72072219448E+01  0.12326621266E+02  0.51100000000E-03 0. -1.
<mgrwt>
<rscale>  0 0.20000384E+02</rscale>
<asrwt>0</asrwt>
<pdfrwt beam="1">  1        2 0.30196766E-02 0.20000384E+02</pdfrwt>
<pdfrwt beam="2">  1       -2 0.78384380E-03 0.20000384E+02</pdfrwt>
<totfact> 0.41607325E+06</totfact>
</mgrwt>
</event>
<event>
 4    1  0.4046313E-006  0.2006451E+02  0.7818608E-02  0.1744048E+00
          2   -1    0    0  501    0  0.00000000000E+00  0.00000000000E+00  0.10900392583E+02  0.10900392893E+02  0.26000000000E-02 0.  1.
         -2   -1    0    0    0  501 -0.00000000000E+00 -0.00000000000E+00 -0.92332601351E+01  0.92332605012E+01  0.26000000000E-02 0. -1.
        -11    1    1    2    0    0  0.90886353928E+01  0.41845451791E+01  0.10135648535E+00  0.10006197333E+02  0.51100000000E-03 0. -1.
         11    1    1    2    0    0 -0.90886353928E+01 -0.41845451791E+01  0.15657759627E+01  0.10127456062E+02  0.51100000000E-03 0.  1.
<mgrwt>
<rscale>  0 0.20064513E+02</rscale>
<asrwt>0</asrwt>
<pdfrwt beam="1">  1        2 0.16769835E-02 0.20064513E+02</pdfrwt>
<pdfrwt beam="2">  1       -2 0.14205016E-02 0.20064513E+02</pdfrwt>
<totfact> 0.39423578E+06</totfact>
</mgrwt>
</event>
<event>
 5    1  0.4046313E-006  0.2000014E+02  0.7818608E-02  0.1745325E+00
          2   -1    0    0  501    0  0.00000000000E+00  0.00000000000E+00  0.56740195348E+02  0.56740195407E+02  0.26000000000E-02 0.  1.
         -2   -1    0    0    0  501 -0.00000000000E+00 -0.00000000000E+00 -0.17624432812E+01  0.17624451990E+01  0.26000000000E-02 0. -1.
       1023    2    1    2    0    0  0.00000000000E+00  0.00000000000E+00  0.54977752067E+02  0.58502640606E+02  0.20000143390E+02 0.  0.
        -11    1    3    3    0    0  0.44620173910E+01 -0.89494034978E+01  0.27498786622E+02  0.29260633761E+02  0.51100000000E-03 0.  1.
         11    1    3    3    0    0 -0.44620173910E+01  0.89494034978E+01  0.27478965444E+02  0.29242006845E+02  0.51100000000E-03 0. -1.
<mgrwt>
<rscale>  0 0.20000143E+02</rscale>
<asrwt>0</asrwt>
<pdfrwt beam="1">  1        2 0.87292610E-02 0.20000143E+02</pdfrwt>
<pdfrwt beam="2">  1       -2 0.27114527E-03 0.20000143E+02</pdfrwt>
<totfact> 0.47256102E+06</totfact>
</mgrwt>
</event>
<event>
 5    1  0.4046313E-006  0.2000241E+02  0.7818608E-02  0.1745280E+00
          2   -1    0    0  501    0  0.00000000000E+00  0.00000000000E+00  0.19684979501E+01  0.19684996671E+01  0.26000000000E-02 0. -1.
         -2   -1    0    0    0  501 -0.00000000000E+00 -0.00000000000E+00 -0.50812350188E+02  0.50812350254E+02  0.26000000000E-02 0.  1.
       1023    2    1    2    0    0  0.00000000000E+00  0.00000000000E+00 -0.48843852238E+02  0.52780849921E+02  0.20002405281E+02 0.  0.
        -11    1    3    3    0    0  0.61403647556E+01  0.78942990070E+01 -0.24410778768E+02  0.26380109106E+02  0.51100000000E-03 0.  1.
         11    1    3    3    0    0 -0.61403647556E+01 -0.78942990070E+01 -0.24433073470E+02  0.26400740815E+02  0.51100000000E-03 0. -1.
<mgrwt>
<rscale>  0 0.20002405E+02</rscale>
<asrwt>0</asrwt>
<pdfrwt beam="1">  1        2 0.30284601E-03 0.20002405E+02</pdfrwt>
<pdfrwt beam="2">  1       -2 0.78172838E-02 0.20002405E+02</pdfrwt>
<totfact> 0.33810802E+06</totfact>
</mgrwt>
</event>
<event>
 5    1  0.4046313E-006  0.2000036E+02  0.7818608E-02  0.1745321E+00
          2   -1    0    0  501    0  0.00000000000E+00  0.00000000000E+00  0.21329556662E+01  0.21329572509E+01  0.26000000000E-02 0. -1.
         -2   -1    0    0    0  501 -0.00000000000E+00 -0.00000000000E+00 -0.46884975608E+02  0.46884975680E+02  0.26000000000E-02 0.  1.
       1023    2    1    2    0    0  0.00000000000E+00  0.00000000000E+00 -0.44752019942E+02  0.49017932931E+02  0.20000361496E+02 0.  0.
        -11    1    3    3    0    0 -0.59737809709E+01  0.80198131550E+01 -0.22406285572E+02  0.24536607254E+02  0.51100000000E-03 0.  1.
         11    1    3    3    0    0  0.59737809709E+01 -0.80198131550E+01 -0.22345734370E+02  0.24481325677E+02  0.51100000000E-03 0. -1.
<mgrwt>
<rscale>  0 0.20000361E+02</rscale>
<asrwt>0</asrwt>
<pdfrwt beam="1">  1        2 0.32814719E-03 0.20000361E+02</pdfrwt>
<pdfrwt beam="2">  1       -2 0.72130725E-02 0.20000361E+02</pdfrwt>
<totfact> 0.34205352E+06</totfact>
</mgrwt>
</event>
<event>
 5    1  0.4046313E-006  0.2000034E+02  0.7818608E-02  0.1745321E+00
          2   -1    0    0  501    0  0.00000000000E+00  0.00000000000E+00  0.23904164373E+02  0.23904164515E+02  0.26000000000E-02 0.  1.
         -2   -1    0    0    0  501 -0.00000000000E+00 -0.00000000000E+00 -0.41835151033E+01  0.41835159112E+01  0.26000000000E-02 0. -1.
       1023    2    1    2    0    0  0.00000000000E+00  0.00000000000E+00  0.19720649270E+02  0.28087680426E+02  0.20000344599E+02 0.  0.
        -11    1    3    3    0    0  0.82966068238E+01  0.55829546813E+01  0.98330208384E+01  0.14024669937E+02  0.51100000000E-03 0. -1.
         11    1    3    3    0    0 -0.82966068238E+01 -0.55829546813E+01  0.98876284317E+01  0.14063010489E+02  0.51100000000E-03 0.  1.
<mgrwt>
<rscale>  0 0.20000345E+02</rscale>
<asrwt>0</asrwt>
<pdfrwt beam="1">  1        2 0.36775638E-02 0.20000345E+02</pdfrwt>
<pdfrwt beam="2">  1       -2 0.64361778E-03 0.20000345E+02</pdfrwt>
<totfact> 0.42368739E+06</totfact>
</mgrwt>
</event>
<event>
 4    1  0.4046313E-006  0.2004488E+02  0.7818608E-02  0.1744437E+00
         -2   -1    0    0    0  501 -0.00000000000E+00  0.00000000000E+00  0.72495934590E+01  0.72495939253E+01  0.26000000000E-02 0.  1.
          2   -1    0    0  501    0  0.00000000000E+00 -0.00000000000E+00 -0.13855858349E+02  0.13855858593E+02  0.26000000000E-02 0. -1.
        -11    1    1    2    0    0 -0.96427778754E+01  0.27141387856E+01 -0.36354798262E+01  0.10656755056E+02  0.51100000000E-03 0.  1.
         11    1    1    2    0    0  0.96427778754E+01 -0.27141387856E+01 -0.29707850642E+01  0.10448697462E+02  0.51100000000E-03 0. -1.
<mgrwt>
<rscale>  0 0.20044884E+02</rscale>
<asrwt>0</asrwt>
<pdfrwt beam="2">  1        2 0.21316706E-02 0.20044884E+02</pdfrwt>
<pdfrwt beam="1">  1       -2 0.11153221E-02 0.20044884E+02</pdfrwt>
<totfact> 0.40233007E+06</totfact>
</mgrwt>
</event>
<event>
 5    1  0.4046313E-006  0.2000052E+02  0.7818608E-02  0.1745318E+00
          2   -1    0    0  501    0  0.00000000000E+00  0.00000000000E+00  0.97471154135E+00  0.97471500904E+00  0.26000000000E-02 0.  1.
         -2   -1    0    0    0  501 -0.00000000000E+00 -0.00000000000E+00 -0.10259956755E+03  0.10259956758E+03  0.26000000000E-02 0. -1.
       1023    2    1    2    0    0  0.00000000000E+00  0.00000000000E+00 -0.10162485601E+03  0.10357428259E+03  0.20000516385E+02 0.  0.
        -11    1    3    3    0    0 -0.64230080385E+01  0.76646633396E+01 -0.51099233448E+02  0.52068548622E+02  0.51100000000E-03 0.  1.
         11    1    3    3    0    0  0.64230080385E+01 -0.76646633396E+01 -0.50525622558E+02  0.51505733967E+02  0.51100000000E-03 0. -1.
<mgrwt>
<rscale>  0 0.20000516E+02</rscale>
<asrwt>0</asrwt>
<pdfrwt beam="1">  1        2 0.14995597E-03 0.20000516E+02</pdfrwt>
<pdfrwt beam="2">  1       -2 0.15784541E-01 0.20000516E+02</pdfrwt>
<totfact> 0.29541356E+06</totfact>
</mgrwt>
</event>
<event>
 5    1  0.4046313E-006  0.2000337E+02  0.7818608E-02  0.1745261E+00
          2   -1    0    0  501    0  0.00000000000E+00  0.00000000000E+00  0.20464430601E+01  0.20464447118E+01  0.26000000000E-02 0.  1.
         -2   -1    0    0    0  501 -0.00000000000E+00 -0.00000000000E+00 -0.48881721275E+02  0.48881721344E+02  0.26000000000E-02 0. -1.
       1023    2    1    2    0    0  0.00000000000E+00  0.00000000000E+00 -0.46835278215E+02  0.50928166056E+02  0.20003370025E+02 0.  0.
        -11    1    3    3    0    0  0.99802802585E+01 -0.65395361228E+00 -0.23399023414E+02  0.25446963401E+02  0.51100000000E-03 0.  1.
         11    1    3    3    0    0 -0.99802802585E+01  0.65395361228E+00 -0.23436254801E+02  0.25481202655E+02  0.51100000000E-03 0. -1.
<mgrwt>
<rscale>  0 0.20003370E+02</rscale>
<asrwt>0</asrwt>
<pdfrwt beam="1">  1        2 0.31483756E-03 0.20003370E+02</pdfrwt>
<pdfrwt beam="2">  1       -2 0.75202641E-02 0.20003370E+02</pdfrwt>
<totfact> 0.33995782E+06</totfact>
</mgrwt>
</event>
<event>
 4    1  0.5653476E-006  0.2048523E+02  0.7818608E-02  0.1735847E+00
         -2   -1    0    0    0  501 -0.00000000000E+00  0.00000000000E+00  0.99045511853E+00  0.99045853109E+00  0.26000000000E-02 0. -1.
          2   -1    0    0  501    0  0.00000000000E+00 -0.00000000000E+00 -0.10592199365E+03  0.10592199368E+03  0.26000000000E-02 0.  1.
        -11    1    1    2    0    0  0.10129695558E+02 -0.20727925522E+00 -0.60307252675E+02  0.61152419594E+02  0.51100000000E-03 0.  1.
         11    1    1    2    0    0 -0.10129695558E+02  0.20727925522E+00 -0.44624285855E+02  0.45760032617E+02  0.51100000000E-03 0. -1.
<mgrwt>
<rscale>  0 0.20485230E+02</rscale>
<asrwt>0</asrwt>
<pdfrwt beam="2">  1        2 0.16295683E-01 0.20485230E+02</pdfrwt>
<pdfrwt beam="1">  1       -2 0.15237806E-03 0.20485230E+02</pdfrwt>
<totfact> 0.50703699E+06</totfact>
</mgrwt>
</event>
<event>
 5    1  0.4046313E-006  0.2000375E+02  0.7818608E-02  0.1745254E+00
          2   -1    0    0  501    0  0.00000000000E+00  0.00000000000E+00  0.50789498287E+02  0.50789498354E+02  0.26000000000E-02 0. -1.
         -2   -1    0    0    0  501 -0.00000000000E+00 -0.00000000000E+00 -0.19696484786E+01  0.19696501946E+01  0.26000000000E-02 0.  1.
       1023    2    1    2    0    0  0.00000000000E+00  0.00000000000E+00  0.48819849809E+02  0.52759148548E+02  0.20003750154E+02 0.  0.
        -11    1    3    3    0    0  0.67381832608E+00  0.99779743389E+01  0.24005594465E+02  0.26005433450E+02  0.51100000000E-03 0. -1.
         11    1    3    3    0    0 -0.67381832608E+00 -0.99779743389E+01  0.24814255343E+02  0.26753715098E+02  0.51100000000E-03 0.  1.
<mgrwt>
<rscale>  0 0.20003750E+02</rscale>
<asrwt>0</asrwt>
<pdfrwt beam="1">  1        2 0.78137693E-02 0.20003750E+02</pdfrwt>
<pdfrwt beam="2">  1       -2 0.30302297E-03 0.20003750E+02</pdfrwt>
<totfact> 0.46418862E+06</totfact>
</mgrwt>
</event>
<event>
 5    1  0.4046313E-006  0.2000030E+02  0.7818608E-02  0.1745322E+00
         -2   -1    0    0    0  501 -0.00000000000E+00  0.00000000000E+00  0.10326960936E+02  0.10326961264E+02  0.26000000000E-02 0.  1.
          2   -1    0    0  501    0  0.00000000000E+00 -0.00000000000E+00 -0.96836770166E+01  0.96836773656E+01  0.26000000000E-02 0. -1.
       1023    2    1    2    0    0  0.00000000000E+00  0.00000000000E+00  0.64328391987E+00  0.20010638629E+02  0.20000296102E+02 0.  0.
        -11    1    3    3    0    0  0.35247900170E+01  0.93582732706E+01  0.28241063538E+00  0.10004058142E+02  0.51100000000E-03 0.  1.
         11    1    3    3    0    0 -0.35247900170E+01 -0.93582732706E+01  0.36087328449E+00  0.10006580488E+02  0.51100000000E-03 0. -1.
<mgrwt>
<rscale>  0 0.20000296E+02</rscale>
<asrwt>0</asrwt>
<pdfrwt beam="2">  1        2 0.14897965E-02 0.20000296E+02</pdfrwt>
<pdfrwt beam="1">  1       -2 0.15887633E-02 0.20000296E+02</pdfrwt>
<totfact> 0.39369057E+06</totfact>
</mgrwt>
</event>
<event>
 4    1  0.4046313E-006  0.2001389E+02  0.7818608E-02  0.1745052E+00
         -2   -1    0    0    0  501 -0.00000000000E+00  0.00000000000E+00  0.82556494659E+02  0.82556494700E+02  0.26000000000E-02 0.  1.
          2   -1    0    0  501    0  0.00000000000E+00 -0.00000000000E+00 -0.12129732404E+01  0.12129760269E+01  0.26000000000E-02 0. -1.
        -11    1    1    2    0    0 -0.92256062040E+01 -0.38719750691E+01  0.39889426401E+02  0.41125057321E+02  0.51100000000E-03 0. -1.
         11    1    1    2    0    0  0.92256062040E+01  0.38719750691E+01  0.41454095018E+02  0.42644413406E+02  0.51100000000E-03 0.  1.
<mgrwt>
<rscale>  0 0.20013889E+02</rscale>
<asrwt>0</asrwt>
<pdfrwt beam="2">  1        2 0.18661146E-03 0.20013889E+02</pdfrwt>
<pdfrwt beam="1">  1       -2 0.12701001E-01 0.20013889E+02</pdfrwt>
<totfact> 0.31007114E+06</totfact>
</mgrwt>
</event>
<event>
 5    1  0.4046313E-006  0.2000442E+02  0.7818608E-02  0.1745240E+00
          2   -1    0    0  501    0  0.00000000000E+00  0.00000000000E+00  0.28960277281E+02  0.28960277398E+02  0.26000000000E-02 0.  1.
         -2   -1    0    0    0  501 -0.00000000000E+00 -0.00000000000E+00 -0.34545299687E+01  0.34545309471E+01  0.26000000000E-02 0. -1.
       1023    2    1    2    0    0  0.00000000000E+00  0.00000000000E+00  0.25505747313E+02  0.32414808345E+02  0.20004415865E+02 0.  0.
        -11    1    3    3    0    0  0.93402956366E+01 -0.35778756012E+01  0.12683237500E+02  0.16152610629E+02  0.51100000000E-03 0. -1.
         11    1    3    3    0    0 -0.93402956366E+01  0.35778756012E+01  0.12822509813E+02  0.16262197716E+02  0.51100000000E-03 0.  1.
<mgrwt>
<rscale>  0 0.20004416E+02</rscale>
<asrwt>0</asrwt>
<pdfrwt beam="1">  1        2 0.44554273E-02 0.20004416E+02</pdfrwt>
<pdfrwt beam="2">  1       -2 0.53146624E-03 0.20004416E+02</pdfrwt>
<totfact> 0.43185978E+06</totfact>
</mgrwt>
</event>
<event>
 5    1  0.4046313E-006  0.2000153E+02  0.7818608E-02  0.1745298E+00
          2   -1    0    0  501    0  0.00000000000E+00  0.00000000000E+00  0.31942395773E+02  0.31942395879E+02  0.26000000000E-02 0.  1.
         -2   -1    0    0    0  501 -0.00000000000E+00 -0.00000000000E+00 -0.31311126931E+01  0.31311137726E+01  0.26000000000E-02 0. -1.
       1023    2    1    2    0    0  0.00000000000E+00  0.00000000000E+00  0.28811283080E+02  0.35073509651E+02  0.20001526106E+02 0.  0.
        -11    1    3    3    0    0 -0.83225652430E+01 -0.55452324574E+01  0.14363918010E+02  0.17502480856E+02  0.51100000000E-03 0. -1.
         11    1    3    3    0    0  0.83225652430E+01  0.55452324574E+01  0.14447365069E+02  0.17571028796E+02  0.51100000000E-03 0.  1.
<mgrwt>
<rscale>  0 0.20001526E+02</rscale>
<asrwt>0</asrwt>
<pdfrwt beam="1">  1        2 0.49142148E-02 0.20001526E+02</pdfrwt>
<pdfrwt beam="2">  1       -2 0.48170974E-03 0.20001526E+02</pdfrwt>
<totfact> 0.43671151E+06</totfact>
</mgrwt>
</event>
<event>
 5    1  0.4046313E-006  0.2001156E+02  0.7818608E-02  0.1745098E+00
         -2   -1    0    0    0  501 -0.00000000000E+00  0.00000000000E+00  0.16656286955E+01  0.16656307248E+01  0.26000000000E-02 0. -1.
          2   -1    0    0  501    0  0.00000000000E+00 -0.00000000000E+00 -0.60106764569E+02  0.60106764626E+02  0.26000000000E-02 0.  1.
       1023    2    1    2    0    0  0.00000000000E+00  0.00000000000E+00 -0.58441135874E+02  0.61772395350E+02  0.20011558287E+02 0.  0.
        -11    1    3    3    0    0 -0.50630987729E+01 -0.86283985141E+01 -0.29767433904E+02  0.31403572274E+02  0.51100000000E-03 0. -1.
         11    1    3    3    0    0  0.50630987729E+01  0.86283985141E+01 -0.28673701970E+02  0.30368823076E+02  0.51100000000E-03 0.  1.
<mgrwt>
<rscale>  0 0.20011558E+02</rscale>
<asrwt>0</asrwt>
<pdfrwt beam="2">  1        2 0.92471930E-02 0.20011558E+02</pdfrwt>
<pdfrwt beam="1">  1       -2 0.25625078E-03 0.20011558E+02</pdfrwt>
<totfact> 0.47650875E+06</totfact>
</mgrwt>
</event>
<event>
 5    1  0.4046313E-006  0.2000017E+02  0.7818608E-02  0.1745325E+00
         -2   -1    0    0    0  501 -0.00000000000E+00  0.00000000000E+00  0.22163261070E+01  0.22163276320E+01  0.26000000000E-02 0. -1.
          2   -1    0    0  501    0  0.00000000000E+00 -0.00000000000E+00 -0.45120448163E+02  0.45120448238E+02  0.26000000000E-02 0.  1.
       1023    2    1    2    0    0  0.00000000000E+00  0.00000000000E+00 -0.42904122056E+02  0.47336775870E+02  0.20000166508E+02 0.  0.
        -11    1    3    3    0    0 -0.59483543326E+01 -0.80384899816E+01 -0.21541387042E+02  0.23749349389E+02  0.51100000000E-03 0. -1.
         11    1    3    3    0    0  0.59483543326E+01  0.80384899816E+01 -0.21362735013E+02  0.23587426480E+02  0.51100000000E-03 0.  1.
<mgrwt>
<rscale>  0 0.20000167E+02</rscale>
<asrwt>0</asrwt>
<pdfrwt beam="2">  1        2 0.69416069E-02 0.20000167E+02</pdfrwt>
<pdfrwt beam="1">  1       -2 0.34097340E-03 0.20000167E+02</pdfrwt>
<totfact> 0.45637695E+06</totfact>
</mgrwt>
</event>
<event>
 5    1  0.4046313E-006  0.2000036E+02  0.7818608E-02  0.1745321E+00
          2   -1    0    0  501    0  0.00000000000E+00  0.00000000000E+00  0.34353642978E+02  0.34353643076E+02  0.26000000000E-02 0. -1.
         -2   -1    0    0    0  501 -0.00000000000E+00 -0.00000000000E+00 -0.29110026528E+01  0.29110038139E+01  0.26000000000E-02 0.  1.
       1023    2    1    2    0    0  0.00000000000E+00  0.00000000000E+00  0.31442640325E+02  0.37264646890E+02  0.20000356928E+02 0.  0.
        -11    1    3    3    0    0 -0.38314654367E+01 -0.92369778326E+01  0.15644902280E+02  0.18567844638E+02  0.51100000000E-03 0. -1.
         11    1    3    3    0    0  0.38314654367E+01  0.92369778326E+01  0.15797738045E+02  0.18696802252E+02  0.51100000000E-03 0.  1.
<mgrwt>
<rscale>  0 0.20000357E+02</rscale>
<asrwt>0</asrwt>
<pdfrwt beam="1">  1        2 0.52851757E-02 0.20000357E+02</pdfrwt>
<pdfrwt beam="2">  1       -2 0.44784668E-03 0.20000357E+02</pdfrwt>
<totfact> 0.44048807E+06</totfact>
</mgrwt>
</event>
<event>
 5    1  0.4092885E-006  0.2000121E+02  0.7818608E-02  0.1745304E+00
          2   -1    0    0  501    0  0.00000000000E+00  0.00000000000E+00  0.22015586850E+02  0.22015587003E+02  0.26000000000E-02 0.  1.
         -2   -1    0    0    0  501 -0.00000000000E+00 -0.00000000000E+00 -0.45427870602E+01  0.45427878043E+01  0.26000000000E-02 0. -1.
       1023    2    1    2    0    0  0.00000000000E+00  0.00000000000E+00  0.17472799789E+02  0.26558374807E+02  0.20001213461E+02 0.  0.
        -11    1    3    3    0    0 -0.75303344614E+01  0.65806671271E+01  0.86940382391E+01  0.13251317599E+02  0.51100000000E-03 0.  1.
         11    1    3    3    0    0  0.75303344614E+01 -0.65806671271E+01  0.87787615503E+01  0.13307057209E+02  0.51100000000E-03 0. -1.
<mgrwt>
<rscale>  0 0.20001213E+02</rscale>
<asrwt>0</asrwt>
<pdfrwt beam="1">  1        2 0.33870134E-02 0.20001213E+02</pdfrwt>
<pdfrwt beam="2">  1       -2 0.69889040E-03 0.20001213E+02</pdfrwt>
<totfact> 0.42035940E+06</totfact>
</mgrwt>
</event>
<event>
 5    1  0.4046313E-006  0.2000075E+02  0.7818608E-02  0.1745313E+00
         -2   -1    0    0    0  501 -0.00000000000E+00  0.00000000000E+00  0.19074919760E+01  0.19074937480E+01  0.26000000000E-02 0.  1.
          2   -1    0    0  501    0  0.00000000000E+00 -0.00000000000E+00 -0.52428777656E+02  0.52428777720E+02  0.26000000000E-02 0. -1.
       1023    2    1    2    0    0  0.00000000000E+00  0.00000000000E+00 -0.50521285680E+02  0.54336271468E+02  0.20000752244E+02 0.  0.
        -11    1    3    3    0    0 -0.24862790262E+01  0.96861610529E+01 -0.25437186937E+02  0.27332284553E+02  0.51100000000E-03 0. -1.
         11    1    3    3    0    0  0.24862790262E+01 -0.96861610529E+01 -0.25084098742E+02  0.27003986915E+02  0.51100000000E-03 0.  1.
<mgrwt>
<rscale>  0 0.20000752E+02</rscale>
<asrwt>0</asrwt>
<pdfrwt beam="2">  1        2 0.80659649E-02 0.20000752E+02</pdfrwt>
<pdfrwt beam="1">  1       -2 0.29346048E-03 0.20000752E+02</pdfrwt>
<totfact> 0.46661828E+06</totfact>
</mgrwt>
</event>
<event>
 4    1  0.4046313E-006  0.2001309E+02  0.7818608E-02  0.1745068E+00
         -2   -1    0    0    0  501 -0.00000000000E+00  0.00000000000E+00  0.17719482298E+02  0.17719482489E+02  0.26000000000E-02 0.  1.
          2   -1    0    0  501    0  0.00000000000E+00 -0.00000000000E+00 -0.56508953306E+01  0.56508959287E+01  0.26000000000E-02 0. -1.
        -11    1    1    2    0    0 -0.87824082902E+01  0.47824581047E+01  0.56159376250E+01  0.11469148031E+02  0.51100000000E-03 0. -1.
         11    1    1    2    0    0  0.87824082902E+01 -0.47824581047E+01  0.64526493423E+01  0.11901230386E+02  0.51100000000E-03 0.  1.
<mgrwt>
<rscale>  0 0.20013091E+02</rscale>
<asrwt>0</asrwt>
<pdfrwt beam="2">  1        2 0.86936858E-03 0.20013091E+02</pdfrwt>
<pdfrwt beam="1">  1       -2 0.27260742E-02 0.20013091E+02</pdfrwt>
<totfact> 0.37751375E+06</totfact>
</mgrwt>
</event>
<event>
 5    1  0.4525675E-006  0.2000213E+02  0.7818608E-02  0.1745286E+00
          2   -1    0    0  501    0  0.00000000000E+00  0.00000000000E+00  0.10807127808E+03  0.10807127811E+03  0.26000000000E-02 0. -1.
         -2   -1    0    0    0  501 -0.00000000000E+00 -0.00000000000E+00 -0.92551033167E+00  0.92551398371E+00  0.26000000000E-02 0.  1.
       1023    2    1    2    0    0  0.00000000000E+00  0.00000000000E+00  0.10714576775E+03  0.10899679210E+03  0.20002128402E+02 0.  0.
        -11    1    3    3    0    0 -0.84938912132E+01  0.52790010840E+01  0.54036695818E+02  0.54954331363E+02  0.51100000000E-03 0. -1.
         11    1    3    3    0    0  0.84938912132E+01 -0.52790010840E+01  0.53109071931E+02  0.54042460733E+02  0.51100000000E-03 0.  1.
<mgrwt>
<rscale>  0 0.20002128E+02</rscale>
<asrwt>0</asrwt>
<pdfrwt beam="1">  1        2 0.16626351E-01 0.20002128E+02</pdfrwt>
<pdfrwt beam="2">  1       -2 0.14238648E-03 0.20002128E+02</pdfrwt>
<totfact> 0.53701456E+06</totfact>
</mgrwt>
</event>
<event>
 5    1  0.4046313E-006  0.2000557E+02  0.7818608E-02  0.1745217E+00
          2   -1    0    0  501    0  0.00000000000E+00  0.00000000000E+00  0.58109013038E+02  0.58109013097E+02  0.26000000000E-02 0.  1.
         -2   -1    0    0    0  501 -0.00000000000E+00 -0.00000000000E+00 -0.17218613864E+01  0.17218633494E+01  0.26000000000E-02 0. -1.
       1023    2    1    2    0    0  0.00000000000E+00  0.00000000000E+00  0.56387151652E+02  0.59830876446E+02  0.20005571845E+02 0.  0.
        -11    1    3    3    0    0  0.94818791250E+01 -0.31857536247E+01  0.28270876053E+02  0.29988289230E+02  0.51100000000E-03 0. -1.
         11    1    3    3    0    0 -0.94818791250E+01  0.31857536247E+01  0.28116275599E+02  0.29842587216E+02  0.51100000000E-03 0.  1.
<mgrwt>
<rscale>  0 0.20005572E+02</rscale>
<asrwt>0</asrwt>
<pdfrwt beam="1">  1        2 0.89398465E-02 0.20005572E+02</pdfrwt>
<pdfrwt beam="2">  1       -2 0.26490196E-03 0.20005572E+02</pdfrwt>
<totfact> 0.47413150E+06</totfact>
</mgrwt>
</event>
<event>
 5    1  0.4046313E-006  0.2000117E+02  0.7818608E-02  0.1745305E+00
          2   -1    0    0  501    0  0.00000000000E+00  0.00000000000E+00  0.20191059163E+02  0.20191059330E+02  0.26000000000E-02 0.  1.
         -2   -1    0    0    0  501 -0.00000000000E+00 -0.00000000000E+00 -0.49532680919E+01  0.49532687743E+01  0.26000000000E-02 0. -1.
       1023    2    1    2    0    0  0.00000000000E+00  0.00000000000E+00  0.15237791071E+02  0.25144328105E+02  0.20001173943E+02 0.  0.
        -11    1    3    3    0    0 -0.86118073367E+01 -0.50840268057E+01  0.75756134583E+01  0.12545934549E+02  0.51100000000E-03 0. -1.
         11    1    3    3    0    0  0.86118073367E+01  0.50840268057E+01  0.76621776128E+01  0.12598393556E+02  0.51100000000E-03 0.  1.
<mgrwt>
<rscale>  0 0.20001174E+02</rscale>
<asrwt>0</asrwt>
<pdfrwt beam="1">  1        2 0.31063168E-02 0.20001174E+02</pdfrwt>
<pdfrwt beam="2">  1       -2 0.76204133E-03 0.20001174E+02</pdfrwt>
<totfact> 0.41707602E+06</totfact>
</mgrwt>
</event>
<event>
 5    1  0.4046313E-006  0.2000029E+02  0.7818608E-02  0.1745322E+00
          2   -1    0    0  501    0  0.00000000000E+00  0.00000000000E+00  0.32601582885E+01  0.32601593253E+01  0.26000000000E-02 0.  1.
         -2   -1    0    0    0  501 -0.00000000000E+00 -0.00000000000E+00 -0.30674239415E+02  0.30674239525E+02  0.26000000000E-02 0. -1.
       1023    2    1    2    0    0  0.00000000000E+00  0.00000000000E+00 -0.27414081126E+02  0.33934398850E+02  0.20000289531E+02 0.  0.
        -11    1    3    3    0    0  0.28476107679E+01 -0.95861266672E+01 -0.13684056313E+02  0.16948631479E+02  0.51100000000E-03 0. -1.
         11    1    3    3    0    0 -0.28476107679E+01  0.95861266672E+01 -0.13730024814E+02  0.16985767372E+02  0.51100000000E-03 0.  1.
<mgrwt>
<rscale>  0 0.20000290E+02</rscale>
<asrwt>0</asrwt>
<pdfrwt beam="1">  1        2 0.50156292E-03 0.20000290E+02</pdfrwt>
<pdfrwt beam="2">  1       -2 0.47191136E-02 0.20000290E+02</pdfrwt>
<totfact> 0.35980730E+06</totfact>
</mgrwt>
</event>
<event>
 5    1  0.4046313E-006  0.2000388E+02  0.7818608E-02  0.1745251E+00
          2   -1    0    0  501    0  0.00000000000E+00  0.00000000000E+00  0.10639189554E+01  0.10639221323E+01  0.26000000000E-02 0. -1.
         -2   -1    0    0    0  501 -0.00000000000E+00 -0.00000000000E+00 -0.94028493262E+02  0.94028493298E+02  0.26000000000E-02 0.  1.
       1023    2    1    2    0    0  0.00000000000E+00  0.00000000000E+00 -0.92964574307E+02  0.95092415431E+02  0.20003884532E+02 0.  0.
        -11    1    3    3    0    0 -0.58390116369E+01 -0.81195037813E+01 -0.45836583879E+02  0.46914953059E+02  0.51100000000E-03 0. -1.
         11    1    3    3    0    0  0.58390116369E+01  0.81195037813E+01 -0.47127990428E+02  0.48177462371E+02  0.51100000000E-03 0.  1.
<mgrwt>
<rscale>  0 0.20003885E+02</rscale>
<asrwt>0</asrwt>
<pdfrwt beam="1">  1        2 0.16368016E-03 0.20003885E+02</pdfrwt>
<pdfrwt beam="2">  1       -2 0.14465916E-01 0.20003885E+02</pdfrwt>
<totfact> 0.30158162E+06</totfact>
</mgrwt>
</event>
<event>
 5    1  0.4046313E-006  0.2000028E+02  0.7818608E-02  0.1745322E+00
          2   -1    0    0  501    0  0.00000000000E+00  0.00000000000E+00  0.18155543958E+01  0.18155562575E+01  0.26000000000E-02 0.  1.
         -2   -1    0    0    0  501 -0.00000000000E+00 -0.00000000000E+00 -0.55081111193E+02  0.55081111254E+02  0.26000000000E-02 0. -1.
       1023    2    1    2    0    0  0.00000000000E+00  0.00000000000E+00 -0.53265556797E+02  0.56896667512E+02  0.20000280824E+02 0.  0.
        -11    1    3    3    0    0  0.85824121437E+01 -0.51326189562E+01 -0.26532908578E+02  0.28354837567E+02  0.51100000000E-03 0.  1.
         11    1    3    3    0    0 -0.85824121437E+01  0.51326189562E+01 -0.26732648219E+02  0.28541829945E+02  0.51100000000E-03 0. -1.
<mgrwt>
<rscale>  0 0.20000281E+02</rscale>
<asrwt>0</asrwt>
<pdfrwt beam="1">  1        2 0.27931625E-03 0.20000281E+02</pdfrwt>
<pdfrwt beam="2">  1       -2 0.84740160E-02 0.20000281E+02</pdfrwt>
<totfact> 0.33412003E+06</totfact>
</mgrwt>
</event>
<event>
 4    1  0.5254796E-006  0.2253531E+02  0.7818608E-02  0.1699155E+00
         -2   -1    0    0    0  501 -0.00000000000E+00  0.00000000000E+00  0.13573469194E+01  0.13573494096E+01  0.26000000000E-02 0.  1.
          2   -1    0    0  501    0  0.00000000000E+00 -0.00000000000E+00 -0.93535341130E+02  0.93535341167E+02  0.26000000000E-02 0. -1.
        -11    1    1    2    0    0  0.11129334097E+02 -0.45828263066E-01 -0.53497989558E+02  0.54643380795E+02  0.51100000000E-03 0. -1.
         11    1    1    2    0    0 -0.11129334097E+02  0.45828263066E-01 -0.38680004653E+02  0.40249309781E+02  0.51100000000E-03 0.  1.
<mgrwt>
<rscale>  0 0.22535308E+02</rscale>
<asrwt>0</asrwt>
<pdfrwt beam="2">  1        2 0.14390048E-01 0.22535308E+02</pdfrwt>
<pdfrwt beam="1">  1       -2 0.20882287E-03 0.22535308E+02</pdfrwt>
<totfact> 0.39820610E+06</totfact>
</mgrwt>
</event>
<event>
 5    1  0.4046313E-006  0.2000193E+02  0.7818608E-02  0.1745290E+00
          2   -1    0    0  501    0  0.00000000000E+00  0.00000000000E+00  0.20811532877E+01  0.20811549118E+01  0.26000000000E-02 0. -1.
         -2   -1    0    0    0  501 -0.00000000000E+00 -0.00000000000E+00 -0.48059517979E+02  0.48059518049E+02  0.26000000000E-02 0.  1.
       1023    2    1    2    0    0  0.00000000000E+00  0.00000000000E+00 -0.45978364691E+02  0.50140672961E+02  0.20001926540E+02 0.  0.
        -11    1    3    3    0    0  0.65233637803E+01  0.75804973299E+01 -0.22907903230E+02  0.24995804556E+02  0.51100000000E-03 0.  1.
         11    1    3    3    0    0 -0.65233637803E+01 -0.75804973299E+01 -0.23070461462E+02  0.25144868405E+02  0.51100000000E-03 0. -1.
<mgrwt>
<rscale>  0 0.20001927E+02</rscale>
<asrwt>0</asrwt>
<pdfrwt beam="1">  1        2 0.32017760E-03 0.20001927E+02</pdfrwt>
<pdfrwt beam="2">  1       -2 0.73937713E-02 0.20001927E+02</pdfrwt>
<totfact> 0.34082398E+06</totfact>
</mgrwt>
</event>
<event>
 4    1  0.4046313E-006  0.2001415E+02  0.7818608E-02  0.1745047E+00
         -2   -1    0    0    0  501 -0.00000000000E+00  0.00000000000E+00  0.16167353600E+01  0.16167374507E+01  0.26000000000E-02 0.  1.
          2   -1    0    0  501    0  0.00000000000E+00 -0.00000000000E+00 -0.61940534979E+02  0.61940535033E+02  0.26000000000E-02 0. -1.
        -11    1    1    2    0    0  0.93014262810E+01 -0.36807497293E+01 -0.31043507462E+02  0.32615392152E+02  0.51100000000E-03 0.  1.
         11    1    1    2    0    0 -0.93014262810E+01  0.36807497293E+01 -0.29280292157E+02  0.30941880332E+02  0.51100000000E-03 0. -1.
<mgrwt>
<rscale>  0 0.20014147E+02</rscale>
<asrwt>0</asrwt>
<pdfrwt beam="2">  1        2 0.95293114E-02 0.20014147E+02</pdfrwt>
<pdfrwt beam="1">  1       -2 0.24872873E-03 0.20014147E+02</pdfrwt>
<totfact> 0.47882568E+06</totfact>
</mgrwt>
</event>
<event>
 5    1  0.4046313E-006  0.2000158E+02  0.7818608E-02  0.1745297E+00
          2   -1    0    0  501    0  0.00000000000E+00  0.00000000000E+00  0.15990720164E+02  0.15990720375E+02  0.26000000000E-02 0. -1.
         -2   -1    0    0    0  501 -0.00000000000E+00 -0.00000000000E+00 -0.62546153790E+01  0.62546159194E+01  0.26000000000E-02 0.  1.
       1023    2    1    2    0    0  0.00000000000E+00  0.00000000000E+00  0.97361047847E+01  0.22245336294E+02  0.20001581199E+02 0.  0.
        -11    1    3    3    0    0 -0.66522596162E+01 -0.74674377594E+01  0.48959161034E+01  0.11134863243E+02  0.51100000000E-03 0. -1.
         11    1    3    3    0    0  0.66522596162E+01  0.74674377594E+01  0.48401886813E+01  0.11110473051E+02  0.51100000000E-03 0.  1.
<mgrwt>
<rscale>  0 0.20001581E+02</rscale>
<asrwt>0</asrwt>
<pdfrwt beam="1">  1        2 0.24601108E-02 0.20001581E+02</pdfrwt>
<pdfrwt beam="2">  1       -2 0.96224859E-03 0.20001581E+02</pdfrwt>
<totfact> 0.40890816E+06</totfact>
</mgrwt>
</event>
<event>
 5    1  0.4046313E-006  0.2000036E+02  0.7818608E-02  0.1745321E+00
         -2   -1    0    0    0  501 -0.00000000000E+00  0.00000000000E+00  0.14252048716E+01  0.14252072432E+01  0.26000000000E-02 0.  1.
          2   -1    0    0  501    0  0.00000000000E+00 -0.00000000000E+00 -0.70167835645E+02  0.70167835693E+02  0.26000000000E-02 0. -1.
       1023    2    1    2    0    0  0.00000000000E+00  0.00000000000E+00 -0.68742630774E+02  0.71593042937E+02  0.20000362778E+02 0.  0.
        -11    1    3    3    0    0  0.78162105770E+01  0.62376087759E+01 -0.34184746177E+02  0.35617380343E+02  0.51100000000E-03 0.  1.
         11    1    3    3    0    0 -0.78162105770E+01 -0.62376087759E+01 -0.34557884596E+02  0.35975662594E+02  0.51100000000E-03 0. -1.
<mgrwt>
<rscale>  0 0.20000363E+02</rscale>
<asrwt>0</asrwt>
<pdfrwt beam="2">  1        2 0.10795049E-01 0.20000363E+02</pdfrwt>
<pdfrwt beam="1">  1       -2 0.21926253E-03 0.20000363E+02</pdfrwt>
<totfact> 0.49039665E+06</totfact>
</mgrwt>
</event>
<event>
 5    1  0.4046313E-006  0.2000827E+02  0.7818608E-02  0.1745164E+00
         -2   -1    0    0    0  501 -0.00000000000E+00  0.00000000000E+00  0.41246612155E+02  0.41246612237E+02  0.26000000000E-02 0.  1.
          2   -1    0    0  501    0  0.00000000000E+00 -0.00000000000E+00 -0.24264457415E+01  0.24264471345E+01  0.26000000000E-02 0. -1.
       1023    2    1    2    0    0  0.00000000000E+00  0.00000000000E+00  0.38820166414E+02  0.43673059372E+02  0.20008268153E+02 0.  0.
        -11    1    3    3    0    0  0.24276674331E+01 -0.97044337182E+01  0.19160299804E+02  0.21614501886E+02  0.51100000000E-03 0.  1.
         11    1    3    3    0    0 -0.24276674331E+01  0.97044337182E+01  0.19659866610E+02  0.22058557485E+02  0.51100000000E-03 0. -1.
<mgrwt>
<rscale>  0 0.20008268E+02</rscale>
<asrwt>0</asrwt>
<pdfrwt beam="2">  1        2 0.37329949E-03 0.20008268E+02</pdfrwt>
<pdfrwt beam="1">  1       -2 0.63456323E-02 0.20008268E+02</pdfrwt>
<totfact> 0.34756133E+06</totfact>
</mgrwt>
</event>
<event>
 5    1  0.4046313E-006  0.2000477E+02  0.7818608E-02  0.1745233E+00
         -2   -1    0    0    0  501 -0.00000000000E+00  0.00000000000E+00  0.21712979341E+01  0.21712994907E+01  0.26000000000E-02 0. -1.
          2   -1    0    0  501    0  0.00000000000E+00 -0.00000000000E+00 -0.46077346241E+02  0.46077346314E+02  0.26000000000E-02 0.  1.
       1023    2    1    2    0    0  0.00000000000E+00  0.00000000000E+00 -0.43906048307E+02  0.48248645805E+02  0.20004768034E+02 0.  0.
        -11    1    3    3    0    0  0.40641633723E+01 -0.91372428928E+01 -0.21464337790E+02  0.23679620534E+02  0.51100000000E-03 0. -1.
         11    1    3    3    0    0 -0.40641633723E+01  0.91372428928E+01 -0.22441710517E+02  0.24569025271E+02  0.51100000000E-03 0.  1.
<mgrwt>
<rscale>  0 0.20004768E+02</rscale>
<asrwt>0</asrwt>
<pdfrwt beam="2">  1        2 0.70888219E-02 0.20004768E+02</pdfrwt>
<pdfrwt beam="1">  1       -2 0.33404600E-03 0.20004768E+02</pdfrwt>
<totfact> 0.45750714E+06</totfact>
</mgrwt>
</event>
<event>
 5    1  0.4046313E-006  0.2000367E+02  0.7818608E-02  0.1745255E+00
         -2   -1    0    0    0  501 -0.00000000000E+00  0.00000000000E+00  0.71645410632E+01  0.71645415349E+01  0.26000000000E-02 0. -1.
          2   -1    0    0  501    0  0.00000000000E+00 -0.00000000000E+00 -0.13962754339E+02  0.13962754581E+02  0.26000000000E-02 0.  1.
       1023    2    1    2    0    0  0.00000000000E+00  0.00000000000E+00 -0.67982132754E+01  0.21127296116E+02  0.20003673098E+02 0.  0.
        -11    1    3    3    0    0  0.16533177277E+01  0.98636754236E+01 -0.32874232694E+01  0.10527711260E+02  0.51100000000E-03 0. -1.
         11    1    3    3    0    0 -0.16533177277E+01 -0.98636754236E+01 -0.35107900060E+01  0.10599584855E+02  0.51100000000E-03 0.  1.
<mgrwt>
<rscale>  0 0.20003673E+02</rscale>
<asrwt>0</asrwt>
<pdfrwt beam="2">  1        2 0.21481161E-02 0.20003673E+02</pdfrwt>
<pdfrwt beam="1">  1       -2 0.11022371E-02 0.20003673E+02</pdfrwt>
<totfact> 0.40445306E+06</totfact>
</mgrwt>
</event>
<event>
 5    1  0.4046313E-006  0.2000189E+02  0.7818608E-02  0.1745291E+00
          2   -1    0    0  501    0  0.00000000000E+00  0.00000000000E+00  0.28107559934E+01  0.28107571959E+01  0.26000000000E-02 0. -1.
         -2   -1    0    0    0  501 -0.00000000000E+00 -0.00000000000E+00 -0.35584320206E+02  0.35584320300E+02  0.26000000000E-02 0.  1.
       1023    2    1    2    0    0  0.00000000000E+00  0.00000000000E+00 -0.32773564212E+02  0.38395077496E+02  0.20001886531E+02 0.  0.
        -11    1    3    3    0    0 -0.40066372777E+01  0.91624059109E+01 -0.16629906326E+02  0.19405066582E+02  0.51100000000E-03 0. -1.
         11    1    3    3    0    0  0.40066372777E+01 -0.91624059109E+01 -0.16143657886E+02  0.18990010915E+02  0.51100000000E-03 0.  1.
<mgrwt>
<rscale>  0 0.20001887E+02</rscale>
<asrwt>0</asrwt>
<pdfrwt beam="1">  1        2 0.43242413E-03 0.20001887E+02</pdfrwt>
<pdfrwt beam="2">  1       -2 0.54745106E-02 0.20001887E+02</pdfrwt>
<totfact> 0.35399282E+06</totfact>
</mgrwt>
</event>
<event>
 5    1  0.4046313E-006  0.2000109E+02  0.7818608E-02  0.1745306E+00
         -2   -1    0    0    0  501 -0.00000000000E+00  0.00000000000E+00  0.10511061690E+02  0.10511062012E+02  0.26000000000E-02 0. -1.
          2   -1    0    0  501    0  0.00000000000E+00 -0.00000000000E+00 -0.95148260329E+01  0.95148263882E+01  0.26000000000E-02 0.  1.
       1023    2    1    2    0    0  0.00000000000E+00  0.00000000000E+00  0.99623565725E+00  0.20025888400E+02  0.20001092988E+02 0.  0.
        -11    1    3    3    0    0 -0.36828500311E+01  0.92976990107E+01  0.51654376493E+00  0.10013860842E+02  0.51100000000E-03 0.  1.
         11    1    3    3    0    0  0.36828500311E+01 -0.92976990107E+01  0.47969189232E+00  0.10012027558E+02  0.51100000000E-03 0. -1.
<mgrwt>
<rscale>  0 0.20001093E+02</rscale>
<asrwt>0</asrwt>
<pdfrwt beam="2">  1        2 0.14638194E-02 0.20001093E+02</pdfrwt>
<pdfrwt beam="1">  1       -2 0.16170865E-02 0.20001093E+02</pdfrwt>
<totfact> 0.39314845E+06</totfact>
</mgrwt>
</event>
<event>
 5    1  0.4046313E-006  0.2000212E+02  0.7818608E-02  0.1745286E+00
          2   -1    0    0  501    0  0.00000000000E+00  0.00000000000E+00  0.40263767177E+01  0.40263775572E+01  0.26000000000E-02 0.  1.
         -2   -1    0    0    0  501 -0.00000000000E+00 -0.00000000000E+00 -0.24841495076E+02  0.24841495212E+02  0.26000000000E-02 0. -1.
       1023    2    1    2    0    0  0.00000000000E+00  0.00000000000E+00 -0.20815118359E+02  0.28867872770E+02  0.20002123036E+02 0.  0.
        -11    1    3    3    0    0 -0.78449101413E+01  0.62028245869E+01 -0.10493951893E+02  0.14496229668E+02  0.51100000000E-03 0.  1.
         11    1    3    3    0    0  0.78449101413E+01 -0.62028245869E+01 -0.10321166465E+02  0.14371643102E+02  0.51100000000E-03 0. -1.
<mgrwt>
<rscale>  0 0.20002123E+02</rscale>
<asrwt>0</asrwt>
<pdfrwt beam="1">  1        2 0.61944266E-03 0.20002123E+02</pdfrwt>
<pdfrwt beam="2">  1       -2 0.38217685E-02 0.20002123E+02</pdfrwt>
<totfact> 0.36722014E+06</totfact>
</mgrwt>
</event>
<event>
 4    1  0.4046313E-006  0.2001412E+02  0.7818608E-02  0.1745047E+00
         -2   -1    0    0    0  501 -0.00000000000E+00  0.00000000000E+00  0.15011887039E+01  0.15011909554E+01  0.26000000000E-02 0.  1.
          2   -1    0    0  501    0  0.00000000000E+00 -0.00000000000E+00 -0.66707910608E+02  0.66707910658E+02  0.26000000000E-02 0. -1.
        -11    1    1    2    0    0  0.21646504867E+01 -0.97673487374E+01 -0.31808276668E+02  0.33344463977E+02  0.51100000000E-03 0.  1.
         11    1    1    2    0    0 -0.21646504867E+01  0.97673487374E+01 -0.33398445236E+02  0.34864637636E+02  0.51100000000E-03 0. -1.
<mgrwt>
<rscale>  0 0.20014119E+02</rscale>
<asrwt>0</asrwt>
<pdfrwt beam="2">  1        2 0.10262753E-01 0.20014119E+02</pdfrwt>
<pdfrwt beam="1">  1       -2 0.23095234E-03 0.20014119E+02</pdfrwt>
<totfact> 0.48513431E+06</totfact>
</mgrwt>
</event>
<event>
 5    1  0.4046313E-006  0.2000140E+02  0.7818608E-02  0.1745300E+00
         -2   -1    0    0    0  501 -0.00000000000E+00  0.00000000000E+00  0.26188885997E+02  0.26188886126E+02  0.26000000000E-02 0. -1.
          2   -1    0    0  501    0  0.00000000000E+00 -0.00000000000E+00 -0.38189478787E+01  0.38189487638E+01  0.26000000000E-02 0.  1.
       1023    2    1    2    0    0  0.00000000000E+00  0.00000000000E+00  0.22369938118E+02  0.30007834890E+02  0.20001400535E+02 0.  0.
        -11    1    3    3    0    0 -0.31408141370E+01 -0.94940971593E+01  0.11024703155E+02  0.14884444035E+02  0.51100000000E-03 0. -1.
         11    1    3    3    0    0  0.31408141370E+01  0.94940971593E+01  0.11345234963E+02  0.15123390855E+02  0.51100000000E-03 0.  1.
<mgrwt>
<rscale>  0 0.20001401E+02</rscale>
<asrwt>0</asrwt>
<pdfrwt beam="2">  1        2 0.58753054E-03 0.20001401E+02</pdfrwt>
<pdfrwt beam="1">  1       -2 0.40290594E-02 0.20001401E+02</pdfrwt>
<totfact> 0.36544222E+06</totfact>
</mgrwt>
</event>
<event>
 5    1  0.4046313E-006  0.2000246E+02  0.7818608E-02  0.1745279E+00
          2   -1    0    0  501    0  0.00000000000E+00  0.00000000000E+00  0.22460853916E+01  0.22460868964E+01  0.26000000000E-02 0.  1.
         -2   -1    0    0    0  501 -0.00000000000E+00 -0.00000000000E+00 -0.44532840706E+02  0.44532840782E+02  0.26000000000E-02 0. -1.
       1023    2    1    2    0    0  0.00000000000E+00  0.00000000000E+00 -0.42286755315E+02  0.46778927679E+02  0.20002459842E+02 0.  0.
        -11    1    3    3    0    0 -0.17559063623E+01  0.98456733132E+01 -0.21293298731E+02  0.23524988018E+02  0.51100000000E-03 0.  1.
         11    1    3    3    0    0  0.17559063623E+01 -0.98456733132E+01 -0.20993456584E+02  0.23253939660E+02  0.51100000000E-03 0. -1.
<mgrwt>
<rscale>  0 0.20002460E+02</rscale>
<asrwt>0</asrwt>
<pdfrwt beam="1">  1        2 0.34555175E-03 0.20002460E+02</pdfrwt>
<pdfrwt beam="2">  1       -2 0.68512057E-02 0.20002460E+02</pdfrwt>
<totfact> 0.34435859E+06</totfact>
</mgrwt>
</event>
<event>
 5    1  0.4046313E-006  0.2000014E+02  0.7818608E-02  0.1745325E+00
         -2   -1    0    0    0  501 -0.00000000000E+00  0.00000000000E+00  0.18595079831E+01  0.18595098008E+01  0.26000000000E-02 0. -1.
          2   -1    0    0  501    0  0.00000000000E+00 -0.00000000000E+00 -0.53778365637E+02  0.53778365700E+02  0.26000000000E-02 0.  1.
       1023    2    1    2    0    0  0.00000000000E+00  0.00000000000E+00 -0.51918857654E+02  0.55637875500E+02  0.20000135253E+02 0.  0.
        -11    1    3    3    0    0 -0.31538437342E+01  0.94896576576E+01 -0.26048253702E+02  0.27901825279E+02  0.51100000000E-03 0. -1.
         11    1    3    3    0    0  0.31538437342E+01 -0.94896576576E+01 -0.25870603952E+02  0.27736050221E+02  0.51100000000E-03 0.  1.
<mgrwt>
<rscale>  0 0.20000135E+02</rscale>
<asrwt>0</asrwt>
<pdfrwt beam="2">  1        2 0.82735937E-02 0.20000135E+02</pdfrwt>
<pdfrwt beam="1">  1       -2 0.28607834E-03 0.20000135E+02</pdfrwt>
<totfact> 0.46851158E+06</totfact>
</mgrwt>
</event>
<event>
 5    1  0.4046313E-006  0.2000091E+02  0.7818608E-02  0.1745310E+00
          2   -1    0    0  501    0  0.00000000000E+00  0.00000000000E+00  0.13340911890E+01  0.13340937225E+01  0.26000000000E-02 0.  1.
         -2   -1    0    0    0  501 -0.00000000000E+00 -0.00000000000E+00 -0.74964164808E+02  0.74964164853E+02  0.26000000000E-02 0. -1.
       1023    2    1    2    0    0  0.00000000000E+00  0.00000000000E+00 -0.73630073619E+02  0.76298258576E+02  0.20000912992E+02 0.  0.
        -11    1    3    3    0    0 -0.33537466987E+01  0.94213031983E+01 -0.36724844392E+02  0.38062090940E+02  0.51100000000E-03 0. -1.
         11    1    3    3    0    0  0.33537466987E+01 -0.94213031983E+01 -0.36905229228E+02  0.38236167636E+02  0.51100000000E-03 0.  1.
<mgrwt>
<rscale>  0 0.20000913E+02</rscale>
<asrwt>0</asrwt>
<pdfrwt beam="1">  1        2 0.20524506E-03 0.20000913E+02</pdfrwt>
<pdfrwt beam="2">  1       -2 0.11532945E-01 0.20000913E+02</pdfrwt>
<totfact> 0.31664429E+06</totfact>
</mgrwt>
</event>
<event>
 5    1  0.4046313E-006  0.2000170E+02  0.7818608E-02  0.1745294E+00
          2   -1    0    0  501    0  0.00000000000E+00  0.00000000000E+00  0.15428680976E+01  0.15428702884E+01  0.26000000000E-02 0.  1.
         -2   -1    0    0    0  501 -0.00000000000E+00 -0.00000000000E+00 -0.64825337452E+02  0.64825337504E+02  0.26000000000E-02 0. -1.
       1023    2    1    2    0    0  0.00000000000E+00  0.00000000000E+00 -0.63282469354E+02  0.66368207792E+02  0.20001701878E+02 0.  0.
        -11    1    3    3    0    0  0.69795742425E+01 -0.71625330348E+01 -0.31727961535E+02  0.33266798456E+02  0.51100000000E-03 0. -1.
         11    1    3    3    0    0 -0.69795742425E+01  0.71625330348E+01 -0.31554507819E+02  0.33101409336E+02  0.51100000000E-03 0.  1.
<mgrwt>
<rscale>  0 0.20001702E+02</rscale>
<asrwt>0</asrwt>
<pdfrwt beam="1">  1        2 0.23736455E-03 0.20001702E+02</pdfrwt>
<pdfrwt beam="2">  1       -2 0.99731269E-02 0.20001702E+02</pdfrwt>
<totfact> 0.32523776E+06</totfact>
</mgrwt>
</event>
<event>
 5    1  0.4046313E-006  0.2000015E+02  0.7818608E-02  0.1745325E+00
         -2   -1    0    0    0  501 -0.00000000000E+00  0.00000000000E+00  0.66229016197E+02  0.66229016248E+02  0.26000000000E-02 0.  1.
          2   -1    0    0  501    0  0.00000000000E+00 -0.00000000000E+00 -0.15099337255E+01  0.15099359640E+01  0.26000000000E-02 0. -1.
       1023    2    1    2    0    0  0.00000000000E+00  0.00000000000E+00  0.64719082471E+02  0.67738952212E+02  0.20000150270E+02 0.  0.
        -11    1    3    3    0    0  0.82419553497E+01 -0.56631693008E+01  0.32405972143E+02  0.33913837078E+02  0.51100000000E-03 0. -1.
         11    1    3    3    0    0 -0.82419553497E+01  0.56631693008E+01  0.32313110328E+02  0.33825115134E+02  0.51100000000E-03 0.  1.
<mgrwt>
<rscale>  0 0.20000150E+02</rscale>
<asrwt>0</asrwt>
<pdfrwt beam="2">  1        2 0.23229771E-03 0.20000150E+02</pdfrwt>
<pdfrwt beam="1">  1       -2 0.10189078E-01 0.20000150E+02</pdfrwt>
<totfact> 0.32406704E+06</totfact>
</mgrwt>
</event>
<event>
 5    1  0.4046313E-006  0.2000249E+02  0.7818608E-02  0.1745279E+00
          2   -1    0    0  501    0  0.00000000000E+00  0.00000000000E+00  0.20285753023E+02  0.20285753190E+02  0.26000000000E-02 0. -1.
         -2   -1    0    0    0  501 -0.00000000000E+00 -0.00000000000E+00 -0.49307936700E+01  0.49307943555E+01  0.26000000000E-02 0.  1.
       1023    2    1    2    0    0  0.00000000000E+00  0.00000000000E+00  0.15354959353E+02  0.25216547546E+02  0.20002487180E+02 0.  0.
        -11    1    3    3    0    0  0.47858009214E+01 -0.87811539236E+01  0.78173993045E+01  0.12693474183E+02  0.51100000000E-03 0.  1.
         11    1    3    3    0    0 -0.47858009214E+01  0.87811539236E+01  0.75375600489E+01  0.12523073362E+02  0.51100000000E-03 0. -1.
<mgrwt>
<rscale>  0 0.20002487E+02</rscale>
<asrwt>0</asrwt>
<pdfrwt beam="1">  1        2 0.31208852E-02 0.20002487E+02</pdfrwt>
<pdfrwt beam="2">  1       -2 0.75858369E-03 0.20002487E+02</pdfrwt>
<totfact> 0.41718785E+06</totfact>
</mgrwt>
</event>
<event>
 5    1  0.4046313E-006  0.2000010E+02  0.7818608E-02  0.1745326E+00
          2   -1    0    0  501    0  0.00000000000E+00  0.00000000000E+00  0.16586683562E+01  0.16586703939E+01  0.26000000000E-02 0. -1.
         -2   -1    0    0    0  501 -0.00000000000E+00 -0.00000000000E+00 -0.60289920901E+02  0.60289920957E+02  0.26000000000E-02 0.  1.
       1023    2    1    2    0    0  0.00000000000E+00  0.00000000000E+00 -0.58631252545E+02  0.61948591351E+02  0.20000104885E+02 0.  0.
        -11    1    3    3    0    0 -0.39482344478E+01  0.91876152938E+01 -0.29269836332E+02  0.30930957781E+02  0.51100000000E-03 0.  1.
         11    1    3    3    0    0  0.39482344478E+01 -0.91876152938E+01 -0.29361416212E+02  0.31017633570E+02  0.51100000000E-03 0. -1.
<mgrwt>
<rscale>  0 0.20000105E+02</rscale>
<asrwt>0</asrwt>
<pdfrwt beam="1">  1        2 0.25517995E-03 0.20000105E+02</pdfrwt>
<pdfrwt beam="2">  1       -2 0.92753709E-02 0.20000105E+02</pdfrwt>
<totfact> 0.32933357E+06</totfact>
</mgrwt>
</event>
<event>
 5    1  0.4046313E-006  0.2000059E+02  0.7818608E-02  0.1745316E+00
          2   -1    0    0  501    0  0.00000000000E+00  0.00000000000E+00  0.97115319461E+00  0.97115667500E+00  0.26000000000E-02 0.  1.
         -2   -1    0    0    0  501 -0.00000000000E+00 -0.00000000000E+00 -0.10297623378E+03  0.10297623381E+03  0.26000000000E-02 0. -1.
       1023    2    1    2    0    0  0.00000000000E+00  0.00000000000E+00 -0.10200508058E+03  0.10394739049E+03  0.20000588091E+02 0.  0.
        -11    1    3    3    0    0  0.69230913679E+01 -0.72163873853E+01 -0.51111527356E+02  0.52080645829E+02  0.51100000000E-03 0. -1.
         11    1    3    3    0    0 -0.69230913679E+01  0.72163873853E+01 -0.50893553227E+02  0.51866744657E+02  0.51100000000E-03 0.  1.
<mgrwt>
<rscale>  0 0.20000588E+02</rscale>
<asrwt>0</asrwt>
<pdfrwt beam="1">  1        2 0.14940854E-03 0.20000588E+02</pdfrwt>
<pdfrwt beam="2">  1       -2 0.15842489E-01 0.20000588E+02</pdfrwt>
<totfact> 0.29514115E+06</totfact>
</mgrwt>
</event>
<event>
 5    1  0.4046313E-006  0.2000242E+02  0.7818608E-02  0.1745280E+00
         -2   -1    0    0    0  501 -0.00000000000E+00  0.00000000000E+00  0.15687571948E+02  0.15687572163E+02  0.26000000000E-02 0. -1.
          2   -1    0    0  501    0  0.00000000000E+00 -0.00000000000E+00 -0.63760166277E+01  0.63760171578E+01  0.26000000000E-02 0.  1.
       1023    2    1    2    0    0  0.00000000000E+00  0.00000000000E+00  0.93115553199E+01  0.22063589321E+02  0.20002422634E+02 0.  0.
        -11    1    3    3    0    0 -0.87122127644E+01  0.49111848655E+01  0.47030868151E+01  0.11051760669E+02  0.51100000000E-03 0. -1.
         11    1    3    3    0    0  0.87122127644E+01 -0.49111848655E+01  0.46084685049E+01  0.11011828652E+02  0.51100000000E-03 0.  1.
<mgrwt>
<rscale>  0 0.20002423E+02</rscale>
<asrwt>0</asrwt>
<pdfrwt beam="2">  1        2 0.98092570E-03 0.20002423E+02</pdfrwt>
<pdfrwt beam="1">  1       -2 0.24134727E-02 0.20002423E+02</pdfrwt>
<totfact> 0.38156707E+06</totfact>
</mgrwt>
</event>
<event>
 4    1  0.4046313E-006  0.2001254E+02  0.7818608E-02  0.1745079E+00
          2   -1    0    0  501    0  0.00000000000E+00  0.00000000000E+00  0.10279994216E+02  0.10279994545E+02  0.26000000000E-02 0. -1.
         -2   -1    0    0    0  501 -0.00000000000E+00 -0.00000000000E+00 -0.97398305947E+01  0.97398309418E+01  0.26000000000E-02 0.  1.
        -11    1    1    2    0    0 -0.93311401024E+01 -0.36079874821E+01  0.46421278996E+00  0.10015150676E+02  0.51100000000E-03 0. -1.
         11    1    1    2    0    0  0.93311401024E+01  0.36079874821E+01  0.75950831410E-01  0.10004674811E+02  0.51100000000E-03 0.  1.
<mgrwt>
<rscale>  0 0.20012537E+02</rscale>
<asrwt>0</asrwt>
<pdfrwt beam="1">  1        2 0.15815376E-02 0.20012537E+02</pdfrwt>
<pdfrwt beam="2">  1       -2 0.14984355E-02 0.20012537E+02</pdfrwt>
<totfact> 0.39486653E+06</totfact>
</mgrwt>
</event>
<event>
 5    1  0.4046313E-006  0.2000089E+02  0.7818608E-02  0.1745310E+00
         -2   -1    0    0    0  501 -0.00000000000E+00  0.00000000000E+00  0.32029827311E+01  0.32029837864E+01  0.26000000000E-02 0.  1.
          2   -1    0    0  501    0  0.00000000000E+00 -0.00000000000E+00 -0.31223675375E+02  0.31223675484E+02  0.26000000000E-02 0. -1.
       1023    2    1    2    0    0  0.00000000000E+00  0.00000000000E+00 -0.28020692644E+02  0.34426659270E+02  0.20000891286E+02 0.  0.
        -11    1    3    3    0    0 -0.41424051268E+01  0.91021594042E+01 -0.14026377359E+02  0.17226377684E+02  0.51100000000E-03 0. -1.
         11    1    3    3    0    0  0.41424051268E+01 -0.91021594042E+01 -0.13994315286E+02  0.17200281586E+02  0.51100000000E-03 0.  1.
<mgrwt>
<rscale>  0 0.20000891E+02</rscale>
<asrwt>0</asrwt>
<pdfrwt beam="2">  1        2 0.48036422E-02 0.20000891E+02</pdfrwt>
<pdfrwt beam="1">  1       -2 0.49276668E-03 0.20000891E+02</pdfrwt>
<totfact> 0.43561911E+06</totfact>
</mgrwt>
</event>
<event>
 5    1  0.4046313E-006  0.2001089E+02  0.7818608E-02  0.1745112E+00
          2   -1    0    0  501    0  0.00000000000E+00  0.00000000000E+00  0.33840548508E+02  0.33840548607E+02  0.26000000000E-02 0.  1.
         -2   -1    0    0    0  501 -0.00000000000E+00 -0.00000000000E+00 -0.29582538996E+01  0.29582550422E+01  0.26000000000E-02 0. -1.
       1023    2    1    2    0    0  0.00000000000E+00  0.00000000000E+00  0.30882294608E+02  0.36798803650E+02  0.20010892778E+02 0.  0.
        -11    1    3    3    0    0  0.98538051992E+01  0.17232133228E+01  0.15064204686E+02  0.18083064014E+02  0.51100000000E-03 0. -1.
         11    1    3    3    0    0 -0.98538051992E+01 -0.17232133228E+01  0.15818089922E+02  0.18715739635E+02  0.51100000000E-03 0.  1.
<mgrwt>
<rscale>  0 0.20010893E+02</rscale>
<asrwt>0</asrwt>
<pdfrwt beam="1">  1        2 0.52062383E-02 0.20010893E+02</pdfrwt>
<pdfrwt beam="2">  1       -2 0.45511608E-03 0.20010893E+02</pdfrwt>
<totfact> 0.43918456E+06</totfact>
</mgrwt>
</event>
<event>
 5    1  0.4046313E-006  0.2000171E+02  0.7818608E-02  0.1745294E+00
         -2   -1    0    0    0  501 -0.00000000000E+00  0.00000000000E+00  0.25818595514E+02  0.25818595645E+02  0.26000000000E-02 0.  1.
          2   -1    0    0  501    0  0.00000000000E+00 -0.00000000000E+00 -0.38738404116E+01  0.38738412842E+01  0.26000000000E-02 0. -1.
       1023    2    1    2    0    0  0.00000000000E+00  0.00000000000E+00  0.21944755102E+02  0.29692436929E+02  0.20001713284E+02 0.  0.
        -11    1    3    3    0    0 -0.98700575324E+01 -0.16121679161E+01  0.10967186845E+02  0.14842382175E+02  0.51100000000E-03 0. -1.
         11    1    3    3    0    0  0.98700575324E+01  0.16121679161E+01  0.10977568258E+02  0.14850054754E+02  0.51100000000E-03 0.  1.
<mgrwt>
<rscale>  0 0.20001713E+02</rscale>
<asrwt>0</asrwt>
<pdfrwt beam="2">  1        2 0.59597552E-03 0.20001713E+02</pdfrwt>
<pdfrwt beam="1">  1       -2 0.39720917E-02 0.20001713E+02</pdfrwt>
<totfact> 0.36592093E+06</totfact>
</mgrwt>
</event>
<event>
 5    1  0.4046313E-006  0.2000030E+02  0.7818608E-02  0.1745322E+00
          2   -1    0    0  501    0  0.00000000000E+00  0.00000000000E+00  0.54618621195E+02  0.54618621257E+02  0.26000000000E-02 0. -1.
         -2   -1    0    0    0  501 -0.00000000000E+00 -0.00000000000E+00 -0.18309308410E+01  0.18309326871E+01  0.26000000000E-02 0.  1.
       1023    2    1    2    0    0  0.00000000000E+00  0.00000000000E+00  0.52787690354E+02  0.56449553944E+02  0.20000297187E+02 0.  0.
        -11    1    3    3    0    0  0.51015554837E+01 -0.86009926851E+01  0.26408808302E+02  0.28238769444E+02  0.51100000000E-03 0. -1.
         11    1    3    3    0    0 -0.51015554837E+01  0.86009926851E+01  0.26378882051E+02  0.28210784499E+02  0.51100000000E-03 0.  1.
<mgrwt>
<rscale>  0 0.20000297E+02</rscale>
<asrwt>0</asrwt>
<pdfrwt beam="1">  1        2 0.84028642E-02 0.20000297E+02</pdfrwt>
<pdfrwt beam="2">  1       -2 0.28168184E-03 0.20000297E+02</pdfrwt>
<totfact> 0.46965683E+06</totfact>
</mgrwt>
</event>
<event>
 5    1  0.4046313E-006  0.2000204E+02  0.7818608E-02  0.1745287E+00
          2   -1    0    0  501    0  0.00000000000E+00  0.00000000000E+00  0.69238158450E+02  0.69238158499E+02  0.26000000000E-02 0.  1.
         -2   -1    0    0    0  501 -0.00000000000E+00 -0.00000000000E+00 -0.14445839379E+01  0.14445862777E+01  0.26000000000E-02 0. -1.
       1023    2    1    2    0    0  0.00000000000E+00  0.00000000000E+00  0.67793574512E+02  0.70682744777E+02  0.20002041496E+02 0.  0.
        -11    1    3    3    0    0 -0.53218812133E+01 -0.84674035646E+01  0.33781034195E+02  0.35230350755E+02  0.51100000000E-03 0. -1.
         11    1    3    3    0    0  0.53218812133E+01  0.84674035646E+01  0.34012540317E+02  0.35452394021E+02  0.51100000000E-03 0.  1.
<mgrwt>
<rscale>  0 0.20002041E+02</rscale>
<asrwt>0</asrwt>
<pdfrwt beam="1">  1        2 0.10652022E-01 0.20002041E+02</pdfrwt>
<pdfrwt beam="2">  1       -2 0.22224393E-03 0.20002041E+02</pdfrwt>
<totfact> 0.48909562E+06</totfact>
</mgrwt>
</event>
<event>
 5    1  0.4046313E-006  0.2000097E+02  0.7818608E-02  0.1745309E+00
          2   -1    0    0  501    0  0.00000000000E+00  0.00000000000E+00  0.18269523710E+02  0.18269523895E+02  0.26000000000E-02 0.  1.
         -2   -1    0    0    0  501 -0.00000000000E+00 -0.00000000000E+00 -0.54741271000E+01  0.54741277174E+01  0.26000000000E-02 0. -1.
       1023    2    1    2    0    0  0.00000000000E+00  0.00000000000E+00  0.12795396610E+02  0.23743651612E+02  0.20000970414E+02 0.  0.
        -11    1    3    3    0    0 -0.91728726991E+01  0.39834481492E+01  0.64165208084E+01  0.11881969208E+02  0.51100000000E-03 0.  1.
         11    1    3    3    0    0  0.91728726991E+01 -0.39834481492E+01  0.63788758016E+01  0.11861682404E+02  0.51100000000E-03 0. -1.
<mgrwt>
<rscale>  0 0.20000970E+02</rscale>
<asrwt>0</asrwt>
<pdfrwt beam="1">  1        2 0.28106961E-02 0.20000970E+02</pdfrwt>
<pdfrwt beam="2">  1       -2 0.84217344E-03 0.20000970E+02</pdfrwt>
<totfact> 0.41347663E+06</totfact>
</mgrwt>
</event>
<event>
 5    1  0.4046313E-006  0.2000898E+02  0.7818608E-02  0.1745150E+00
          2   -1    0    0  501    0  0.00000000000E+00  0.00000000000E+00  0.40478479905E+01  0.40478488255E+01  0.26000000000E-02 0. -1.
         -2   -1    0    0    0  501 -0.00000000000E+00 -0.00000000000E+00 -0.24726672661E+02  0.24726672797E+02  0.26000000000E-02 0.  1.
       1023    2    1    2    0    0  0.00000000000E+00  0.00000000000E+00 -0.20678824670E+02  0.28774521623E+02  0.20008980606E+02 0.  0.
        -11    1    3    3    0    0 -0.97389961969E+01  0.22817018574E+01 -0.10610808503E+02  0.14582299806E+02  0.51100000000E-03 0.  1.
         11    1    3    3    0    0  0.97389961969E+01 -0.22817018574E+01 -0.10068016167E+02  0.14192221817E+02  0.51100000000E-03 0. -1.
<mgrwt>
<rscale>  0 0.20008981E+02</rscale>
<asrwt>0</asrwt>
<pdfrwt beam="1">  1        2 0.62274594E-03 0.20008981E+02</pdfrwt>
<pdfrwt beam="2">  1       -2 0.38041035E-02 0.20008981E+02</pdfrwt>
<totfact> 0.36710278E+06</totfact>
</mgrwt>
</event>
<event>
 5    1  0.4046313E-006  0.2000139E+02  0.7818608E-02  0.1745300E+00
         -2   -1    0    0    0  501 -0.00000000000E+00  0.00000000000E+00  0.28612304455E+01  0.28612316268E+01  0.26000000000E-02 0. -1.
          2   -1    0    0  501    0  0.00000000000E+00 -0.00000000000E+00 -0.34954858526E+02  0.34954858622E+02  0.26000000000E-02 0.  1.
       1023    2    1    2    0    0  0.00000000000E+00  0.00000000000E+00 -0.32093628080E+02  0.37816090249E+02  0.20001392911E+02 0.  0.
        -11    1    3    3    0    0 -0.97521561541E+01 -0.22142846468E+01 -0.16197157434E+02  0.19035638034E+02  0.51100000000E-03 0.  1.
         11    1    3    3    0    0  0.97521561541E+01  0.22142846468E+01 -0.15896470646E+02  0.18780452215E+02  0.51100000000E-03 0. -1.
<mgrwt>
<rscale>  0 0.20001393E+02</rscale>
<asrwt>0</asrwt>
<pdfrwt beam="2">  1        2 0.53776703E-02 0.20001393E+02</pdfrwt>
<pdfrwt beam="1">  1       -2 0.44018942E-03 0.20001393E+02</pdfrwt>
<totfact> 0.44135346E+06</totfact>
</mgrwt>
</event>
<event>
 5    1  0.4046313E-006  0.2000063E+02  0.7818608E-02  0.1745315E+00
          2   -1    0    0  501    0  0.00000000000E+00  0.00000000000E+00  0.38453957540E+02  0.38453957628E+02  0.26000000000E-02 0. -1.
         -2   -1    0    0    0  501 -0.00000000000E+00 -0.00000000000E+00 -0.26006769611E+01  0.26006782608E+01  0.26000000000E-02 0.  1.
       1023    2    1    2    0    0  0.00000000000E+00  0.00000000000E+00  0.35853280579E+02  0.41054635889E+02  0.20000634982E+02 0.  0.
        -11    1    3    3    0    0 -0.92691711086E+01  0.37528343957E+01  0.18072518571E+02  0.20654714397E+02  0.51100000000E-03 0. -1.
         11    1    3    3    0    0  0.92691711086E+01 -0.37528343957E+01  0.17780762008E+02  0.20399921492E+02  0.51100000000E-03 0.  1.
<mgrwt>
<rscale>  0 0.20000635E+02</rscale>
<asrwt>0</asrwt>
<pdfrwt beam="1">  1        2 0.59159935E-02 0.20000635E+02</pdfrwt>
<pdfrwt beam="2">  1       -2 0.40010426E-03 0.20000635E+02</pdfrwt>
<totfact> 0.44664721E+06</totfact>
</mgrwt>
</event>
<event>
 5    1  0.4046313E-006  0.2000203E+02  0.7818608E-02  0.1745288E+00
          2   -1    0    0  501    0  0.00000000000E+00  0.00000000000E+00  0.89558634202E+00  0.89559011607E+00  0.26000000000E-02 0.  1.
         -2   -1    0    0    0  501 -0.00000000000E+00 -0.00000000000E+00 -0.11168113226E+03  0.11168113229E+03  0.26000000000E-02 0. -1.
       1023    2    1    2    0    0  0.00000000000E+00  0.00000000000E+00 -0.11078554591E+03  0.11257672240E+03  0.20002030982E+02 0.  0.
        -11    1    3    3    0    0 -0.62360396380E+01  0.78184169558E+01 -0.55016203519E+02  0.55917783253E+02  0.51100000000E-03 0.  1.
         11    1    3    3    0    0  0.62360396380E+01 -0.78184169558E+01 -0.55769342396E+02  0.56658939150E+02  0.51100000000E-03 0. -1.
<mgrwt>
<rscale>  0 0.20002031E+02</rscale>
<asrwt>0</asrwt>
<pdfrwt beam="1">  1        2 0.13778290E-03 0.20002031E+02</pdfrwt>
<pdfrwt beam="2">  1       -2 0.17181702E-01 0.20002031E+02</pdfrwt>
<totfact> 0.28897665E+06</totfact>
</mgrwt>
</event>
<event>
 5    1  0.4046313E-006  0.2000154E+02  0.7818608E-02  0.1745297E+00
          2   -1    0    0  501    0  0.00000000000E+00  0.00000000000E+00  0.22765759454E+02  0.22765759603E+02  0.26000000000E-02 0. -1.
         -2   -1    0    0    0  501 -0.00000000000E+00 -0.00000000000E+00 -0.43932386608E+01  0.43932394302E+01  0.26000000000E-02 0.  1.
       1023    2    1    2    0    0  0.00000000000E+00  0.00000000000E+00  0.18372520794E+02  0.27158999033E+02  0.20001542645E+02 0.  0.
        -11    1    3    3    0    0 -0.29666566587E+00 -0.99962878287E+01  0.91311728728E+01  0.13542233906E+02  0.51100000000E-03 0. -1.
         11    1    3    3    0    0  0.29666566587E+00  0.99962878287E+01  0.92413479209E+01  0.13616765127E+02  0.51100000000E-03 0.  1.
<mgrwt>
<rscale>  0 0.20001543E+02</rscale>
<asrwt>0</asrwt>
<pdfrwt beam="1">  1        2 0.35024246E-02 0.20001543E+02</pdfrwt>
<pdfrwt beam="2">  1       -2 0.67588293E-03 0.20001543E+02</pdfrwt>
<totfact> 0.42166182E+06</totfact>
</mgrwt>
</event>
<event>
 5    1  0.4046313E-006  0.2000190E+02  0.7818608E-02  0.1745290E+00
         -2   -1    0    0    0  501 -0.00000000000E+00  0.00000000000E+00  0.27065392786E+02  0.27065392911E+02  0.26000000000E-02 0.  1.
          2   -1    0    0  501    0  0.00000000000E+00 -0.00000000000E+00 -0.36954561124E+01  0.36954570270E+01  0.26000000000E-02 0. -1.
       1023    2    1    2    0    0  0.00000000000E+00  0.00000000000E+00  0.23369936673E+02  0.30760849938E+02  0.20001898629E+02 0.  0.
        -11    1    3    3    0    0  0.46588006552E+00 -0.99892221443E+01  0.11887735464E+02  0.15534473213E+02  0.51100000000E-03 0.  1.
         11    1    3    3    0    0 -0.46588006552E+00  0.99892221443E+01  0.11482201210E+02  0.15226376725E+02  0.51100000000E-03 0. -1.
<mgrwt>
<rscale>  0 0.20001899E+02</rscale>
<asrwt>0</asrwt>
<pdfrwt beam="2">  1        2 0.56853177E-03 0.20001899E+02</pdfrwt>
<pdfrwt beam="1">  1       -2 0.41639068E-02 0.20001899E+02</pdfrwt>
<totfact> 0.36427503E+06</totfact>
</mgrwt>
</event>
<event>
 5    1  0.4046313E-006  0.2000038E+02  0.7818608E-02  0.1745321E+00
          2   -1    0    0  501    0  0.00000000000E+00  0.00000000000E+00  0.58078804334E+02  0.58078804392E+02  0.26000000000E-02 0. -1.
         -2   -1    0    0    0  501 -0.00000000000E+00 -0.00000000000E+00 -0.17218628551E+01  0.17218648181E+01  0.26000000000E-02 0.  1.
       1023    2    1    2    0    0  0.00000000000E+00  0.00000000000E+00  0.56356941479E+02  0.59800669210E+02  0.20000379625E+02 0.  0.
        -11    1    3    3    0    0  0.90607335137E+01  0.42312098667E+01  0.27994951381E+02  0.29727383535E+02  0.51100000000E-03 0.  1.
         11    1    3    3    0    0 -0.90607335137E+01 -0.42312098667E+01  0.28361990097E+02  0.30073285675E+02  0.51100000000E-03 0. -1.
<mgrwt>
<rscale>  0 0.20000380E+02</rscale>
<asrwt>0</asrwt>
<pdfrwt beam="1">  1        2 0.89352014E-02 0.20000380E+02</pdfrwt>
<pdfrwt beam="2">  1       -2 0.26490212E-03 0.20000380E+02</pdfrwt>
<totfact> 0.47436426E+06</totfact>
</mgrwt>
</event>
<event>
 5    1  0.4046313E-006  0.2000064E+02  0.7818608E-02  0.1745315E+00
          2   -1    0    0  501    0  0.00000000000E+00  0.00000000000E+00  0.22108193743E+02  0.22108193896E+02  0.26000000000E-02 0.  1.
         -2   -1    0    0    0  501 -0.00000000000E+00 -0.00000000000E+00 -0.45234998730E+01  0.45235006202E+01  0.26000000000E-02 0. -1.
       1023    2    1    2    0    0  0.00000000000E+00  0.00000000000E+00  0.17584693870E+02  0.26631694516E+02  0.20000642347E+02 0.  0.
        -11    1    3    3    0    0  0.86165903334E+01  0.50752501979E+01  0.88606300728E+01  0.13360934065E+02  0.51100000000E-03 0.  1.
         11    1    3    3    0    0 -0.86165903334E+01 -0.50752501979E+01  0.87240637968E+01  0.13270760451E+02  0.51100000000E-03 0. -1.
<mgrwt>
<rscale>  0 0.20000642E+02</rscale>
<asrwt>0</asrwt>
<pdfrwt beam="1">  1        2 0.34012607E-02 0.20000642E+02</pdfrwt>
<pdfrwt beam="2">  1       -2 0.69592312E-03 0.20000642E+02</pdfrwt>
<totfact> 0.42055009E+06</totfact>
</mgrwt>
</event>
<event>
 5    1  0.4046313E-006  0.2000061E+02  0.7818608E-02  0.1745316E+00
         -2   -1    0    0    0  501 -0.00000000000E+00  0.00000000000E+00  0.17459157850E+02  0.17459158043E+02  0.26000000000E-02 0.  1.
          2   -1    0    0  501    0  0.00000000000E+00 -0.00000000000E+00 -0.57280032897E+01  0.57280038798E+01  0.26000000000E-02 0. -1.
       1023    2    1    2    0    0  0.00000000000E+00  0.00000000000E+00  0.11731154560E+02  0.23187161923E+02  0.20000612259E+02 0.  0.
        -11    1    3    3    0    0  0.97307847314E+01  0.23058501128E+01  0.59023516136E+01  0.11612186317E+02  0.51100000000E-03 0.  1.
         11    1    3    3    0    0 -0.97307847314E+01 -0.23058501128E+01  0.58288029466E+01  0.11574975606E+02  0.51100000000E-03 0. -1.
<mgrwt>
<rscale>  0 0.20000612E+02</rscale>
<asrwt>0</asrwt>
<pdfrwt beam="2">  1        2 0.88123135E-03 0.20000612E+02</pdfrwt>
<pdfrwt beam="1">  1       -2 0.26860243E-02 0.20000612E+02</pdfrwt>
<totfact> 0.37846899E+06</totfact>
</mgrwt>
</event>
<event>
 5    1  0.4046313E-006  0.2000045E+02  0.7818608E-02  0.1745319E+00
         -2   -1    0    0    0  501 -0.00000000000E+00  0.00000000000E+00  0.70929623082E+02  0.70929623130E+02  0.26000000000E-02 0. -1.
          2   -1    0    0  501    0  0.00000000000E+00 -0.00000000000E+00 -0.14099099552E+01  0.14099123525E+01  0.26000000000E-02 0.  1.
       1023    2    1    2    0    0  0.00000000000E+00  0.00000000000E+00  0.69519713127E+02  0.72339535483E+02  0.20000447009E+02 0.  0.
        -11    1    3    3    0    0  0.84860467033E+01  0.52905878672E+01  0.34636603397E+02  0.36051319030E+02  0.51100000000E-03 0. -1.
         11    1    3    3    0    0 -0.84860467033E+01 -0.52905878672E+01  0.34883109730E+02  0.36288216453E+02  0.51100000000E-03 0.  1.
<mgrwt>
<rscale>  0 0.20000447E+02</rscale>
<asrwt>0</asrwt>
<pdfrwt beam="2">  1        2 0.21690945E-03 0.20000447E+02</pdfrwt>
<pdfrwt beam="1">  1       -2 0.10912248E-01 0.20000447E+02</pdfrwt>
<totfact> 0.32002940E+06</totfact>
</mgrwt>
</event>
<event>
 5    1  0.4046313E-006  0.2000054E+02  0.7818608E-02  0.1745317E+00
         -2   -1    0    0    0  501 -0.00000000000E+00  0.00000000000E+00  0.66069106745E+02  0.66069106796E+02  0.26000000000E-02 0. -1.
          2   -1    0    0  501    0  0.00000000000E+00 -0.00000000000E+00 -0.15136472899E+01  0.15136495229E+01  0.26000000000E-02 0.  1.
       1023    2    1    2    0    0  0.00000000000E+00  0.00000000000E+00  0.64555459455E+02  0.67582756319E+02  0.20000540148E+02 0.  0.
        -11    1    3    3    0    0  0.95768168904E+01  0.28790168784E+01  0.32158676148E+02  0.33677657457E+02  0.51100000000E-03 0.  1.
         11    1    3    3    0    0 -0.95768168904E+01 -0.28790168784E+01  0.32396783307E+02  0.33905098862E+02  0.51100000000E-03 0. -1.
<mgrwt>
<rscale>  0 0.20000540E+02</rscale>
<asrwt>0</asrwt>
<pdfrwt beam="2">  1        2 0.23286905E-03 0.20000540E+02</pdfrwt>
<pdfrwt beam="1">  1       -2 0.10164476E-01 0.20000540E+02</pdfrwt>
<totfact> 0.32419234E+06</totfact>
</mgrwt>
</event>
<event>
 5    1  0.4046313E-006  0.2000403E+02  0.7818608E-02  0.1745248E+00
          2   -1    0    0  501    0  0.00000000000E+00  0.00000000000E+00  0.34982343273E+02  0.34982343370E+02  0.26000000000E-02 0.  1.
         -2   -1    0    0    0  501 -0.00000000000E+00 -0.00000000000E+00 -0.28597372344E+01  0.28597384163E+01  0.26000000000E-02 0. -1.
       1023    2    1    2    0    0  0.00000000000E+00  0.00000000000E+00  0.32122606039E+02  0.37842081786E+02  0.20004032973E+02 0.  0.
        -11    1    3    3    0    0 -0.69489847720E+01 -0.71936342505E+01  0.16174339469E+02  0.19016992943E+02  0.51100000000E-03 0.  1.
         11    1    3    3    0    0  0.69489847720E+01  0.71936342505E+01  0.15948266570E+02  0.18825088843E+02  0.51100000000E-03 0. -1.
<mgrwt>
<rscale>  0 0.20004033E+02</rscale>
<asrwt>0</asrwt>
<pdfrwt beam="1">  1        2 0.53818988E-02 0.20004033E+02</pdfrwt>
<pdfrwt beam="2">  1       -2 0.43995970E-03 0.20004033E+02</pdfrwt>
<totfact> 0.44126494E+06</totfact>
</mgrwt>
</event>
<event>
 4    1  0.4046313E-006  0.2011562E+02  0.7818608E-02  0.1743039E+00
         -2   -1    0    0    0  501 -0.00000000000E+00  0.00000000000E+00  0.43643468422E+01  0.43643476167E+01  0.26000000000E-02 0. -1.
          2   -1    0    0  501    0  0.00000000000E+00 -0.00000000000E+00 -0.23178611988E+02  0.23178612134E+02  0.26000000000E-02 0.  1.
        -11    1    1    2    0    0 -0.10056182798E+02 -0.18729090659E-01 -0.91608563744E+01  0.13603251561E+02  0.51100000000E-03 0. -1.
         11    1    1    2    0    0  0.10056182798E+02  0.18729090659E-01 -0.96534087712E+01  0.13939708190E+02  0.51100000000E-03 0.  1.
<mgrwt>
<rscale>  0 0.20115617E+02</rscale>
<asrwt>0</asrwt>
<pdfrwt beam="2">  1        2 0.35659403E-02 0.20115617E+02</pdfrwt>
<pdfrwt beam="1">  1       -2 0.67143806E-03 0.20115617E+02</pdfrwt>
<totfact> 0.41700905E+06</totfact>
</mgrwt>
</event>
<event>
 5    1  0.4046313E-006  0.2000103E+02  0.7818608E-02  0.1745308E+00
         -2   -1    0    0    0  501 -0.00000000000E+00  0.00000000000E+00  0.27890877519E+02  0.27890877640E+02  0.26000000000E-02 0. -1.
          2   -1    0    0  501    0  0.00000000000E+00 -0.00000000000E+00 -0.35857714563E+01  0.35857723989E+01  0.26000000000E-02 0.  1.
       1023    2    1    2    0    0  0.00000000000E+00  0.00000000000E+00  0.24305106063E+02  0.31476650039E+02  0.20001032898E+02 0.  0.
        -11    1    3    3    0    0  0.51704971584E+01  0.85599949921E+01  0.12235438360E+02  0.15802326007E+02  0.51100000000E-03 0.  1.
         11    1    3    3    0    0 -0.51704971584E+01 -0.85599949921E+01  0.12069667703E+02  0.15674324032E+02  0.51100000000E-03 0. -1.
<mgrwt>
<rscale>  0 0.20001033E+02</rscale>
<asrwt>0</asrwt>
<pdfrwt beam="2">  1        2 0.55165724E-03 0.20001033E+02</pdfrwt>
<pdfrwt beam="1">  1       -2 0.42909042E-02 0.20001033E+02</pdfrwt>
<totfact> 0.36324650E+06</totfact>
</mgrwt>
</event>
<event>
 5    1  0.4046313E-006  0.2000136E+02  0.7818608E-02  0.1745301E+00
         -2   -1    0    0    0  501 -0.00000000000E+00  0.00000000000E+00  0.67255240602E+02  0.67255240652E+02  0.26000000000E-02 0.  1.
          2   -1    0    0  501    0  0.00000000000E+00 -0.00000000000E+00 -0.14870743554E+01  0.14870766283E+01  0.26000000000E-02 0. -1.
       1023    2    1    2    0    0  0.00000000000E+00  0.00000000000E+00  0.65768166247E+02  0.68742317281E+02  0.20001362295E+02 0.  0.
        -11    1    3    3    0    0  0.74829352164E+01 -0.66346185355E+01  0.33000155572E+02  0.34482209190E+02  0.51100000000E-03 0.  1.
         11    1    3    3    0    0 -0.74829352164E+01  0.66346185355E+01  0.32768010675E+02  0.34260108091E+02  0.51100000000E-03 0. -1.
<mgrwt>
<rscale>  0 0.20001362E+02</rscale>
<asrwt>0</asrwt>
<pdfrwt beam="2">  1        2 0.22878087E-03 0.20001362E+02</pdfrwt>
<pdfrwt beam="1">  1       -2 0.10346959E-01 0.20001362E+02</pdfrwt>
<totfact> 0.32313497E+06</totfact>
</mgrwt>
</event>
<event>
 5    1  0.4046313E-006  0.2000021E+02  0.7818608E-02  0.1745324E+00
          2   -1    0    0  501    0  0.00000000000E+00  0.00000000000E+00  0.39069840719E+02  0.39069840805E+02  0.26000000000E-02 0.  1.
         -2   -1    0    0    0  501 -0.00000000000E+00 -0.00000000000E+00 -0.25595709671E+01  0.25595722876E+01  0.26000000000E-02 0. -1.
       1023    2    1    2    0    0  0.00000000000E+00  0.00000000000E+00  0.36510269752E+02  0.41629413093E+02  0.20000205927E+02 0.  0.
        -11    1    3    3    0    0  0.35124772321E+01  0.93629120741E+01  0.18211463761E+02  0.20776405642E+02  0.51100000000E-03 0.  1.
         11    1    3    3    0    0 -0.35124772321E+01 -0.93629120741E+01  0.18298805991E+02  0.20853007451E+02  0.51100000000E-03 0. -1.
<mgrwt>
<rscale>  0 0.20000206E+02</rscale>
<asrwt>0</asrwt>
<pdfrwt beam="1">  1        2 0.60107447E-02 0.20000206E+02</pdfrwt>
<pdfrwt beam="2">  1       -2 0.39378026E-03 0.20000206E+02</pdfrwt>
<totfact> 0.44758118E+06</totfact>
</mgrwt>
</event>
<event>
 5    1  0.4046313E-006  0.2000115E+02  0.7818608E-02  0.1745305E+00
          2   -1    0    0  501    0  0.00000000000E+00  0.00000000000E+00  0.23659168743E+01  0.23659183029E+01  0.26000000000E-02 0.  1.
         -2   -1    0    0    0  501 -0.00000000000E+00 -0.00000000000E+00 -0.42271748109E+02  0.42271748189E+02  0.26000000000E-02 0. -1.
       1023    2    1    2    0    0  0.00000000000E+00  0.00000000000E+00 -0.39905831235E+02  0.44637666492E+02  0.20001147550E+02 0.  0.
        -11    1    3    3    0    0  0.65945847919E+01 -0.75180158081E+01 -0.19844375761E+02  0.22221799205E+02  0.51100000000E-03 0.  1.
         11    1    3    3    0    0 -0.65945847919E+01  0.75180158081E+01 -0.20061455473E+02  0.22415867287E+02  0.51100000000E-03 0. -1.
<mgrwt>
<rscale>  0 0.20001148E+02</rscale>
<asrwt>0</asrwt>
<pdfrwt beam="1">  1        2 0.36398736E-03 0.20001148E+02</pdfrwt>
<pdfrwt beam="2">  1       -2 0.65033454E-02 0.20001148E+02</pdfrwt>
<totfact> 0.34675124E+06</totfact>
</mgrwt>
</event>
<event>
 4    1  0.4046313E-006  0.2001483E+02  0.7818608E-02  0.1745033E+00
         -2   -1    0    0    0  501 -0.00000000000E+00  0.00000000000E+00  0.12652872671E+01  0.12652899384E+01  0.26000000000E-02 0.  1.
          2   -1    0    0  501    0  0.00000000000E+00 -0.00000000000E+00 -0.79150594205E+02  0.79150594248E+02  0.26000000000E-02 0. -1.
        -11    1    1    2    0    0  0.99222216969E+01 -0.12903332003E+01 -0.38213835501E+02  0.39502059024E+02  0.51100000000E-03 0.  1.
         11    1    1    2    0    0 -0.99222216969E+01  0.12903332003E+01 -0.39671471437E+02  0.40913825162E+02  0.51100000000E-03 0. -1.
<mgrwt>
<rscale>  0 0.20014829E+02</rscale>
<asrwt>0</asrwt>
<pdfrwt beam="2">  1        2 0.12177011E-01 0.20014829E+02</pdfrwt>
<pdfrwt beam="1">  1       -2 0.19465985E-03 0.20014829E+02</pdfrwt>
<totfact> 0.50110078E+06</totfact>
</mgrwt>
</event>
<event>
 5    1  0.4046313E-006  0.2000194E+02  0.7818608E-02  0.1745289E+00
         -2   -1    0    0    0  501 -0.00000000000E+00  0.00000000000E+00  0.73130159606E+02  0.73130159652E+02  0.26000000000E-02 0.  1.
          2   -1    0    0  501    0  0.00000000000E+00 -0.00000000000E+00 -0.13676890175E+01  0.13676914888E+01  0.26000000000E-02 0. -1.
       1023    2    1    2    0    0  0.00000000000E+00  0.00000000000E+00  0.71762470588E+02  0.74497851141E+02  0.20001940897E+02 0.  0.
        -11    1    3    3    0    0  0.95805938702E+01 -0.28677955672E+01  0.35561286744E+02  0.36940724756E+02  0.51100000000E-03 0. -1.
         11    1    3    3    0    0 -0.95805938702E+01  0.28677955672E+01  0.36201183844E+02  0.37557126385E+02  0.51100000000E-03 0.  1.
<mgrwt>
<rscale>  0 0.20001941E+02</rscale>
<asrwt>0</asrwt>
<pdfrwt beam="2">  1        2 0.21041391E-03 0.20001941E+02</pdfrwt>
<pdfrwt beam="1">  1       -2 0.11250793E-01 0.20001941E+02</pdfrwt>
<totfact> 0.31813020E+06</totfact>
</mgrwt>
</event>
<event>
 5    1  0.4046313E-006  0.2000121E+02  0.7818608E-02  0.1745304E+00
          2   -1    0    0  501    0  0.00000000000E+00  0.00000000000E+00  0.11503227871E+01  0.11503257254E+01  0.26000000000E-02 0. -1.
         -2   -1    0    0    0  501 -0.00000000000E+00 -0.00000000000E+00 -0.86942506579E+02  0.86942506618E+02  0.26000000000E-02 0.  1.
       1023    2    1    2    0    0  0.00000000000E+00  0.00000000000E+00 -0.85792183792E+02  0.88092832343E+02  0.20001207725E+02 0.  0.
        -11    1    3    3    0    0  0.59846812219E+01 -0.80115254273E+01 -0.43360713995E+02  0.44498904115E+02  0.51100000000E-03 0.  1.
         11    1    3    3    0    0 -0.59846812219E+01  0.80115254273E+01 -0.42431469797E+02  0.43593928229E+02  0.51100000000E-03 0. -1.
<mgrwt>
<rscale>  0 0.20001208E+02</rscale>
<asrwt>0</asrwt>
<pdfrwt beam="1">  1        2 0.17697303E-03 0.20001208E+02</pdfrwt>
<pdfrwt beam="2">  1       -2 0.13375765E-01 0.20001208E+02</pdfrwt>
<totfact> 0.30706432E+06</totfact>
</mgrwt>
</event>
<event>
 5    1  0.4046313E-006  0.2000644E+02  0.7818608E-02  0.1745200E+00
          2   -1    0    0  501    0  0.00000000000E+00  0.00000000000E+00  0.74221484499E+01  0.74221489053E+01  0.26000000000E-02 0. -1.
         -2   -1    0    0    0  501 -0.00000000000E+00 -0.00000000000E+00 -0.13481862438E+02  0.13481862689E+02  0.26000000000E-02 0.  1.
       1023    2    1    2    0    0  0.00000000000E+00  0.00000000000E+00 -0.60597139885E+01  0.20904011594E+02  0.20006438142E+02 0.  0.
        -11    1    3    3    0    0  0.87278621749E+01 -0.48874983923E+01 -0.30656401957E+01  0.10462378733E+02  0.51100000000E-03 0.  1.
         11    1    3    3    0    0 -0.87278621749E+01  0.48874983923E+01 -0.29940737928E+01  0.10441632862E+02  0.51100000000E-03 0. -1.
<mgrwt>
<rscale>  0 0.20006438E+02</rscale>
<asrwt>0</asrwt>
<pdfrwt beam="1">  1        2 0.11418690E-02 0.20006438E+02</pdfrwt>
<pdfrwt beam="2">  1       -2 0.20741327E-02 0.20006438E+02</pdfrwt>
<totfact> 0.38579453E+06</totfact>
</mgrwt>
</event>
<event>
 5    1  0.4046313E-006  0.2000098E+02  0.7818608E-02  0.1745309E+00
         -2   -1    0    0    0  501 -0.00000000000E+00  0.00000000000E+00  0.28734384278E+01  0.28734396041E+01  0.26000000000E-02 0. -1.
          2   -1    0    0  501    0  0.00000000000E+00 -0.00000000000E+00 -0.34804900648E+02  0.34804900745E+02  0.26000000000E-02 0.  1.
       1023    2    1    2    0    0  0.00000000000E+00  0.00000000000E+00 -0.31931462220E+02  0.37678340349E+02  0.20000976275E+02 0.  0.
        -11    1    3    3    0    0 -0.43187588646E+01  0.90198536841E+01 -0.15999645892E+02  0.18867912114E+02  0.51100000000E-03 0. -1.
         11    1    3    3    0    0  0.43187588646E+01 -0.90198536841E+01 -0.15931816328E+02  0.18810428235E+02  0.51100000000E-03 0.  1.
<mgrwt>
<rscale>  0 0.20000976E+02</rscale>
<asrwt>0</asrwt>
<pdfrwt beam="2">  1        2 0.53545999E-02 0.20000976E+02</pdfrwt>
<pdfrwt beam="1">  1       -2 0.44206757E-03 0.20000976E+02</pdfrwt>
<totfact> 0.44114583E+06</totfact>
</mgrwt>
</event>
<event>
 5    1  0.4046313E-006  0.2000243E+02  0.7818608E-02  0.1745280E+00
         -2   -1    0    0    0  501 -0.00000000000E+00  0.00000000000E+00  0.51712782072E+01  0.51712788609E+01  0.26000000000E-02 0.  1.
          2   -1    0    0  501    0  0.00000000000E+00 -0.00000000000E+00 -0.19342268095E+02  0.19342268270E+02  0.26000000000E-02 0. -1.
       1023    2    1    2    0    0  0.00000000000E+00  0.00000000000E+00 -0.14170989888E+02  0.24513547130E+02  0.20002425816E+02 0.  0.
        -11    1    3    3    0    0  0.88082982344E+01  0.47351635094E+01 -0.72422865884E+01  0.12347412949E+02  0.51100000000E-03 0.  1.
         11    1    3    3    0    0 -0.88082982344E+01 -0.47351635094E+01 -0.69287032992E+01  0.12166134181E+02  0.51100000000E-03 0. -1.
<mgrwt>
<rscale>  0 0.20002426E+02</rscale>
<asrwt>0</asrwt>
<pdfrwt beam="2">  1        2 0.29757336E-02 0.20002426E+02</pdfrwt>
<pdfrwt beam="1">  1       -2 0.79558134E-03 0.20002426E+02</pdfrwt>
<totfact> 0.41544498E+06</totfact>
</mgrwt>
</event>
<event>
 5    1  0.4046313E-006  0.2000752E+02  0.7818608E-02  0.1745179E+00
          2   -1    0    0  501    0  0.00000000000E+00  0.00000000000E+00  0.12119562879E+01  0.12119590768E+01  0.26000000000E-02 0. -1.
         -2   -1    0    0    0  501 -0.00000000000E+00 -0.00000000000E+00 -0.82573188427E+02  0.82573188468E+02  0.26000000000E-02 0.  1.
       1023    2    1    2    0    0  0.00000000000E+00  0.00000000000E+00 -0.81361232139E+02  0.83785147545E+02  0.20007519934E+02 0.  0.
        -11    1    3    3    0    0  0.27448385406E+01  0.96173689643E+01 -0.39769962996E+02  0.41008266013E+02  0.51100000000E-03 0.  1.
         11    1    3    3    0    0 -0.27448385406E+01 -0.96173689643E+01 -0.41591269143E+02  0.42776881532E+02  0.51100000000E-03 0. -1.
<mgrwt>
<rscale>  0 0.20007520E+02</rscale>
<asrwt>0</asrwt>
<pdfrwt beam="1">  1        2 0.18645510E-03 0.20007520E+02</pdfrwt>
<pdfrwt beam="2">  1       -2 0.12703563E-01 0.20007520E+02</pdfrwt>
<totfact> 0.31027349E+06</totfact>
</mgrwt>
</event>
<event>
 4    1  0.4046313E-006  0.2006062E+02  0.7818608E-02  0.1744125E+00
          2   -1    0    0  501    0  0.00000000000E+00  0.00000000000E+00  0.28227955705E+01  0.28227967679E+01  0.26000000000E-02 0. -1.
         -2   -1    0    0    0  501 -0.00000000000E+00 -0.00000000000E+00 -0.35640935491E+02  0.35640935586E+02  0.26000000000E-02 0.  1.
        -11    1    1    2    0    0 -0.61161014196E+01  0.79360587345E+01 -0.15511020417E+02  0.18465629680E+02  0.51100000000E-03 0. -1.
         11    1    1    2    0    0  0.61161014196E+01 -0.79360587345E+01 -0.17307119503E+02  0.19998102674E+02  0.51100000000E-03 0.  1.
<mgrwt>
<rscale>  0 0.20060618E+02</rscale>
<asrwt>0</asrwt>
<pdfrwt beam="1">  1        2 0.43427637E-03 0.20060618E+02</pdfrwt>
<pdfrwt beam="2">  1       -2 0.54832206E-02 0.20060618E+02</pdfrwt>
<totfact> 0.35167088E+06</totfact>
</mgrwt>
</event>
<event>
 5    1  0.4046313E-006  0.2000020E+02  0.7818608E-02  0.1745324E+00
         -2   -1    0    0    0  501 -0.00000000000E+00  0.00000000000E+00  0.95377895463E+00  0.95378249842E+00  0.26000000000E-02 0.  1.
          2   -1    0    0  501    0  0.00000000000E+00 -0.00000000000E+00 -0.10484797398E+03  0.10484797401E+03  0.26000000000E-02 0. -1.
       1023    2    1    2    0    0  0.00000000000E+00  0.00000000000E+00 -0.10389419502E+03  0.10580175651E+03  0.20000198018E+02 0.  0.
        -11    1    3    3    0    0  0.38674482151E+01 -0.92219525841E+01 -0.52054833803E+02  0.53006672106E+02  0.51100000000E-03 0.  1.
         11    1    3    3    0    0 -0.38674482151E+01  0.92219525841E+01 -0.51839361220E+02  0.52795084403E+02  0.51100000000E-03 0. -1.
<mgrwt>
<rscale>  0 0.20000198E+02</rscale>
<asrwt>0</asrwt>
<pdfrwt beam="2">  1        2 0.16130449E-01 0.20000198E+02</pdfrwt>
<pdfrwt beam="1">  1       -2 0.14673558E-03 0.20000198E+02</pdfrwt>
<totfact> 0.53333584E+06</totfact>
</mgrwt>
</event>
<event>
 5    1  0.4046313E-006  0.2000097E+02  0.7818608E-02  0.1745309E+00
         -2   -1    0    0    0  501 -0.00000000000E+00  0.00000000000E+00  0.44134399215E+01  0.44134406874E+01  0.26000000000E-02 0. -1.
          2   -1    0    0  501    0  0.00000000000E+00 -0.00000000000E+00 -0.22660249879E+02  0.22660250028E+02  0.26000000000E-02 0.  1.
       1023    2    1    2    0    0  0.00000000000E+00  0.00000000000E+00 -0.18246809957E+02  0.27073690715E+02  0.20000966360E+02 0.  0.
        -11    1    3    3    0    0 -0.53266263294E+01 -0.84638387580E+01 -0.91399278822E+01  0.13547981271E+02  0.51100000000E-03 0.  1.
         11    1    3    3    0    0  0.53266263294E+01  0.84638387580E+01 -0.91068820748E+01  0.13525709444E+02  0.51100000000E-03 0. -1.
<mgrwt>
<rscale>  0 0.20000966E+02</rscale>
<asrwt>0</asrwt>
<pdfrwt beam="2">  1        2 0.34861923E-02 0.20000966E+02</pdfrwt>
<pdfrwt beam="1">  1       -2 0.67899084E-03 0.20000966E+02</pdfrwt>
<totfact> 0.42150482E+06</totfact>
</mgrwt>
</event>
<event>
 4    1  0.4046313E-006  0.2001715E+02  0.7818608E-02  0.1744987E+00
          2   -1    0    0  501    0  0.00000000000E+00  0.00000000000E+00  0.11945644410E+03  0.11945644413E+03  0.26000000000E-02 0.  1.
         -2   -1    0    0    0  501 -0.00000000000E+00 -0.00000000000E+00 -0.83855942210E+00  0.83856345281E+00  0.26000000000E-02 0. -1.
        -11    1    1    2    0    0 -0.98754166871E+01  0.16203810606E+01  0.58415933874E+02  0.59266945426E+02  0.51100000000E-03 0. -1.
         11    1    1    2    0    0  0.98754166871E+01 -0.16203810606E+01  0.60201950806E+02  0.61028062157E+02  0.51100000000E-03 0.  1.
<mgrwt>
<rscale>  0 0.20017150E+02</rscale>
<asrwt>0</asrwt>
<pdfrwt beam="1">  1        2 0.18377915E-01 0.20017150E+02</pdfrwt>
<pdfrwt beam="2">  1       -2 0.12900945E-03 0.20017150E+02</pdfrwt>
<totfact> 0.54926570E+06</totfact>
</mgrwt>
</event>
<event>
 5    1  0.4182027E-006  0.2000164E+02  0.7818608E-02  0.1745295E+00
         -2   -1    0    0    0  501 -0.00000000000E+00  0.00000000000E+00  0.12132613698E+01  0.12132641557E+01  0.26000000000E-02 0.  1.
          2   -1    0    0  501    0  0.00000000000E+00 -0.00000000000E+00 -0.82435917516E+02  0.82435917557E+02  0.26000000000E-02 0. -1.
       1023    2    1    2    0    0  0.00000000000E+00  0.00000000000E+00 -0.81222656147E+02  0.83649181713E+02  0.20001643177E+02 0.  0.
        -11    1    3    3    0    0 -0.57357126793E+01 -0.81925450820E+01 -0.40675754458E+02  0.41887148338E+02  0.51100000000E-03 0.  1.
         11    1    3    3    0    0  0.57357126793E+01  0.81925450820E+01 -0.40546901688E+02  0.41762033375E+02  0.51100000000E-03 0. -1.
<mgrwt>
<rscale>  0 0.20001643E+02</rscale>
<asrwt>0</asrwt>
<pdfrwt beam="2">  1        2 0.12682445E-01 0.20001643E+02</pdfrwt>
<pdfrwt beam="1">  1       -2 0.18665588E-03 0.20001643E+02</pdfrwt>
<totfact> 0.50596468E+06</totfact>
</mgrwt>
</event>
<event>
 5    1  0.4046313E-006  0.2000226E+02  0.7818608E-02  0.1745283E+00
         -2   -1    0    0    0  501 -0.00000000000E+00  0.00000000000E+00  0.11055337582E+02  0.11055337887E+02  0.26000000000E-02 0. -1.
          2   -1    0    0  501    0  0.00000000000E+00 -0.00000000000E+00 -0.90474457365E+01  0.90474461100E+01  0.26000000000E-02 0.  1.
       1023    2    1    2    0    0  0.00000000000E+00  0.00000000000E+00  0.20078918452E+01  0.20102783997E+02  0.20002257242E+02 0.  0.
        -11    1    3    3    0    0  0.73565598739E+01 -0.67740559896E+01  0.87775331683E+00  0.10038787719E+02  0.51100000000E-03 0.  1.
         11    1    3    3    0    0 -0.73565598739E+01  0.67740559896E+01  0.11301385284E+01  0.10063996278E+02  0.51100000000E-03 0. -1.
<mgrwt>
<rscale>  0 0.20002257E+02</rscale>
<asrwt>0</asrwt>
<pdfrwt beam="2">  1        2 0.13919148E-02 0.20002257E+02</pdfrwt>
<pdfrwt beam="1">  1       -2 0.17008212E-02 0.20002257E+02</pdfrwt>
<totfact> 0.39165094E+06</totfact>
</mgrwt>
</event>
<event>
 5    1  0.4046313E-006  0.2000038E+02  0.7818608E-02  0.1745321E+00
          2   -1    0    0  501    0  0.00000000000E+00  0.00000000000E+00  0.33873393973E+02  0.33873394073E+02  0.26000000000E-02 0. -1.
         -2   -1    0    0    0  501 -0.00000000000E+00 -0.00000000000E+00 -0.29522797451E+01  0.29522808899E+01  0.26000000000E-02 0.  1.
       1023    2    1    2    0    0  0.00000000000E+00  0.00000000000E+00  0.30921114228E+02  0.36825674963E+02  0.20000375781E+02 0.  0.
        -11    1    3    3    0    0  0.53999401193E+01  0.84167782468E+01  0.15373253317E+02  0.18339531814E+02  0.51100000000E-03 0.  1.
         11    1    3    3    0    0 -0.53999401193E+01 -0.84167782468E+01  0.15547860911E+02  0.18486143149E+02  0.51100000000E-03 0. -1.
<mgrwt>
<rscale>  0 0.20000376E+02</rscale>
<asrwt>0</asrwt>
<pdfrwt beam="1">  1        2 0.52112915E-02 0.20000376E+02</pdfrwt>
<pdfrwt beam="2">  1       -2 0.45419698E-03 0.20000376E+02</pdfrwt>
<totfact> 0.43975198E+06</totfact>
</mgrwt>
</event>
<event>
 5    1  0.4046313E-006  0.2000067E+02  0.7818608E-02  0.1745315E+00
          2   -1    0    0  501    0  0.00000000000E+00  0.00000000000E+00  0.23966441173E+01  0.23966455276E+01  0.26000000000E-02 0. -1.
         -2   -1    0    0    0  501 -0.00000000000E+00 -0.00000000000E+00 -0.41727778067E+02  0.41727778148E+02  0.26000000000E-02 0.  1.
       1023    2    1    2    0    0  0.00000000000E+00  0.00000000000E+00 -0.39331133950E+02  0.44124423676E+02  0.20000666662E+02 0.  0.
        -11    1    3    3    0    0 -0.52255639269E+00  0.99865402791E+01 -0.19552760885E+02  0.21961660011E+02  0.51100000000E-03 0. -1.
         11    1    3    3    0    0  0.52255639269E+00 -0.99865402791E+01 -0.19778373065E+02  0.22162763665E+02  0.51100000000E-03 0.  1.
<mgrwt>
<rscale>  0 0.20000667E+02</rscale>
<asrwt>0</asrwt>
<pdfrwt beam="1">  1        2 0.36871462E-03 0.20000667E+02</pdfrwt>
<pdfrwt beam="2">  1       -2 0.64196578E-02 0.20000667E+02</pdfrwt>
<totfact> 0.34734131E+06</totfact>
</mgrwt>
</event>
<event>
 5    1  0.4046313E-006  0.2000147E+02  0.7818608E-02  0.1745299E+00
          2   -1    0    0  501    0  0.00000000000E+00  0.00000000000E+00  0.11089612877E+02  0.11089613181E+02  0.26000000000E-02 0.  1.
         -2   -1    0    0    0  501 -0.00000000000E+00 -0.00000000000E+00 -0.90187703673E+01  0.90187707421E+01  0.26000000000E-02 0. -1.
       1023    2    1    2    0    0  0.00000000000E+00  0.00000000000E+00  0.20708425094E+01  0.20108383924E+02  0.20001467829E+02 0.  0.
        -11    1    3    3    0    0 -0.73794836872E+01  0.67496536832E+01  0.10440833309E+01  0.10055084017E+02  0.51100000000E-03 0.  1.
         11    1    3    3    0    0  0.73794836872E+01 -0.67496536832E+01  0.10267591785E+01  0.10053299906E+02  0.51100000000E-03 0. -1.
<mgrwt>
<rscale>  0 0.20001468E+02</rscale>
<asrwt>0</asrwt>
<pdfrwt beam="1">  1        2 0.17060943E-02 0.20001468E+02</pdfrwt>
<pdfrwt beam="2">  1       -2 0.13875032E-02 0.20001468E+02</pdfrwt>
<totfact> 0.39758035E+06</totfact>
</mgrwt>
</event>
<event>
 5    1  0.4046313E-006  0.2000300E+02  0.7818608E-02  0.1745268E+00
         -2   -1    0    0    0  501 -0.00000000000E+00  0.00000000000E+00  0.16949316820E+02  0.16949317020E+02  0.26000000000E-02 0. -1.
          2   -1    0    0  501    0  0.00000000000E+00 -0.00000000000E+00 -0.59017103419E+01  0.59017109147E+01  0.26000000000E-02 0.  1.
       1023    2    1    2    0    0  0.00000000000E+00  0.00000000000E+00  0.11047606478E+02  0.22851027934E+02  0.20002996494E+02 0.  0.
        -11    1    3    3    0    0  0.40214512892E+01  0.91558788515E+01  0.53334026435E+01  0.11333462491E+02  0.51100000000E-03 0. -1.
         11    1    3    3    0    0 -0.40214512892E+01 -0.91558788515E+01  0.57142038347E+01  0.11517565443E+02  0.51100000000E-03 0.  1.
<mgrwt>
<rscale>  0 0.20002996E+02</rscale>
<asrwt>0</asrwt>
<pdfrwt beam="2">  1        2 0.90795551E-03 0.20002996E+02</pdfrwt>
<pdfrwt beam="1">  1       -2 0.26075872E-02 0.20002996E+02</pdfrwt>
<totfact> 0.37925742E+06</totfact>
</mgrwt>
</event>
<event>
 4    1  0.4046313E-006  0.2001975E+02  0.7818608E-02  0.1744936E+00
          2   -1    0    0  501    0  0.00000000000E+00  0.00000000000E+00  0.29462047839E+02  0.29462047954E+02  0.26000000000E-02 0. -1.
         -2   -1    0    0    0  501 -0.00000000000E+00 -0.00000000000E+00 -0.34009030493E+01  0.34009040432E+01  0.26000000000E-02 0.  1.
        -11    1    1    2    0    0 -0.49054483161E+01  0.87210965818E+01  0.13485004145E+02  0.16791851768E+02  0.51100000000E-03 0. -1.
         11    1    1    2    0    0  0.49054483161E+01 -0.87210965818E+01  0.12576140645E+02  0.16071100229E+02  0.51100000000E-03 0.  1.
<mgrwt>
<rscale>  0 0.20019749E+02</rscale>
<asrwt>0</asrwt>
<pdfrwt beam="1">  1        2 0.45326230E-02 0.20019749E+02</pdfrwt>
<pdfrwt beam="2">  1       -2 0.52321591E-03 0.20019749E+02</pdfrwt>
<totfact> 0.43191946E+06</totfact>
</mgrwt>
</event>
<event>
 4    1  0.4046313E-006  0.2002656E+02  0.7818608E-02  0.1744800E+00
          2   -1    0    0  501    0  0.00000000000E+00  0.00000000000E+00  0.40474992989E+02  0.40474993073E+02  0.26000000000E-02 0.  1.
         -2   -1    0    0    0  501 -0.00000000000E+00 -0.00000000000E+00 -0.24772275644E+01  0.24772289288E+01  0.26000000000E-02 0. -1.
        -11    1    1    2    0    0  0.44377758392E+01 -0.89732117646E+01  0.18503190233E+02  0.21037595700E+02  0.51100000000E-03 0. -1.
         11    1    1    2    0    0 -0.44377758392E+01  0.89732117646E+01  0.19494575191E+02  0.21914626301E+02  0.51100000000E-03 0.  1.
<mgrwt>
<rscale>  0 0.20026562E+02</rscale>
<asrwt>0</asrwt>
<pdfrwt beam="1">  1        2 0.62269220E-02 0.20026562E+02</pdfrwt>
<pdfrwt beam="2">  1       -2 0.38111205E-03 0.20026562E+02</pdfrwt>
<totfact> 0.44832976E+06</totfact>
</mgrwt>
</event>
<event>
 5    1  0.4046313E-006  0.2000020E+02  0.7818608E-02  0.1745324E+00
          2   -1    0    0  501    0  0.00000000000E+00  0.00000000000E+00  0.10529586352E+03  0.10529586356E+03  0.26000000000E-02 0. -1.
         -2   -1    0    0    0  501 -0.00000000000E+00 -0.00000000000E+00 -0.94972255481E+00  0.94972611374E+00  0.26000000000E-02 0.  1.
       1023    2    1    2    0    0  0.00000000000E+00  0.00000000000E+00  0.10434614097E+03  0.10624558967E+03  0.20000204727E+02 0.  0.
        -11    1    3    3    0    0 -0.72615874543E+01 -0.68754192886E+01  0.52162093771E+02  0.53112014362E+02  0.51100000000E-03 0. -1.
         11    1    3    3    0    0  0.72615874543E+01  0.68754192886E+01  0.52184047197E+02  0.53133575307E+02  0.51100000000E-03 0.  1.
<mgrwt>
<rscale>  0 0.20000205E+02</rscale>
<asrwt>0</asrwt>
<pdfrwt beam="1">  1        2 0.16199359E-01 0.20000205E+02</pdfrwt>
<pdfrwt beam="2">  1       -2 0.14611148E-03 0.20000205E+02</pdfrwt>
<totfact> 0.53386433E+06</totfact>
</mgrwt>
</event>
<event>
 4    1  0.4057745E-006  0.2023594E+02  0.7818608E-02  0.1740676E+00
         -2   -1    0    0    0  501 -0.00000000000E+00  0.00000000000E+00  0.24704355832E+01  0.24704369514E+01  0.26000000000E-02 0. -1.
          2   -1    0    0  501    0  0.00000000000E+00 -0.00000000000E+00 -0.41439349665E+02  0.41439349747E+02  0.26000000000E-02 0.  1.
        -11    1    1    2    0    0  0.80561039128E+01  0.59678003189E+01 -0.16526850560E+02  0.19330086409E+02  0.51100000000E-03 0. -1.
         11    1    1    2    0    0 -0.80561039128E+01 -0.59678003189E+01 -0.22442063522E+02  0.24579700289E+02  0.51100000000E-03 0.  1.
<mgrwt>
<rscale>  0 0.20235936E+02</rscale>
<asrwt>0</asrwt>
<pdfrwt beam="2">  1        2 0.63752841E-02 0.20235936E+02</pdfrwt>
<pdfrwt beam="1">  1       -2 0.38006716E-03 0.20235936E+02</pdfrwt>
<totfact> 0.43940279E+06</totfact>
</mgrwt>
</event>
<event>
 5    1  0.4075358E-006  0.2000321E+02  0.7818608E-02  0.1745264E+00
         -2   -1    0    0    0  501 -0.00000000000E+00  0.00000000000E+00  0.11455562634E+01  0.11455592140E+01  0.26000000000E-02 0.  1.
          2   -1    0    0  501    0  0.00000000000E+00 -0.00000000000E+00 -0.87321776025E+02  0.87321776064E+02  0.26000000000E-02 0. -1.
       1023    2    1    2    0    0  0.00000000000E+00  0.00000000000E+00 -0.86176219762E+02  0.88467335278E+02  0.20003213710E+02 0.  0.
        -11    1    3    3    0    0 -0.60535165451E+01 -0.79607924217E+01 -0.43589664829E+02  0.44722233383E+02  0.51100000000E-03 0.  1.
         11    1    3    3    0    0  0.60535165451E+01  0.79607924217E+01 -0.42586554932E+02  0.43745101895E+02  0.51100000000E-03 0. -1.
<mgrwt>
<rscale>  0 0.20003214E+02</rscale>
<asrwt>0</asrwt>
<pdfrwt beam="2">  1        2 0.13434114E-01 0.20003214E+02</pdfrwt>
<pdfrwt beam="1">  1       -2 0.17623972E-03 0.20003214E+02</pdfrwt>
<totfact> 0.51196100E+06</totfact>
</mgrwt>
</event>
<event>
 5    1  0.4074248E-006  0.2000121E+02  0.7818608E-02  0.1745304E+00
          2   -1    0    0  501    0  0.00000000000E+00  0.00000000000E+00  0.15140838302E+02  0.15140838525E+02  0.26000000000E-02 0. -1.
         -2   -1    0    0    0  501 -0.00000000000E+00 -0.00000000000E+00 -0.66054538152E+01  0.66054543269E+01  0.26000000000E-02 0.  1.
       1023    2    1    2    0    0  0.00000000000E+00  0.00000000000E+00  0.85353844870E+01  0.21746292852E+02  0.20001211575E+02 0.  0.
        -11    1    3    3    0    0 -0.65960795957E+01  0.75162149421E+01  0.43783716635E+01  0.10916587918E+02  0.51100000000E-03 0.  1.
         11    1    3    3    0    0  0.65960795957E+01 -0.75162149421E+01  0.41570128236E+01  0.10829704934E+02  0.51100000000E-03 0. -1.
<mgrwt>
<rscale>  0 0.20001212E+02</rscale>
<asrwt>0</asrwt>
<pdfrwt beam="1">  1        2 0.23293597E-02 0.20001212E+02</pdfrwt>
<pdfrwt beam="2">  1       -2 0.10162237E-02 0.20001212E+02</pdfrwt>
<totfact> 0.40714123E+06</totfact>
</mgrwt>
</event>
<event>
 5    1  0.4046313E-006  0.2000831E+02  0.7818608E-02  0.1745163E+00
          2   -1    0    0  501    0  0.00000000000E+00  0.00000000000E+00  0.11279991303E+01  0.11280021267E+01  0.26000000000E-02 0. -1.
         -2   -1    0    0    0  501 -0.00000000000E+00 -0.00000000000E+00 -0.88726109896E+02  0.88726109934E+02  0.26000000000E-02 0.  1.
       1023    2    1    2    0    0  0.00000000000E+00  0.00000000000E+00 -0.87598110766E+02  0.89854112061E+02  0.20008309387E+02 0.  0.
        -11    1    3    3    0    0  0.71936839695E+01  0.69522140762E+01 -0.43676787906E+02  0.44807858369E+02  0.51100000000E-03 0.  1.
         11    1    3    3    0    0 -0.71936839695E+01 -0.69522140762E+01 -0.43921322860E+02  0.45046253692E+02  0.51100000000E-03 0. -1.
<mgrwt>
<rscale>  0 0.20008309E+02</rscale>
<asrwt>0</asrwt>
<pdfrwt beam="1">  1        2 0.17353863E-03 0.20008309E+02</pdfrwt>
<pdfrwt beam="2">  1       -2 0.13650165E-01 0.20008309E+02</pdfrwt>
<totfact> 0.30545138E+06</totfact>
</mgrwt>
</event>
<event>
 5    1  0.4046313E-006  0.2000562E+02  0.7818608E-02  0.1745216E+00
         -2   -1    0    0    0  501 -0.00000000000E+00  0.00000000000E+00  0.98052355228E+00  0.98052699941E+00  0.26000000000E-02 0.  1.
          2   -1    0    0  501    0  0.00000000000E+00 -0.00000000000E+00 -0.10204344572E+03  0.10204344575E+03  0.26000000000E-02 0. -1.
       1023    2    1    2    0    0  0.00000000000E+00  0.00000000000E+00 -0.10106292217E+03  0.10302397275E+03  0.20005617327E+02 0.  0.
        -11    1    3    3    0    0 -0.91500947913E+01 -0.40379975923E+01 -0.49692799729E+02  0.50689288853E+02  0.51100000000E-03 0. -1.
         11    1    3    3    0    0  0.91500947913E+01  0.40379975923E+01 -0.51370122440E+02  0.52334683901E+02  0.51100000000E-03 0.  1.
<mgrwt>
<rscale>  0 0.20005617E+02</rscale>
<asrwt>0</asrwt>
<pdfrwt beam="2">  1        2 0.15698984E-01 0.20005617E+02</pdfrwt>
<pdfrwt beam="1">  1       -2 0.15085013E-03 0.20005617E+02</pdfrwt>
<totfact> 0.52969186E+06</totfact>
</mgrwt>
</event>
<event>
 5    1  0.4046313E-006  0.2000013E+02  0.7818608E-02  0.1745325E+00
         -2   -1    0    0    0  501 -0.00000000000E+00  0.00000000000E+00  0.22504997534E+01  0.22505012553E+01  0.26000000000E-02 0.  1.
          2   -1    0    0  501    0  0.00000000000E+00 -0.00000000000E+00 -0.44435154069E+02  0.44435154145E+02  0.26000000000E-02 0. -1.
       1023    2    1    2    0    0  0.00000000000E+00  0.00000000000E+00 -0.42184654316E+02  0.46685655400E+02  0.20000134010E+02 0.  0.
        -11    1    3    3    0    0  0.54486262458E+01 -0.83853328422E+01 -0.21097550522E+02  0.23347547475E+02  0.51100000000E-03 0.  1.
         11    1    3    3    0    0 -0.54486262458E+01  0.83853328422E+01 -0.21087103794E+02  0.23338107925E+02  0.51100000000E-03 0. -1.
<mgrwt>
<rscale>  0 0.20000134E+02</rscale>
<asrwt>0</asrwt>
<pdfrwt beam="2">  1        2 0.68361770E-02 0.20000134E+02</pdfrwt>
<pdfrwt beam="1">  1       -2 0.34623089E-03 0.20000134E+02</pdfrwt>
<totfact> 0.45539706E+06</totfact>
</mgrwt>
</event>
<event>
 5    1  0.4046313E-006  0.2000021E+02  0.7818608E-02  0.1745324E+00
          2   -1    0    0  501    0  0.00000000000E+00  0.00000000000E+00  0.23795882741E+01  0.23795896945E+01  0.26000000000E-02 0. -1.
         -2   -1    0    0    0  501 -0.00000000000E+00 -0.00000000000E+00 -0.42024939970E+02  0.42024940050E+02  0.26000000000E-02 0.  1.
       1023    2    1    2    0    0  0.00000000000E+00  0.00000000000E+00 -0.39645351696E+02  0.44404529745E+02  0.20000208768E+02 0.  0.
        -11    1    3    3    0    0  0.95195003227E+01 -0.30628290199E+01 -0.19785562391E+02  0.22169129153E+02  0.51100000000E-03 0.  1.
         11    1    3    3    0    0 -0.95195003227E+01  0.30628290199E+01 -0.19859789305E+02  0.22235400592E+02  0.51100000000E-03 0. -1.
<mgrwt>
<rscale>  0 0.20000209E+02</rscale>
<asrwt>0</asrwt>
<pdfrwt beam="1">  1        2 0.36609065E-03 0.20000209E+02</pdfrwt>
<pdfrwt beam="2">  1       -2 0.64653750E-02 0.20000209E+02</pdfrwt>
<totfact> 0.34704586E+06</totfact>
</mgrwt>
</event>
<event>
 5    1  0.4046313E-006  0.2000247E+02  0.7818608E-02  0.1745279E+00
         -2   -1    0    0    0  501 -0.00000000000E+00  0.00000000000E+00  0.21965228139E+01  0.21965243526E+01  0.26000000000E-02 0.  1.
          2   -1    0    0  501    0  0.00000000000E+00 -0.00000000000E+00 -0.45537708272E+02  0.45537708347E+02  0.26000000000E-02 0. -1.
       1023    2    1    2    0    0  0.00000000000E+00  0.00000000000E+00 -0.43341185459E+02  0.47734232699E+02  0.20002465209E+02 0.  0.
        -11    1    3    3    0    0 -0.47897348222E+01  0.87796970732E+01 -0.21661994175E+02  0.23859309132E+02  0.51100000000E-03 0.  1.
         11    1    3    3    0    0  0.47897348222E+01 -0.87796970732E+01 -0.21679191284E+02  0.23874923568E+02  0.51100000000E-03 0. -1.
<mgrwt>
<rscale>  0 0.20002465E+02</rscale>
<asrwt>0</asrwt>
<pdfrwt beam="2">  1        2 0.70058007E-02 0.20002465E+02</pdfrwt>
<pdfrwt beam="1">  1       -2 0.33792674E-03 0.20002465E+02</pdfrwt>
<totfact> 0.45685583E+06</totfact>
</mgrwt>
</event>
<event>
 5    1  0.4046313E-006  0.2000051E+02  0.7818608E-02  0.1745318E+00
         -2   -1    0    0    0  501 -0.00000000000E+00  0.00000000000E+00  0.93754593510E+01  0.93754597116E+01  0.26000000000E-02 0.  1.
          2   -1    0    0  501    0  0.00000000000E+00 -0.00000000000E+00 -0.10666689140E+02  0.10666689457E+02  0.26000000000E-02 0. -1.
       1023    2    1    2    0    0  0.00000000000E+00  0.00000000000E+00 -0.12912297887E+01  0.20042149168E+02  0.20000511716E+02 0.  0.
        -11    1    3    3    0    0  0.31705900094E+00 -0.99951738185E+01 -0.67871235067E+00  0.10023206911E+02  0.51100000000E-03 0.  1.
         11    1    3    3    0    0 -0.31705900094E+00  0.99951738185E+01 -0.61251743798E+00  0.10018942257E+02  0.51100000000E-03 0. -1.
<mgrwt>
<rscale>  0 0.20000512E+02</rscale>
<asrwt>0</asrwt>
<pdfrwt beam="2">  1        2 0.16410292E-02 0.20000512E+02</pdfrwt>
<pdfrwt beam="1">  1       -2 0.14423784E-02 0.20000512E+02</pdfrwt>
<totfact> 0.39648387E+06</totfact>
</mgrwt>
</event>
<event>
 5    1  0.4046313E-006  0.2000077E+02  0.7818608E-02  0.1745313E+00
          2   -1    0    0  501    0  0.00000000000E+00  0.00000000000E+00  0.17179225128E+01  0.17179244803E+01  0.26000000000E-02 0. -1.
         -2   -1    0    0    0  501 -0.00000000000E+00 -0.00000000000E+00 -0.58214308545E+02  0.58214308603E+02  0.26000000000E-02 0.  1.
       1023    2    1    2    0    0  0.00000000000E+00  0.00000000000E+00 -0.56496386032E+02  0.59932233083E+02  0.20000773177E+02 0.  0.
        -11    1    3    3    0    0 -0.65400762554E+01 -0.75652097211E+01 -0.28404933039E+02  0.30113870837E+02  0.51100000000E-03 0.  1.
         11    1    3    3    0    0  0.65400762554E+01  0.75652097211E+01 -0.28091452993E+02  0.29818362247E+02  0.51100000000E-03 0. -1.
<mgrwt>
<rscale>  0 0.20000773E+02</rscale>
<asrwt>0</asrwt>
<pdfrwt beam="1">  1        2 0.26429597E-03 0.20000773E+02</pdfrwt>
<pdfrwt beam="2">  1       -2 0.89560461E-02 0.20000773E+02</pdfrwt>
<totfact> 0.33119997E+06</totfact>
</mgrwt>
</event>
<event>
 5    1  0.4046313E-006  0.2000100E+02  0.7818608E-02  0.1745308E+00
         -2   -1    0    0    0  501 -0.00000000000E+00  0.00000000000E+00  0.30036341777E+02  0.30036341889E+02  0.26000000000E-02 0.  1.
          2   -1    0    0  501    0  0.00000000000E+00 -0.00000000000E+00 -0.33296332757E+01  0.33296342908E+01  0.26000000000E-02 0. -1.
       1023    2    1    2    0    0  0.00000000000E+00  0.00000000000E+00  0.26706708501E+02  0.33365976180E+02  0.20001002162E+02 0.  0.
        -11    1    3    3    0    0  0.12987982197E+00  0.99995490554E+01  0.13275615925E+02  0.16620764980E+02  0.51100000000E-03 0. -1.
         11    1    3    3    0    0 -0.12987982197E+00 -0.99995490554E+01  0.13431092576E+02  0.16745211200E+02  0.51100000000E-03 0.  1.
<mgrwt>
<rscale>  0 0.20001002E+02</rscale>
<asrwt>0</asrwt>
<pdfrwt beam="2">  1        2 0.51225137E-03 0.20001002E+02</pdfrwt>
<pdfrwt beam="1">  1       -2 0.46209756E-02 0.20001002E+02</pdfrwt>
<totfact> 0.36055933E+06</totfact>
</mgrwt>
</event>
<event>
 5    1  0.4046313E-006  0.2000075E+02  0.7818608E-02  0.1745313E+00
          2   -1    0    0  501    0  0.00000000000E+00  0.00000000000E+00  0.18964062943E+01  0.18964080766E+01  0.26000000000E-02 0. -1.
         -2   -1    0    0    0  501 -0.00000000000E+00 -0.00000000000E+00 -0.52735257060E+02  0.52735257125E+02  0.26000000000E-02 0.  1.
       1023    2    1    2    0    0  0.00000000000E+00  0.00000000000E+00 -0.50838850766E+02  0.54631665201E+02  0.20000752371E+02 0.  0.
        -11    1    3    3    0    0 -0.99551271158E+01  0.94940666117E+00 -0.25528503316E+02  0.27417337776E+02  0.51100000000E-03 0.  1.
         11    1    3    3    0    0  0.99551271158E+01 -0.94940666117E+00 -0.25310347450E+02  0.27214327425E+02  0.51100000000E-03 0. -1.
<mgrwt>
<rscale>  0 0.20000752E+02</rscale>
<asrwt>0</asrwt>
<pdfrwt beam="1">  1        2 0.29175500E-03 0.20000752E+02</pdfrwt>
<pdfrwt beam="2">  1       -2 0.81131155E-02 0.20000752E+02</pdfrwt>
<totfact> 0.33632036E+06</totfact>
</mgrwt>
</event>
<event>
 5    1  0.4046313E-006  0.2000226E+02  0.7818608E-02  0.1745283E+00
          2   -1    0    0  501    0  0.00000000000E+00  0.00000000000E+00  0.11950658912E+01  0.11950687195E+01  0.26000000000E-02 0. -1.
         -2   -1    0    0    0  501 -0.00000000000E+00 -0.00000000000E+00 -0.83696205110E+02  0.83696205150E+02  0.26000000000E-02 0.  1.
       1023    2    1    2    0    0  0.00000000000E+00  0.00000000000E+00 -0.82501139218E+02  0.84891273869E+02  0.20002260044E+02 0.  0.
        -11    1    3    3    0    0  0.16377269416E+00 -0.99991842090E+01 -0.40783814660E+02  0.41992023585E+02  0.51100000000E-03 0. -1.
         11    1    3    3    0    0 -0.16377269416E+00  0.99991842090E+01 -0.41717324559E+02  0.42899250284E+02  0.51100000000E-03 0.  1.
<mgrwt>
<rscale>  0 0.20002260E+02</rscale>
<asrwt>0</asrwt>
<pdfrwt beam="1">  1        2 0.18385658E-03 0.20002260E+02</pdfrwt>
<pdfrwt beam="2">  1       -2 0.12876335E-01 0.20002260E+02</pdfrwt>
<totfact> 0.30956596E+06</totfact>
</mgrwt>
</event>
<event>
 5    1  0.4046313E-006  0.2000020E+02  0.7818608E-02  0.1745324E+00
          2   -1    0    0  501    0  0.00000000000E+00  0.00000000000E+00  0.40170448634E+02  0.40170448718E+02  0.26000000000E-02 0. -1.
         -2   -1    0    0    0  501 -0.00000000000E+00 -0.00000000000E+00 -0.24894415187E+01  0.24894428764E+01  0.26000000000E-02 0.  1.
       1023    2    1    2    0    0  0.00000000000E+00  0.00000000000E+00  0.37681007115E+02  0.42659891595E+02  0.20000201340E+02 0.  0.
        -11    1    3    3    0    0 -0.44143464249E+01  0.89730079564E+01  0.18896410311E+02  0.21379327610E+02  0.51100000000E-03 0.  1.
         11    1    3    3    0    0  0.44143464249E+01 -0.89730079564E+01  0.18784596804E+02  0.21280563984E+02  0.51100000000E-03 0. -1.
<mgrwt>
<rscale>  0 0.20000201E+02</rscale>
<asrwt>0</asrwt>
<pdfrwt beam="1">  1        2 0.61800690E-02 0.20000201E+02</pdfrwt>
<pdfrwt beam="2">  1       -2 0.38299112E-03 0.20000201E+02</pdfrwt>
<totfact> 0.44920358E+06</totfact>
</mgrwt>
</event>
<event>
 5    1  0.4046313E-006  0.2000318E+02  0.7818608E-02  0.1745265E+00
         -2   -1    0    0    0  501 -0.00000000000E+00  0.00000000000E+00  0.33597793966E+02  0.33597794066E+02  0.26000000000E-02 0.  1.
          2   -1    0    0  501    0  0.00000000000E+00 -0.00000000000E+00 -0.29773318505E+01  0.29773329857E+01  0.26000000000E-02 0. -1.
       1023    2    1    2    0    0  0.00000000000E+00  0.00000000000E+00  0.30620462115E+02  0.36575127052E+02  0.20003180215E+02 0.  0.
        -11    1    3    3    0    0  0.65485914017E+01  0.75594219257E+01  0.15211846332E+02  0.18205196464E+02  0.51100000000E-03 0. -1.
         11    1    3    3    0    0 -0.65485914017E+01 -0.75594219257E+01  0.15408615783E+02  0.18369930588E+02  0.51100000000E-03 0.  1.
<mgrwt>
<rscale>  0 0.20003180E+02</rscale>
<asrwt>0</asrwt>
<pdfrwt beam="2">  1        2 0.45805114E-03 0.20003180E+02</pdfrwt>
<pdfrwt beam="1">  1       -2 0.51688916E-02 0.20003180E+02</pdfrwt>
<totfact> 0.35621979E+06</totfact>
</mgrwt>
</event>
<event>
 5    1  0.4046313E-006  0.2000134E+02  0.7818608E-02  0.1745301E+00
          2   -1    0    0  501    0  0.00000000000E+00  0.00000000000E+00  0.28353924367E+02  0.28353924486E+02  0.26000000000E-02 0. -1.
         -2   -1    0    0    0  501 -0.00000000000E+00 -0.00000000000E+00 -0.35273201616E+01  0.35273211198E+01  0.26000000000E-02 0.  1.
       1023    2    1    2    0    0  0.00000000000E+00  0.00000000000E+00  0.24826604205E+02  0.31881245606E+02  0.20001338581E+02 0.  0.
        -11    1    3    3    0    0 -0.99852021259E+01  0.54922815965E+00  0.12551093343E+02  0.16047923773E+02  0.51100000000E-03 0. -1.
         11    1    3    3    0    0  0.99852021259E+01 -0.54922815965E+00  0.12275510862E+02  0.15833321833E+02  0.51100000000E-03 0.  1.
<mgrwt>
<rscale>  0 0.20001339E+02</rscale>
<asrwt>0</asrwt>
<pdfrwt beam="1">  1        2 0.43621422E-02 0.20001339E+02</pdfrwt>
<pdfrwt beam="2">  1       -2 0.54266473E-03 0.20001339E+02</pdfrwt>
<totfact> 0.43103316E+06</totfact>
</mgrwt>
</event>
<event>
 5    1  0.4046313E-006  0.2000038E+02  0.7818608E-02  0.1745320E+00
         -2   -1    0    0    0  501 -0.00000000000E+00  0.00000000000E+00  0.13095125629E+01  0.13095151440E+01  0.26000000000E-02 0.  1.
          2   -1    0    0  501    0  0.00000000000E+00 -0.00000000000E+00 -0.76367134171E+02  0.76367134216E+02  0.26000000000E-02 0. -1.
       1023    2    1    2    0    0  0.00000000000E+00  0.00000000000E+00 -0.75057621608E+02  0.77676649360E+02  0.20000382352E+02 0.  0.
        -11    1    3    3    0    0 -0.20464819291E+01 -0.97885510484E+01 -0.37521670176E+02  0.38831424813E+02  0.51100000000E-03 0. -1.
         11    1    3    3    0    0  0.20464819291E+01  0.97885510484E+01 -0.37535951432E+02  0.38845224547E+02  0.51100000000E-03 0.  1.
<mgrwt>
<rscale>  0 0.20000382E+02</rscale>
<asrwt>0</asrwt>
<pdfrwt beam="2">  1        2 0.11748787E-01 0.20000382E+02</pdfrwt>
<pdfrwt beam="1">  1       -2 0.20146373E-03 0.20000382E+02</pdfrwt>
<totfact> 0.49837024E+06</totfact>
</mgrwt>
</event>
<event>
 4    1  0.4046313E-006  0.2005495E+02  0.7818608E-02  0.1744237E+00
         -2   -1    0    0    0  501 -0.00000000000E+00  0.00000000000E+00  0.56911203080E+01  0.56911209019E+01  0.26000000000E-02 0. -1.
          2   -1    0    0  501    0  0.00000000000E+00 -0.00000000000E+00 -0.17667925095E+02  0.17667925287E+02  0.26000000000E-02 0.  1.
        -11    1    1    2    0    0  0.15006061083E+01 -0.99124385053E+01 -0.62272203018E+01  0.11801971393E+02  0.51100000000E-03 0. -1.
         11    1    1    2    0    0 -0.15006061083E+01  0.99124385053E+01 -0.57495844855E+01  0.11557074796E+02  0.51100000000E-03 0.  1.
<mgrwt>
<rscale>  0 0.20054954E+02</rscale>
<asrwt>0</asrwt>
<pdfrwt beam="2">  1        2 0.27181424E-02 0.20054954E+02</pdfrwt>
<pdfrwt beam="1">  1       -2 0.87555704E-03 0.20054954E+02</pdfrwt>
<totfact> 0.40980546E+06</totfact>
</mgrwt>
</event>
<event>
 5    1  0.4046313E-006  0.2000325E+02  0.7818608E-02  0.1745264E+00
         -2   -1    0    0    0  501 -0.00000000000E+00  0.00000000000E+00  0.45464892750E+01  0.45464900184E+01  0.26000000000E-02 0. -1.
          2   -1    0    0  501    0  0.00000000000E+00 -0.00000000000E+00 -0.22002131354E+02  0.22002131508E+02  0.26000000000E-02 0.  1.
       1023    2    1    2    0    0  0.00000000000E+00  0.00000000000E+00 -0.17455642079E+02  0.26548621526E+02  0.20003246350E+02 0.  0.
        -11    1    3    3    0    0 -0.64080507492E+00 -0.99809423205E+01 -0.86598198654E+01  0.13229600187E+02  0.51100000000E-03 0.  1.
         11    1    3    3    0    0  0.64080507492E+00  0.99809423205E+01 -0.87958222135E+01  0.13319021339E+02  0.51100000000E-03 0. -1.
<mgrwt>
<rscale>  0 0.20003246E+02</rscale>
<asrwt>0</asrwt>
<pdfrwt beam="2">  1        2 0.33849433E-02 0.20003246E+02</pdfrwt>
<pdfrwt beam="1">  1       -2 0.69945997E-03 0.20003246E+02</pdfrwt>
<totfact> 0.42023945E+06</totfact>
</mgrwt>
</event>
<event>
 4    1  0.4046313E-006  0.2001395E+02  0.7818608E-02  0.1745051E+00
         -2   -1    0    0    0  501 -0.00000000000E+00  0.00000000000E+00  0.13474833327E+01  0.13474858410E+01  0.26000000000E-02 0.  1.
          2   -1    0    0  501    0  0.00000000000E+00 -0.00000000000E+00 -0.74315923594E+02  0.74315923639E+02  0.26000000000E-02 0. -1.
        -11    1    1    2    0    0  0.96815158056E+01 -0.25124973485E+01 -0.35317917786E+02  0.36706943597E+02  0.51100000000E-03 0. -1.
         11    1    1    2    0    0 -0.96815158056E+01  0.25124973485E+01 -0.37650522475E+02  0.38956465883E+02  0.51100000000E-03 0.  1.
<mgrwt>
<rscale>  0 0.20013952E+02</rscale>
<asrwt>0</asrwt>
<pdfrwt beam="2">  1        2 0.11433216E-01 0.20013952E+02</pdfrwt>
<pdfrwt beam="1">  1       -2 0.20730538E-03 0.20013952E+02</pdfrwt>
<totfact> 0.49500434E+06</totfact>
</mgrwt>
</event>
<event>
 5    1  0.4046313E-006  0.2000108E+02  0.7818608E-02  0.1745307E+00
         -2   -1    0    0    0  501 -0.00000000000E+00  0.00000000000E+00  0.32313045602E+01  0.32313056062E+01  0.26000000000E-02 0.  1.
          2   -1    0    0  501    0  0.00000000000E+00 -0.00000000000E+00 -0.30950574873E+02  0.30950574983E+02  0.26000000000E-02 0. -1.
       1023    2    1    2    0    0  0.00000000000E+00  0.00000000000E+00 -0.27719270313E+02  0.34181880589E+02  0.20001075318E+02 0.  0.
        -11    1    3    3    0    0  0.12034060261E+01  0.99278549572E+01 -0.13831914628E+02  0.17068460758E+02  0.51100000000E-03 0. -1.
         11    1    3    3    0    0 -0.12034060261E+01 -0.99278549572E+01 -0.13887355685E+02  0.17113419831E+02  0.51100000000E-03 0.  1.
<mgrwt>
<rscale>  0 0.20001075E+02</rscale>
<asrwt>0</asrwt>
<pdfrwt beam="2">  1        2 0.47616268E-02 0.20001075E+02</pdfrwt>
<pdfrwt beam="1">  1       -2 0.49712389E-03 0.20001075E+02</pdfrwt>
<totfact> 0.43518132E+06</totfact>
</mgrwt>
</event>
<event>
 5    1  0.4046313E-006  0.2000036E+02  0.7818608E-02  0.1745321E+00
         -2   -1    0    0    0  501 -0.00000000000E+00  0.00000000000E+00  0.57130320746E+02  0.57130320806E+02  0.26000000000E-02 0. -1.
          2   -1    0    0  501    0  0.00000000000E+00 -0.00000000000E+00 -0.17504463486E+01  0.17504482795E+01  0.26000000000E-02 0.  1.
       1023    2    1    2    0    0  0.00000000000E+00  0.00000000000E+00  0.55379874398E+02  0.58880769085E+02  0.20000361990E+02 0.  0.
        -11    1    3    3    0    0 -0.26692305581E+01 -0.96373662163E+01  0.27691589134E+02  0.29441938258E+02  0.51100000000E-03 0. -1.
         11    1    3    3    0    0  0.26692305581E+01  0.96373662163E+01  0.27688285264E+02  0.29438830827E+02  0.51100000000E-03 0.  1.
<mgrwt>
<rscale>  0 0.20000362E+02</rscale>
<asrwt>0</asrwt>
<pdfrwt beam="2">  1        2 0.26929958E-03 0.20000362E+02</pdfrwt>
<pdfrwt beam="1">  1       -2 0.87892808E-02 0.20000362E+02</pdfrwt>
<totfact> 0.33221185E+06</totfact>
</mgrwt>
</event>
<event>
 5    1  0.4046313E-006  0.2000096E+02  0.7818608E-02  0.1745309E+00
         -2   -1    0    0    0  501 -0.00000000000E+00  0.00000000000E+00  0.41591559373E+02  0.41591559454E+02  0.26000000000E-02 0. -1.
          2   -1    0    0  501    0  0.00000000000E+00 -0.00000000000E+00 -0.24045634794E+01  0.24045648851E+01  0.26000000000E-02 0.  1.
       1023    2    1    2    0    0  0.00000000000E+00  0.00000000000E+00  0.39186995893E+02  0.43996124339E+02  0.20000957720E+02 0.  0.
        -11    1    3    3    0    0 -0.98834285795E+01 -0.15255838190E+01  0.19586304996E+02  0.21991655466E+02  0.51100000000E-03 0.  1.
         11    1    3    3    0    0  0.98834285795E+01  0.15255838190E+01  0.19600690898E+02  0.22004468873E+02  0.51100000000E-03 0. -1.
<mgrwt>
<rscale>  0 0.20000958E+02</rscale>
<asrwt>0</asrwt>
<pdfrwt beam="2">  1        2 0.36993294E-03 0.20000958E+02</pdfrwt>
<pdfrwt beam="1">  1       -2 0.63987018E-02 0.20000958E+02</pdfrwt>
<totfact> 0.34747397E+06</totfact>
</mgrwt>
</event>
<event>
 5    1  0.4046313E-006  0.2000072E+02  0.7818608E-02  0.1745314E+00
         -2   -1    0    0    0  501 -0.00000000000E+00  0.00000000000E+00  0.41136144477E+01  0.41136152694E+01  0.26000000000E-02 0.  1.
          2   -1    0    0  501    0  0.00000000000E+00 -0.00000000000E+00 -0.24311266931E+02  0.24311267070E+02  0.26000000000E-02 0. -1.
       1023    2    1    2    0    0  0.00000000000E+00  0.00000000000E+00 -0.20197652484E+02  0.28424882340E+02  0.20000719242E+02 0.  0.
        -11    1    3    3    0    0 -0.89236213024E+01  0.45132772990E+01 -0.99842181871E+01  0.14131004996E+02  0.51100000000E-03 0. -1.
         11    1    3    3    0    0  0.89236213024E+01 -0.45132772990E+01 -0.10213434297E+02  0.14293877344E+02  0.51100000000E-03 0.  1.
<mgrwt>
<rscale>  0 0.20000719E+02</rscale>
<asrwt>0</asrwt>
<pdfrwt beam="2">  1        2 0.37401949E-02 0.20000719E+02</pdfrwt>
<pdfrwt beam="1">  1       -2 0.63286385E-03 0.20000719E+02</pdfrwt>
<totfact> 0.42436505E+06</totfact>
</mgrwt>
</event>
<event>
 5    1  0.4328032E-006  0.2000131E+02  0.7818608E-02  0.1745302E+00
          2   -1    0    0  501    0  0.00000000000E+00  0.00000000000E+00  0.10828761380E+03  0.10828761383E+03  0.26000000000E-02 0.  1.
         -2   -1    0    0    0  501 -0.00000000000E+00 -0.00000000000E+00 -0.92358536706E+00  0.92358902671E+00  0.26000000000E-02 0. -1.
       1023    2    1    2    0    0  0.00000000000E+00  0.00000000000E+00  0.10736402843E+03  0.10921120286E+03  0.20001305665E+02 0.  0.
        -11    1    3    3    0    0 -0.97396050221E+01  0.22691107576E+01  0.53324497965E+02  0.54254132129E+02  0.51100000000E-03 0.  1.
         11    1    3    3    0    0  0.97396050221E+01 -0.22691107576E+01  0.54039530465E+02  0.54957070726E+02  0.51100000000E-03 0. -1.
<mgrwt>
<rscale>  0 0.20001306E+02</rscale>
<asrwt>0</asrwt>
<pdfrwt beam="1">  1        2 0.16659623E-01 0.20001306E+02</pdfrwt>
<pdfrwt beam="2">  1       -2 0.14209043E-03 0.20001306E+02</pdfrwt>
<totfact> 0.53731662E+06</totfact>
</mgrwt>
</event>
<event>
 5    1  0.4046313E-006  0.2000226E+02  0.7818608E-02  0.1745283E+00
         -2   -1    0    0    0  501 -0.00000000000E+00  0.00000000000E+00  0.44946648115E+01  0.44946655635E+01  0.26000000000E-02 0. -1.
          2   -1    0    0  501    0  0.00000000000E+00 -0.00000000000E+00 -0.22253618678E+02  0.22253618830E+02  0.26000000000E-02 0.  1.
       1023    2    1    2    0    0  0.00000000000E+00  0.00000000000E+00 -0.17758953867E+02  0.26748284394E+02  0.20002256762E+02 0.  0.
        -11    1    3    3    0    0 -0.45451265727E+01 -0.89084267711E+01 -0.87915267603E+01  0.13315749552E+02  0.51100000000E-03 0. -1.
         11    1    3    3    0    0  0.45451265727E+01  0.89084267711E+01 -0.89674271067E+01  0.13432534842E+02  0.51100000000E-03 0.  1.
<mgrwt>
<rscale>  0 0.20002257E+02</rscale>
<asrwt>0</asrwt>
<pdfrwt beam="2">  1        2 0.34236336E-02 0.20002257E+02</pdfrwt>
<pdfrwt beam="1">  1       -2 0.69148698E-03 0.20002257E+02</pdfrwt>
<totfact> 0.42073013E+06</totfact>
</mgrwt>
</event>
<event>
 5    1  0.4046313E-006  0.2000219E+02  0.7818608E-02  0.1745285E+00
          2   -1    0    0  501    0  0.00000000000E+00  0.00000000000E+00  0.45862736629E+01  0.45862743999E+01  0.26000000000E-02 0. -1.
         -2   -1    0    0    0  501 -0.00000000000E+00 -0.00000000000E+00 -0.21808961161E+02  0.21808961316E+02  0.26000000000E-02 0.  1.
       1023    2    1    2    0    0  0.00000000000E+00  0.00000000000E+00 -0.17222687498E+02  0.26395235716E+02  0.20002187476E+02 0.  0.
        -11    1    3    3    0    0  0.90015958211E+01  0.43581129244E+01 -0.86109041650E+01  0.13197331033E+02  0.51100000000E-03 0. -1.
         11    1    3    3    0    0 -0.90015958211E+01 -0.43581129244E+01 -0.86117833333E+01  0.13197904683E+02  0.51100000000E-03 0.  1.
<mgrwt>
<rscale>  0 0.20002187E+02</rscale>
<asrwt>0</asrwt>
<pdfrwt beam="1">  1        2 0.70558064E-03 0.20002187E+02</pdfrwt>
<pdfrwt beam="2">  1       -2 0.33552248E-02 0.20002187E+02</pdfrwt>
<totfact> 0.37150817E+06</totfact>
</mgrwt>
</event>
<event>
 5    1  0.4046313E-006  0.2000061E+02  0.7818608E-02  0.1745316E+00
         -2   -1    0    0    0  501 -0.00000000000E+00  0.00000000000E+00  0.25319076151E+02  0.25319076284E+02  0.26000000000E-02 0. -1.
          2   -1    0    0  501    0  0.00000000000E+00 -0.00000000000E+00 -0.39498296512E+01  0.39498305070E+01  0.26000000000E-02 0.  1.
       1023    2    1    2    0    0  0.00000000000E+00  0.00000000000E+00  0.21369246500E+02  0.29268906791E+02  0.20000605211E+02 0.  0.
        -11    1    3    3    0    0  0.52217189283E+01  0.85284595195E+01  0.10580304230E+02  0.14558290016E+02  0.51100000000E-03 0.  1.
         11    1    3    3    0    0 -0.52217189283E+01 -0.85284595195E+01  0.10788942270E+02  0.14710616775E+02  0.51100000000E-03 0. -1.
<mgrwt>
<rscale>  0 0.20000605E+02</rscale>
<asrwt>0</asrwt>
<pdfrwt beam="2">  1        2 0.60766616E-03 0.20000605E+02</pdfrwt>
<pdfrwt beam="1">  1       -2 0.38952426E-02 0.20000605E+02</pdfrwt>
<totfact> 0.36663405E+06</totfact>
</mgrwt>
</event>
<event>
 5    1  0.4046313E-006  0.2000082E+02  0.7818608E-02  0.1745312E+00
         -2   -1    0    0    0  501 -0.00000000000E+00  0.00000000000E+00  0.84636403122E+02  0.84636403162E+02  0.26000000000E-02 0.  1.
          2   -1    0    0  501    0  0.00000000000E+00 -0.00000000000E+00 -0.11816202277E+01  0.11816230881E+01  0.26000000000E-02 0. -1.
       1023    2    1    2    0    0  0.00000000000E+00  0.00000000000E+00  0.83454782895E+02  0.85818026251E+02  0.20000821021E+02 0.  0.
        -11    1    3    3    0    0 -0.99772904873E+01  0.67931404003E+00  0.41815019385E+02  0.42994227978E+02  0.51100000000E-03 0.  1.
         11    1    3    3    0    0  0.99772904873E+01 -0.67931404003E+00  0.41639763510E+02  0.42823798272E+02  0.51100000000E-03 0. -1.
<mgrwt>
<rscale>  0 0.20000821E+02</rscale>
<asrwt>0</asrwt>
<pdfrwt beam="2">  1        2 0.18178790E-03 0.20000821E+02</pdfrwt>
<pdfrwt beam="1">  1       -2 0.13020989E-01 0.20000821E+02</pdfrwt>
<totfact> 0.30887560E+06</totfact>
</mgrwt>
</event>
<event>
 5    1  0.4046313E-006  0.2000011E+02  0.7818608E-02  0.1745326E+00
         -2   -1    0    0    0  501 -0.00000000000E+00  0.00000000000E+00  0.27385197607E+02  0.27385197730E+02  0.26000000000E-02 0.  1.
          2   -1    0    0  501    0  0.00000000000E+00 -0.00000000000E+00 -0.36516479552E+01  0.36516488808E+01  0.26000000000E-02 0. -1.
       1023    2    1    2    0    0  0.00000000000E+00  0.00000000000E+00  0.23733549651E+02  0.31036846611E+02  0.20000111712E+02 0.  0.
        -11    1    3    3    0    0 -0.82076896857E+01  0.57126721940E+01  0.11894677210E+02  0.15539759965E+02  0.51100000000E-03 0.  1.
         11    1    3    3    0    0  0.82076896857E+01 -0.57126721940E+01  0.11838872442E+02  0.15497086646E+02  0.51100000000E-03 0. -1.
<mgrwt>
<rscale>  0 0.20000112E+02</rscale>
<asrwt>0</asrwt>
<pdfrwt beam="2">  1        2 0.56179206E-03 0.20000112E+02</pdfrwt>
<pdfrwt beam="1">  1       -2 0.42131075E-02 0.20000112E+02</pdfrwt>
<totfact> 0.36393230E+06</totfact>
</mgrwt>
</event>
<event>
 5    1  0.4046313E-006  0.2000029E+02  0.7818608E-02  0.1745322E+00
          2   -1    0    0  501    0  0.00000000000E+00  0.00000000000E+00  0.73966701794E+02  0.73966701840E+02  0.26000000000E-02 0. -1.
         -2   -1    0    0    0  501 -0.00000000000E+00 -0.00000000000E+00 -0.13519973414E+01  0.13519998414E+01  0.26000000000E-02 0.  1.
       1023    2    1    2    0    0  0.00000000000E+00  0.00000000000E+00  0.72614704453E+02  0.75318701681E+02  0.20000288003E+02 0.  0.
        -11    1    3    3    0    0 -0.92081718397E+01 -0.39001290662E+01  0.36450476639E+02  0.37797336980E+02  0.51100000000E-03 0.  1.
         11    1    3    3    0    0  0.92081718397E+01  0.39001290662E+01  0.36164227814E+02  0.37521364701E+02  0.51100000000E-03 0. -1.
<mgrwt>
<rscale>  0 0.20000288E+02</rscale>
<asrwt>0</asrwt>
<pdfrwt beam="1">  1        2 0.11379496E-01 0.20000288E+02</pdfrwt>
<pdfrwt beam="2">  1       -2 0.20799973E-03 0.20000288E+02</pdfrwt>
<totfact> 0.49530598E+06</totfact>
</mgrwt>
</event>
<event>
 5    1  0.4046313E-006  0.2000103E+02  0.7818608E-02  0.1745308E+00
         -2   -1    0    0    0  501 -0.00000000000E+00  0.00000000000E+00  0.28926954503E+02  0.28926954619E+02  0.26000000000E-02 0.  1.
          2   -1    0    0  501    0  0.00000000000E+00 -0.00000000000E+00 -0.34573385552E+01  0.34573395328E+01  0.26000000000E-02 0. -1.
       1023    2    1    2    0    0  0.00000000000E+00  0.00000000000E+00  0.25469615947E+02  0.32384294152E+02  0.20001029254E+02 0.  0.
        -11    1    3    3    0    0  0.85475740851E+01  0.51909917260E+01  0.12647996176E+02  0.16123871290E+02  0.51100000000E-03 0.  1.
         11    1    3    3    0    0 -0.85475740851E+01 -0.51909917260E+01  0.12821619771E+02  0.16260422862E+02  0.51100000000E-03 0. -1.
<mgrwt>
<rscale>  0 0.20001029E+02</rscale>
<asrwt>0</asrwt>
<pdfrwt beam="2">  1        2 0.53189832E-03 0.20001029E+02</pdfrwt>
<pdfrwt beam="1">  1       -2 0.44503008E-02 0.20001029E+02</pdfrwt>
<totfact> 0.36193533E+06</totfact>
</mgrwt>
</event>
<event>
 5    1  0.4046313E-006  0.2000355E+02  0.7818608E-02  0.1745257E+00
          2   -1    0    0  501    0  0.00000000000E+00  0.00000000000E+00  0.84187482918E+02  0.84187482958E+02  0.26000000000E-02 0.  1.
         -2   -1    0    0    0  501 -0.00000000000E+00 -0.00000000000E+00 -0.11882452628E+01  0.11882481073E+01  0.26000000000E-02 0. -1.
       1023    2    1    2    0    0  0.00000000000E+00  0.00000000000E+00  0.82999237656E+02  0.85375731066E+02  0.20003549775E+02 0.  0.
        -11    1    3    3    0    0  0.59071943310E+01  0.80709297903E+01  0.41390964242E+02  0.42582235424E+02  0.51100000000E-03 0. -1.
         11    1    3    3    0    0 -0.59071943310E+01 -0.80709297903E+01  0.41608273413E+02  0.42793495642E+02  0.51100000000E-03 0.  1.
<mgrwt>
<rscale>  0 0.20003550E+02</rscale>
<asrwt>0</asrwt>
<pdfrwt beam="1">  1        2 0.12951926E-01 0.20003550E+02</pdfrwt>
<pdfrwt beam="2">  1       -2 0.18280711E-03 0.20003550E+02</pdfrwt>
<totfact> 0.50804596E+06</totfact>
</mgrwt>
</event>
<event>
 5    1  0.4160668E-006  0.2000128E+02  0.7818608E-02  0.1745303E+00
         -2   -1    0    0    0  501 -0.00000000000E+00  0.00000000000E+00  0.22117782781E+01  0.22117798063E+01  0.26000000000E-02 0. -1.
          2   -1    0    0  501    0  0.00000000000E+00 -0.00000000000E+00 -0.45218243441E+02  0.45218243516E+02  0.26000000000E-02 0.  1.
       1023    2    1    2    0    0  0.00000000000E+00  0.00000000000E+00 -0.43006465163E+02  0.47430023322E+02  0.20001276622E+02 0.  0.
        -11    1    3    3    0    0  0.74202285278E+00 -0.99725010278E+01 -0.21756331336E+02  0.23944505176E+02  0.51100000000E-03 0. -1.
         11    1    3    3    0    0 -0.74202285278E+00  0.99725010278E+01 -0.21250133827E+02  0.23485518146E+02  0.51100000000E-03 0.  1.
<mgrwt>
<rscale>  0 0.20001277E+02</rscale>
<asrwt>0</asrwt>
<pdfrwt beam="2">  1        2 0.69566523E-02 0.20001277E+02</pdfrwt>
<pdfrwt beam="1">  1       -2 0.34027374E-03 0.20001277E+02</pdfrwt>
<totfact> 0.45646024E+06</totfact>
</mgrwt>
</event>
<event>
 5    1  0.4046313E-006  0.2000392E+02  0.7818608E-02  0.1745250E+00
         -2   -1    0    0    0  501 -0.00000000000E+00  0.00000000000E+00  0.45657632535E+01  0.45657639938E+01  0.26000000000E-02 0.  1.
          2   -1    0    0  501    0  0.00000000000E+00 -0.00000000000E+00 -0.21910718504E+02  0.21910718658E+02  0.26000000000E-02 0. -1.
       1023    2    1    2    0    0  0.00000000000E+00  0.00000000000E+00 -0.17344955251E+02  0.26476482652E+02  0.20003916141E+02 0.  0.
        -11    1    3    3    0    0  0.48118644585E+01  0.87683163893E+01 -0.87278955888E+01  0.13274546077E+02  0.51100000000E-03 0. -1.
         11    1    3    3    0    0 -0.48118644585E+01 -0.87683163893E+01 -0.86170596619E+01  0.13201936576E+02  0.51100000000E-03 0.  1.
<mgrwt>
<rscale>  0 0.20003916E+02</rscale>
<asrwt>0</asrwt>
<pdfrwt beam="2">  1        2 0.33708798E-02 0.20003916E+02</pdfrwt>
<pdfrwt beam="1">  1       -2 0.70242519E-03 0.20003916E+02</pdfrwt>
<totfact> 0.42004596E+06</totfact>
</mgrwt>
</event>
<event>
 5    1  0.4046313E-006  0.2000064E+02  0.7818608E-02  0.1745315E+00
         -2   -1    0    0    0  501 -0.00000000000E+00  0.00000000000E+00  0.31842304393E+01  0.31842315008E+01  0.26000000000E-02 0.  1.
          2   -1    0    0  501    0  0.00000000000E+00 -0.00000000000E+00 -0.31406758118E+02  0.31406758225E+02  0.26000000000E-02 0. -1.
       1023    2    1    2    0    0  0.00000000000E+00  0.00000000000E+00 -0.28222527678E+02  0.34590989726E+02  0.20000637532E+02 0.  0.
        -11    1    3    3    0    0 -0.94961716039E+01 -0.31348072488E+01 -0.14032319663E+02  0.17231084905E+02  0.51100000000E-03 0.  1.
         11    1    3    3    0    0  0.94961716039E+01  0.31348072488E+01 -0.14190208015E+02  0.17359904821E+02  0.51100000000E-03 0. -1.
<mgrwt>
<rscale>  0 0.20000638E+02</rscale>
<asrwt>0</asrwt>
<pdfrwt beam="2">  1        2 0.48318088E-02 0.20000638E+02</pdfrwt>
<pdfrwt beam="1">  1       -2 0.48988172E-03 0.20000638E+02</pdfrwt>
<totfact> 0.43591837E+06</totfact>
</mgrwt>
</event>
<event>
 5    1  0.4381988E-006  0.2000078E+02  0.7818608E-02  0.1745313E+00
          2   -1    0    0  501    0  0.00000000000E+00  0.00000000000E+00  0.11345780506E+03  0.11345780509E+03  0.26000000000E-02 0. -1.
         -2   -1    0    0    0  501 -0.00000000000E+00 -0.00000000000E+00 -0.88145176798E+00  0.88145560256E+00  0.26000000000E-02 0.  1.
       1023    2    1    2    0    0  0.00000000000E+00  0.00000000000E+00  0.11257635329E+03  0.11433926069E+03  0.20000780363E+02 0.  0.
        -11    1    3    3    0    0  0.99165560721E+01 -0.12918793674E+01  0.56446489448E+02  0.57325502247E+02  0.51100000000E-03 0. -1.
         11    1    3    3    0    0 -0.99165560721E+01  0.12918793674E+01  0.56129863844E+02  0.57013758445E+02  0.51100000000E-03 0.  1.
<mgrwt>
<rscale>  0 0.20000780E+02</rscale>
<asrwt>0</asrwt>
<pdfrwt beam="1">  1        2 0.17455042E-01 0.20000780E+02</pdfrwt>
<pdfrwt beam="2">  1       -2 0.13560830E-03 0.20000780E+02</pdfrwt>
<totfact> 0.54336586E+06</totfact>
</mgrwt>
</event>
<event>
 5    1  0.4046313E-006  0.2000009E+02  0.7818608E-02  0.1745326E+00
          2   -1    0    0  501    0  0.00000000000E+00  0.00000000000E+00  0.74558829145E+01  0.74558833679E+01  0.26000000000E-02 0.  1.
         -2   -1    0    0    0  501 -0.00000000000E+00 -0.00000000000E+00 -0.13412348619E+02  0.13412348871E+02  0.26000000000E-02 0. -1.
       1023    2    1    2    0    0  0.00000000000E+00  0.00000000000E+00 -0.59564657047E+01  0.20868232239E+02  0.20000090827E+02 0.  0.
        -11    1    3    3    0    0 -0.46136282976E+01  0.88721541393E+01 -0.29626559114E+01  0.10429669959E+02  0.51100000000E-03 0.  1.
         11    1    3    3    0    0  0.46136282976E+01 -0.88721541393E+01 -0.29938097932E+01  0.10438562280E+02  0.51100000000E-03 0. -1.
<mgrwt>
<rscale>  0 0.20000091E+02</rscale>
<asrwt>0</asrwt>
<pdfrwt beam="1">  1        2 0.11470590E-02 0.20000091E+02</pdfrwt>
<pdfrwt beam="2">  1       -2 0.20634383E-02 0.20000091E+02</pdfrwt>
<totfact> 0.38620698E+06</totfact>
</mgrwt>
</event>
<event>
 5    1  0.4046313E-006  0.2000020E+02  0.7818608E-02  0.1745324E+00
          2   -1    0    0  501    0  0.00000000000E+00  0.00000000000E+00  0.27166046587E+02  0.27166046711E+02  0.26000000000E-02 0. -1.
         -2   -1    0    0    0  501 -0.00000000000E+00 -0.00000000000E+00 -0.36811376444E+01  0.36811385626E+01  0.26000000000E-02 0.  1.
       1023    2    1    2    0    0  0.00000000000E+00  0.00000000000E+00  0.23484908943E+02  0.30847185274E+02  0.20000197281E+02 0.  0.
        -11    1    3    3    0    0 -0.90601089939E+01 -0.42327736758E+01  0.11750102486E+02  0.15429415305E+02  0.51100000000E-03 0. -1.
         11    1    3    3    0    0  0.90601089939E+01  0.42327736758E+01  0.11734806456E+02  0.15417769968E+02  0.51100000000E-03 0.  1.
<mgrwt>
<rscale>  0 0.20000197E+02</rscale>
<asrwt>0</asrwt>
<pdfrwt beam="1">  1        2 0.41793918E-02 0.20000197E+02</pdfrwt>
<pdfrwt beam="2">  1       -2 0.56632895E-03 0.20000197E+02</pdfrwt>
<totfact> 0.42915668E+06</totfact>
</mgrwt>
</event>
<event>
 5    1  0.4046313E-006  0.2000096E+02  0.7818608E-02  0.1745309E+00
          2   -1    0    0  501    0  0.00000000000E+00  0.00000000000E+00  0.28425633541E+02  0.28425633660E+02  0.26000000000E-02 0. -1.
         -2   -1    0    0    0  501 -0.00000000000E+00 -0.00000000000E+00 -0.35182873511E+01  0.35182883118E+01  0.26000000000E-02 0.  1.
       1023    2    1    2    0    0  0.00000000000E+00  0.00000000000E+00  0.24907346190E+02  0.31943921972E+02  0.20000956395E+02 0.  0.
        -11    1    3    3    0    0 -0.23012157565E+01 -0.97320851674E+01  0.12488963798E+02  0.15999477888E+02  0.51100000000E-03 0.  1.
         11    1    3    3    0    0  0.23012157565E+01  0.97320851674E+01  0.12418382392E+02  0.15944444084E+02  0.51100000000E-03 0. -1.
<mgrwt>
<rscale>  0 0.20000956E+02</rscale>
<asrwt>0</asrwt>
<pdfrwt beam="1">  1        2 0.43731744E-02 0.20000956E+02</pdfrwt>
<pdfrwt beam="2">  1       -2 0.54127507E-03 0.20000956E+02</pdfrwt>
<totfact> 0.43116736E+06</totfact>
</mgrwt>
</event>
<event>
 5    1  0.4046313E-006  0.2000078E+02  0.7818608E-02  0.1745313E+00
         -2   -1    0    0    0  501 -0.00000000000E+00  0.00000000000E+00  0.11905843409E+03  0.11905843412E+03  0.26000000000E-02 0.  1.
          2   -1    0    0  501    0  0.00000000000E+00 -0.00000000000E+00 -0.83998706181E+00  0.83999108567E+00  0.26000000000E-02 0. -1.
       1023    2    1    2    0    0  0.00000000000E+00  0.00000000000E+00  0.11821844703E+03  0.11989842521E+03  0.20000778701E+02 0.  0.
        -11    1    3    3    0    0 -0.91281017027E+01  0.40847927015E+01  0.59132280646E+02  0.59971946665E+02  0.51100000000E-03 0. -1.
         11    1    3    3    0    0  0.91281017027E+01 -0.40847927015E+01  0.59086166383E+02  0.59926478540E+02  0.51100000000E-03 0.  1.
<mgrwt>
<rscale>  0 0.20000779E+02</rscale>
<asrwt>0</asrwt>
<pdfrwt beam="2">  1        2 0.12922905E-03 0.20000779E+02</pdfrwt>
<pdfrwt beam="1">  1       -2 0.18316689E-01 0.20000779E+02</pdfrwt>
<totfact> 0.28401396E+06</totfact>
</mgrwt>
</event>
<event>
 5    1  0.4046313E-006  0.2000370E+02  0.7818608E-02  0.1745255E+00
         -2   -1    0    0    0  501 -0.00000000000E+00  0.00000000000E+00  0.41247849293E+01  0.41247857487E+01  0.26000000000E-02 0.  1.
          2   -1    0    0  501    0  0.00000000000E+00 -0.00000000000E+00 -0.24252646845E+02  0.24252646984E+02  0.26000000000E-02 0. -1.
       1023    2    1    2    0    0  0.00000000000E+00  0.00000000000E+00 -0.20127861915E+02  0.28377432733E+02  0.20003696239E+02 0.  0.
        -11    1    3    3    0    0 -0.43150251371E+01 -0.90217304675E+01 -0.10292247678E+02  0.14350659395E+02  0.51100000000E-03 0. -1.
         11    1    3    3    0    0  0.43150251371E+01  0.90217304675E+01 -0.98356142377E+01  0.14026773337E+02  0.51100000000E-03 0.  1.
<mgrwt>
<rscale>  0 0.20003696E+02</rscale>
<asrwt>0</asrwt>
<pdfrwt beam="2">  1        2 0.37311764E-02 0.20003696E+02</pdfrwt>
<pdfrwt beam="1">  1       -2 0.63458239E-03 0.20003696E+02</pdfrwt>
<totfact> 0.42412326E+06</totfact>
</mgrwt>
</event>
<event>
 5    1  0.4046313E-006  0.2000010E+02  0.7818608E-02  0.1745326E+00
          2   -1    0    0  501    0  0.00000000000E+00  0.00000000000E+00  0.90862588153E+02  0.90862588190E+02  0.26000000000E-02 0. -1.
         -2   -1    0    0    0  501 -0.00000000000E+00 -0.00000000000E+00 -0.11005721148E+01  0.11005751859E+01  0.26000000000E-02 0.  1.
       1023    2    1    2    0    0  0.00000000000E+00  0.00000000000E+00  0.89762016038E+02  0.91963163376E+02  0.20000097372E+02 0.  0.
        -11    1    3    3    0    0  0.90399750110E+00 -0.99590561447E+01  0.44738340816E+02  0.45842329239E+02  0.51100000000E-03 0. -1.
         11    1    3    3    0    0 -0.90399750110E+00  0.99590561447E+01  0.45023675222E+02  0.46120834138E+02  0.51100000000E-03 0.  1.
<mgrwt>
<rscale>  0 0.20000097E+02</rscale>
<asrwt>0</asrwt>
<pdfrwt beam="1">  1        2 0.13978864E-01 0.20000097E+02</pdfrwt>
<pdfrwt beam="2">  1       -2 0.16931898E-03 0.20000097E+02</pdfrwt>
<totfact> 0.51650087E+06</totfact>
</mgrwt>
</event>
<event>
 5    1  0.4046313E-006  0.2000225E+02  0.7818608E-02  0.1745283E+00
          2   -1    0    0  501    0  0.00000000000E+00  0.00000000000E+00  0.77665495229E+01  0.77665499581E+01  0.26000000000E-02 0. -1.
         -2   -1    0    0    0  501 -0.00000000000E+00 -0.00000000000E+00 -0.12878624905E+02  0.12878625168E+02  0.26000000000E-02 0.  1.
       1023    2    1    2    0    0  0.00000000000E+00  0.00000000000E+00 -0.51120753826E+01  0.20645175126E+02  0.20002248405E+02 0.  0.
        -11    1    3    3    0    0  0.34313401245E-01  0.10000599410E+02 -0.24563993110E+01  0.10297915507E+02  0.51100000000E-03 0.  1.
         11    1    3    3    0    0 -0.34313401245E-01 -0.10000599410E+02 -0.26556760716E+01  0.10347259619E+02  0.51100000000E-03 0. -1.
<mgrwt>
<rscale>  0 0.20002248E+02</rscale>
<asrwt>0</asrwt>
<pdfrwt beam="1">  1        2 0.11948538E-02 0.20002248E+02</pdfrwt>
<pdfrwt beam="2">  1       -2 0.19813270E-02 0.20002248E+02</pdfrwt>
<totfact> 0.38728253E+06</totfact>
</mgrwt>
</event>
<event>
 4    1  0.4046313E-006  0.2009276E+02  0.7818608E-02  0.1743490E+00
          2   -1    0    0  501    0  0.00000000000E+00  0.00000000000E+00  0.20212786064E+01  0.20212802786E+01  0.26000000000E-02 0.  1.
         -2   -1    0    0    0  501 -0.00000000000E+00 -0.00000000000E+00 -0.49933577753E+02  0.49933577821E+02  0.26000000000E-02 0. -1.
        -11    1    1    2    0    0 -0.83362151919E+01  0.55836459517E+01 -0.25274962366E+02  0.27193626252E+02  0.51100000000E-03 0. -1.
         11    1    1    2    0    0  0.83362151919E+01 -0.55836459517E+01 -0.22637336781E+02  0.24761231848E+02  0.51100000000E-03 0.  1.
<mgrwt>
<rscale>  0 0.20092757E+02</rscale>
<asrwt>0</asrwt>
<pdfrwt beam="1">  1        2 0.31096611E-03 0.20092757E+02</pdfrwt>
<pdfrwt beam="2">  1       -2 0.76820881E-02 0.20092757E+02</pdfrwt>
<totfact> 0.33564020E+06</totfact>
</mgrwt>
</event>
<event>
 5    1  0.4046313E-006  0.2000018E+02  0.7818608E-02  0.1745325E+00
         -2   -1    0    0    0  501 -0.00000000000E+00  0.00000000000E+00  0.22558970173E+02  0.22558970323E+02  0.26000000000E-02 0. -1.
          2   -1    0    0  501    0  0.00000000000E+00 -0.00000000000E+00 -0.44329050358E+01  0.44329057983E+01  0.26000000000E-02 0.  1.
       1023    2    1    2    0    0  0.00000000000E+00  0.00000000000E+00  0.18126065138E+02  0.26991876122E+02  0.20000178479E+02 0.  0.
        -11    1    3    3    0    0 -0.69740645129E+01  0.71668706907E+01  0.90452708253E+01  0.13484010379E+02  0.51100000000E-03 0.  1.
         11    1    3    3    0    0  0.69740645129E+01 -0.71668706907E+01  0.90807943122E+01  0.13507865743E+02  0.51100000000E-03 0. -1.
<mgrwt>
<rscale>  0 0.20000178E+02</rscale>
<asrwt>0</asrwt>
<pdfrwt beam="2">  1        2 0.68198546E-03 0.20000178E+02</pdfrwt>
<pdfrwt beam="1">  1       -2 0.34706109E-02 0.20000178E+02</pdfrwt>
<totfact> 0.37049539E+06</totfact>
</mgrwt>
</event>
<event>
 5    1  0.4046313E-006  0.2000080E+02  0.7818608E-02  0.1745312E+00
          2   -1    0    0  501    0  0.00000000000E+00  0.00000000000E+00  0.13886614991E+02  0.13886615235E+02  0.26000000000E-02 0. -1.
         -2   -1    0    0    0  501 -0.00000000000E+00 -0.00000000000E+00 -0.72017552479E+01  0.72017557172E+01  0.26000000000E-02 0.  1.
       1023    2    1    2    0    0  0.00000000000E+00  0.00000000000E+00  0.66848597435E+01  0.21088370952E+02  0.20000800974E+02 0.  0.
        -11    1    3    3    0    0 -0.92437834762E+01 -0.38156557490E+01  0.33051834400E+01  0.10532378629E+02  0.51100000000E-03 0.  1.
         11    1    3    3    0    0  0.92437834762E+01  0.38156557490E+01  0.33796763035E+01  0.10555992323E+02  0.51100000000E-03 0. -1.
<mgrwt>
<rscale>  0 0.20000801E+02</rscale>
<asrwt>0</asrwt>
<pdfrwt beam="1">  1        2 0.21364023E-02 0.20000801E+02</pdfrwt>
<pdfrwt beam="2">  1       -2 0.11079624E-02 0.20000801E+02</pdfrwt>
<totfact> 0.40441371E+06</totfact>
</mgrwt>
</event>
<event>
 5    1  0.4046313E-006  0.2000290E+02  0.7818608E-02  0.1745270E+00
         -2   -1    0    0    0  501 -0.00000000000E+00  0.00000000000E+00  0.12017442423E+01  0.12017470549E+01  0.26000000000E-02 0. -1.
          2   -1    0    0  501    0  0.00000000000E+00 -0.00000000000E+00 -0.83236407775E+02  0.83236407816E+02  0.26000000000E-02 0.  1.
       1023    2    1    2    0    0  0.00000000000E+00  0.00000000000E+00 -0.82034663533E+02  0.84438154871E+02  0.20002899215E+02 0.  0.
        -11    1    3    3    0    0 -0.99505610006E+01  0.10062899115E+01 -0.40797565664E+02  0.42005566869E+02  0.51100000000E-03 0. -1.
         11    1    3    3    0    0  0.99505610006E+01 -0.10062899115E+01 -0.41237097869E+02  0.42432588002E+02  0.51100000000E-03 0.  1.
<mgrwt>
<rscale>  0 0.20002899E+02</rscale>
<asrwt>0</asrwt>
<pdfrwt beam="2">  1        2 0.12805597E-01 0.20002899E+02</pdfrwt>
<pdfrwt beam="1">  1       -2 0.18488401E-03 0.20002899E+02</pdfrwt>
<totfact> 0.50689538E+06</totfact>
</mgrwt>
</event>
<event>
 5    1  0.4046313E-006  0.2000155E+02  0.7818608E-02  0.1745297E+00
          2   -1    0    0  501    0  0.00000000000E+00  0.00000000000E+00  0.27406707106E+02  0.27406707229E+02  0.26000000000E-02 0.  1.
         -2   -1    0    0    0  501 -0.00000000000E+00 -0.00000000000E+00 -0.36493056556E+01  0.36493065818E+01  0.26000000000E-02 0. -1.
       1023    2    1    2    0    0  0.00000000000E+00  0.00000000000E+00  0.23757401450E+02  0.31056013811E+02  0.20001546694E+02 0.  0.
        -11    1    3    3    0    0  0.94073342834E+01 -0.33935995401E+01  0.11829328368E+02  0.15490237766E+02  0.51100000000E-03 0. -1.
         11    1    3    3    0    0 -0.94073342834E+01  0.33935995401E+01  0.11928073082E+02  0.15565776045E+02  0.51100000000E-03 0.  1.
<mgrwt>
<rscale>  0 0.20001547E+02</rscale>
<asrwt>0</asrwt>
<pdfrwt beam="1">  1        2 0.42164163E-02 0.20001547E+02</pdfrwt>
<pdfrwt beam="2">  1       -2 0.56143175E-03 0.20001547E+02</pdfrwt>
<totfact> 0.42948551E+06</totfact>
</mgrwt>
</event>
<event>
 5    1  0.4046313E-006  0.2000096E+02  0.7818608E-02  0.1745309E+00
         -2   -1    0    0    0  501 -0.00000000000E+00  0.00000000000E+00  0.35660788508E+02  0.35660788602E+02  0.26000000000E-02 0.  1.
          2   -1    0    0  501    0  0.00000000000E+00 -0.00000000000E+00 -0.28044697551E+01  0.28044709603E+01  0.26000000000E-02 0. -1.
       1023    2    1    2    0    0  0.00000000000E+00  0.00000000000E+00  0.32856318752E+02  0.38465259563E+02  0.20000962758E+02 0.  0.
        -11    1    3    3    0    0  0.90821816641E+01  0.41861186541E+01  0.16435454247E+02  0.19238860926E+02  0.51100000000E-03 0.  1.
         11    1    3    3    0    0 -0.90821816641E+01 -0.41861186541E+01  0.16420864505E+02  0.19226398636E+02  0.51100000000E-03 0. -1.
<mgrwt>
<rscale>  0 0.20000963E+02</rscale>
<asrwt>0</asrwt>
<pdfrwt beam="2">  1        2 0.43145697E-03 0.20000963E+02</pdfrwt>
<pdfrwt beam="1">  1       -2 0.54862754E-02 0.20000963E+02</pdfrwt>
<totfact> 0.35394206E+06</totfact>
</mgrwt>
</event>
<event>
 5    1  0.4046313E-006  0.2000023E+02  0.7818608E-02  0.1745324E+00
         -2   -1    0    0    0  501 -0.00000000000E+00  0.00000000000E+00  0.90256026022E+01  0.90256029767E+01  0.26000000000E-02 0.  1.
          2   -1    0    0  501    0  0.00000000000E+00 -0.00000000000E+00 -0.11079843170E+02  0.11079843475E+02  0.26000000000E-02 0. -1.
       1023    2    1    2    0    0  0.00000000000E+00  0.00000000000E+00 -0.20542405681E+01  0.20105446452E+02  0.20000226817E+02 0.  0.
        -11    1    3    3    0    0 -0.88597110236E+01 -0.46376286389E+01 -0.10409442200E+01  0.10054135664E+02  0.51100000000E-03 0. -1.
         11    1    3    3    0    0  0.88597110236E+01  0.46376286389E+01 -0.10132963481E+01  0.10051310788E+02  0.51100000000E-03 0.  1.
<mgrwt>
<rscale>  0 0.20000227E+02</rscale>
<asrwt>0</asrwt>
<pdfrwt beam="2">  1        2 0.17045913E-02 0.20000227E+02</pdfrwt>
<pdfrwt beam="1">  1       -2 0.13885543E-02 0.20000227E+02</pdfrwt>
<totfact> 0.39761064E+06</totfact>
</mgrwt>
</event>
<event>
 5    1  0.4046313E-006  0.2000044E+02  0.7818608E-02  0.1745319E+00
         -2   -1    0    0    0  501 -0.00000000000E+00  0.00000000000E+00  0.45782262937E+01  0.45782270320E+01  0.26000000000E-02 0.  1.
          2   -1    0    0  501    0  0.00000000000E+00 -0.00000000000E+00 -0.21843483240E+02  0.21843483395E+02  0.26000000000E-02 0. -1.
       1023    2    1    2    0    0  0.00000000000E+00  0.00000000000E+00 -0.17265256946E+02  0.26421710427E+02  0.20000442106E+02 0.  0.
        -11    1    3    3    0    0  0.58880633870E+01 -0.80829982476E+01 -0.86543248285E+01  0.13225032689E+02  0.51100000000E-03 0.  1.
         11    1    3    3    0    0 -0.58880633870E+01  0.80829982476E+01 -0.86109321177E+01  0.13196677738E+02  0.51100000000E-03 0. -1.
<mgrwt>
<rscale>  0 0.20000442E+02</rscale>
<asrwt>0</asrwt>
<pdfrwt beam="2">  1        2 0.33605359E-02 0.20000442E+02</pdfrwt>
<pdfrwt beam="1">  1       -2 0.70434259E-03 0.20000442E+02</pdfrwt>
<totfact> 0.42009096E+06</totfact>
</mgrwt>
</event>
<event>
 5    1  0.4046313E-006  0.2000076E+02  0.7818608E-02  0.1745313E+00
         -2   -1    0    0    0  501 -0.00000000000E+00  0.00000000000E+00  0.43474320652E+02  0.43474320729E+02  0.26000000000E-02 0. -1.
          2   -1    0    0  501    0  0.00000000000E+00 -0.00000000000E+00 -0.23003824622E+01  0.23003839316E+01  0.26000000000E-02 0.  1.
       1023    2    1    2    0    0  0.00000000000E+00  0.00000000000E+00  0.41173938189E+02  0.45774704661E+02  0.20000760005E+02 0.  0.
        -11    1    3    3    0    0  0.12623500686E+01  0.99201381001E+01  0.20747701820E+02  0.23031929982E+02  0.51100000000E-03 0.  1.
         11    1    3    3    0    0 -0.12623500686E+01 -0.99201381001E+01  0.20426236370E+02  0.22742774679E+02  0.51100000000E-03 0. -1.
<mgrwt>
<rscale>  0 0.20000760E+02</rscale>
<asrwt>0</asrwt>
<pdfrwt beam="2">  1        2 0.35390514E-03 0.20000760E+02</pdfrwt>
<pdfrwt beam="1">  1       -2 0.66883566E-02 0.20000760E+02</pdfrwt>
<totfact> 0.34551298E+06</totfact>
</mgrwt>
</event>
