<event>
 5    1  0.9583198E-007  0.2000050E+02  0.7818608E-02  0.1745318E+00
          1   -1    0    0  501    0  0.00000000000E+00  0.00000000000E+00  0.16461490926E+02  0.16461491588E+02  0.46700000000E-02 0. -1.
         -1   -1    0    0    0  501 -0.00000000000E+00 -0.00000000000E+00 -0.60750875804E+01  0.60750893753E+01  0.46700000000E-02 0.  1.
       1023    2    1    2    0    0  0.00000000000E+00  0.00000000000E+00  0.10386403345E+02  0.22536580963E+02  0.20000502670E+02 0.  0.
        -11    1    3    3    0    0 -0.58001163477E+01 -0.81462476580E+01  0.51388581685E+01  0.11243245265E+02  0.51100000000E-03 0.  1.
         11    1    3    3    0    0  0.58001163477E+01  0.81462476580E+01  0.52475451768E+01  0.11293335698E+02  0.51100000000E-03 0. -1.
<mgrwt>
<rscale>  0 0.20000503E+02</rscale>
<asrwt>0</asrwt>
<pdfrwt beam="1">  1        1 0.25325373E-02 0.20000503E+02</pdfrwt>
<pdfrwt beam="2">  1       -1 0.93462904E-03 0.20000503E+02</pdfrwt>
<totfact> 0.39387587E+06</totfact>
</mgrwt>
</event>
<event>
 5    1  0.9583198E-007  0.2000151E+02  0.7818608E-02  0.1745298E+00
         -1   -1    0    0    0  501 -0.00000000000E+00  0.00000000000E+00  0.68759277388E+02  0.68759277547E+02  0.46700000000E-02 0.  1.
          1   -1    0    0  501    0  0.00000000000E+00 -0.00000000000E+00 -0.14545645540E+01  0.14545720507E+01  0.46700000000E-02 0. -1.
       1023    2    1    2    0    0  0.00000000000E+00  0.00000000000E+00  0.67304712834E+02  0.70213849598E+02  0.20001507584E+02 0.  0.
        -11    1    3    3    0    0  0.31148480689E+01  0.95029756464E+01  0.33374799092E+02  0.34840867373E+02  0.51100000000E-03 0.  1.
         11    1    3    3    0    0 -0.31148480689E+01 -0.95029756464E+01  0.33929913742E+02  0.35372982225E+02  0.51100000000E-03 0. -1.
<mgrwt>
<rscale>  0 0.20001508E+02</rscale>
<asrwt>0</asrwt>
<pdfrwt beam="2">  1        1 0.22377975E-03 0.20001508E+02</pdfrwt>
<pdfrwt beam="1">  1       -1 0.10578351E-01 0.20001508E+02</pdfrwt>
<totfact> 0.33672516E+06</totfact>
</mgrwt>
</event>
<event>
 4    1  0.9583198E-007  0.2006130E+02  0.7818608E-02  0.1744112E+00
          1   -1    0    0  501    0  0.00000000000E+00  0.00000000000E+00  0.10608849767E+02  0.10608850795E+02  0.46700000000E-02 0. -1.
         -1   -1    0    0    0  501 -0.00000000000E+00 -0.00000000000E+00 -0.94839580536E+01  0.94839592034E+01  0.46700000000E-02 0.  1.
        -11    1    1    2    0    0  0.96927370810E+01  0.25761177090E+01  0.39373769592E+00  0.10036959909E+02  0.51100000000E-03 0. -1.
         11    1    1    2    0    0 -0.96927370810E+01 -0.25761177090E+01  0.73115401777E+00  0.10055850090E+02  0.51100000000E-03 0.  1.
<mgrwt>
<rscale>  0 0.20061297E+02</rscale>
<asrwt>0</asrwt>
<pdfrwt beam="1">  1        1 0.16321309E-02 0.20061297E+02</pdfrwt>
<pdfrwt beam="2">  1       -1 0.14590706E-02 0.20061297E+02</pdfrwt>
<totfact> 0.38447876E+06</totfact>
</mgrwt>
</event>
<event>
 5    1  0.9583198E-007  0.2000502E+02  0.7818608E-02  0.1745228E+00
         -1   -1    0    0    0  501 -0.00000000000E+00  0.00000000000E+00  0.11823044138E+01  0.11823136368E+01  0.46700000000E-02 0. -1.
          1   -1    0    0  501    0  0.00000000000E+00 -0.00000000000E+00 -0.84622710969E+02  0.84622711098E+02  0.46700000000E-02 0.  1.
       1023    2    1    2    0    0  0.00000000000E+00  0.00000000000E+00 -0.83440406555E+02  0.85805024735E+02  0.20005019961E+02 0.  0.
        -11    1    3    3    0    0  0.65410014610E+01  0.75665406975E+01 -0.42208630940E+02  0.43377479922E+02  0.51100000000E-03 0.  1.
         11    1    3    3    0    0 -0.65410014610E+01 -0.75665406975E+01 -0.41231775615E+02  0.42427544813E+02  0.51100000000E-03 0. -1.
<mgrwt>
<rscale>  0 0.20005020E+02</rscale>
<asrwt>0</asrwt>
<pdfrwt beam="2">  1        1 0.13018875E-01 0.20005020E+02</pdfrwt>
<pdfrwt beam="1">  1       -1 0.18189377E-03 0.20005020E+02</pdfrwt>
<totfact> 0.43572031E+06</totfact>
</mgrwt>
</event>
<event>
 5    1  0.1047246E-006  0.2000056E+02  0.7818608E-02  0.1745317E+00
         -1   -1    0    0    0  501 -0.00000000000E+00  0.00000000000E+00  0.90839827788E+00  0.90841028184E+00  0.46700000000E-02 0. -1.
          1   -1    0    0  501    0  0.00000000000E+00 -0.00000000000E+00 -0.11008935145E+03  0.11008935155E+03  0.46700000000E-02 0.  1.
       1023    2    1    2    0    0  0.00000000000E+00  0.00000000000E+00 -0.10918095317E+03  0.11099776183E+03  0.20000564890E+02 0.  0.
        -11    1    3    3    0    0 -0.78183500181E+01 -0.62352755030E+01 -0.54700231095E+02  0.55606838965E+02  0.51100000000E-03 0. -1.
         11    1    3    3    0    0  0.78183500181E+01  0.62352755030E+01 -0.54480722080E+02  0.55390922868E+02  0.51100000000E-03 0.  1.
<mgrwt>
<rscale>  0 0.20000565E+02</rscale>
<asrwt>0</asrwt>
<pdfrwt beam="2">  1        1 0.16936814E-01 0.20000565E+02</pdfrwt>
<pdfrwt beam="1">  1       -1 0.13975460E-03 0.20000565E+02</pdfrwt>
<totfact> 0.44839032E+06</totfact>
</mgrwt>
</event>
<event>
 4    1  0.9583198E-007  0.2002513E+02  0.7818608E-02  0.1744829E+00
         -1   -1    0    0    0  501 -0.00000000000E+00  0.00000000000E+00  0.49574390260E+01  0.49574412256E+01  0.46700000000E-02 0. -1.
          1   -1    0    0  501    0  0.00000000000E+00 -0.00000000000E+00 -0.20222416990E+02  0.20222417529E+02  0.46700000000E-02 0.  1.
        -11    1    1    2    0    0  0.46343948917E+01 -0.88689948879E+01 -0.80584293565E+01  0.12848150462E+02  0.51100000000E-03 0.  1.
         11    1    1    2    0    0 -0.46343948917E+01  0.88689948879E+01 -0.72065486077E+01  0.12331708293E+02  0.51100000000E-03 0. -1.
<mgrwt>
<rscale>  0 0.20025128E+02</rscale>
<asrwt>0</asrwt>
<pdfrwt beam="2">  1        1 0.31111412E-02 0.20025128E+02</pdfrwt>
<pdfrwt beam="1">  1       -1 0.76268315E-03 0.20025128E+02</pdfrwt>
<totfact> 0.39612791E+06</totfact>
</mgrwt>
</event>
<event>
 4    1  0.9583198E-007  0.2048604E+02  0.7818608E-02  0.1735832E+00
          1   -1    0    0  501    0  0.00000000000E+00  0.00000000000E+00  0.14091188108E+02  0.14091188882E+02  0.46700000000E-02 0.  1.
         -1   -1    0    0    0  501 -0.00000000000E+00 -0.00000000000E+00 -0.74457479787E+01  0.74457494432E+01  0.46700000000E-02 0. -1.
        -11    1    1    2    0    0 -0.75158465864E+01 -0.69433083391E+01  0.28274050283E+01  0.10615634699E+02  0.51100000000E-03 0.  1.
         11    1    1    2    0    0  0.75158465864E+01  0.69433083391E+01  0.38180351008E+01  0.10921303626E+02  0.51100000000E-03 0. -1.
<mgrwt>
<rscale>  0 0.20486040E+02</rscale>
<asrwt>0</asrwt>
<pdfrwt beam="1">  1        1 0.21678753E-02 0.20486040E+02</pdfrwt>
<pdfrwt beam="2">  1       -1 0.11454999E-02 0.20486040E+02</pdfrwt>
<totfact> 0.37080444E+06</totfact>
</mgrwt>
</event>
<event>
 5    1  0.9990200E-007  0.2000118E+02  0.7818608E-02  0.1745305E+00
          1   -1    0    0  501    0  0.00000000000E+00  0.00000000000E+00  0.32828318464E+02  0.32828318796E+02  0.46700000000E-02 0.  1.
         -1   -1    0    0    0  501 -0.00000000000E+00 -0.00000000000E+00 -0.30465064874E+01  0.30465100667E+01  0.46700000000E-02 0. -1.
       1023    2    1    2    0    0  0.00000000000E+00  0.00000000000E+00  0.29781811976E+02  0.35874828862E+02  0.20001175499E+02 0.  0.
        -11    1    3    3    0    0 -0.93065320882E+01 -0.36603663254E+01  0.14812028322E+02  0.17871933427E+02  0.51100000000E-03 0. -1.
         11    1    3    3    0    0  0.93065320882E+01  0.36603663254E+01  0.14969783655E+02  0.18002895436E+02  0.51100000000E-03 0.  1.
<mgrwt>
<rscale>  0 0.20001175E+02</rscale>
<asrwt>0</asrwt>
<pdfrwt beam="1">  1        1 0.50505111E-02 0.20001175E+02</pdfrwt>
<pdfrwt beam="2">  1       -1 0.46869358E-03 0.20001175E+02</pdfrwt>
<totfact> 0.40642853E+06</totfact>
</mgrwt>
</event>
<event>
 5    1  0.9727063E-007  0.2000071E+02  0.7818608E-02  0.1745314E+00
          1   -1    0    0  501    0  0.00000000000E+00  0.00000000000E+00  0.74374736494E+02  0.74374736641E+02  0.46700000000E-02 0. -1.
         -1   -1    0    0    0  501 -0.00000000000E+00 -0.00000000000E+00 -0.13446341222E+01  0.13446422318E+01  0.46700000000E-02 0.  1.
       1023    2    1    2    0    0  0.00000000000E+00  0.00000000000E+00  0.73030102372E+02  0.75719378873E+02  0.20000712097E+02 0.  0.
        -11    1    3    3    0    0  0.78814263869E+01 -0.61553381761E+01  0.36343603497E+02  0.37694330945E+02  0.51100000000E-03 0. -1.
         11    1    3    3    0    0 -0.78814263869E+01  0.61553381761E+01  0.36686498875E+02  0.38025047928E+02  0.51100000000E-03 0.  1.
<mgrwt>
<rscale>  0 0.20000712E+02</rscale>
<asrwt>0</asrwt>
<pdfrwt beam="1">  1        1 0.11442270E-01 0.20000712E+02</pdfrwt>
<pdfrwt beam="2">  1       -1 0.20686739E-03 0.20000712E+02</pdfrwt>
<totfact> 0.43062837E+06</totfact>
</mgrwt>
</event>
<event>
 5    1  0.1014123E-006  0.2000150E+02  0.7818608E-02  0.1745298E+00
         -1   -1    0    0    0  501 -0.00000000000E+00  0.00000000000E+00  0.29855484295E+01  0.29855520819E+01  0.46700000000E-02 0.  1.
          1   -1    0    0  501    0  0.00000000000E+00 -0.00000000000E+00 -0.33499668958E+02  0.33499669284E+02  0.46700000000E-02 0. -1.
       1023    2    1    2    0    0  0.00000000000E+00  0.00000000000E+00 -0.30514120529E+02  0.36485221366E+02  0.20001495605E+02 0.  0.
        -11    1    3    3    0    0 -0.73302216340E+01 -0.68021358044E+01 -0.15043118770E+02  0.18063682440E+02  0.51100000000E-03 0. -1.
         11    1    3    3    0    0  0.73302216340E+01  0.68021358044E+01 -0.15471001759E+02  0.18421538926E+02  0.51100000000E-03 0.  1.
<mgrwt>
<rscale>  0 0.20001496E+02</rscale>
<asrwt>0</asrwt>
<pdfrwt beam="2">  1        1 0.51537953E-02 0.20001496E+02</pdfrwt>
<pdfrwt beam="1">  1       -1 0.45931547E-03 0.20001496E+02</pdfrwt>
<totfact> 0.40685965E+06</totfact>
</mgrwt>
</event>
<event>
 5    1  0.9583198E-007  0.2000056E+02  0.7818608E-02  0.1745317E+00
          1   -1    0    0  501    0  0.00000000000E+00  0.00000000000E+00  0.27014888614E+01  0.27014928978E+01  0.46700000000E-02 0.  1.
         -1   -1    0    0    0  501 -0.00000000000E+00 -0.00000000000E+00 -0.37018660540E+02  0.37018660835E+02  0.46700000000E-02 0. -1.
       1023    2    1    2    0    0  0.00000000000E+00  0.00000000000E+00 -0.34317171679E+02  0.39720153733E+02  0.20000558505E+02 0.  0.
        -11    1    3    3    0    0  0.61550425895E+01  0.78814121950E+01 -0.17289980253E+02  0.19973598195E+02  0.51100000000E-03 0. -1.
         11    1    3    3    0    0 -0.61550425895E+01 -0.78814121950E+01 -0.17027191427E+02  0.19746555538E+02  0.51100000000E-03 0.  1.
<mgrwt>
<rscale>  0 0.20000559E+02</rscale>
<asrwt>0</asrwt>
<pdfrwt beam="1">  1        1 0.41561403E-03 0.20000559E+02</pdfrwt>
<pdfrwt beam="2">  1       -1 0.56951785E-02 0.20000559E+02</pdfrwt>
<totfact> 0.35902980E+06</totfact>
</mgrwt>
</event>
<event>
 5    1  0.9912945E-007  0.2000140E+02  0.7818608E-02  0.1745300E+00
          1   -1    0    0  501    0  0.00000000000E+00  0.00000000000E+00  0.24483904170E+02  0.24483904615E+02  0.46700000000E-02 0. -1.
         -1   -1    0    0    0  501 -0.00000000000E+00 -0.00000000000E+00 -0.40848874555E+01  0.40848901249E+01  0.46700000000E-02 0.  1.
       1023    2    1    2    0    0  0.00000000000E+00  0.00000000000E+00  0.20399016714E+02  0.28568794740E+02  0.20001403700E+02 0.  0.
        -11    1    3    3    0    0  0.43545239725E+01  0.90027520560E+01  0.10272530290E+02  0.14336537323E+02  0.51100000000E-03 0. -1.
         11    1    3    3    0    0 -0.43545239725E+01 -0.90027520560E+01  0.10126486424E+02  0.14232257416E+02  0.51100000000E-03 0.  1.
<mgrwt>
<rscale>  0 0.20001404E+02</rscale>
<asrwt>0</asrwt>
<pdfrwt beam="1">  1        1 0.37667547E-02 0.20001404E+02</pdfrwt>
<pdfrwt beam="2">  1       -1 0.62844446E-03 0.20001404E+02</pdfrwt>
<totfact> 0.40054412E+06</totfact>
</mgrwt>
</event>
<event>
 5    1  0.9583198E-007  0.2000599E+02  0.7818608E-02  0.1745209E+00
         -1   -1    0    0    0  501 -0.00000000000E+00  0.00000000000E+00  0.31120642591E+02  0.31120642941E+02  0.46700000000E-02 0. -1.
          1   -1    0    0  501    0  0.00000000000E+00 -0.00000000000E+00 -0.32152239146E+01  0.32152273061E+01  0.46700000000E-02 0.  1.
       1023    2    1    2    0    0  0.00000000000E+00  0.00000000000E+00  0.27905418676E+02  0.34335870247E+02  0.20005988957E+02 0.  0.
        -11    1    3    3    0    0 -0.81082693026E+01  0.58529437685E+01  0.14369296868E+02  0.17506503780E+02  0.51100000000E-03 0.  1.
         11    1    3    3    0    0  0.81082693026E+01 -0.58529437685E+01  0.13536121808E+02  0.16829366468E+02  0.51100000000E-03 0. -1.
<mgrwt>
<rscale>  0 0.20005989E+02</rscale>
<asrwt>0</asrwt>
<pdfrwt beam="2">  1        1 0.49465013E-03 0.20005989E+02</pdfrwt>
<pdfrwt beam="1">  1       -1 0.47877914E-02 0.20005989E+02</pdfrwt>
<totfact> 0.36366486E+06</totfact>
</mgrwt>
</event>
<event>
 5    1  0.9583198E-007  0.2000017E+02  0.7818608E-02  0.1745325E+00
         -1   -1    0    0    0  501 -0.00000000000E+00  0.00000000000E+00  0.52119452903E+02  0.52119453112E+02  0.46700000000E-02 0. -1.
          1   -1    0    0  501    0  0.00000000000E+00 -0.00000000000E+00 -0.19186986440E+01  0.19187043272E+01  0.46700000000E-02 0.  1.
       1023    2    1    2    0    0  0.00000000000E+00  0.00000000000E+00  0.50200754259E+02  0.54038157440E+02  0.20000168281E+02 0.  0.
        -11    1    3    3    0    0 -0.78960185314E+01 -0.61362951574E+01  0.25042702703E+02  0.26965499918E+02  0.51100000000E-03 0. -1.
         11    1    3    3    0    0  0.78960185314E+01  0.61362951574E+01  0.25158051556E+02  0.27072657522E+02  0.51100000000E-03 0.  1.
<mgrwt>
<rscale>  0 0.20000168E+02</rscale>
<asrwt>0</asrwt>
<pdfrwt beam="2">  1        1 0.29518491E-03 0.20000168E+02</pdfrwt>
<pdfrwt beam="1">  1       -1 0.80183765E-02 0.20000168E+02</pdfrwt>
<totfact> 0.34779341E+06</totfact>
</mgrwt>
</event>
<event>
 5    1  0.9583198E-007  0.2000217E+02  0.7818608E-02  0.1745285E+00
          1   -1    0    0  501    0  0.00000000000E+00  0.00000000000E+00  0.22435432595E+01  0.22435481199E+01  0.46700000000E-02 0.  1.
         -1   -1    0    0    0  501 -0.00000000000E+00 -0.00000000000E+00 -0.44581957636E+02  0.44581957881E+02  0.46700000000E-02 0. -1.
       1023    2    1    2    0    0  0.00000000000E+00  0.00000000000E+00 -0.42338414377E+02  0.46825506001E+02  0.20002166890E+02 0.  0.
        -11    1    3    3    0    0 -0.94142632859E+01 -0.33751978568E+01 -0.21083000877E+02  0.23334807478E+02  0.51100000000E-03 0. -1.
         11    1    3    3    0    0  0.94142632859E+01  0.33751978568E+01 -0.21255413499E+02  0.23490698523E+02  0.51100000000E-03 0.  1.
<mgrwt>
<rscale>  0 0.20002167E+02</rscale>
<asrwt>0</asrwt>
<pdfrwt beam="1">  1        1 0.34516093E-03 0.20002167E+02</pdfrwt>
<pdfrwt beam="2">  1       -1 0.68587624E-02 0.20002167E+02</pdfrwt>
<totfact> 0.35315153E+06</totfact>
</mgrwt>
</event>
<event>
 5    1  0.9583198E-007  0.2000046E+02  0.7818608E-02  0.1745319E+00
         -1   -1    0    0    0  501 -0.00000000000E+00  0.00000000000E+00  0.70086200129E+01  0.70086215687E+01  0.46700000000E-02 0. -1.
          1   -1    0    0  501    0  0.00000000000E+00 -0.00000000000E+00 -0.14268792050E+02  0.14268792815E+02  0.46700000000E-02 0.  1.
       1023    2    1    2    0    0  0.00000000000E+00  0.00000000000E+00 -0.72601720376E+01  0.21277414383E+02  0.20000456615E+02 0.  0.
        -11    1    3    3    0    0  0.84740530363E+01  0.53097509736E+01 -0.36717757891E+01  0.10652932365E+02  0.51100000000E-03 0. -1.
         11    1    3    3    0    0 -0.84740530363E+01 -0.53097509736E+01 -0.35883962485E+01  0.10624482018E+02  0.51100000000E-03 0.  1.
<mgrwt>
<rscale>  0 0.20000457E+02</rscale>
<asrwt>0</asrwt>
<pdfrwt beam="2">  1        1 0.21951990E-02 0.20000457E+02</pdfrwt>
<pdfrwt beam="1">  1       -1 0.10782494E-02 0.20000457E+02</pdfrwt>
<totfact> 0.39165640E+06</totfact>
</mgrwt>
</event>
<event>
 5    1  0.9864938E-007  0.2000169E+02  0.7818608E-02  0.1745294E+00
         -1   -1    0    0    0  501 -0.00000000000E+00  0.00000000000E+00  0.65016351837E+01  0.65016368609E+01  0.46700000000E-02 0.  1.
          1   -1    0    0  501    0  0.00000000000E+00 -0.00000000000E+00 -0.15383346731E+02  0.15383347440E+02  0.46700000000E-02 0. -1.
       1023    2    1    2    0    0  0.00000000000E+00  0.00000000000E+00 -0.88817115472E+01  0.21884984301E+02  0.20001693374E+02 0.  0.
        -11    1    3    3    0    0 -0.60665707835E+01 -0.79506946571E+01 -0.44522052549E+01  0.10947098177E+02  0.51100000000E-03 0.  1.
         11    1    3    3    0    0  0.60665707835E+01  0.79506946571E+01 -0.44295062924E+01  0.10937886124E+02  0.51100000000E-03 0. -1.
<mgrwt>
<rscale>  0 0.20001693E+02</rscale>
<asrwt>0</asrwt>
<pdfrwt beam="2">  1        1 0.23666689E-02 0.20001693E+02</pdfrwt>
<pdfrwt beam="1">  1       -1 0.10002518E-02 0.20001693E+02</pdfrwt>
<totfact> 0.39276298E+06</totfact>
</mgrwt>
</event>
<event>
 5    1  0.9583198E-007  0.2000053E+02  0.7818608E-02  0.1745318E+00
          1   -1    0    0  501    0  0.00000000000E+00  0.00000000000E+00  0.27037961587E+02  0.27037961990E+02  0.46700000000E-02 0. -1.
         -1   -1    0    0    0  501 -0.00000000000E+00 -0.00000000000E+00 -0.36986974051E+01  0.36987003533E+01  0.46700000000E-02 0.  1.
       1023    2    1    2    0    0  0.00000000000E+00  0.00000000000E+00  0.23339264182E+02  0.30736662343E+02  0.20000528980E+02 0.  0.
        -11    1    3    3    0    0  0.99818708255E+01  0.60569484422E+00  0.11629610987E+02  0.15337941954E+02  0.51100000000E-03 0. -1.
         11    1    3    3    0    0 -0.99818708255E+01 -0.60569484422E+00  0.11709653194E+02  0.15398720389E+02  0.51100000000E-03 0.  1.
<mgrwt>
<rscale>  0 0.20000529E+02</rscale>
<asrwt>0</asrwt>
<pdfrwt beam="1">  1        1 0.41596867E-02 0.20000529E+02</pdfrwt>
<pdfrwt beam="2">  1       -1 0.56903063E-03 0.20000529E+02</pdfrwt>
<totfact> 0.40246054E+06</totfact>
</mgrwt>
</event>
<event>
 4    1  0.9583198E-007  0.2003363E+02  0.7818608E-02  0.1744660E+00
         -1   -1    0    0    0  501 -0.00000000000E+00  0.00000000000E+00  0.20582926314E+01  0.20582979292E+01  0.46700000000E-02 0. -1.
          1   -1    0    0  501    0  0.00000000000E+00 -0.00000000000E+00 -0.48747405280E+02  0.48747405504E+02  0.46700000000E-02 0.  1.
        -11    1    1    2    0    0  0.62102388881E+01 -0.78528074037E+01 -0.24158116958E+02  0.26150492661E+02  0.51100000000E-03 0. -1.
         11    1    1    2    0    0 -0.62102388881E+01  0.78528074037E+01 -0.22530995691E+02  0.24655210773E+02  0.51100000000E-03 0.  1.
<mgrwt>
<rscale>  0 0.20033628E+02</rscale>
<asrwt>0</asrwt>
<pdfrwt beam="2">  1        1 0.74996004E-02 0.20033628E+02</pdfrwt>
<pdfrwt beam="1">  1       -1 0.31666087E-03 0.20033628E+02</pdfrwt>
<totfact> 0.41485903E+06</totfact>
</mgrwt>
</event>
<event>
 5    1  0.9583198E-007  0.2000188E+02  0.7818608E-02  0.1745291E+00
         -1   -1    0    0    0  501 -0.00000000000E+00  0.00000000000E+00  0.11696674211E+02  0.11696675143E+02  0.46700000000E-02 0.  1.
          1   -1    0    0  501    0  0.00000000000E+00 -0.00000000000E+00 -0.85510471857E+01  0.85510484610E+01  0.46700000000E-02 0. -1.
       1023    2    1    2    0    0  0.00000000000E+00  0.00000000000E+00  0.31456270249E+01  0.20247723604E+02  0.20001883455E+02 0.  0.
        -11    1    3    3    0    0  0.99193357216E+01 -0.12685403708E+01  0.17025264449E+01  0.10144013623E+02  0.51100000000E-03 0.  1.
         11    1    3    3    0    0 -0.99193357216E+01  0.12685403708E+01  0.14431005799E+01  0.10103709981E+02  0.51100000000E-03 0. -1.
<mgrwt>
<rscale>  0 0.20001883E+02</rscale>
<asrwt>0</asrwt>
<pdfrwt beam="2">  1        1 0.13155459E-02 0.20001883E+02</pdfrwt>
<pdfrwt beam="1">  1       -1 0.17994885E-02 0.20001883E+02</pdfrwt>
<totfact> 0.38369169E+06</totfact>
</mgrwt>
</event>
<event>
 5    1  0.1032757E-006  0.2000093E+02  0.7818608E-02  0.1745310E+00
         -1   -1    0    0    0  501 -0.00000000000E+00  0.00000000000E+00  0.16958241410E+01  0.16958305712E+01  0.46700000000E-02 0. -1.
          1   -1    0    0  501    0  0.00000000000E+00 -0.00000000000E+00 -0.58973743738E+02  0.58973743923E+02  0.46700000000E-02 0.  1.
       1023    2    1    2    0    0  0.00000000000E+00  0.00000000000E+00 -0.57277919597E+02  0.60669574495E+02  0.20000929877E+02 0.  0.
        -11    1    3    3    0    0 -0.22102924997E+01  0.97530777841E+01 -0.28751623938E+02  0.30441153042E+02  0.51100000000E-03 0. -1.
         11    1    3    3    0    0  0.22102924997E+01 -0.97530777841E+01 -0.28526295659E+02  0.30228421452E+02  0.51100000000E-03 0.  1.
<mgrwt>
<rscale>  0 0.20000930E+02</rscale>
<asrwt>0</asrwt>
<pdfrwt beam="2">  1        1 0.90728826E-02 0.20000930E+02</pdfrwt>
<pdfrwt beam="1">  1       -1 0.26089658E-03 0.20000930E+02</pdfrwt>
<totfact> 0.42224766E+06</totfact>
</mgrwt>
</event>
<event>
 5    1  0.9583198E-007  0.2000296E+02  0.7818608E-02  0.1745269E+00
          1   -1    0    0  501    0  0.00000000000E+00  0.00000000000E+00  0.34367980246E+02  0.34367980563E+02  0.46700000000E-02 0. -1.
         -1   -1    0    0    0  501 -0.00000000000E+00 -0.00000000000E+00 -0.29105450281E+01  0.29105487746E+01  0.46700000000E-02 0.  1.
       1023    2    1    2    0    0  0.00000000000E+00  0.00000000000E+00  0.31457435218E+02  0.37278529338E+02  0.20002962758E+02 0.  0.
        -11    1    3    3    0    0 -0.93307794611E+01 -0.36008246875E+01  0.15757932039E+02  0.18663917225E+02  0.51100000000E-03 0.  1.
         11    1    3    3    0    0  0.93307794611E+01  0.36008246875E+01  0.15699503179E+02  0.18614612113E+02  0.51100000000E-03 0. -1.
<mgrwt>
<rscale>  0 0.20002963E+02</rscale>
<asrwt>0</asrwt>
<pdfrwt beam="1">  1        1 0.52873818E-02 0.20002963E+02</pdfrwt>
<pdfrwt beam="2">  1       -1 0.44777648E-03 0.20002963E+02</pdfrwt>
<totfact> 0.40736506E+06</totfact>
</mgrwt>
</event>
<event>
 5    1  0.9583198E-007  0.2000020E+02  0.7818608E-02  0.1745324E+00
          1   -1    0    0  501    0  0.00000000000E+00  0.00000000000E+00  0.62236859370E+02  0.62236859546E+02  0.46700000000E-02 0. -1.
         -1   -1    0    0    0  501 -0.00000000000E+00 -0.00000000000E+00 -0.16067933010E+01  0.16068000874E+01  0.46700000000E-02 0.  1.
       1023    2    1    2    0    0  0.00000000000E+00  0.00000000000E+00  0.60630066069E+02  0.63843659633E+02  0.20000199093E+02 0.  0.
        -11    1    3    3    0    0  0.65909387686E+01 -0.75206768176E+01  0.30217318253E+02  0.31829033543E+02  0.51100000000E-03 0. -1.
         11    1    3    3    0    0 -0.65909387686E+01  0.75206768176E+01  0.30412747817E+02  0.32014626090E+02  0.51100000000E-03 0.  1.
<mgrwt>
<rscale>  0 0.20000199E+02</rscale>
<asrwt>0</asrwt>
<pdfrwt beam="1">  1        1 0.95748995E-02 0.20000199E+02</pdfrwt>
<pdfrwt beam="2">  1       -1 0.24719957E-03 0.20000199E+02</pdfrwt>
<totfact> 0.42410106E+06</totfact>
</mgrwt>
</event>
<event>
 5    1  0.9583198E-007  0.2000532E+02  0.7818608E-02  0.1745222E+00
         -1   -1    0    0    0  501 -0.00000000000E+00  0.00000000000E+00  0.11726076859E+02  0.11726077789E+02  0.46700000000E-02 0. -1.
          1   -1    0    0  501    0  0.00000000000E+00 -0.00000000000E+00 -0.85325337931E+01  0.85325350711E+01  0.46700000000E-02 0.  1.
       1023    2    1    2    0    0  0.00000000000E+00  0.00000000000E+00  0.31935430655E+01  0.20258612860E+02  0.20005316236E+02 0.  0.
        -11    1    3    3    0    0 -0.79053883194E+01  0.61279688386E+01  0.16752288971E+01  0.10141674353E+02  0.51100000000E-03 0. -1.
         11    1    3    3    0    0  0.79053883194E+01 -0.61279688386E+01  0.15183141684E+01  0.10116938506E+02  0.51100000000E-03 0.  1.
<mgrwt>
<rscale>  0 0.20005316E+02</rscale>
<asrwt>0</asrwt>
<pdfrwt beam="2">  1        1 0.13126977E-02 0.20005316E+02</pdfrwt>
<pdfrwt beam="1">  1       -1 0.18040120E-02 0.20005316E+02</pdfrwt>
<totfact> 0.38350723E+06</totfact>
</mgrwt>
</event>
<event>
 5    1  0.9583198E-007  0.2000034E+02  0.7818608E-02  0.1745321E+00
          1   -1    0    0  501    0  0.00000000000E+00  0.00000000000E+00  0.28719101564E+01  0.28719139534E+01  0.46700000000E-02 0. -1.
         -1   -1    0    0    0  501 -0.00000000000E+00 -0.00000000000E+00 -0.34821193917E+02  0.34821194230E+02  0.46700000000E-02 0.  1.
       1023    2    1    2    0    0  0.00000000000E+00  0.00000000000E+00 -0.31949283760E+02  0.37693108183E+02  0.20000341790E+02 0.  0.
        -11    1    3    3    0    0 -0.97020868021E+01 -0.24230373393E+01 -0.16055029502E+02  0.18914691930E+02  0.51100000000E-03 0.  1.
         11    1    3    3    0    0  0.97020868021E+01  0.24230373393E+01 -0.15894254259E+02  0.18778416253E+02  0.51100000000E-03 0. -1.
<mgrwt>
<rscale>  0 0.20000342E+02</rscale>
<asrwt>0</asrwt>
<pdfrwt beam="1">  1        1 0.44183267E-03 0.20000342E+02</pdfrwt>
<pdfrwt beam="2">  1       -1 0.53571068E-02 0.20000342E+02</pdfrwt>
<totfact> 0.36080900E+06</totfact>
</mgrwt>
</event>
<event>
 5    1  0.9583198E-007  0.2000021E+02  0.7818608E-02  0.1745324E+00
          1   -1    0    0  501    0  0.00000000000E+00  0.00000000000E+00  0.36380202816E+02  0.36380203116E+02  0.46700000000E-02 0.  1.
         -1   -1    0    0    0  501 -0.00000000000E+00 -0.00000000000E+00 -0.27488044775E+01  0.27488084445E+01  0.46700000000E-02 0. -1.
       1023    2    1    2    0    0  0.00000000000E+00  0.00000000000E+00  0.33631398339E+02  0.39129011560E+02  0.20000214786E+02 0.  0.
        -11    1    3    3    0    0 -0.31557995675E+01 -0.94890926874E+01  0.16843135877E+02  0.19588087639E+02  0.51100000000E-03 0.  1.
         11    1    3    3    0    0  0.31557995675E+01  0.94890926874E+01  0.16788262462E+02  0.19540923921E+02  0.51100000000E-03 0. -1.
<mgrwt>
<rscale>  0 0.20000215E+02</rscale>
<asrwt>0</asrwt>
<pdfrwt beam="1">  1        1 0.55969540E-02 0.20000215E+02</pdfrwt>
<pdfrwt beam="2">  1       -1 0.42289337E-03 0.20000215E+02</pdfrwt>
<totfact> 0.40879797E+06</totfact>
</mgrwt>
</event>
<event>
 5    1  0.9583198E-007  0.2000083E+02  0.7818608E-02  0.1745312E+00
          1   -1    0    0  501    0  0.00000000000E+00  0.00000000000E+00  0.12321177417E+02  0.12321178302E+02  0.46700000000E-02 0. -1.
         -1   -1    0    0    0  501 -0.00000000000E+00 -0.00000000000E+00 -0.81167777576E+01  0.81167791010E+01  0.46700000000E-02 0.  1.
       1023    2    1    2    0    0  0.00000000000E+00  0.00000000000E+00  0.42043996596E+01  0.20437957403E+02  0.20000828141E+02 0.  0.
        -11    1    3    3    0    0 -0.99622181331E+01 -0.87314639953E+00  0.20916518148E+01  0.10216808814E+02  0.51100000000E-03 0.  1.
         11    1    3    3    0    0  0.99622181331E+01  0.87314639953E+00  0.21127478448E+01  0.10221148589E+02  0.51100000000E-03 0. -1.
<mgrwt>
<rscale>  0 0.20000828E+02</rscale>
<asrwt>0</asrwt>
<pdfrwt beam="1">  1        1 0.18955659E-02 0.20000828E+02</pdfrwt>
<pdfrwt beam="2">  1       -1 0.12487352E-02 0.20000828E+02</pdfrwt>
<totfact> 0.38940022E+06</totfact>
</mgrwt>
</event>
<event>
 4    1  0.9583198E-007  0.2004423E+02  0.7818608E-02  0.1744450E+00
         -1   -1    0    0    0  501 -0.00000000000E+00  0.00000000000E+00  0.35266023832E+02  0.35266024141E+02  0.46700000000E-02 0. -1.
          1   -1    0    0  501    0  0.00000000000E+00 -0.00000000000E+00 -0.28481425696E+01  0.28481463982E+01  0.46700000000E-02 0.  1.
        -11    1    1    2    0    0  0.94610670633E+01 -0.33033278100E+01  0.15946990043E+02  0.18834284066E+02  0.51100000000E-03 0.  1.
         11    1    1    2    0    0 -0.94610670633E+01  0.33033278100E+01  0.16470891219E+02  0.19279886473E+02  0.51100000000E-03 0. -1.
<mgrwt>
<rscale>  0 0.20044225E+02</rscale>
<asrwt>0</asrwt>
<pdfrwt beam="2">  1        1 0.43817609E-03 0.20044225E+02</pdfrwt>
<pdfrwt beam="1">  1       -1 0.54255425E-02 0.20044225E+02</pdfrwt>
<totfact> 0.35871342E+06</totfact>
</mgrwt>
</event>
<event>
 5    1  0.9583198E-007  0.2000043E+02  0.7818608E-02  0.1745320E+00
         -1   -1    0    0    0  501 -0.00000000000E+00  0.00000000000E+00  0.19789498303E+01  0.19789553405E+01  0.46700000000E-02 0.  1.
          1   -1    0    0  501    0  0.00000000000E+00 -0.00000000000E+00 -0.50533941443E+02  0.50533941659E+02  0.46700000000E-02 0. -1.
       1023    2    1    2    0    0  0.00000000000E+00  0.00000000000E+00 -0.48554991613E+02  0.52512896999E+02  0.20000428514E+02 0.  0.
        -11    1    3    3    0    0  0.86834786769E+01 -0.49598457440E+01 -0.24178793575E+02  0.26165185471E+02  0.51100000000E-03 0. -1.
         11    1    3    3    0    0 -0.86834786769E+01  0.49598457440E+01 -0.24376198037E+02  0.26347711528E+02  0.51100000000E-03 0.  1.
<mgrwt>
<rscale>  0 0.20000429E+02</rscale>
<asrwt>0</asrwt>
<pdfrwt beam="2">  1        1 0.77744520E-02 0.20000429E+02</pdfrwt>
<pdfrwt beam="1">  1       -1 0.30445430E-03 0.20000429E+02</pdfrwt>
<totfact> 0.41744100E+06</totfact>
</mgrwt>
</event>
<event>
 5    1  0.9648963E-007  0.2000067E+02  0.7818608E-02  0.1745315E+00
          1   -1    0    0  501    0  0.00000000000E+00  0.00000000000E+00  0.56888682211E+02  0.56888682402E+02  0.46700000000E-02 0.  1.
         -1   -1    0    0    0  501 -0.00000000000E+00 -0.00000000000E+00 -0.17579335797E+01  0.17579397827E+01  0.46700000000E-02 0. -1.
       1023    2    1    2    0    0  0.00000000000E+00  0.00000000000E+00  0.55130748631E+02  0.58646622185E+02  0.20000671216E+02 0.  0.
        -11    1    3    3    0    0 -0.98850611403E+01 -0.15134863037E+01  0.27446719403E+02  0.29211769559E+02  0.51100000000E-03 0. -1.
         11    1    3    3    0    0  0.98850611403E+01  0.15134863037E+01  0.27684029228E+02  0.29434852626E+02  0.51100000000E-03 0.  1.
<mgrwt>
<rscale>  0 0.20000671E+02</rscale>
<asrwt>0</asrwt>
<pdfrwt beam="1">  1        1 0.87521057E-02 0.20000671E+02</pdfrwt>
<pdfrwt beam="2">  1       -1 0.27045180E-03 0.20000671E+02</pdfrwt>
<totfact> 0.42108414E+06</totfact>
</mgrwt>
</event>
<event>
 5    1  0.9583198E-007  0.2000625E+02  0.7818608E-02  0.1745204E+00
         -1   -1    0    0    0  501 -0.00000000000E+00  0.00000000000E+00  0.11193643176E+02  0.11193644151E+02  0.46700000000E-02 0. -1.
          1   -1    0    0  501    0  0.00000000000E+00 -0.00000000000E+00 -0.89392231849E+01  0.89392244048E+01  0.46700000000E-02 0.  1.
       1023    2    1    2    0    0  0.00000000000E+00  0.00000000000E+00  0.22544199915E+01  0.20132868555E+02  0.20006248693E+02 0.  0.
        -11    1    3    3    0    0  0.17383824339E+01  0.98502256921E+01  0.10099531935E+01  0.10053304202E+02  0.51100000000E-03 0. -1.
         11    1    3    3    0    0 -0.17383824339E+01 -0.98502256921E+01  0.12444667980E+01  0.10079564353E+02  0.51100000000E-03 0.  1.
<mgrwt>
<rscale>  0 0.20006249E+02</rscale>
<asrwt>0</asrwt>
<pdfrwt beam="2">  1        1 0.13752653E-02 0.20006249E+02</pdfrwt>
<pdfrwt beam="1">  1       -1 0.17220991E-02 0.20006249E+02</pdfrwt>
<totfact> 0.38421034E+06</totfact>
</mgrwt>
</event>
<event>
 5    1  0.9583198E-007  0.2000073E+02  0.7818608E-02  0.1745314E+00
          1   -1    0    0  501    0  0.00000000000E+00  0.00000000000E+00  0.51257366441E+01  0.51257387715E+01  0.46700000000E-02 0.  1.
         -1   -1    0    0    0  501 -0.00000000000E+00 -0.00000000000E+00 -0.19510803447E+02  0.19510804006E+02  0.46700000000E-02 0. -1.
       1023    2    1    2    0    0  0.00000000000E+00  0.00000000000E+00 -0.14385066803E+02  0.24636542778E+02  0.20000727314E+02 0.  0.
        -11    1    3    3    0    0 -0.70425239131E+01 -0.70998868725E+01 -0.71412056820E+01  0.12288301572E+02  0.51100000000E-03 0.  1.
         11    1    3    3    0    0  0.70425239131E+01  0.70998868725E+01 -0.72438611211E+01  0.12348241206E+02  0.51100000000E-03 0. -1.
<mgrwt>
<rscale>  0 0.20000727E+02</rscale>
<asrwt>0</asrwt>
<pdfrwt beam="1">  1        1 0.78857509E-03 0.20000727E+02</pdfrwt>
<pdfrwt beam="2">  1       -1 0.30016622E-02 0.20000727E+02</pdfrwt>
<totfact> 0.37463868E+06</totfact>
</mgrwt>
</event>
<event>
 5    1  0.9583198E-007  0.2000083E+02  0.7818608E-02  0.1745312E+00
         -1   -1    0    0    0  501 -0.00000000000E+00  0.00000000000E+00  0.45534193837E+02  0.45534194076E+02  0.46700000000E-02 0.  1.
          1   -1    0    0  501    0  0.00000000000E+00 -0.00000000000E+00 -0.21963314278E+01  0.21963363926E+01  0.46700000000E-02 0. -1.
       1023    2    1    2    0    0  0.00000000000E+00  0.00000000000E+00  0.43337862409E+02  0.47730530469E+02  0.20000830499E+02 0.  0.
        -11    1    3    3    0    0  0.31824651410E+01 -0.94803405609E+01  0.21530531157E+02  0.23739602223E+02  0.51100000000E-03 0.  1.
         11    1    3    3    0    0 -0.31824651410E+01  0.94803405609E+01  0.21807331252E+02  0.23990928246E+02  0.51100000000E-03 0. -1.
<mgrwt>
<rscale>  0 0.20000830E+02</rscale>
<asrwt>0</asrwt>
<pdfrwt beam="2">  1        1 0.33789756E-03 0.20000830E+02</pdfrwt>
<pdfrwt beam="1">  1       -1 0.70052606E-02 0.20000830E+02</pdfrwt>
<totfact> 0.35249841E+06</totfact>
</mgrwt>
</event>
<event>
 4    1  0.9583198E-007  0.2014315E+02  0.7818608E-02  0.1742496E+00
         -1   -1    0    0    0  501 -0.00000000000E+00  0.00000000000E+00  0.37520196088E+02  0.37520196379E+02  0.46700000000E-02 0. -1.
          1   -1    0    0  501    0  0.00000000000E+00 -0.00000000000E+00 -0.27035187768E+01  0.27035228102E+01  0.46700000000E-02 0.  1.
        -11    1    1    2    0    0  0.58254333945E+01  0.81975721252E+01  0.18503499954E+02  0.21059804695E+02  0.51100000000E-03 0.  1.
         11    1    1    2    0    0 -0.58254333945E+01 -0.81975721252E+01  0.16313177358E+02  0.19163914494E+02  0.51100000000E-03 0. -1.
<mgrwt>
<rscale>  0 0.20143152E+02</rscale>
<asrwt>0</asrwt>
<pdfrwt beam="2">  1        1 0.41592636E-03 0.20143152E+02</pdfrwt>
<pdfrwt beam="1">  1       -1 0.57723373E-02 0.20143152E+02</pdfrwt>
<totfact> 0.35306807E+06</totfact>
</mgrwt>
</event>
<event>
 5    1  0.9618726E-007  0.2000131E+02  0.7818608E-02  0.1745302E+00
          1   -1    0    0  501    0  0.00000000000E+00  0.00000000000E+00  0.93359792187E+01  0.93359803867E+01  0.46700000000E-02 0.  1.
         -1   -1    0    0    0  501 -0.00000000000E+00 -0.00000000000E+00 -0.10712655435E+02  0.10712656452E+02  0.46700000000E-02 0. -1.
       1023    2    1    2    0    0  0.00000000000E+00  0.00000000000E+00 -0.13766762159E+01  0.20048636839E+02  0.20001314999E+02 0.  0.
        -11    1    3    3    0    0  0.54523615519E+01 -0.83834142686E+01 -0.63102876375E+00  0.10020383169E+02  0.51100000000E-03 0.  1.
         11    1    3    3    0    0 -0.54523615519E+01  0.83834142686E+01 -0.74564745213E+00  0.10028253670E+02  0.51100000000E-03 0. -1.
<mgrwt>
<rscale>  0 0.20001315E+02</rscale>
<asrwt>0</asrwt>
<pdfrwt beam="1">  1        1 0.14363047E-02 0.20001315E+02</pdfrwt>
<pdfrwt beam="2">  1       -1 0.16481010E-02 0.20001315E+02</pdfrwt>
<totfact> 0.38511081E+06</totfact>
</mgrwt>
</event>
<event>
 5    1  0.9747070E-007  0.2000045E+02  0.7818608E-02  0.1745319E+00
          1   -1    0    0  501    0  0.00000000000E+00  0.00000000000E+00  0.76827680371E+02  0.76827680513E+02  0.46700000000E-02 0.  1.
         -1   -1    0    0    0  501 -0.00000000000E+00 -0.00000000000E+00 -0.13016688078E+01  0.13016771850E+01  0.46700000000E-02 0. -1.
       1023    2    1    2    0    0  0.00000000000E+00  0.00000000000E+00  0.75526011563E+02  0.78129357698E+02  0.20000452786E+02 0.  0.
        -11    1    3    3    0    0  0.48819817725E+00 -0.99881416775E+01  0.37541475127E+02  0.38850529811E+02  0.51100000000E-03 0. -1.
         11    1    3    3    0    0 -0.48819817725E+00  0.99881416775E+01  0.37984536436E+02  0.39278827887E+02  0.51100000000E-03 0.  1.
<mgrwt>
<rscale>  0 0.20000453E+02</rscale>
<asrwt>0</asrwt>
<pdfrwt beam="1">  1        1 0.11819641E-01 0.20000453E+02</pdfrwt>
<pdfrwt beam="2">  1       -1 0.20025744E-03 0.20000453E+02</pdfrwt>
<totfact> 0.43192632E+06</totfact>
</mgrwt>
</event>
<event>
 5    1  0.9583198E-007  0.2000519E+02  0.7818608E-02  0.1745225E+00
          1   -1    0    0  501    0  0.00000000000E+00  0.00000000000E+00  0.11833262767E+01  0.11833354918E+01  0.46700000000E-02 0.  1.
         -1   -1    0    0    0  501 -0.00000000000E+00 -0.00000000000E+00 -0.84551093766E+02  0.84551093895E+02  0.46700000000E-02 0. -1.
       1023    2    1    2    0    0  0.00000000000E+00  0.00000000000E+00 -0.83367767489E+02  0.85734429387E+02  0.20005192479E+02 0.  0.
        -11    1    3    3    0    0 -0.45066670433E+01  0.89286818783E+01 -0.41069928646E+02  0.42270207560E+02  0.51100000000E-03 0.  1.
         11    1    3    3    0    0  0.45066670433E+01 -0.89286818783E+01 -0.42297838844E+02  0.43464221827E+02  0.51100000000E-03 0. -1.
<mgrwt>
<rscale>  0 0.20005192E+02</rscale>
<asrwt>0</asrwt>
<pdfrwt beam="1">  1        1 0.18205098E-03 0.20005192E+02</pdfrwt>
<pdfrwt beam="2">  1       -1 0.13007857E-01 0.20005192E+02</pdfrwt>
<totfact> 0.32709026E+06</totfact>
</mgrwt>
</event>
<event>
 5    1  0.9583198E-007  0.2001087E+02  0.7818608E-02  0.1745112E+00
          1   -1    0    0  501    0  0.00000000000E+00  0.00000000000E+00  0.24200709541E+02  0.24200709991E+02  0.46700000000E-02 0.  1.
         -1   -1    0    0    0  501 -0.00000000000E+00 -0.00000000000E+00 -0.41366003589E+01  0.41366029950E+01  0.46700000000E-02 0. -1.
       1023    2    1    2    0    0  0.00000000000E+00  0.00000000000E+00  0.20064109182E+02  0.28337312986E+02  0.20010867798E+02 0.  0.
        -11    1    3    3    0    0 -0.79045122407E+01 -0.61338916689E+01  0.10106537400E+02  0.14221393717E+02  0.51100000000E-03 0. -1.
         11    1    3    3    0    0  0.79045122407E+01  0.61338916689E+01  0.99575717819E+01  0.14115919269E+02  0.51100000000E-03 0.  1.
<mgrwt>
<rscale>  0 0.20010868E+02</rscale>
<asrwt>0</asrwt>
<pdfrwt beam="1">  1        1 0.37231864E-02 0.20010868E+02</pdfrwt>
<pdfrwt beam="2">  1       -1 0.63640027E-03 0.20010868E+02</pdfrwt>
<totfact> 0.39990687E+06</totfact>
</mgrwt>
</event>
<event>
 5    1  0.9583198E-007  0.2000039E+02  0.7818608E-02  0.1745320E+00
          1   -1    0    0  501    0  0.00000000000E+00  0.00000000000E+00  0.88469049989E+00  0.88470282553E+00  0.46700000000E-02 0.  1.
         -1   -1    0    0    0  501 -0.00000000000E+00 -0.00000000000E+00 -0.11303747203E+03  0.11303747213E+03  0.46700000000E-02 0. -1.
       1023    2    1    2    0    0  0.00000000000E+00  0.00000000000E+00 -0.11215278153E+03  0.11392217495E+03  0.20000388518E+02 0.  0.
        -11    1    3    3    0    0  0.13761414337E+01 -0.99050191885E+01 -0.55924127312E+02  0.56811188917E+02  0.51100000000E-03 0.  1.
         11    1    3    3    0    0 -0.13761414337E+01  0.99050191885E+01 -0.56228654218E+02  0.57110986034E+02  0.51100000000E-03 0. -1.
<mgrwt>
<rscale>  0 0.20000389E+02</rscale>
<asrwt>0</asrwt>
<pdfrwt beam="1">  1        1 0.13610728E-03 0.20000389E+02</pdfrwt>
<pdfrwt beam="2">  1       -1 0.17390370E-01 0.20000389E+02</pdfrwt>
<totfact> 0.31184752E+06</totfact>
</mgrwt>
</event>
<event>
 5    1  0.9583198E-007  0.2000014E+02  0.7818608E-02  0.1745325E+00
         -1   -1    0    0    0  501 -0.00000000000E+00  0.00000000000E+00  0.10732956619E+03  0.10732956630E+03  0.46700000000E-02 0. -1.
          1   -1    0    0  501    0  0.00000000000E+00 -0.00000000000E+00 -0.93171725481E+00  0.93172895834E+00  0.46700000000E-02 0.  1.
       1023    2    1    2    0    0  0.00000000000E+00  0.00000000000E+00  0.10639784894E+03  0.10826129525E+03  0.20000144779E+02 0.  0.
        -11    1    3    3    0    0 -0.97068443741E+01  0.24036215996E+01  0.53388228426E+02  0.54316693192E+02  0.51100000000E-03 0.  1.
         11    1    3    3    0    0  0.97068443741E+01 -0.24036215996E+01  0.53009620513E+02  0.53944602063E+02  0.51100000000E-03 0. -1.
<mgrwt>
<rscale>  0 0.20000145E+02</rscale>
<asrwt>0</asrwt>
<pdfrwt beam="2">  1        1 0.14334198E-03 0.20000145E+02</pdfrwt>
<pdfrwt beam="1">  1       -1 0.16512246E-01 0.20000145E+02</pdfrwt>
<totfact> 0.31479564E+06</totfact>
</mgrwt>
</event>
<event>
 5    1  0.9583198E-007  0.2000010E+02  0.7818608E-02  0.1745326E+00
         -1   -1    0    0    0  501 -0.00000000000E+00  0.00000000000E+00  0.14922999869E+01  0.14923072940E+01  0.46700000000E-02 0.  1.
          1   -1    0    0  501    0  0.00000000000E+00 -0.00000000000E+00 -0.67011167862E+02  0.67011168025E+02  0.46700000000E-02 0. -1.
       1023    2    1    2    0    0  0.00000000000E+00  0.00000000000E+00 -0.65518867875E+02  0.68503475319E+02  0.20000102077E+02 0.  0.
        -11    1    3    3    0    0 -0.99358727849E+01 -0.11308575794E+01 -0.32844281941E+02  0.34332888945E+02  0.51100000000E-03 0.  1.
         11    1    3    3    0    0  0.99358727849E+01  0.11308575794E+01 -0.32674585935E+02  0.34170586374E+02  0.51100000000E-03 0. -1.
<mgrwt>
<rscale>  0 0.20000102E+02</rscale>
<asrwt>0</asrwt>
<pdfrwt beam="2">  1        1 0.10309409E-01 0.20000102E+02</pdfrwt>
<pdfrwt beam="1">  1       -1 0.22958524E-03 0.20000102E+02</pdfrwt>
<totfact> 0.42672189E+06</totfact>
</mgrwt>
</event>
<event>
 5    1  0.9583198E-007  0.2001036E+02  0.7818608E-02  0.1745122E+00
          1   -1    0    0  501    0  0.00000000000E+00  0.00000000000E+00  0.41304473857E+01  0.41304500258E+01  0.46700000000E-02 0. -1.
         -1   -1    0    0    0  501 -0.00000000000E+00 -0.00000000000E+00 -0.24235521876E+02  0.24235522326E+02  0.46700000000E-02 0.  1.
       1023    2    1    2    0    0  0.00000000000E+00  0.00000000000E+00 -0.20105074490E+02  0.28365972352E+02  0.20010356499E+02 0.  0.
        -11    1    3    3    0    0  0.96608800097E+01  0.25992163970E+01 -0.98785569717E+01  0.14059673415E+02  0.51100000000E-03 0. -1.
         11    1    3    3    0    0 -0.96608800097E+01 -0.25992163970E+01 -0.10226517519E+02  0.14306298937E+02  0.51100000000E-03 0.  1.
<mgrwt>
<rscale>  0 0.20010356E+02</rscale>
<asrwt>0</asrwt>
<pdfrwt beam="1">  1        1 0.63545369E-03 0.20010356E+02</pdfrwt>
<pdfrwt beam="2">  1       -1 0.37285420E-02 0.20010356E+02</pdfrwt>
<totfact> 0.36961826E+06</totfact>
</mgrwt>
</event>
<event>
 5    1  0.9719047E-007  0.2000060E+02  0.7818608E-02  0.1745316E+00
         -1   -1    0    0    0  501 -0.00000000000E+00  0.00000000000E+00  0.39316500483E+01  0.39316528218E+01  0.46700000000E-02 0. -1.
          1   -1    0    0  501    0  0.00000000000E+00 -0.00000000000E+00 -0.25436133014E+02  0.25436133442E+02  0.46700000000E-02 0.  1.
       1023    2    1    2    0    0  0.00000000000E+00  0.00000000000E+00 -0.21504482965E+02  0.29367786264E+02  0.20000602052E+02 0.  0.
        -11    1    3    3    0    0 -0.97768132708E+01 -0.21022850873E+01 -0.10725165226E+02  0.14664066616E+02  0.51100000000E-03 0.  1.
         11    1    3    3    0    0  0.97768132708E+01  0.21022850873E+01 -0.10779317739E+02  0.14703719648E+02  0.51100000000E-03 0. -1.
<mgrwt>
<rscale>  0 0.20000602E+02</rscale>
<asrwt>0</asrwt>
<pdfrwt beam="2">  1        1 0.39132514E-02 0.20000602E+02</pdfrwt>
<pdfrwt beam="1">  1       -1 0.60486950E-03 0.20000602E+02</pdfrwt>
<totfact> 0.40128990E+06</totfact>
</mgrwt>
</event>
<event>
 4    1  0.9583198E-007  0.2002315E+02  0.7818608E-02  0.1744868E+00
         -1   -1    0    0    0  501 -0.00000000000E+00  0.00000000000E+00  0.68372739730E+01  0.68372755679E+01  0.46700000000E-02 0.  1.
          1   -1    0    0  501    0  0.00000000000E+00 -0.00000000000E+00 -0.14659583746E+02  0.14659584490E+02  0.46700000000E-02 0. -1.
        -11    1    1    2    0    0 -0.35367336096E+01 -0.93614803206E+01 -0.35966488515E+01  0.10633987100E+02  0.51100000000E-03 0. -1.
         11    1    1    2    0    0  0.35367336096E+01  0.93614803206E+01 -0.42256609217E+01  0.10862872958E+02  0.51100000000E-03 0.  1.
<mgrwt>
<rscale>  0 0.20023148E+02</rscale>
<asrwt>0</asrwt>
<pdfrwt beam="2">  1        1 0.22553207E-02 0.20023148E+02</pdfrwt>
<pdfrwt beam="1">  1       -1 0.10518885E-02 0.20023148E+02</pdfrwt>
<totfact> 0.39107218E+06</totfact>
</mgrwt>
</event>
<event>
 5    1  0.9715781E-007  0.2000146E+02  0.7818608E-02  0.1745299E+00
         -1   -1    0    0    0  501 -0.00000000000E+00  0.00000000000E+00  0.45394209878E+01  0.45394233900E+01  0.46700000000E-02 0.  1.
          1   -1    0    0  501    0  0.00000000000E+00 -0.00000000000E+00 -0.22032440120E+02  0.22032440615E+02  0.46700000000E-02 0. -1.
       1023    2    1    2    0    0  0.00000000000E+00  0.00000000000E+00 -0.17493019132E+02  0.26571864005E+02  0.20001455905E+02 0.  0.
        -11    1    3    3    0    0 -0.10000329423E+02 -0.42949765506E-01 -0.88504899713E+01  0.13354385281E+02  0.51100000000E-03 0.  1.
         11    1    3    3    0    0  0.10000329423E+02  0.42949765506E-01 -0.86425291608E+01  0.13217478723E+02  0.51100000000E-03 0. -1.
<mgrwt>
<rscale>  0 0.20001456E+02</rscale>
<asrwt>0</asrwt>
<pdfrwt beam="2">  1        1 0.33896063E-02 0.20001456E+02</pdfrwt>
<pdfrwt beam="1">  1       -1 0.69837270E-03 0.20001456E+02</pdfrwt>
<totfact> 0.39865003E+06</totfact>
</mgrwt>
</event>
<event>
 4    1  0.9583198E-007  0.2003129E+02  0.7818608E-02  0.1744707E+00
          1   -1    0    0  501    0  0.00000000000E+00  0.00000000000E+00  0.67647730500E+01  0.67647746619E+01  0.46700000000E-02 0.  1.
         -1   -1    0    0    0  501 -0.00000000000E+00 -0.00000000000E+00 -0.14828746915E+02  0.14828747651E+02  0.46700000000E-02 0. -1.
        -11    1    1    2    0    0  0.67030892143E+01  0.74227803314E+01 -0.34574480534E+01  0.10582202992E+02  0.51100000000E-03 0.  1.
         11    1    1    2    0    0 -0.67030892143E+01 -0.74227803314E+01 -0.46065258121E+01  0.11011319321E+02  0.51100000000E-03 0. -1.
<mgrwt>
<rscale>  0 0.20031289E+02</rscale>
<asrwt>0</asrwt>
<pdfrwt beam="1">  1        1 0.10407345E-02 0.20031289E+02</pdfrwt>
<pdfrwt beam="2">  1       -1 0.22813459E-02 0.20031289E+02</pdfrwt>
<totfact> 0.37849983E+06</totfact>
</mgrwt>
</event>
<event>
 5    1  0.9583198E-007  0.2000061E+02  0.7818608E-02  0.1745316E+00
         -1   -1    0    0    0  501 -0.00000000000E+00  0.00000000000E+00  0.11379609231E+02  0.11379610190E+02  0.46700000000E-02 0.  1.
          1   -1    0    0  501    0  0.00000000000E+00 -0.00000000000E+00 -0.87881814672E+01  0.87881827080E+01  0.46700000000E-02 0. -1.
       1023    2    1    2    0    0  0.00000000000E+00  0.00000000000E+00  0.25914277641E+01  0.20167792898E+02  0.20000609303E+02 0.  0.
        -11    1    3    3    0    0  0.26947155573E+01  0.96301266975E+01  0.13688509782E+01  0.10093294081E+02  0.51100000000E-03 0.  1.
         11    1    3    3    0    0 -0.26947155573E+01 -0.96301266975E+01  0.12225767859E+01  0.10074498817E+02  0.51100000000E-03 0. -1.
<mgrwt>
<rscale>  0 0.20000609E+02</rscale>
<asrwt>0</asrwt>
<pdfrwt beam="2">  1        1 0.13520281E-02 0.20000609E+02</pdfrwt>
<pdfrwt beam="1">  1       -1 0.17507093E-02 0.20000609E+02</pdfrwt>
<totfact> 0.38418515E+06</totfact>
</mgrwt>
</event>
<event>
 5    1  0.9583198E-007  0.2000051E+02  0.7818608E-02  0.1745318E+00
         -1   -1    0    0    0  501 -0.00000000000E+00  0.00000000000E+00  0.26341862724E+01  0.26341904120E+01  0.46700000000E-02 0. -1.
          1   -1    0    0  501    0  0.00000000000E+00 -0.00000000000E+00 -0.37964275598E+02  0.37964275885E+02  0.46700000000E-02 0.  1.
       1023    2    1    2    0    0  0.00000000000E+00  0.00000000000E+00 -0.35330089325E+02  0.40598466297E+02  0.20000506342E+02 0.  0.
        -11    1    3    3    0    0 -0.94361602949E+01 -0.33106267099E+01 -0.17541690955E+02  0.20191886790E+02  0.51100000000E-03 0.  1.
         11    1    3    3    0    0  0.94361602949E+01  0.33106267099E+01 -0.17788398370E+02  0.20406579507E+02  0.51100000000E-03 0. -1.
<mgrwt>
<rscale>  0 0.20000506E+02</rscale>
<asrwt>0</asrwt>
<pdfrwt beam="2">  1        1 0.58406577E-02 0.20000506E+02</pdfrwt>
<pdfrwt beam="1">  1       -1 0.40525979E-03 0.20000506E+02</pdfrwt>
<totfact> 0.40979787E+06</totfact>
</mgrwt>
</event>
<event>
 5    1  0.9936381E-007  0.2000224E+02  0.7818608E-02  0.1745284E+00
          1   -1    0    0  501    0  0.00000000000E+00  0.00000000000E+00  0.21073525164E+02  0.21073525681E+02  0.46700000000E-02 0. -1.
         -1   -1    0    0    0  501 -0.00000000000E+00 -0.00000000000E+00 -0.47463510926E+01  0.47463533900E+01  0.46700000000E-02 0.  1.
       1023    2    1    2    0    0  0.00000000000E+00  0.00000000000E+00  0.16327174071E+02  0.25819879071E+02  0.20002238427E+02 0.  0.
        -11    1    3    3    0    0 -0.52562938852E+01  0.85076199390E+01  0.80099660206E+01  0.12812797444E+02  0.51100000000E-03 0. -1.
         11    1    3    3    0    0  0.52562938852E+01 -0.85076199390E+01  0.83172080505E+01  0.13007081627E+02  0.51100000000E-03 0.  1.
<mgrwt>
<rscale>  0 0.20002238E+02</rscale>
<asrwt>0</asrwt>
<pdfrwt beam="1">  1        1 0.32420811E-02 0.20002238E+02</pdfrwt>
<pdfrwt beam="2">  1       -1 0.73020807E-03 0.20002238E+02</pdfrwt>
<totfact> 0.39784530E+06</totfact>
</mgrwt>
</event>
<event>
 5    1  0.9794814E-007  0.2000080E+02  0.7818608E-02  0.1745312E+00
          1   -1    0    0  501    0  0.00000000000E+00  0.00000000000E+00  0.12383024504E+02  0.12383025385E+02  0.46700000000E-02 0. -1.
         -1   -1    0    0    0  501 -0.00000000000E+00 -0.00000000000E+00 -0.80762160004E+01  0.80762173506E+01  0.46700000000E-02 0.  1.
       1023    2    1    2    0    0  0.00000000000E+00  0.00000000000E+00  0.43068085035E+01  0.20459242735E+02  0.20000800329E+02 0.  0.
        -11    1    3    3    0    0  0.13012673709E+01 -0.99152977238E+01  0.21127765056E+01  0.10221068953E+02  0.51100000000E-03 0.  1.
         11    1    3    3    0    0 -0.13012673709E+01  0.99152977238E+01  0.21940319979E+01  0.10238173782E+02  0.51100000000E-03 0. -1.
<mgrwt>
<rscale>  0 0.20000800E+02</rscale>
<asrwt>0</asrwt>
<pdfrwt beam="1">  1        1 0.19050809E-02 0.20000800E+02</pdfrwt>
<pdfrwt beam="2">  1       -1 0.12424949E-02 0.20000800E+02</pdfrwt>
<totfact> 0.38947769E+06</totfact>
</mgrwt>
</event>
<event>
 5    1  0.9583198E-007  0.2000208E+02  0.7818608E-02  0.1745287E+00
         -1   -1    0    0    0  501 -0.00000000000E+00  0.00000000000E+00  0.10982106206E+02  0.10982107199E+02  0.46700000000E-02 0.  1.
          1   -1    0    0  501    0  0.00000000000E+00 -0.00000000000E+00 -0.91076138721E+01  0.91076150694E+01  0.46700000000E-02 0. -1.
       1023    2    1    2    0    0  0.00000000000E+00  0.00000000000E+00  0.18744923342E+01  0.20089722269E+02  0.20002080375E+02 0.  0.
        -11    1    3    3    0    0 -0.99156817393E+01  0.13037396096E+01  0.95530391802E+00  0.10046546031E+02  0.51100000000E-03 0.  1.
         11    1    3    3    0    0  0.99156817393E+01 -0.13037396096E+01  0.91918841619E+00  0.10043176237E+02  0.51100000000E-03 0. -1.
<mgrwt>
<rscale>  0 0.20002080E+02</rscale>
<asrwt>0</asrwt>
<pdfrwt beam="2">  1        1 0.14011715E-02 0.20002080E+02</pdfrwt>
<pdfrwt beam="1">  1       -1 0.16895550E-02 0.20002080E+02</pdfrwt>
<totfact> 0.38468759E+06</totfact>
</mgrwt>
</event>
<event>
 4    1  0.9583198E-007  0.2007348E+02  0.7818608E-02  0.1743871E+00
          1   -1    0    0  501    0  0.00000000000E+00  0.00000000000E+00  0.45010584549E+01  0.45010608775E+01  0.46700000000E-02 0.  1.
         -1   -1    0    0    0  501 -0.00000000000E+00 -0.00000000000E+00 -0.22380545216E+02  0.22380545703E+02  0.46700000000E-02 0. -1.
        -11    1    1    2    0    0 -0.59648971847E+01  0.80578895951E+01 -0.95772144589E+01  0.13864797878E+02  0.51100000000E-03 0.  1.
         11    1    1    2    0    0  0.59648971847E+01 -0.80578895951E+01 -0.83022723018E+01  0.13016808702E+02  0.51100000000E-03 0. -1.
<mgrwt>
<rscale>  0 0.20073483E+02</rscale>
<asrwt>0</asrwt>
<pdfrwt beam="1">  1        1 0.69247077E-03 0.20073483E+02</pdfrwt>
<pdfrwt beam="2">  1       -1 0.34431610E-02 0.20073483E+02</pdfrwt>
<totfact> 0.36881953E+06</totfact>
</mgrwt>
</event>
<event>
 5    1  0.9583198E-007  0.2000084E+02  0.7818608E-02  0.1745311E+00
         -1   -1    0    0    0  501 -0.00000000000E+00  0.00000000000E+00  0.86794811321E+02  0.86794811447E+02  0.46700000000E-02 0.  1.
          1   -1    0    0  501    0  0.00000000000E+00 -0.00000000000E+00 -0.11522347855E+01  0.11522442492E+01  0.46700000000E-02 0. -1.
       1023    2    1    2    0    0  0.00000000000E+00  0.00000000000E+00  0.85642576535E+02  0.87947055696E+02  0.20000842231E+02 0.  0.
        -11    1    3    3    0    0 -0.54871103508E+01  0.83602400065E+01  0.42468711758E+02  0.43630189911E+02  0.51100000000E-03 0. -1.
         11    1    3    3    0    0  0.54871103508E+01 -0.83602400065E+01  0.43173864777E+02  0.44316865785E+02  0.51100000000E-03 0.  1.
<mgrwt>
<rscale>  0 0.20000842E+02</rscale>
<asrwt>0</asrwt>
<pdfrwt beam="2">  1        1 0.17726758E-03 0.20000842E+02</pdfrwt>
<pdfrwt beam="1">  1       -1 0.13353052E-01 0.20000842E+02</pdfrwt>
<totfact> 0.32595783E+06</totfact>
</mgrwt>
</event>
<event>
 5    1  0.9744575E-007  0.2000070E+02  0.7818608E-02  0.1745314E+00
          1   -1    0    0  501    0  0.00000000000E+00  0.00000000000E+00  0.14545531364E+02  0.14545532114E+02  0.46700000000E-02 0. -1.
         -1   -1    0    0    0  501 -0.00000000000E+00 -0.00000000000E+00 -0.68754403098E+01  0.68754418958E+01  0.46700000000E-02 0.  1.
       1023    2    1    2    0    0  0.00000000000E+00  0.00000000000E+00  0.76700910543E+01  0.21420974010E+02  0.20000695756E+02 0.  0.
        -11    1    3    3    0    0  0.78640958446E+01  0.61773409977E+01  0.37724837190E+01  0.10688085840E+02  0.51100000000E-03 0. -1.
         11    1    3    3    0    0 -0.78640958446E+01 -0.61773409977E+01  0.38976073353E+01  0.10732888169E+02  0.51100000000E-03 0.  1.
<mgrwt>
<rscale>  0 0.20000696E+02</rscale>
<asrwt>0</asrwt>
<pdfrwt beam="1">  1        1 0.22377742E-02 0.20000696E+02</pdfrwt>
<pdfrwt beam="2">  1       -1 0.10577602E-02 0.20000696E+02</pdfrwt>
<totfact> 0.39194111E+06</totfact>
</mgrwt>
</event>
<event>
 5    1  0.9583198E-007  0.2000118E+02  0.7818608E-02  0.1745305E+00
         -1   -1    0    0    0  501 -0.00000000000E+00  0.00000000000E+00  0.10934579282E+03  0.10934579292E+03  0.46700000000E-02 0. -1.
          1   -1    0    0  501    0  0.00000000000E+00 -0.00000000000E+00 -0.91463202034E+00  0.91464394249E+00  0.46700000000E-02 0.  1.
       1023    2    1    2    0    0  0.00000000000E+00  0.00000000000E+00  0.10843116080E+03  0.11026043687E+03  0.20001182583E+02 0.  0.
        -11    1    3    3    0    0 -0.51313712122E+01  0.85834153953E+01  0.54636699444E+02  0.55544350899E+02  0.51100000000E-03 0. -1.
         11    1    3    3    0    0  0.51313712122E+01 -0.85834153953E+01  0.53794461360E+02  0.54716085968E+02  0.51100000000E-03 0.  1.
<mgrwt>
<rscale>  0 0.20001183E+02</rscale>
<asrwt>0</asrwt>
<pdfrwt beam="2">  1        1 0.14071353E-03 0.20001183E+02</pdfrwt>
<pdfrwt beam="1">  1       -1 0.16822433E-01 0.20001183E+02</pdfrwt>
<totfact> 0.31371363E+06</totfact>
</mgrwt>
</event>
<event>
 5    1  0.9583198E-007  0.2000024E+02  0.7818608E-02  0.1745323E+00
          1   -1    0    0  501    0  0.00000000000E+00  0.00000000000E+00  0.49906109232E+01  0.49906131082E+01  0.46700000000E-02 0.  1.
         -1   -1    0    0    0  501 -0.00000000000E+00 -0.00000000000E+00 -0.20038098829E+02  0.20038099373E+02  0.46700000000E-02 0. -1.
       1023    2    1    2    0    0  0.00000000000E+00  0.00000000000E+00 -0.15047487905E+02  0.25028712481E+02  0.20000238903E+02 0.  0.
        -11    1    3    3    0    0  0.91422927679E+01 -0.40520798635E+01 -0.74749463531E+01  0.12485018683E+02  0.51100000000E-03 0. -1.
         11    1    3    3    0    0 -0.91422927679E+01  0.40520798635E+01 -0.75725415523E+01  0.12543693798E+02  0.51100000000E-03 0.  1.
<mgrwt>
<rscale>  0 0.20000239E+02</rscale>
<asrwt>0</asrwt>
<pdfrwt beam="1">  1        1 0.76778652E-03 0.20000239E+02</pdfrwt>
<pdfrwt beam="2">  1       -1 0.30827846E-02 0.20000239E+02</pdfrwt>
<totfact> 0.37411932E+06</totfact>
</mgrwt>
</event>
<event>
 5    1  0.9583198E-007  0.2000263E+02  0.7818608E-02  0.1745276E+00
          1   -1    0    0  501    0  0.00000000000E+00  0.00000000000E+00  0.33214137669E+02  0.33214137997E+02  0.46700000000E-02 0.  1.
         -1   -1    0    0    0  501 -0.00000000000E+00 -0.00000000000E+00 -0.30115569562E+01  0.30115605770E+01  0.46700000000E-02 0. -1.
       1023    2    1    2    0    0  0.00000000000E+00  0.00000000000E+00  0.30202580713E+02  0.36225698574E+02  0.20002633714E+02 0.  0.
        -11    1    3    3    0    0 -0.97083344607E+01  0.23994702940E+01  0.14864306664E+02  0.17915268029E+02  0.51100000000E-03 0. -1.
         11    1    3    3    0    0  0.97083344607E+01 -0.23994702940E+01  0.15338274049E+02  0.18310430545E+02  0.51100000000E-03 0.  1.
<mgrwt>
<rscale>  0 0.20002634E+02</rscale>
<asrwt>0</asrwt>
<pdfrwt beam="1">  1        1 0.51098675E-02 0.20002634E+02</pdfrwt>
<pdfrwt beam="2">  1       -1 0.46331677E-03 0.20002634E+02</pdfrwt>
<totfact> 0.40661888E+06</totfact>
</mgrwt>
</event>
<event>
 5    1  0.9692032E-007  0.2000120E+02  0.7818608E-02  0.1745304E+00
         -1   -1    0    0    0  501 -0.00000000000E+00  0.00000000000E+00  0.35338196780E+02  0.35338197089E+02  0.46700000000E-02 0. -1.
          1   -1    0    0  501    0  0.00000000000E+00 -0.00000000000E+00 -0.28301359836E+01  0.28301398365E+01  0.46700000000E-02 0.  1.
       1023    2    1    2    0    0  0.00000000000E+00  0.00000000000E+00  0.32508060797E+02  0.38168336925E+02  0.20001198136E+02 0.  0.
        -11    1    3    3    0    0  0.37344372014E-01  0.10000259106E+02  0.16113738809E+02  0.18964681792E+02  0.51100000000E-03 0.  1.
         11    1    3    3    0    0 -0.37344372014E-01 -0.10000259106E+02  0.16394321987E+02  0.19203655133E+02  0.51100000000E-03 0. -1.
<mgrwt>
<rscale>  0 0.20001198E+02</rscale>
<asrwt>0</asrwt>
<pdfrwt beam="2">  1        1 0.43540583E-03 0.20001198E+02</pdfrwt>
<pdfrwt beam="1">  1       -1 0.54366463E-02 0.20001198E+02</pdfrwt>
<totfact> 0.36035476E+06</totfact>
</mgrwt>
</event>
<event>
 5    1  0.9796453E-007  0.2000249E+02  0.7818608E-02  0.1745279E+00
          1   -1    0    0  501    0  0.00000000000E+00  0.00000000000E+00  0.54533344349E+02  0.54533344549E+02  0.46700000000E-02 0.  1.
         -1   -1    0    0    0  501 -0.00000000000E+00 -0.00000000000E+00 -0.18341935525E+01  0.18341994976E+01  0.46700000000E-02 0. -1.
       1023    2    1    2    0    0  0.00000000000E+00  0.00000000000E+00  0.52699150796E+02  0.56367544046E+02  0.20002488025E+02 0.  0.
        -11    1    3    3    0    0 -0.33255463411E+01 -0.94310427492E+01  0.26758487747E+02  0.28566072404E+02  0.51100000000E-03 0.  1.
         11    1    3    3    0    0  0.33255463411E+01  0.94310427492E+01  0.25940663049E+02  0.27801471642E+02  0.51100000000E-03 0. -1.
<mgrwt>
<rscale>  0 0.20002488E+02</rscale>
<asrwt>0</asrwt>
<pdfrwt beam="1">  1        1 0.83897459E-02 0.20002488E+02</pdfrwt>
<pdfrwt beam="2">  1       -1 0.28218409E-03 0.20002488E+02</pdfrwt>
<totfact> 0.41965852E+06</totfact>
</mgrwt>
</event>
<event>
 5    1  0.9583198E-007  0.2000037E+02  0.7818608E-02  0.1745321E+00
         -1   -1    0    0    0  501 -0.00000000000E+00  0.00000000000E+00  0.28575310568E+01  0.28575348728E+01  0.46700000000E-02 0. -1.
          1   -1    0    0  501    0  0.00000000000E+00 -0.00000000000E+00 -0.34996514161E+02  0.34996514473E+02  0.46700000000E-02 0.  1.
       1023    2    1    2    0    0  0.00000000000E+00  0.00000000000E+00 -0.32138983104E+02  0.37854049346E+02  0.20000370419E+02 0.  0.
        -11    1    3    3    0    0 -0.93766658807E+01  0.34754077494E+01 -0.16179557868E+02  0.19020473578E+02  0.51100000000E-03 0.  1.
         11    1    3    3    0    0  0.93766658807E+01 -0.34754077494E+01 -0.15959425237E+02  0.18833575768E+02  0.51100000000E-03 0. -1.
<mgrwt>
<rscale>  0 0.20000370E+02</rscale>
<asrwt>0</asrwt>
<pdfrwt beam="2">  1        1 0.53840791E-02 0.20000370E+02</pdfrwt>
<pdfrwt beam="1">  1       -1 0.43962051E-03 0.20000370E+02</pdfrwt>
<totfact> 0.40789409E+06</totfact>
</mgrwt>
</event>
<event>
 5    1  0.9583198E-007  0.2000034E+02  0.7818608E-02  0.1745321E+00
          1   -1    0    0  501    0  0.00000000000E+00  0.00000000000E+00  0.58435956717E+02  0.58435956903E+02  0.46700000000E-02 0. -1.
         -1   -1    0    0    0  501 -0.00000000000E+00 -0.00000000000E+00 -0.17113304320E+01  0.17113368039E+01  0.46700000000E-02 0.  1.
       1023    2    1    2    0    0  0.00000000000E+00  0.00000000000E+00  0.56724626285E+02  0.60147293707E+02  0.20000342826E+02 0.  0.
        -11    1    3    3    0    0  0.85068559668E+01  0.52567884187E+01  0.28197455659E+02  0.29918170546E+02  0.51100000000E-03 0. -1.
         11    1    3    3    0    0 -0.85068559668E+01 -0.52567884187E+01  0.28527170625E+02  0.30229123161E+02  0.51100000000E-03 0.  1.
<mgrwt>
<rscale>  0 0.20000343E+02</rscale>
<asrwt>0</asrwt>
<pdfrwt beam="1">  1        1 0.89901464E-02 0.20000343E+02</pdfrwt>
<pdfrwt beam="2">  1       -1 0.26328215E-03 0.20000343E+02</pdfrwt>
<totfact> 0.42197280E+06</totfact>
</mgrwt>
</event>
<event>
 5    1  0.9583198E-007  0.2000041E+02  0.7818608E-02  0.1745320E+00
         -1   -1    0    0    0  501 -0.00000000000E+00  0.00000000000E+00  0.21269262845E+01  0.21269314114E+01  0.46700000000E-02 0.  1.
          1   -1    0    0  501    0  0.00000000000E+00 -0.00000000000E+00 -0.47018061118E+02  0.47018061350E+02  0.46700000000E-02 0. -1.
       1023    2    1    2    0    0  0.00000000000E+00  0.00000000000E+00 -0.44891134833E+02  0.49144992761E+02  0.20000408167E+02 0.  0.
        -11    1    3    3    0    0 -0.70164252973E+01  0.71255368994E+01 -0.22386318983E+02  0.24518376332E+02  0.51100000000E-03 0. -1.
         11    1    3    3    0    0  0.70164252973E+01 -0.71255368994E+01 -0.22504815850E+02  0.24626616430E+02  0.51100000000E-03 0.  1.
<mgrwt>
<rscale>  0 0.20000408E+02</rscale>
<asrwt>0</asrwt>
<pdfrwt beam="2">  1        1 0.72335475E-02 0.20000408E+02</pdfrwt>
<pdfrwt beam="1">  1       -1 0.32721988E-03 0.20000408E+02</pdfrwt>
<totfact> 0.41536644E+06</totfact>
</mgrwt>
</event>
<event>
 5    1  0.9583198E-007  0.2000080E+02  0.7818608E-02  0.1745312E+00
         -1   -1    0    0    0  501 -0.00000000000E+00  0.00000000000E+00  0.11309440839E+02  0.11309441803E+02  0.46700000000E-02 0. -1.
          1   -1    0    0  501    0  0.00000000000E+00 -0.00000000000E+00 -0.88428757033E+01  0.88428769364E+01  0.46700000000E-02 0.  1.
       1023    2    1    2    0    0  0.00000000000E+00  0.00000000000E+00  0.24665651359E+01  0.20152318740E+02  0.20000800159E+02 0.  0.
        -11    1    3    3    0    0  0.39378893229E+01 -0.91924340044E+01  0.12470332428E+01  0.10077842399E+02  0.51100000000E-03 0.  1.
         11    1    3    3    0    0 -0.39378893229E+01  0.91924340044E+01  0.12195318931E+01  0.10074476341E+02  0.51100000000E-03 0. -1.
<mgrwt>
<rscale>  0 0.20000800E+02</rscale>
<asrwt>0</asrwt>
<pdfrwt beam="2">  1        1 0.13604426E-02 0.20000800E+02</pdfrwt>
<pdfrwt beam="1">  1       -1 0.17399141E-02 0.20000800E+02</pdfrwt>
<totfact> 0.38427571E+06</totfact>
</mgrwt>
</event>
<event>
 5    1  0.9583198E-007  0.2000394E+02  0.7818608E-02  0.1745250E+00
         -1   -1    0    0    0  501 -0.00000000000E+00  0.00000000000E+00  0.16505612683E+02  0.16505613344E+02  0.46700000000E-02 0.  1.
          1   -1    0    0  501    0  0.00000000000E+00 -0.00000000000E+00 -0.60609303734E+01  0.60609321725E+01  0.46700000000E-02 0. -1.
       1023    2    1    2    0    0  0.00000000000E+00  0.00000000000E+00  0.10444682310E+02  0.22566545516E+02  0.20003939312E+02 0.  0.
        -11    1    3    3    0    0 -0.83966019331E+00 -0.99666626939E+01  0.52240305007E+01  0.11284054654E+02  0.51100000000E-03 0.  1.
         11    1    3    3    0    0  0.83966019331E+00  0.99666626939E+01  0.52206518091E+01  0.11282490863E+02  0.51100000000E-03 0. -1.
<mgrwt>
<rscale>  0 0.20003939E+02</rscale>
<asrwt>0</asrwt>
<pdfrwt beam="2">  1        1 0.93245101E-03 0.20003939E+02</pdfrwt>
<pdfrwt beam="1">  1       -1 0.25393252E-02 0.20003939E+02</pdfrwt>
<totfact> 0.37771511E+06</totfact>
</mgrwt>
</event>
<event>
 5    1  0.9583198E-007  0.2000375E+02  0.7818608E-02  0.1745254E+00
         -1   -1    0    0    0  501 -0.00000000000E+00  0.00000000000E+00  0.19114992678E+02  0.19114993249E+02  0.46700000000E-02 0. -1.
          1   -1    0    0  501    0  0.00000000000E+00 -0.00000000000E+00 -0.52334533952E+01  0.52334554788E+01  0.46700000000E-02 0.  1.
       1023    2    1    2    0    0  0.00000000000E+00  0.00000000000E+00  0.13881539283E+02  0.24348448727E+02  0.20003745213E+02 0.  0.
        -11    1    3    3    0    0 -0.57742349053E+01  0.81659448392E+01  0.70796126525E+01  0.12253381551E+02  0.51100000000E-03 0. -1.
         11    1    3    3    0    0  0.57742349053E+01 -0.81659448392E+01  0.68019266305E+01  0.12095067177E+02  0.51100000000E-03 0.  1.
<mgrwt>
<rscale>  0 0.20003745E+02</rscale>
<asrwt>0</asrwt>
<pdfrwt beam="2">  1        1 0.80514690E-03 0.20003745E+02</pdfrwt>
<pdfrwt beam="1">  1       -1 0.29407682E-02 0.20003745E+02</pdfrwt>
<totfact> 0.37492373E+06</totfact>
</mgrwt>
</event>
<event>
 5    1  0.9598126E-007  0.2000232E+02  0.7818608E-02  0.1745282E+00
          1   -1    0    0  501    0  0.00000000000E+00  0.00000000000E+00  0.13282474269E+02  0.13282475090E+02  0.46700000000E-02 0.  1.
         -1   -1    0    0    0  501 -0.00000000000E+00 -0.00000000000E+00 -0.75304658590E+01  0.75304673071E+01  0.46700000000E-02 0. -1.
       1023    2    1    2    0    0  0.00000000000E+00  0.00000000000E+00  0.57520084098E+01  0.20812942397E+02  0.20002324127E+02 0.  0.
        -11    1    3    3    0    0 -0.71694734877E+01  0.69728139390E+01  0.29196323919E+01  0.10418528585E+02  0.51100000000E-03 0.  1.
         11    1    3    3    0    0  0.71694734877E+01 -0.69728139390E+01  0.28323760179E+01  0.10394413812E+02  0.51100000000E-03 0. -1.
<mgrwt>
<rscale>  0 0.20002324E+02</rscale>
<asrwt>0</asrwt>
<pdfrwt beam="1">  1        1 0.20434577E-02 0.20002324E+02</pdfrwt>
<pdfrwt beam="2">  1       -1 0.11585334E-02 0.20002324E+02</pdfrwt>
<totfact> 0.39047900E+06</totfact>
</mgrwt>
</event>
<event>
 5    1  0.9683429E-007  0.2000175E+02  0.7818608E-02  0.1745293E+00
          1   -1    0    0  501    0  0.00000000000E+00  0.00000000000E+00  0.22597273078E+02  0.22597273560E+02  0.46700000000E-02 0. -1.
         -1   -1    0    0    0  501 -0.00000000000E+00 -0.00000000000E+00 -0.44260832612E+01  0.44260857249E+01  0.46700000000E-02 0.  1.
       1023    2    1    2    0    0  0.00000000000E+00  0.00000000000E+00  0.18171189817E+02  0.27023359285E+02  0.20001745117E+02 0.  0.
        -11    1    3    3    0    0 -0.99302660557E+01 -0.11854828345E+01  0.90267322252E+01  0.13472098887E+02  0.51100000000E-03 0.  1.
         11    1    3    3    0    0  0.99302660557E+01  0.11854828345E+01  0.91444575913E+01  0.13551260399E+02  0.51100000000E-03 0. -1.
<mgrwt>
<rscale>  0 0.20001745E+02</rscale>
<asrwt>0</asrwt>
<pdfrwt beam="1">  1        1 0.34765038E-02 0.20001745E+02</pdfrwt>
<pdfrwt beam="2">  1       -1 0.68093611E-03 0.20001745E+02</pdfrwt>
<totfact> 0.39908207E+06</totfact>
</mgrwt>
</event>
<event>
 5    1  0.9583198E-007  0.2000116E+02  0.7818608E-02  0.1745305E+00
          1   -1    0    0  501    0  0.00000000000E+00  0.00000000000E+00  0.10529786378E+01  0.10529889936E+01  0.46700000000E-02 0.  1.
         -1   -1    0    0    0  501 -0.00000000000E+00 -0.00000000000E+00 -0.94979214730E+02  0.94979214845E+02  0.46700000000E-02 0. -1.
       1023    2    1    2    0    0  0.00000000000E+00  0.00000000000E+00 -0.93926236092E+02  0.96032203838E+02  0.20001158657E+02 0.  0.
        -11    1    3    3    0    0  0.59494807954E+01 -0.80379786144E+01 -0.47340097574E+02  0.48384814359E+02  0.51100000000E-03 0. -1.
         11    1    3    3    0    0 -0.59494807954E+01  0.80379786144E+01 -0.46586138518E+02  0.47647389480E+02  0.51100000000E-03 0.  1.
<mgrwt>
<rscale>  0 0.20001159E+02</rscale>
<asrwt>0</asrwt>
<pdfrwt beam="1">  1        1 0.16199759E-03 0.20001159E+02</pdfrwt>
<pdfrwt beam="2">  1       -1 0.14612181E-01 0.20001159E+02</pdfrwt>
<totfact> 0.32136398E+06</totfact>
</mgrwt>
</event>
<event>
 5    1  0.9612131E-007  0.2000074E+02  0.7818608E-02  0.1745313E+00
         -1   -1    0    0    0  501 -0.00000000000E+00  0.00000000000E+00  0.15720970370E+02  0.15720971064E+02  0.46700000000E-02 0. -1.
          1   -1    0    0  501    0  0.00000000000E+00 -0.00000000000E+00 -0.63614006477E+01  0.63614023619E+01  0.46700000000E-02 0.  1.
       1023    2    1    2    0    0  0.00000000000E+00  0.00000000000E+00  0.93595697225E+01  0.22082373426E+02  0.20000741754E+02 0.  0.
        -11    1    3    3    0    0  0.12710662806E+01 -0.99191499730E+01  0.47324082828E+01  0.11063491045E+02  0.51100000000E-03 0.  1.
         11    1    3    3    0    0 -0.12710662806E+01  0.99191499730E+01  0.46271614396E+01  0.11018882381E+02  0.51100000000E-03 0. -1.
<mgrwt>
<rscale>  0 0.20000742E+02</rscale>
<asrwt>0</asrwt>
<pdfrwt beam="2">  1        1 0.97867721E-03 0.20000742E+02</pdfrwt>
<pdfrwt beam="1">  1       -1 0.24186110E-02 0.20000742E+02</pdfrwt>
<totfact> 0.37873294E+06</totfact>
</mgrwt>
</event>
<event>
 5    1  0.9583198E-007  0.2000105E+02  0.7818608E-02  0.1745307E+00
          1   -1    0    0  501    0  0.00000000000E+00  0.00000000000E+00  0.12669830024E+01  0.12669916090E+01  0.46700000000E-02 0.  1.
         -1   -1    0    0    0  501 -0.00000000000E+00 -0.00000000000E+00 -0.78935676398E+02  0.78935676536E+02  0.46700000000E-02 0. -1.
       1023    2    1    2    0    0  0.00000000000E+00  0.00000000000E+00 -0.77668693396E+02  0.80202668145E+02  0.20001051068E+02 0.  0.
        -11    1    3    3    0    0 -0.85173582631E+01  0.52403610997E+01 -0.38589299473E+02  0.39864029027E+02  0.51100000000E-03 0.  1.
         11    1    3    3    0    0  0.85173582631E+01 -0.52403610997E+01 -0.39079393923E+02  0.40338639118E+02  0.51100000000E-03 0. -1.
<mgrwt>
<rscale>  0 0.20001051E+02</rscale>
<asrwt>0</asrwt>
<pdfrwt beam="1">  1        1 0.19492120E-03 0.20001051E+02</pdfrwt>
<pdfrwt beam="2">  1       -1 0.12143947E-01 0.20001051E+02</pdfrwt>
<totfact> 0.33052664E+06</totfact>
</mgrwt>
</event>
<event>
 5    1  0.9583198E-007  0.2000341E+02  0.7818608E-02  0.1745260E+00
         -1   -1    0    0    0  501 -0.00000000000E+00  0.00000000000E+00  0.12828341989E+01  0.12828426991E+01  0.46700000000E-02 0.  1.
          1   -1    0    0  501    0  0.00000000000E+00 -0.00000000000E+00 -0.77978699108E+02  0.77978699248E+02  0.46700000000E-02 0. -1.
       1023    2    1    2    0    0  0.00000000000E+00  0.00000000000E+00 -0.76695864909E+02  0.79261541947E+02  0.20003408151E+02 0.  0.
        -11    1    3    3    0    0  0.82611237254E+01  0.56377712138E+01 -0.38580828916E+02  0.39856128632E+02  0.51100000000E-03 0.  1.
         11    1    3    3    0    0 -0.82611237254E+01 -0.56377712138E+01 -0.38115035993E+02  0.39405413315E+02  0.51100000000E-03 0. -1.
<mgrwt>
<rscale>  0 0.20003408E+02</rscale>
<asrwt>0</asrwt>
<pdfrwt beam="2">  1        1 0.11996720E-01 0.20003408E+02</pdfrwt>
<pdfrwt beam="1">  1       -1 0.19735983E-03 0.20003408E+02</pdfrwt>
<totfact> 0.43238436E+06</totfact>
</mgrwt>
</event>
<event>
 5    1  0.9583198E-007  0.2000056E+02  0.7818608E-02  0.1745317E+00
         -1   -1    0    0    0  501 -0.00000000000E+00  0.00000000000E+00  0.20590619247E+02  0.20590619776E+02  0.46700000000E-02 0.  1.
          1   -1    0    0  501    0  0.00000000000E+00 -0.00000000000E+00 -0.48568520717E+01  0.48568543169E+01  0.46700000000E-02 0. -1.
       1023    2    1    2    0    0  0.00000000000E+00  0.00000000000E+00  0.15733767175E+02  0.25447474093E+02  0.20000562697E+02 0.  0.
        -11    1    3    3    0    0 -0.72217751020E+01 -0.69174735283E+01  0.78825261835E+01  0.12733408614E+02  0.51100000000E-03 0. -1.
         11    1    3    3    0    0  0.72217751020E+01  0.69174735283E+01  0.78512409913E+01  0.12714065479E+02  0.51100000000E-03 0.  1.
<mgrwt>
<rscale>  0 0.20000563E+02</rscale>
<asrwt>0</asrwt>
<pdfrwt beam="2">  1        1 0.74720821E-03 0.20000563E+02</pdfrwt>
<pdfrwt beam="1">  1       -1 0.31677878E-02 0.20000563E+02</pdfrwt>
<totfact> 0.37354763E+06</totfact>
</mgrwt>
</event>
<event>
 5    1  0.9583198E-007  0.2000223E+02  0.7818608E-02  0.1745284E+00
          1   -1    0    0  501    0  0.00000000000E+00  0.00000000000E+00  0.24064161416E+01  0.24064206730E+01  0.46700000000E-02 0.  1.
         -1   -1    0    0    0  501 -0.00000000000E+00 -0.00000000000E+00 -0.41564790996E+02  0.41564791258E+02  0.46700000000E-02 0. -1.
       1023    2    1    2    0    0  0.00000000000E+00  0.00000000000E+00 -0.39158374854E+02  0.43971211931E+02  0.20002228812E+02 0.  0.
        -11    1    3    3    0    0 -0.40301736517E+01  0.91523060293E+01 -0.19850959955E+02  0.22227631828E+02  0.51100000000E-03 0.  1.
         11    1    3    3    0    0  0.40301736517E+01 -0.91523060293E+01 -0.19307414899E+02  0.21743580102E+02  0.51100000000E-03 0. -1.
<mgrwt>
<rscale>  0 0.20002229E+02</rscale>
<asrwt>0</asrwt>
<pdfrwt beam="1">  1        1 0.37021827E-03 0.20002229E+02</pdfrwt>
<pdfrwt beam="2">  1       -1 0.63945831E-02 0.20002229E+02</pdfrwt>
<totfact> 0.35542125E+06</totfact>
</mgrwt>
</event>
<event>
 4    1  0.9583198E-007  0.2001670E+02  0.7818608E-02  0.1744996E+00
         -1   -1    0    0    0  501 -0.00000000000E+00  0.00000000000E+00  0.52089791754E+01  0.52089812688E+01  0.46700000000E-02 0.  1.
          1   -1    0    0  501    0  0.00000000000E+00 -0.00000000000E+00 -0.19229685599E+02  0.19229686166E+02  0.46700000000E-02 0. -1.
        -11    1    1    2    0    0  0.19821108779E+01 -0.98061367512E+01 -0.73512978086E+01  0.12414937022E+02  0.51100000000E-03 0.  1.
         11    1    1    2    0    0 -0.19821108779E+01  0.98061367512E+01 -0.66694086148E+01  0.12023730413E+02  0.51100000000E-03 0. -1.
<mgrwt>
<rscale>  0 0.20016699E+02</rscale>
<asrwt>0</asrwt>
<pdfrwt beam="2">  1        1 0.29584133E-02 0.20016699E+02</pdfrwt>
<pdfrwt beam="1">  1       -1 0.80138163E-03 0.20016699E+02</pdfrwt>
<totfact> 0.39566374E+06</totfact>
</mgrwt>
</event>
<event>
 5    1  0.1056433E-006  0.2000066E+02  0.7818608E-02  0.1745315E+00
          1   -1    0    0  501    0  0.00000000000E+00  0.00000000000E+00  0.10859604473E+03  0.10859604483E+03  0.46700000000E-02 0. -1.
         -1   -1    0    0    0  501 -0.00000000000E+00 -0.00000000000E+00 -0.92089824190E+00  0.92091008292E+00  0.46700000000E-02 0.  1.
       1023    2    1    2    0    0  0.00000000000E+00  0.00000000000E+00  0.10767514649E+03  0.10951695492E+03  0.20000656046E+02 0.  0.
        -11    1    3    3    0    0  0.99826770374E+01  0.59369711754E+00  0.53922966518E+02  0.54842434624E+02  0.51100000000E-03 0.  1.
         11    1    3    3    0    0 -0.99826770374E+01 -0.59369711754E+00  0.53752179973E+02  0.54674520293E+02  0.51100000000E-03 0. -1.
<mgrwt>
<rscale>  0 0.20000656E+02</rscale>
<asrwt>0</asrwt>
<pdfrwt beam="1">  1        1 0.16707075E-01 0.20000656E+02</pdfrwt>
<pdfrwt beam="2">  1       -1 0.14167765E-03 0.20000656E+02</pdfrwt>
<totfact> 0.44768353E+06</totfact>
</mgrwt>
</event>
<event>
 5    1  0.9583198E-007  0.2000078E+02  0.7818608E-02  0.1745313E+00
          1   -1    0    0  501    0  0.00000000000E+00  0.00000000000E+00  0.62201432529E+01  0.62201450060E+01  0.46700000000E-02 0. -1.
         -1   -1    0    0    0  501 -0.00000000000E+00 -0.00000000000E+00 -0.16078054397E+02  0.16078055076E+02  0.46700000000E-02 0.  1.
       1023    2    1    2    0    0  0.00000000000E+00  0.00000000000E+00 -0.98579111445E+01  0.22298200082E+02  0.20000782853E+02 0.  0.
        -11    1    3    3    0    0  0.82227468889E+01  0.56913909866E+01 -0.49827779193E+01  0.11172894603E+02  0.51100000000E-03 0.  1.
         11    1    3    3    0    0 -0.82227468889E+01 -0.56913909866E+01 -0.48751332252E+01  0.11125305478E+02  0.51100000000E-03 0. -1.
<mgrwt>
<rscale>  0 0.20000783E+02</rscale>
<asrwt>0</asrwt>
<pdfrwt beam="1">  1        1 0.95694531E-03 0.20000783E+02</pdfrwt>
<pdfrwt beam="2">  1       -1 0.24735470E-02 0.20000783E+02</pdfrwt>
<totfact> 0.37832565E+06</totfact>
</mgrwt>
</event>
<event>
 5    1  0.9583198E-007  0.2000038E+02  0.7818608E-02  0.1745321E+00
         -1   -1    0    0    0  501 -0.00000000000E+00  0.00000000000E+00  0.17739884634E+02  0.17739885249E+02  0.46700000000E-02 0. -1.
          1   -1    0    0  501    0  0.00000000000E+00 -0.00000000000E+00 -0.56372283327E+01  0.56372302670E+01  0.46700000000E-02 0.  1.
       1023    2    1    2    0    0  0.00000000000E+00  0.00000000000E+00  0.12102656302E+02  0.23377115516E+02  0.20000381004E+02 0.  0.
        -11    1    3    3    0    0 -0.67328368634E+01  0.73939951220E+01  0.60974003399E+01  0.11712409968E+02  0.51100000000E-03 0.  1.
         11    1    3    3    0    0  0.67328368634E+01 -0.73939951220E+01  0.60052559620E+01  0.11664705548E+02  0.51100000000E-03 0. -1.
<mgrwt>
<rscale>  0 0.20000381E+02</rscale>
<asrwt>0</asrwt>
<pdfrwt beam="2">  1        1 0.86726610E-03 0.20000381E+02</pdfrwt>
<pdfrwt beam="1">  1       -1 0.27292132E-02 0.20000381E+02</pdfrwt>
<totfact> 0.37651289E+06</totfact>
</mgrwt>
</event>
<event>
 5    1  0.9583198E-007  0.2000242E+02  0.7818608E-02  0.1745280E+00
         -1   -1    0    0    0  501 -0.00000000000E+00  0.00000000000E+00  0.44686736704E+02  0.44686736948E+02  0.46700000000E-02 0.  1.
          1   -1    0    0  501    0  0.00000000000E+00 -0.00000000000E+00 -0.22383385758E+01  0.22383434474E+01  0.46700000000E-02 0. -1.
       1023    2    1    2    0    0  0.00000000000E+00  0.00000000000E+00  0.42448398128E+02  0.46925080395E+02  0.20002416516E+02 0.  0.
        -11    1    3    3    0    0 -0.11303168968E+01  0.99371026859E+01  0.21169669555E+02  0.23413212838E+02  0.51100000000E-03 0. -1.
         11    1    3    3    0    0  0.11303168968E+01 -0.99371026859E+01  0.21278728574E+02  0.23511867558E+02  0.51100000000E-03 0.  1.
<mgrwt>
<rscale>  0 0.20002417E+02</rscale>
<asrwt>0</asrwt>
<pdfrwt beam="2">  1        1 0.34436020E-03 0.20002417E+02</pdfrwt>
<pdfrwt beam="1">  1       -1 0.68748825E-02 0.20002417E+02</pdfrwt>
<totfact> 0.35306400E+06</totfact>
</mgrwt>
</event>
<event>
 5    1  0.9583198E-007  0.2000027E+02  0.7818608E-02  0.1745323E+00
         -1   -1    0    0    0  501 -0.00000000000E+00  0.00000000000E+00  0.22229940967E+01  0.22229990020E+01  0.46700000000E-02 0. -1.
          1   -1    0    0  501    0  0.00000000000E+00 -0.00000000000E+00 -0.44985551580E+02  0.44985551823E+02  0.46700000000E-02 0.  1.
       1023    2    1    2    0    0  0.00000000000E+00  0.00000000000E+00 -0.42762557484E+02  0.47208550825E+02  0.20000273709E+02 0.  0.
        -11    1    3    3    0    0 -0.62292693111E+01 -0.78229733820E+01 -0.21393804318E+02  0.23615621358E+02  0.51100000000E-03 0. -1.
         11    1    3    3    0    0  0.62292693111E+01  0.78229733820E+01 -0.21368753166E+02  0.23592929467E+02  0.51100000000E-03 0.  1.
<mgrwt>
<rscale>  0 0.20000274E+02</rscale>
<asrwt>0</asrwt>
<pdfrwt beam="2">  1        1 0.69208538E-02 0.20000274E+02</pdfrwt>
<pdfrwt beam="1">  1       -1 0.34199952E-03 0.20000274E+02</pdfrwt>
<totfact> 0.41415302E+06</totfact>
</mgrwt>
</event>
<event>
 5    1  0.9771160E-007  0.2000061E+02  0.7818608E-02  0.1745316E+00
          1   -1    0    0  501    0  0.00000000000E+00  0.00000000000E+00  0.91962986542E+02  0.91962986660E+02  0.46700000000E-02 0. -1.
         -1   -1    0    0    0  501 -0.00000000000E+00 -0.00000000000E+00 -0.10874552954E+01  0.10874653228E+01  0.46700000000E-02 0.  1.
       1023    2    1    2    0    0  0.00000000000E+00  0.00000000000E+00  0.90875531246E+02  0.93050451983E+02  0.20000610865E+02 0.  0.
        -11    1    3    3    0    0 -0.63056764370E+01 -0.77616166996E+01  0.45237153677E+02  0.46329303062E+02  0.51100000000E-03 0. -1.
         11    1    3    3    0    0  0.63056764370E+01  0.77616166996E+01  0.45638377570E+02  0.46721148922E+02  0.51100000000E-03 0.  1.
<mgrwt>
<rscale>  0 0.20000611E+02</rscale>
<asrwt>0</asrwt>
<pdfrwt beam="1">  1        1 0.14148158E-01 0.20000611E+02</pdfrwt>
<pdfrwt beam="2">  1       -1 0.16730154E-03 0.20000611E+02</pdfrwt>
<totfact> 0.43962871E+06</totfact>
</mgrwt>
</event>
<event>
 5    1  0.9583198E-007  0.2000029E+02  0.7818608E-02  0.1745322E+00
          1   -1    0    0  501    0  0.00000000000E+00  0.00000000000E+00  0.16287650371E+02  0.16287651041E+02  0.46700000000E-02 0. -1.
         -1   -1    0    0    0  501 -0.00000000000E+00 -0.00000000000E+00 -0.61397952390E+01  0.61397970150E+01  0.46700000000E-02 0.  1.
       1023    2    1    2    0    0  0.00000000000E+00  0.00000000000E+00  0.10147855132E+02  0.22427448056E+02  0.20000286561E+02 0.  0.
        -11    1    3    3    0    0 -0.50956166498E+01 -0.86044826594E+01  0.50505535381E+01  0.11203147869E+02  0.51100000000E-03 0.  1.
         11    1    3    3    0    0  0.50956166498E+01  0.86044826594E+01  0.50973015943E+01  0.11224300187E+02  0.51100000000E-03 0. -1.
<mgrwt>
<rscale>  0 0.20000287E+02</rscale>
<asrwt>0</asrwt>
<pdfrwt beam="1">  1        1 0.25057925E-02 0.20000287E+02</pdfrwt>
<pdfrwt beam="2">  1       -1 0.94458408E-03 0.20000287E+02</pdfrwt>
<totfact> 0.39371821E+06</totfact>
</mgrwt>
</event>
<event>
 5    1  0.1029554E-006  0.2000097E+02  0.7818608E-02  0.1745309E+00
         -1   -1    0    0    0  501 -0.00000000000E+00  0.00000000000E+00  0.12100170990E+01  0.12100261108E+01  0.46700000000E-02 0. -1.
          1   -1    0    0  501    0  0.00000000000E+00 -0.00000000000E+00 -0.82651191522E+02  0.82651191654E+02  0.46700000000E-02 0.  1.
       1023    2    1    2    0    0  0.00000000000E+00  0.00000000000E+00 -0.81441174423E+02  0.83861217765E+02  0.20000973816E+02 0.  0.
        -11    1    3    3    0    0 -0.93809297420E+01 -0.34642367245E+01 -0.41070363664E+02  0.42270291585E+02  0.51100000000E-03 0. -1.
         11    1    3    3    0    0  0.93809297420E+01  0.34642367245E+01 -0.40370810759E+02  0.41590926180E+02  0.51100000000E-03 0.  1.
<mgrwt>
<rscale>  0 0.20000974E+02</rscale>
<asrwt>0</asrwt>
<pdfrwt beam="2">  1        1 0.12715564E-01 0.20000974E+02</pdfrwt>
<pdfrwt beam="1">  1       -1 0.18615725E-03 0.20000974E+02</pdfrwt>
<totfact> 0.43490923E+06</totfact>
</mgrwt>
</event>
<event>
 5    1  0.9583198E-007  0.2000416E+02  0.7818608E-02  0.1745245E+00
         -1   -1    0    0    0  501 -0.00000000000E+00  0.00000000000E+00  0.75299050089E+01  0.75299064570E+01  0.46700000000E-02 0. -1.
          1   -1    0    0  501    0  0.00000000000E+00 -0.00000000000E+00 -0.13285897912E+02  0.13285898733E+02  0.46700000000E-02 0.  1.
       1023    2    1    2    0    0  0.00000000000E+00  0.00000000000E+00 -0.57559929032E+01  0.20815805190E+02  0.20004156853E+02 0.  0.
        -11    1    3    3    0    0 -0.72816969414E+01 -0.68555783862E+01 -0.27326612543E+01  0.10367714461E+02  0.51100000000E-03 0. -1.
         11    1    3    3    0    0  0.72816969414E+01  0.68555783862E+01 -0.30233316490E+01  0.10448090729E+02  0.51100000000E-03 0.  1.
<mgrwt>
<rscale>  0 0.20004157E+02</rscale>
<asrwt>0</asrwt>
<pdfrwt beam="2">  1        1 0.20439845E-02 0.20004157E+02</pdfrwt>
<pdfrwt beam="1">  1       -1 0.11584471E-02 0.20004157E+02</pdfrwt>
<totfact> 0.39040227E+06</totfact>
</mgrwt>
</event>
<event>
 5    1  0.9583198E-007  0.2000014E+02  0.7818608E-02  0.1745325E+00
         -1   -1    0    0    0  501 -0.00000000000E+00  0.00000000000E+00  0.14213724235E+02  0.14213725002E+02  0.46700000000E-02 0.  1.
          1   -1    0    0  501    0  0.00000000000E+00 -0.00000000000E+00 -0.70355493948E+01  0.70355509447E+01  0.46700000000E-02 0. -1.
       1023    2    1    2    0    0  0.00000000000E+00  0.00000000000E+00  0.71781748399E+01  0.21249275947E+02  0.20000138355E+02 0.  0.
        -11    1    3    3    0    0 -0.76954048010E+01  0.63860788336E+01  0.36009837986E+01  0.10628656665E+02  0.51100000000E-03 0.  1.
         11    1    3    3    0    0  0.76954048010E+01 -0.63860788336E+01  0.35771910413E+01  0.10620619282E+02  0.51100000000E-03 0. -1.
<mgrwt>
<rscale>  0 0.20000138E+02</rscale>
<asrwt>0</asrwt>
<pdfrwt beam="2">  1        1 0.10823924E-02 0.20000138E+02</pdfrwt>
<pdfrwt beam="1">  1       -1 0.21867270E-02 0.20000138E+02</pdfrwt>
<totfact> 0.38052978E+06</totfact>
</mgrwt>
</event>
<event>
 5    1  0.9789327E-007  0.2000141E+02  0.7818608E-02  0.1745300E+00
         -1   -1    0    0    0  501 -0.00000000000E+00  0.00000000000E+00  0.13575992630E+02  0.13575993433E+02  0.46700000000E-02 0.  1.
          1   -1    0    0  501    0  0.00000000000E+00 -0.00000000000E+00 -0.73669798495E+01  0.73669813297E+01  0.46700000000E-02 0. -1.
       1023    2    1    2    0    0  0.00000000000E+00  0.00000000000E+00  0.62090127807E+01  0.20942974763E+02  0.20001408756E+02 0.  0.
        -11    1    3    3    0    0 -0.69313639097E+01 -0.72087105111E+01  0.31768600390E+01  0.10492938237E+02  0.51100000000E-03 0. -1.
         11    1    3    3    0    0  0.69313639097E+01  0.72087105111E+01  0.30321527417E+01  0.10450036526E+02  0.51100000000E-03 0.  1.
<mgrwt>
<rscale>  0 0.20001409E+02</rscale>
<asrwt>0</asrwt>
<pdfrwt beam="2">  1        1 0.11333817E-02 0.20001409E+02</pdfrwt>
<pdfrwt beam="1">  1       -1 0.20886144E-02 0.20001409E+02</pdfrwt>
<totfact> 0.38125976E+06</totfact>
</mgrwt>
</event>
<event>
 5    1  0.9583198E-007  0.2000100E+02  0.7818608E-02  0.1745308E+00
         -1   -1    0    0    0  501 -0.00000000000E+00  0.00000000000E+00  0.18697965862E+02  0.18697966445E+02  0.46700000000E-02 0.  1.
          1   -1    0    0  501    0  0.00000000000E+00 -0.00000000000E+00 -0.53487066744E+01  0.53487087131E+01  0.46700000000E-02 0. -1.
       1023    2    1    2    0    0  0.00000000000E+00  0.00000000000E+00  0.13349259187E+02  0.24046675158E+02  0.20000996608E+02 0.  0.
        -11    1    3    3    0    0 -0.97329677689E+01 -0.22976681842E+01  0.66806875074E+01  0.12026700566E+02  0.51100000000E-03 0. -1.
         11    1    3    3    0    0  0.97329677689E+01  0.22976681842E+01  0.66685716799E+01  0.12019974592E+02  0.51100000000E-03 0.  1.
<mgrwt>
<rscale>  0 0.20000997E+02</rscale>
<asrwt>0</asrwt>
<pdfrwt beam="2">  1        1 0.82287817E-03 0.20000997E+02</pdfrwt>
<pdfrwt beam="1">  1       -1 0.28766103E-02 0.20000997E+02</pdfrwt>
<totfact> 0.37547175E+06</totfact>
</mgrwt>
</event>
<event>
 5    1  0.9583198E-007  0.2000042E+02  0.7818608E-02  0.1745320E+00
          1   -1    0    0  501    0  0.00000000000E+00  0.00000000000E+00  0.21305527793E+01  0.21305578974E+01  0.46700000000E-02 0. -1.
         -1   -1    0    0    0  501 -0.00000000000E+00 -0.00000000000E+00 -0.46938104837E+02  0.46938105069E+02  0.46700000000E-02 0.  1.
       1023    2    1    2    0    0  0.00000000000E+00  0.00000000000E+00 -0.44807552057E+02  0.49068662967E+02  0.20000424094E+02 0.  0.
        -11    1    3    3    0    0  0.96709525905E+01  0.25446177923E+01 -0.22508928741E+02  0.24630352759E+02  0.51100000000E-03 0. -1.
         11    1    3    3    0    0 -0.96709525905E+01 -0.25446177923E+01 -0.22298623316E+02  0.24438310207E+02  0.51100000000E-03 0.  1.
<mgrwt>
<rscale>  0 0.20000424E+02</rscale>
<asrwt>0</asrwt>
<pdfrwt beam="1">  1        1 0.32777780E-03 0.20000424E+02</pdfrwt>
<pdfrwt beam="2">  1       -1 0.72212465E-02 0.20000424E+02</pdfrwt>
<totfact> 0.35148484E+06</totfact>
</mgrwt>
</event>
<event>
 4    1  0.9583198E-007  0.2022173E+02  0.7818608E-02  0.1740954E+00
          1   -1    0    0  501    0  0.00000000000E+00  0.00000000000E+00  0.17297670461E+02  0.17297671091E+02  0.46700000000E-02 0. -1.
         -1   -1    0    0    0  501 -0.00000000000E+00 -0.00000000000E+00 -0.59100212452E+01  0.59100230903E+01  0.46700000000E-02 0.  1.
        -11    1    1    2    0    0  0.91108442446E+01  0.43782427330E+01  0.54292741962E+01  0.11474036379E+02  0.51100000000E-03 0. -1.
         11    1    1    2    0    0 -0.91108442446E+01 -0.43782427330E+01  0.59583750191E+01  0.11733657802E+02  0.51100000000E-03 0.  1.
<mgrwt>
<rscale>  0 0.20221734E+02</rscale>
<asrwt>0</asrwt>
<pdfrwt beam="1">  1        1 0.26611802E-02 0.20221734E+02</pdfrwt>
<pdfrwt beam="2">  1       -1 0.90923425E-03 0.20221734E+02</pdfrwt>
<totfact> 0.38502000E+06</totfact>
</mgrwt>
</event>
<event>
 5    1  0.1003938E-006  0.2000125E+02  0.7818608E-02  0.1745303E+00
         -1   -1    0    0    0  501 -0.00000000000E+00  0.00000000000E+00  0.13864094005E+02  0.13864094792E+02  0.46700000000E-02 0. -1.
          1   -1    0    0  501    0  0.00000000000E+00 -0.00000000000E+00 -0.72137781672E+01  0.72137796788E+01  0.46700000000E-02 0.  1.
       1023    2    1    2    0    0  0.00000000000E+00  0.00000000000E+00  0.66503158378E+01  0.21077874470E+02  0.20001252247E+02 0.  0.
        -11    1    3    3    0    0 -0.13854110886E+01  0.99039203942E+01  0.32468652541E+01  0.10514234984E+02  0.51100000000E-03 0. -1.
         11    1    3    3    0    0  0.13854110886E+01 -0.99039203942E+01  0.34034505838E+01  0.10563639486E+02  0.51100000000E-03 0.  1.
<mgrwt>
<rscale>  0 0.20001252E+02</rscale>
<asrwt>0</asrwt>
<pdfrwt beam="2">  1        1 0.11098122E-02 0.20001252E+02</pdfrwt>
<pdfrwt beam="1">  1       -1 0.21329377E-02 0.20001252E+02</pdfrwt>
<totfact> 0.38090984E+06</totfact>
</mgrwt>
</event>
<event>
 5    1  0.9583198E-007  0.2000497E+02  0.7818608E-02  0.1745229E+00
         -1   -1    0    0    0  501 -0.00000000000E+00  0.00000000000E+00  0.17106546180E+01  0.17106609924E+01  0.46700000000E-02 0.  1.
          1   -1    0    0  501    0  0.00000000000E+00 -0.00000000000E+00 -0.58486076366E+02  0.58486076553E+02  0.46700000000E-02 0. -1.
       1023    2    1    2    0    0  0.00000000000E+00  0.00000000000E+00 -0.56775421748E+02  0.60196737545E+02  0.20004966793E+02 0.  0.
        -11    1    3    3    0    0 -0.91212314568E+01 -0.41052169596E+01 -0.28381499766E+02  0.30092510677E+02  0.51100000000E-03 0.  1.
         11    1    3    3    0    0  0.91212314568E+01  0.41052169596E+01 -0.28393921982E+02  0.30104226869E+02  0.51100000000E-03 0. -1.
<mgrwt>
<rscale>  0 0.20004967E+02</rscale>
<asrwt>0</asrwt>
<pdfrwt beam="2">  1        1 0.89978569E-02 0.20004967E+02</pdfrwt>
<pdfrwt beam="1">  1       -1 0.26317818E-03 0.20004967E+02</pdfrwt>
<totfact> 0.42178462E+06</totfact>
</mgrwt>
</event>
<event>
 5    1  0.9583198E-007  0.2000297E+02  0.7818608E-02  0.1745269E+00
          1   -1    0    0  501    0  0.00000000000E+00  0.00000000000E+00  0.70926051236E+02  0.70926051390E+02  0.46700000000E-02 0.  1.
         -1   -1    0    0    0  501 -0.00000000000E+00 -0.00000000000E+00 -0.14103345149E+01  0.14103422467E+01  0.46700000000E-02 0. -1.
       1023    2    1    2    0    0  0.00000000000E+00  0.00000000000E+00  0.69515716721E+02  0.72336393636E+02  0.20002974106E+02 0.  0.
        -11    1    3    3    0    0  0.99334572075E+01 -0.11641925448E+01  0.34653885624E+02  0.36068278382E+02  0.51100000000E-03 0. -1.
         11    1    3    3    0    0 -0.99334572075E+01  0.11641925448E+01  0.34861831097E+02  0.36268115254E+02  0.51100000000E-03 0.  1.
<mgrwt>
<rscale>  0 0.20002974E+02</rscale>
<asrwt>0</asrwt>
<pdfrwt beam="1">  1        1 0.10911701E-01 0.20002974E+02</pdfrwt>
<pdfrwt beam="2">  1       -1 0.21697515E-03 0.20002974E+02</pdfrwt>
<totfact> 0.42869327E+06</totfact>
</mgrwt>
</event>
<event>
 4    1  0.9583198E-007  0.2003061E+02  0.7818608E-02  0.1744720E+00
         -1   -1    0    0    0  501 -0.00000000000E+00  0.00000000000E+00  0.12093011058E+02  0.12093011960E+02  0.46700000000E-02 0.  1.
          1   -1    0    0  501    0  0.00000000000E+00 -0.00000000000E+00 -0.82945648854E+01  0.82945662000E+01  0.46700000000E-02 0. -1.
        -11    1    1    2    0    0  0.90509476575E+01 -0.42670143664E+01  0.23301140216E+01  0.10274069141E+02  0.51100000000E-03 0.  1.
         11    1    1    2    0    0 -0.90509476575E+01  0.42670143664E+01  0.14683321510E+01  0.10113509019E+02  0.51100000000E-03 0. -1.
<mgrwt>
<rscale>  0 0.20030605E+02</rscale>
<asrwt>0</asrwt>
<pdfrwt beam="2">  1        1 0.12760871E-02 0.20030605E+02</pdfrwt>
<pdfrwt beam="1">  1       -1 0.18604634E-02 0.20030605E+02</pdfrwt>
<totfact> 0.38195152E+06</totfact>
</mgrwt>
</event>
<event>
 5    1  0.9583198E-007  0.2000213E+02  0.7818608E-02  0.1745286E+00
          1   -1    0    0  501    0  0.00000000000E+00  0.00000000000E+00  0.11810844684E+01  0.11810937009E+01  0.46700000000E-02 0.  1.
         -1   -1    0    0    0  501 -0.00000000000E+00 -0.00000000000E+00 -0.84685644912E+02  0.84685645041E+02  0.46700000000E-02 0. -1.
       1023    2    1    2    0    0  0.00000000000E+00  0.00000000000E+00 -0.83504560444E+02  0.85866738742E+02  0.20002130068E+02 0.  0.
        -11    1    3    3    0    0  0.98104687194E+01  0.19431641946E+01 -0.41705653418E+02  0.42888025262E+02  0.51100000000E-03 0. -1.
         11    1    3    3    0    0 -0.98104687194E+01 -0.19431641946E+01 -0.41798907026E+02  0.42978713480E+02  0.51100000000E-03 0.  1.
<mgrwt>
<rscale>  0 0.20002130E+02</rscale>
<asrwt>0</asrwt>
<pdfrwt beam="1">  1        1 0.18170609E-03 0.20002130E+02</pdfrwt>
<pdfrwt beam="2">  1       -1 0.13028557E-01 0.20002130E+02</pdfrwt>
<totfact> 0.32712240E+06</totfact>
</mgrwt>
</event>
<event>
 5    1  0.9583198E-007  0.2000181E+02  0.7818608E-02  0.1745292E+00
         -1   -1    0    0    0  501 -0.00000000000E+00  0.00000000000E+00  0.24561098433E+02  0.24561098877E+02  0.46700000000E-02 0. -1.
          1   -1    0    0  501    0  0.00000000000E+00 -0.00000000000E+00 -0.40722158079E+01  0.40722184857E+01  0.46700000000E-02 0.  1.
       1023    2    1    2    0    0  0.00000000000E+00  0.00000000000E+00  0.20488882625E+02  0.28633317363E+02  0.20001813717E+02 0.  0.
        -11    1    3    3    0    0 -0.26423296106E+01 -0.96453444872E+01  0.10329875137E+02  0.14377791787E+02  0.51100000000E-03 0. -1.
         11    1    3    3    0    0  0.26423296106E+01  0.96453444872E+01  0.10159007488E+02  0.14255525576E+02  0.51100000000E-03 0.  1.
<mgrwt>
<rscale>  0 0.20001814E+02</rscale>
<asrwt>0</asrwt>
<pdfrwt beam="2">  1        1 0.62649499E-03 0.20001814E+02</pdfrwt>
<pdfrwt beam="1">  1       -1 0.37786307E-02 0.20001814E+02</pdfrwt>
<totfact> 0.36966137E+06</totfact>
</mgrwt>
</event>
<event>
 5    1  0.9583198E-007  0.2000122E+02  0.7818608E-02  0.1745304E+00
         -1   -1    0    0    0  501 -0.00000000000E+00  0.00000000000E+00  0.30314286220E+02  0.30314286579E+02  0.46700000000E-02 0. -1.
          1   -1    0    0  501    0  0.00000000000E+00 -0.00000000000E+00 -0.32991756721E+01  0.32991789773E+01  0.46700000000E-02 0.  1.
       1023    2    1    2    0    0  0.00000000000E+00  0.00000000000E+00  0.27015110547E+02  0.33613465557E+02  0.20001221684E+02 0.  0.
        -11    1    3    3    0    0  0.52568580101E+01 -0.85069479683E+01  0.13671331809E+02  0.16938359825E+02  0.51100000000E-03 0.  1.
         11    1    3    3    0    0 -0.52568580101E+01  0.85069479683E+01  0.13343778739E+02  0.16675105732E+02  0.51100000000E-03 0. -1.
<mgrwt>
<rscale>  0 0.20001222E+02</rscale>
<asrwt>0</asrwt>
<pdfrwt beam="2">  1        1 0.50756577E-03 0.20001222E+02</pdfrwt>
<pdfrwt beam="1">  1       -1 0.46637366E-02 0.20001222E+02</pdfrwt>
<totfact> 0.36454529E+06</totfact>
</mgrwt>
</event>
<event>
 5    1  0.9583198E-007  0.2000007E+02  0.7818608E-02  0.1745327E+00
         -1   -1    0    0    0  501 -0.00000000000E+00  0.00000000000E+00  0.12331014711E+02  0.12331015595E+02  0.46700000000E-02 0. -1.
          1   -1    0    0  501    0  0.00000000000E+00 -0.00000000000E+00 -0.81096867590E+01  0.81096881036E+01  0.46700000000E-02 0.  1.
       1023    2    1    2    0    0  0.00000000000E+00  0.00000000000E+00  0.42213279516E+01  0.20440703699E+02  0.20000068950E+02 0.  0.
        -11    1    3    3    0    0 -0.58597961087E+01 -0.81032940476E+01  0.21211060424E+01  0.10222508301E+02  0.51100000000E-03 0. -1.
         11    1    3    3    0    0  0.58597961087E+01  0.81032940476E+01  0.21002219092E+01  0.10218195398E+02  0.51100000000E-03 0.  1.
<mgrwt>
<rscale>  0 0.20000069E+02</rscale>
<asrwt>0</asrwt>
<pdfrwt beam="2">  1        1 0.12476443E-02 0.20000069E+02</pdfrwt>
<pdfrwt beam="1">  1       -1 0.18970794E-02 0.20000069E+02</pdfrwt>
<totfact> 0.38291268E+06</totfact>
</mgrwt>
</event>
<event>
 5    1  0.9583198E-007  0.2000358E+02  0.7818608E-02  0.1745257E+00
          1   -1    0    0  501    0  0.00000000000E+00  0.00000000000E+00  0.53107150965E+01  0.53107171498E+01  0.46700000000E-02 0. -1.
         -1   -1    0    0    0  501 -0.00000000000E+00 -0.00000000000E+00 -0.18836594484E+02  0.18836595063E+02  0.46700000000E-02 0.  1.
       1023    2    1    2    0    0  0.00000000000E+00  0.00000000000E+00 -0.13525879387E+02  0.24147312213E+02  0.20003581527E+02 0.  0.
        -11    1    3    3    0    0  0.68760246946E+01  0.72622528871E+01 -0.66112724556E+01  0.11988701195E+02  0.51100000000E-03 0. -1.
         11    1    3    3    0    0 -0.68760246946E+01 -0.72622528871E+01 -0.69146069319E+01  0.12158611018E+02  0.51100000000E-03 0.  1.
<mgrwt>
<rscale>  0 0.20003582E+02</rscale>
<asrwt>0</asrwt>
<pdfrwt beam="1">  1        1 0.81703330E-03 0.20003582E+02</pdfrwt>
<pdfrwt beam="2">  1       -1 0.28979378E-02 0.20003582E+02</pdfrwt>
<totfact> 0.37522034E+06</totfact>
</mgrwt>
</event>
<event>
 5    1  0.9583198E-007  0.2000027E+02  0.7818608E-02  0.1745323E+00
          1   -1    0    0  501    0  0.00000000000E+00  0.00000000000E+00  0.80375562521E+02  0.80375562657E+02  0.46700000000E-02 0.  1.
         -1   -1    0    0    0  501 -0.00000000000E+00 -0.00000000000E+00 -0.12441885926E+01  0.12441973568E+01  0.46700000000E-02 0. -1.
       1023    2    1    2    0    0  0.00000000000E+00  0.00000000000E+00  0.79131373929E+02  0.81619760014E+02  0.20000272120E+02 0.  0.
        -11    1    3    3    0    0 -0.49249255673E+01  0.87033214109E+01  0.39545067540E+02  0.40789889219E+02  0.51100000000E-03 0. -1.
         11    1    3    3    0    0  0.49249255673E+01 -0.87033214109E+01  0.39586306388E+02  0.40829870795E+02  0.51100000000E-03 0.  1.
<mgrwt>
<rscale>  0 0.20000272E+02</rscale>
<asrwt>0</asrwt>
<pdfrwt beam="1">  1        1 0.12365473E-01 0.20000272E+02</pdfrwt>
<pdfrwt beam="2">  1       -1 0.19141429E-03 0.20000272E+02</pdfrwt>
<totfact> 0.43377474E+06</totfact>
</mgrwt>
</event>
<event>
 5    1  0.9964236E-007  0.2000139E+02  0.7818608E-02  0.1745300E+00
         -1   -1    0    0    0  501 -0.00000000000E+00  0.00000000000E+00  0.25662619551E+01  0.25662662042E+01  0.46700000000E-02 0. -1.
          1   -1    0    0  501    0  0.00000000000E+00 -0.00000000000E+00 -0.38972574620E+02  0.38972574899E+02  0.46700000000E-02 0.  1.
       1023    2    1    2    0    0  0.00000000000E+00  0.00000000000E+00 -0.36406312665E+02  0.41538841104E+02  0.20001392912E+02 0.  0.
        -11    1    3    3    0    0 -0.92917214845E+01  0.36973286866E+01 -0.18022084152E+02  0.20610721603E+02  0.51100000000E-03 0.  1.
         11    1    3    3    0    0  0.92917214845E+01 -0.36973286866E+01 -0.18384228512E+02  0.20928119500E+02  0.51100000000E-03 0. -1.
<mgrwt>
<rscale>  0 0.20001393E+02</rscale>
<asrwt>0</asrwt>
<pdfrwt beam="2">  1        1 0.59957806E-02 0.20001393E+02</pdfrwt>
<pdfrwt beam="1">  1       -1 0.39480991E-03 0.20001393E+02</pdfrwt>
<totfact> 0.41039529E+06</totfact>
</mgrwt>
</event>
<event>
 5    1  0.9583198E-007  0.2000456E+02  0.7818608E-02  0.1745237E+00
         -1   -1    0    0    0  501 -0.00000000000E+00  0.00000000000E+00  0.50634482418E+01  0.50634503954E+01  0.46700000000E-02 0.  1.
          1   -1    0    0  501    0  0.00000000000E+00 -0.00000000000E+00 -0.19758394555E+02  0.19758395107E+02  0.46700000000E-02 0. -1.
       1023    2    1    2    0    0  0.00000000000E+00  0.00000000000E+00 -0.14694946313E+02  0.24821845502E+02  0.20004563654E+02 0.  0.
        -11    1    3    3    0    0 -0.99107192694E+01  0.13496869221E+01 -0.72973736367E+01  0.12381263000E+02  0.51100000000E-03 0. -1.
         11    1    3    3    0    0  0.99107192694E+01 -0.13496869221E+01 -0.73975726765E+01  0.12440582502E+02  0.51100000000E-03 0.  1.
<mgrwt>
<rscale>  0 0.20004564E+02</rscale>
<asrwt>0</asrwt>
<pdfrwt beam="2">  1        1 0.30397532E-02 0.20004564E+02</pdfrwt>
<pdfrwt beam="1">  1       -1 0.77899225E-03 0.20004564E+02</pdfrwt>
<totfact> 0.39665268E+06</totfact>
</mgrwt>
</event>
<event>
 5    1  0.9583198E-007  0.2000063E+02  0.7818608E-02  0.1745315E+00
         -1   -1    0    0    0  501 -0.00000000000E+00  0.00000000000E+00  0.15333266782E+02  0.15333267493E+02  0.46700000000E-02 0.  1.
          1   -1    0    0  501    0  0.00000000000E+00 -0.00000000000E+00 -0.65221793526E+01  0.65221810245E+01  0.46700000000E-02 0. -1.
       1023    2    1    2    0    0  0.00000000000E+00  0.00000000000E+00  0.88110874295E+01  0.21855448518E+02  0.20000634195E+02 0.  0.
        -11    1    3    3    0    0  0.79101042055E+01 -0.61185449801E+01  0.44063741007E+01  0.10928059031E+02  0.51100000000E-03 0.  1.
         11    1    3    3    0    0 -0.79101042055E+01  0.61185449801E+01  0.44047133288E+01  0.10927389486E+02  0.51100000000E-03 0. -1.
<mgrwt>
<rscale>  0 0.20000634E+02</rscale>
<asrwt>0</asrwt>
<pdfrwt beam="2">  1        1 0.10034124E-02 0.20000634E+02</pdfrwt>
<pdfrwt beam="1">  1       -1 0.23589643E-02 0.20000634E+02</pdfrwt>
<totfact> 0.37918354E+06</totfact>
</mgrwt>
</event>
<event>
 5    1  0.9583198E-007  0.2000230E+02  0.7818608E-02  0.1745282E+00
          1   -1    0    0  501    0  0.00000000000E+00  0.00000000000E+00  0.91328486635E+00  0.91329680608E+00  0.46700000000E-02 0.  1.
         -1   -1    0    0    0  501 -0.00000000000E+00 -0.00000000000E+00 -0.10951929040E+03  0.10951929050E+03  0.46700000000E-02 0. -1.
       1023    2    1    2    0    0  0.00000000000E+00  0.00000000000E+00 -0.10860600554E+03  0.11043258731E+03  0.20002297394E+02 0.  0.
        -11    1    3    3    0    0 -0.27775185335E+01  0.96067946569E+01 -0.55040881629E+02  0.55941967819E+02  0.51100000000E-03 0. -1.
         11    1    3    3    0    0  0.27775185335E+01 -0.96067946569E+01 -0.53565123907E+02  0.54490619488E+02  0.51100000000E-03 0.  1.
<mgrwt>
<rscale>  0 0.20002297E+02</rscale>
<asrwt>0</asrwt>
<pdfrwt beam="1">  1        1 0.14050638E-03 0.20002297E+02</pdfrwt>
<pdfrwt beam="2">  1       -1 0.16849112E-01 0.20002297E+02</pdfrwt>
<totfact> 0.31358579E+06</totfact>
</mgrwt>
</event>
<event>
 4    1  0.9583198E-007  0.2002337E+02  0.7818608E-02  0.1744864E+00
         -1   -1    0    0    0  501 -0.00000000000E+00  0.00000000000E+00  0.46949939594E+02  0.46949939826E+02  0.46700000000E-02 0. -1.
          1   -1    0    0  501    0  0.00000000000E+00 -0.00000000000E+00 -0.21349067136E+01  0.21349118212E+01  0.46700000000E-02 0.  1.
        -11    1    1    2    0    0 -0.69634683963E+01 -0.71928461319E+01  0.22203234884E+02  0.24355914418E+02  0.51100000000E-03 0. -1.
         11    1    1    2    0    0  0.69634683963E+01  0.71928461319E+01  0.22611797997E+02  0.24728937230E+02  0.51100000000E-03 0.  1.
<mgrwt>
<rscale>  0 0.20023374E+02</rscale>
<asrwt>0</asrwt>
<pdfrwt beam="2">  1        1 0.32844761E-03 0.20023374E+02</pdfrwt>
<pdfrwt beam="1">  1       -1 0.72230678E-02 0.20023374E+02</pdfrwt>
<totfact> 0.35059110E+06</totfact>
</mgrwt>
</event>
<event>
 5    1  0.9583198E-007  0.2000078E+02  0.7818608E-02  0.1745313E+00
         -1   -1    0    0    0  501 -0.00000000000E+00  0.00000000000E+00  0.44897103211E+02  0.44897103454E+02  0.46700000000E-02 0. -1.
          1   -1    0    0  501    0  0.00000000000E+00 -0.00000000000E+00 -0.22274864867E+01  0.22274913821E+01  0.46700000000E-02 0.  1.
       1023    2    1    2    0    0  0.00000000000E+00  0.00000000000E+00  0.42669616724E+02  0.47124594836E+02  0.20000781161E+02 0.  0.
        -11    1    3    3    0    0 -0.75116711517E+01  0.66015540558E+01  0.21442575847E+02  0.23659876979E+02  0.51100000000E-03 0.  1.
         11    1    3    3    0    0  0.75116711517E+01 -0.66015540558E+01  0.21227040877E+02  0.23464717856E+02  0.51100000000E-03 0. -1.
<mgrwt>
<rscale>  0 0.20000781E+02</rscale>
<asrwt>0</asrwt>
<pdfrwt beam="2">  1        1 0.34269061E-03 0.20000781E+02</pdfrwt>
<pdfrwt beam="1">  1       -1 0.69072473E-02 0.20000781E+02</pdfrwt>
<totfact> 0.35297137E+06</totfact>
</mgrwt>
</event>
<event>
 4    1  0.9583198E-007  0.2009201E+02  0.7818608E-02  0.1743504E+00
          1   -1    0    0  501    0  0.00000000000E+00  0.00000000000E+00  0.55065163152E+01  0.55065182955E+01  0.46700000000E-02 0. -1.
         -1   -1    0    0    0  501 -0.00000000000E+00 -0.00000000000E+00 -0.18327779502E+02  0.18327780097E+02  0.46700000000E-02 0.  1.
        -11    1    1    2    0    0  0.56030583382E+01  0.83286677644E+01 -0.68870255274E+01  0.12173417365E+02  0.51100000000E-03 0. -1.
         11    1    1    2    0    0 -0.56030583382E+01 -0.83286677644E+01 -0.59342376592E+01  0.11660881027E+02  0.51100000000E-03 0.  1.
<mgrwt>
<rscale>  0 0.20092013E+02</rscale>
<asrwt>0</asrwt>
<pdfrwt beam="1">  1        1 0.84715656E-03 0.20092013E+02</pdfrwt>
<pdfrwt beam="2">  1       -1 0.28196586E-02 0.20092013E+02</pdfrwt>
<totfact> 0.37213039E+06</totfact>
</mgrwt>
</event>
<event>
 5    1  0.9583198E-007  0.2000903E+02  0.7818608E-02  0.1745149E+00
          1   -1    0    0  501    0  0.00000000000E+00  0.00000000000E+00  0.16309901205E+01  0.16309968063E+01  0.46700000000E-02 0. -1.
         -1   -1    0    0    0  501 -0.00000000000E+00 -0.00000000000E+00 -0.61367689810E+02  0.61367689987E+02  0.46700000000E-02 0.  1.
       1023    2    1    2    0    0  0.00000000000E+00  0.00000000000E+00 -0.59736699689E+02  0.62998686794E+02  0.20009029161E+02 0.  0.
        -11    1    3    3    0    0 -0.83196489069E+01  0.55564058281E+01 -0.29835618994E+02  0.31468307306E+02  0.51100000000E-03 0. -1.
         11    1    3    3    0    0  0.83196489069E+01 -0.55564058281E+01 -0.29901080695E+02  0.31530379488E+02  0.51100000000E-03 0.  1.
<mgrwt>
<rscale>  0 0.20009029E+02</rscale>
<asrwt>0</asrwt>
<pdfrwt beam="1">  1        1 0.25092213E-03 0.20009029E+02</pdfrwt>
<pdfrwt beam="2">  1       -1 0.94411818E-02 0.20009029E+02</pdfrwt>
<totfact> 0.34119054E+06</totfact>
</mgrwt>
</event>
<event>
 5    1  0.9823161E-007  0.2000129E+02  0.7818608E-02  0.1745302E+00
         -1   -1    0    0    0  501 -0.00000000000E+00  0.00000000000E+00  0.32141135053E+01  0.32141168979E+01  0.46700000000E-02 0. -1.
          1   -1    0    0  501    0  0.00000000000E+00 -0.00000000000E+00 -0.31116764532E+02  0.31116764882E+02  0.46700000000E-02 0.  1.
       1023    2    1    2    0    0  0.00000000000E+00  0.00000000000E+00 -0.27902651027E+02  0.34330881780E+02  0.20001287696E+02 0.  0.
        -11    1    3    3    0    0 -0.47611770623E+01 -0.87944330223E+01 -0.14028429701E+02  0.17228107828E+02  0.51100000000E-03 0.  1.
         11    1    3    3    0    0  0.47611770623E+01  0.87944330223E+01 -0.13874221325E+02  0.17102773952E+02  0.51100000000E-03 0. -1.
<mgrwt>
<rscale>  0 0.20001288E+02</rscale>
<asrwt>0</asrwt>
<pdfrwt beam="2">  1        1 0.47871946E-02 0.20001288E+02</pdfrwt>
<pdfrwt beam="1">  1       -1 0.49447931E-03 0.20001288E+02</pdfrwt>
<totfact> 0.40527237E+06</totfact>
</mgrwt>
</event>
<event>
 5    1  0.9583198E-007  0.2000048E+02  0.7818608E-02  0.1745318E+00
         -1   -1    0    0    0  501 -0.00000000000E+00  0.00000000000E+00  0.91732228131E+02  0.91732228250E+02  0.46700000000E-02 0. -1.
          1   -1    0    0  501    0  0.00000000000E+00 -0.00000000000E+00 -0.10901768541E+01  0.10901868566E+01  0.46700000000E-02 0.  1.
       1023    2    1    2    0    0  0.00000000000E+00  0.00000000000E+00  0.90642051277E+02  0.92822415107E+02  0.20000482157E+02 0.  0.
        -11    1    3    3    0    0  0.42229033096E+01 -0.90648658044E+01  0.45371216107E+02  0.46460219067E+02  0.51100000000E-03 0.  1.
         11    1    3    3    0    0 -0.42229033096E+01  0.90648658044E+01  0.45270835170E+02  0.46362196040E+02  0.51100000000E-03 0. -1.
<mgrwt>
<rscale>  0 0.20000482E+02</rscale>
<asrwt>0</asrwt>
<pdfrwt beam="2">  1        1 0.16772030E-03 0.20000482E+02</pdfrwt>
<pdfrwt beam="1">  1       -1 0.14112651E-01 0.20000482E+02</pdfrwt>
<totfact> 0.32318469E+06</totfact>
</mgrwt>
</event>
<event>
 5    1  0.9583198E-007  0.2000065E+02  0.7818608E-02  0.1745315E+00
          1   -1    0    0  501    0  0.00000000000E+00  0.00000000000E+00  0.23355216109E+01  0.23355262798E+01  0.46700000000E-02 0.  1.
         -1   -1    0    0    0  501 -0.00000000000E+00 -0.00000000000E+00 -0.42819737181E+02  0.42819737436E+02  0.46700000000E-02 0. -1.
       1023    2    1    2    0    0  0.00000000000E+00  0.00000000000E+00 -0.40484215570E+02  0.45155263715E+02  0.20000653262E+02 0.  0.
        -11    1    3    3    0    0  0.62733896567E+01 -0.77878072571E+01 -0.20164790514E+02  0.22508312606E+02  0.51100000000E-03 0.  1.
         11    1    3    3    0    0 -0.62733896567E+01  0.77878072571E+01 -0.20319425056E+02  0.22646951109E+02  0.51100000000E-03 0. -1.
<mgrwt>
<rscale>  0 0.20000653E+02</rscale>
<asrwt>0</asrwt>
<pdfrwt beam="1">  1        1 0.35931143E-03 0.20000653E+02</pdfrwt>
<pdfrwt beam="2">  1       -1 0.65876517E-02 0.20000653E+02</pdfrwt>
<totfact> 0.35453027E+06</totfact>
</mgrwt>
</event>
<event>
 5    1  0.9583198E-007  0.2000076E+02  0.7818608E-02  0.1745313E+00
          1   -1    0    0  501    0  0.00000000000E+00  0.00000000000E+00  0.15832305035E+01  0.15832373909E+01  0.46700000000E-02 0. -1.
         -1   -1    0    0    0  501 -0.00000000000E+00 -0.00000000000E+00 -0.63166650833E+02  0.63166651005E+02  0.46700000000E-02 0.  1.
       1023    2    1    2    0    0  0.00000000000E+00  0.00000000000E+00 -0.61583420329E+02  0.64749888396E+02  0.20000759683E+02 0.  0.
        -11    1    3    3    0    0  0.74548694468E+01  0.66655893288E+01 -0.30631889545E+02  0.32222939296E+02  0.51100000000E-03 0.  1.
         11    1    3    3    0    0 -0.74548694468E+01 -0.66655893288E+01 -0.30951530785E+02  0.32526949100E+02  0.51100000000E-03 0. -1.
<mgrwt>
<rscale>  0 0.20000760E+02</rscale>
<asrwt>0</asrwt>
<pdfrwt beam="1">  1        1 0.24357452E-03 0.20000760E+02</pdfrwt>
<pdfrwt beam="2">  1       -1 0.97179449E-02 0.20000760E+02</pdfrwt>
<totfact> 0.34032486E+06</totfact>
</mgrwt>
</event>
<event>
 5    1  0.9583198E-007  0.2000022E+02  0.7818608E-02  0.1745324E+00
         -1   -1    0    0    0  501 -0.00000000000E+00  0.00000000000E+00  0.23768560113E+02  0.23768560571E+02  0.46700000000E-02 0.  1.
          1   -1    0    0  501    0  0.00000000000E+00 -0.00000000000E+00 -0.42073293490E+01  0.42073319408E+01  0.46700000000E-02 0. -1.
       1023    2    1    2    0    0  0.00000000000E+00  0.00000000000E+00  0.19561230764E+02  0.27975892512E+02  0.20000220320E+02 0.  0.
        -11    1    3    3    0    0  0.56218082874E+01 -0.82702339334E+01  0.98177613797E+01  0.14013919384E+02  0.51100000000E-03 0. -1.
         11    1    3    3    0    0 -0.56218082874E+01  0.82702339334E+01  0.97434693839E+01  0.13961973128E+02  0.51100000000E-03 0.  1.
<mgrwt>
<rscale>  0 0.20000220E+02</rscale>
<asrwt>0</asrwt>
<pdfrwt beam="2">  1        1 0.64728165E-03 0.20000220E+02</pdfrwt>
<pdfrwt beam="1">  1       -1 0.36567019E-02 0.20000220E+02</pdfrwt>
<totfact> 0.37046947E+06</totfact>
</mgrwt>
</event>
<event>
 5    1  0.9583198E-007  0.2000445E+02  0.7818608E-02  0.1745240E+00
          1   -1    0    0  501    0  0.00000000000E+00  0.00000000000E+00  0.32927825099E+02  0.32927825430E+02  0.46700000000E-02 0.  1.
         -1   -1    0    0    0  501 -0.00000000000E+00 -0.00000000000E+00 -0.30382954683E+01  0.30382990573E+01  0.46700000000E-02 0. -1.
       1023    2    1    2    0    0  0.00000000000E+00  0.00000000000E+00  0.29889529631E+02  0.35966124487E+02  0.20004452732E+02 0.  0.
        -11    1    3    3    0    0  0.90048065084E+01 -0.43529611045E+01  0.15122033102E+02  0.18130380471E+02  0.51100000000E-03 0.  1.
         11    1    3    3    0    0 -0.90048065084E+01  0.43529611045E+01  0.14767496529E+02  0.17835744017E+02  0.51100000000E-03 0. -1.
<mgrwt>
<rscale>  0 0.20004453E+02</rscale>
<asrwt>0</asrwt>
<pdfrwt beam="1">  1        1 0.50658199E-02 0.20004453E+02</pdfrwt>
<pdfrwt beam="2">  1       -1 0.46743034E-03 0.20004453E+02</pdfrwt>
<totfact> 0.40634621E+06</totfact>
</mgrwt>
</event>
<event>
 5    1  0.9583198E-007  0.2000278E+02  0.7818608E-02  0.1745273E+00
         -1   -1    0    0    0  501 -0.00000000000E+00  0.00000000000E+00  0.14359824728E+02  0.14359825488E+02  0.46700000000E-02 0.  1.
          1   -1    0    0  501    0  0.00000000000E+00 -0.00000000000E+00 -0.69658101930E+01  0.69658117584E+01  0.46700000000E-02 0. -1.
       1023    2    1    2    0    0  0.00000000000E+00  0.00000000000E+00  0.73940145352E+01  0.21325637246E+02  0.20002783631E+02 0.  0.
        -11    1    3    3    0    0  0.28021625944E-01 -0.10001170326E+02  0.37613728226E+01  0.10685135417E+02  0.51100000000E-03 0. -1.
         11    1    3    3    0    0 -0.28021625944E-01  0.10001170326E+02  0.36326417126E+01  0.10640501829E+02  0.51100000000E-03 0.  1.
<mgrwt>
<rscale>  0 0.20002784E+02</rscale>
<asrwt>0</asrwt>
<pdfrwt beam="2">  1        1 0.10716633E-02 0.20002784E+02</pdfrwt>
<pdfrwt beam="1">  1       -1 0.22092040E-02 0.20002784E+02</pdfrwt>
<totfact> 0.38024309E+06</totfact>
</mgrwt>
</event>
<event>
 5    1  0.9583198E-007  0.2000221E+02  0.7818608E-02  0.1745284E+00
          1   -1    0    0  501    0  0.00000000000E+00  0.00000000000E+00  0.12808908996E+02  0.12808909848E+02  0.46700000000E-02 0.  1.
         -1   -1    0    0    0  501 -0.00000000000E+00 -0.00000000000E+00 -0.78087896147E+01  0.78087910111E+01  0.46700000000E-02 0. -1.
       1023    2    1    2    0    0  0.00000000000E+00  0.00000000000E+00  0.50001193818E+01  0.20617700859E+02  0.20002209750E+02 0.  0.
        -11    1    3    3    0    0  0.80331270591E+01 -0.59570478568E+01  0.25695809266E+01  0.10325710431E+02  0.51100000000E-03 0. -1.
         11    1    3    3    0    0 -0.80331270591E+01  0.59570478568E+01  0.24305384552E+01  0.10291990427E+02  0.51100000000E-03 0.  1.
<mgrwt>
<rscale>  0 0.20002210E+02</rscale>
<asrwt>0</asrwt>
<pdfrwt beam="1">  1        1 0.19706015E-02 0.20002210E+02</pdfrwt>
<pdfrwt beam="2">  1       -1 0.12013524E-02 0.20002210E+02</pdfrwt>
<totfact> 0.38993080E+06</totfact>
</mgrwt>
</event>
<event>
 5    1  0.9648952E-007  0.2000081E+02  0.7818608E-02  0.1745312E+00
         -1   -1    0    0    0  501 -0.00000000000E+00  0.00000000000E+00  0.68196301974E+01  0.68196317964E+01  0.46700000000E-02 0.  1.
          1   -1    0    0  501    0  0.00000000000E+00 -0.00000000000E+00 -0.14664735122E+02  0.14664735865E+02  0.46700000000E-02 0. -1.
       1023    2    1    2    0    0  0.00000000000E+00  0.00000000000E+00 -0.78451049241E+01  0.21484367661E+02  0.20000809547E+02 0.  0.
        -11    1    3    3    0    0  0.89620331883E+01  0.44366443611E+01 -0.40074280466E+01  0.10773176498E+02  0.51100000000E-03 0.  1.
         11    1    3    3    0    0 -0.89620331883E+01 -0.44366443611E+01 -0.38376768775E+01  0.10711191163E+02  0.51100000000E-03 0. -1.
<mgrwt>
<rscale>  0 0.20000810E+02</rscale>
<asrwt>0</asrwt>
<pdfrwt beam="2">  1        1 0.22561133E-02 0.20000810E+02</pdfrwt>
<pdfrwt beam="1">  1       -1 0.10491741E-02 0.20000810E+02</pdfrwt>
<totfact> 0.39206179E+06</totfact>
</mgrwt>
</event>
<event>
 5    1  0.1037866E-006  0.2000160E+02  0.7818608E-02  0.1745296E+00
         -1   -1    0    0    0  501 -0.00000000000E+00  0.00000000000E+00  0.39395963893E+01  0.39395991572E+01  0.46700000000E-02 0.  1.
          1   -1    0    0  501    0  0.00000000000E+00 -0.00000000000E+00 -0.25387371904E+02  0.25387372334E+02  0.46700000000E-02 0. -1.
       1023    2    1    2    0    0  0.00000000000E+00  0.00000000000E+00 -0.21447775515E+02  0.29326971491E+02  0.20001604493E+02 0.  0.
        -11    1    3    3    0    0 -0.12383008953E+01  0.99232858926E+01 -0.10569736054E+02  0.14550749552E+02  0.51100000000E-03 0.  1.
         11    1    3    3    0    0  0.12383008953E+01 -0.99232858926E+01 -0.10878039461E+02  0.14776221939E+02  0.51100000000E-03 0. -1.
<mgrwt>
<rscale>  0 0.20001604E+02</rscale>
<asrwt>0</asrwt>
<pdfrwt beam="2">  1        1 0.39057497E-02 0.20001604E+02</pdfrwt>
<pdfrwt beam="1">  1       -1 0.60609201E-03 0.20001604E+02</pdfrwt>
<totfact> 0.40120887E+06</totfact>
</mgrwt>
</event>
<event>
 5    1  0.9583198E-007  0.2000077E+02  0.7818608E-02  0.1745313E+00
          1   -1    0    0  501    0  0.00000000000E+00  0.00000000000E+00  0.52975687891E+01  0.52975708475E+01  0.46700000000E-02 0.  1.
         -1   -1    0    0    0  501 -0.00000000000E+00 -0.00000000000E+00 -0.18878025823E+02  0.18878026401E+02  0.46700000000E-02 0. -1.
       1023    2    1    2    0    0  0.00000000000E+00  0.00000000000E+00 -0.13580457034E+02  0.24175597248E+02  0.20000767212E+02 0.  0.
        -11    1    3    3    0    0 -0.94656231269E+01  0.32256472360E+01 -0.67060436425E+01  0.12040508414E+02  0.51100000000E-03 0.  1.
         11    1    3    3    0    0  0.94656231269E+01 -0.32256472360E+01 -0.68744133913E+01  0.12135088834E+02  0.51100000000E-03 0. -1.
<mgrwt>
<rscale>  0 0.20000767E+02</rscale>
<asrwt>0</asrwt>
<pdfrwt beam="1">  1        1 0.81501080E-03 0.20000767E+02</pdfrwt>
<pdfrwt beam="2">  1       -1 0.29043118E-02 0.20000767E+02</pdfrwt>
<totfact> 0.37529313E+06</totfact>
</mgrwt>
</event>
<event>
 4    1  0.9583198E-007  0.2002187E+02  0.7818608E-02  0.1744893E+00
          1   -1    0    0  501    0  0.00000000000E+00  0.00000000000E+00  0.84851615155E+02  0.84851615284E+02  0.46700000000E-02 0. -1.
         -1   -1    0    0    0  501 -0.00000000000E+00 -0.00000000000E+00 -0.11811026307E+01  0.11811118631E+01  0.46700000000E-02 0.  1.
        -11    1    1    2    0    0  0.95501854837E+01 -0.30021263058E+01  0.41801106628E+02  0.42983151591E+02  0.51100000000E-03 0.  1.
         11    1    1    2    0    0 -0.95501854837E+01  0.30021263058E+01  0.41869405897E+02  0.43049575556E+02  0.51100000000E-03 0. -1.
<mgrwt>
<rscale>  0 0.20021875E+02</rscale>
<asrwt>0</asrwt>
<pdfrwt beam="1">  1        1 0.13054095E-01 0.20021875E+02</pdfrwt>
<pdfrwt beam="2">  1       -1 0.18170882E-03 0.20021875E+02</pdfrwt>
<totfact> 0.43502640E+06</totfact>
</mgrwt>
</event>
<event>
 5    1  0.9583198E-007  0.2000207E+02  0.7818608E-02  0.1745287E+00
         -1   -1    0    0    0  501 -0.00000000000E+00  0.00000000000E+00  0.60640354654E+02  0.60640354833E+02  0.46700000000E-02 0. -1.
          1   -1    0    0  501    0  0.00000000000E+00 -0.00000000000E+00 -0.16494052723E+01  0.16494118835E+01  0.46700000000E-02 0.  1.
       1023    2    1    2    0    0  0.00000000000E+00  0.00000000000E+00  0.58990949381E+02  0.62289766717E+02  0.20002073111E+02 0.  0.
        -11    1    3    3    0    0  0.77066568315E+01 -0.63739511838E+01  0.29401083473E+02  0.31055491026E+02  0.51100000000E-03 0. -1.
         11    1    3    3    0    0 -0.77066568315E+01  0.63739511838E+01  0.29589865908E+02  0.31234275691E+02  0.51100000000E-03 0.  1.
<mgrwt>
<rscale>  0 0.20002073E+02</rscale>
<asrwt>0</asrwt>
<pdfrwt beam="2">  1        1 0.25375520E-03 0.20002073E+02</pdfrwt>
<pdfrwt beam="1">  1       -1 0.93292851E-02 0.20002073E+02</pdfrwt>
<totfact> 0.34193029E+06</totfact>
</mgrwt>
</event>
<event>
 5    1  0.1017310E-006  0.2000110E+02  0.7818608E-02  0.1745306E+00
         -1   -1    0    0    0  501 -0.00000000000E+00  0.00000000000E+00  0.15540330931E+01  0.15540401099E+01  0.46700000000E-02 0.  1.
          1   -1    0    0  501    0  0.00000000000E+00 -0.00000000000E+00 -0.64355630498E+02  0.64355630667E+02  0.46700000000E-02 0. -1.
       1023    2    1    2    0    0  0.00000000000E+00  0.00000000000E+00 -0.62801597405E+02  0.65909670777E+02  0.20001101604E+02 0.  0.
        -11    1    3    3    0    0 -0.33565495258E+01  0.94200486722E+01 -0.31119742563E+02  0.32687032890E+02  0.51100000000E-03 0.  1.
         11    1    3    3    0    0  0.33565495258E+01 -0.94200486722E+01 -0.31681854841E+02  0.33222637887E+02  0.51100000000E-03 0. -1.
<mgrwt>
<rscale>  0 0.20001102E+02</rscale>
<asrwt>0</asrwt>
<pdfrwt beam="2">  1        1 0.99008647E-02 0.20001102E+02</pdfrwt>
<pdfrwt beam="1">  1       -1 0.23908262E-03 0.20001102E+02</pdfrwt>
<totfact> 0.42522603E+06</totfact>
</mgrwt>
</event>
<event>
 5    1  0.9583198E-007  0.2000017E+02  0.7818608E-02  0.1745325E+00
         -1   -1    0    0    0  501 -0.00000000000E+00  0.00000000000E+00  0.18226484031E+01  0.18226543858E+01  0.46700000000E-02 0.  1.
          1   -1    0    0  501    0  0.00000000000E+00 -0.00000000000E+00 -0.54866077043E+02  0.54866077242E+02  0.46700000000E-02 0. -1.
       1023    2    1    2    0    0  0.00000000000E+00  0.00000000000E+00 -0.53043428640E+02  0.56688731628E+02  0.20000174291E+02 0.  0.
        -11    1    3    3    0    0 -0.73241989548E+01 -0.68086289415E+01 -0.26580096573E+02  0.28398993864E+02  0.51100000000E-03 0.  1.
         11    1    3    3    0    0  0.73241989548E+01  0.68086289415E+01 -0.26463332067E+02  0.28289737764E+02  0.51100000000E-03 0. -1.
<mgrwt>
<rscale>  0 0.20000174E+02</rscale>
<asrwt>0</asrwt>
<pdfrwt beam="2">  1        1 0.84409341E-02 0.20000174E+02</pdfrwt>
<pdfrwt beam="1">  1       -1 0.28040796E-03 0.20000174E+02</pdfrwt>
<totfact> 0.41995669E+06</totfact>
</mgrwt>
</event>
<event>
 4    1  0.1002180E-006  0.2026383E+02  0.7818608E-02  0.1740132E+00
         -1   -1    0    0    0  501 -0.00000000000E+00  0.00000000000E+00  0.93064121556E+01  0.93064133273E+01  0.46700000000E-02 0.  1.
          1   -1    0    0  501    0  0.00000000000E+00 -0.00000000000E+00 -0.11030634910E+02  0.11030635898E+02  0.46700000000E-02 0. -1.
        -11    1    1    2    0    0 -0.87443425985E+01 -0.49655886998E+01 -0.21055629650E+01  0.10273947356E+02  0.51100000000E-03 0.  1.
         11    1    1    2    0    0  0.87443425985E+01  0.49655886998E+01  0.38134021103E+00  0.10063101869E+02  0.51100000000E-03 0. -1.
<mgrwt>
<rscale>  0 0.20263826E+02</rscale>
<asrwt>0</asrwt>
<pdfrwt beam="2">  1        1 0.16970209E-02 0.20263826E+02</pdfrwt>
<pdfrwt beam="1">  1       -1 0.14317559E-02 0.20263826E+02</pdfrwt>
<totfact> 0.37640991E+06</totfact>
</mgrwt>
</event>
<event>
 5    1  0.9583198E-007  0.2000252E+02  0.7818608E-02  0.1745278E+00
         -1   -1    0    0    0  501 -0.00000000000E+00  0.00000000000E+00  0.24557251809E+01  0.24557296213E+01  0.46700000000E-02 0.  1.
          1   -1    0    0  501    0  0.00000000000E+00 -0.00000000000E+00 -0.40731389276E+02  0.40731389544E+02  0.46700000000E-02 0. -1.
       1023    2    1    2    0    0  0.00000000000E+00  0.00000000000E+00 -0.38275664095E+02  0.43187119165E+02  0.20002519838E+02 0.  0.
        -11    1    3    3    0    0  0.39800173016E+01  0.91752166612E+01 -0.19120941420E+02  0.21578589841E+02  0.51100000000E-03 0.  1.
         11    1    3    3    0    0 -0.39800173016E+01 -0.91752166612E+01 -0.19154722676E+02  0.21608529324E+02  0.51100000000E-03 0. -1.
<mgrwt>
<rscale>  0 0.20002520E+02</rscale>
<asrwt>0</asrwt>
<pdfrwt beam="2">  1        1 0.62663675E-02 0.20002520E+02</pdfrwt>
<pdfrwt beam="1">  1       -1 0.37780427E-03 0.20002520E+02</pdfrwt>
<totfact> 0.41144435E+06</totfact>
</mgrwt>
</event>
<event>
 5    1  0.9583198E-007  0.2000064E+02  0.7818608E-02  0.1745315E+00
          1   -1    0    0  501    0  0.00000000000E+00  0.00000000000E+00  0.21912865582E+01  0.21912915344E+01  0.46700000000E-02 0.  1.
         -1   -1    0    0    0  501 -0.00000000000E+00 -0.00000000000E+00 -0.45638134564E+02  0.45638134803E+02  0.46700000000E-02 0. -1.
       1023    2    1    2    0    0  0.00000000000E+00  0.00000000000E+00 -0.43446848006E+02  0.47829426337E+02  0.20000635543E+02 0.  0.
        -11    1    3    3    0    0  0.26380723854E+01 -0.96460742779E+01 -0.21691305988E+02  0.23885538106E+02  0.51100000000E-03 0.  1.
         11    1    3    3    0    0 -0.26380723854E+01  0.96460742779E+01 -0.21755542017E+02  0.23943888231E+02  0.51100000000E-03 0. -1.
<mgrwt>
<rscale>  0 0.20000636E+02</rscale>
<asrwt>0</asrwt>
<pdfrwt beam="1">  1        1 0.33712144E-03 0.20000636E+02</pdfrwt>
<pdfrwt beam="2">  1       -1 0.70212512E-02 0.20000636E+02</pdfrwt>
<totfact> 0.35242935E+06</totfact>
</mgrwt>
</event>
<event>
 5    1  0.9995558E-007  0.2000150E+02  0.7818608E-02  0.1745298E+00
         -1   -1    0    0    0  501 -0.00000000000E+00  0.00000000000E+00  0.75089902778E+01  0.75089917300E+01  0.46700000000E-02 0.  1.
          1   -1    0    0  501    0  0.00000000000E+00 -0.00000000000E+00 -0.13319366334E+02  0.13319367152E+02  0.46700000000E-02 0. -1.
       1023    2    1    2    0    0  0.00000000000E+00  0.00000000000E+00 -0.58103760559E+01  0.20828358882E+02  0.20001501539E+02 0.  0.
        -11    1    3    3    0    0  0.15983594132E+01  0.98721483464E+01 -0.29372827162E+01  0.10423132725E+02  0.51100000000E-03 0. -1.
         11    1    3    3    0    0 -0.15983594132E+01 -0.98721483464E+01 -0.28730933397E+01  0.10405226157E+02  0.51100000000E-03 0.  1.
<mgrwt>
<rscale>  0 0.20001502E+02</rscale>
<asrwt>0</asrwt>
<pdfrwt beam="2">  1        1 0.20491335E-02 0.20001502E+02</pdfrwt>
<pdfrwt beam="1">  1       -1 0.11552295E-02 0.20001502E+02</pdfrwt>
<totfact> 0.39055748E+06</totfact>
</mgrwt>
</event>
<event>
 5    1  0.9583198E-007  0.2000056E+02  0.7818608E-02  0.1745317E+00
          1   -1    0    0  501    0  0.00000000000E+00  0.00000000000E+00  0.16047526044E+01  0.16047593994E+01  0.46700000000E-02 0. -1.
         -1   -1    0    0    0  501 -0.00000000000E+00 -0.00000000000E+00 -0.62318272749E+02  0.62318272924E+02  0.46700000000E-02 0.  1.
       1023    2    1    2    0    0  0.00000000000E+00  0.00000000000E+00 -0.60713520145E+02  0.63923032324E+02  0.20000563319E+02 0.  0.
        -11    1    3    3    0    0 -0.16264314228E+01 -0.98671336019E+01 -0.30339753077E+02  0.31945363071E+02  0.51100000000E-03 0.  1.
         11    1    3    3    0    0  0.16264314228E+01  0.98671336019E+01 -0.30373767068E+02  0.31977669253E+02  0.51100000000E-03 0. -1.
<mgrwt>
<rscale>  0 0.20000563E+02</rscale>
<asrwt>0</asrwt>
<pdfrwt beam="1">  1        1 0.24688560E-03 0.20000563E+02</pdfrwt>
<pdfrwt beam="2">  1       -1 0.95874252E-02 0.20000563E+02</pdfrwt>
<totfact> 0.34088493E+06</totfact>
</mgrwt>
</event>
<event>
 5    1  0.9583198E-007  0.2000055E+02  0.7818608E-02  0.1745317E+00
          1   -1    0    0  501    0  0.00000000000E+00  0.00000000000E+00  0.17076313127E+01  0.17076376984E+01  0.46700000000E-02 0.  1.
         -1   -1    0    0    0  501 -0.00000000000E+00 -0.00000000000E+00 -0.58563756953E+02  0.58563757139E+02  0.46700000000E-02 0. -1.
       1023    2    1    2    0    0  0.00000000000E+00  0.00000000000E+00 -0.56856125640E+02  0.60271394837E+02  0.20000550313E+02 0.  0.
        -11    1    3    3    0    0  0.25441436365E+01  0.96712144687E+01 -0.28364364511E+02  0.30075608565E+02  0.51100000000E-03 0.  1.
         11    1    3    3    0    0 -0.25441436365E+01 -0.96712144687E+01 -0.28491761129E+02  0.30195786273E+02  0.51100000000E-03 0. -1.
<mgrwt>
<rscale>  0 0.20000550E+02</rscale>
<asrwt>0</asrwt>
<pdfrwt beam="1">  1        1 0.26271306E-03 0.20000550E+02</pdfrwt>
<pdfrwt beam="2">  1       -1 0.90098078E-02 0.20000550E+02</pdfrwt>
<totfact> 0.34336820E+06</totfact>
</mgrwt>
</event>
<event>
 5    1  0.9583198E-007  0.2000228E+02  0.7818608E-02  0.1745283E+00
         -1   -1    0    0    0  501 -0.00000000000E+00  0.00000000000E+00  0.92542838114E+01  0.92542849897E+01  0.46700000000E-02 0. -1.
          1   -1    0    0  501    0  0.00000000000E+00 -0.00000000000E+00 -0.10808264128E+02  0.10808265137E+02  0.46700000000E-02 0.  1.
       1023    2    1    2    0    0  0.00000000000E+00  0.00000000000E+00 -0.15539803168E+01  0.20062550127E+02  0.20002276440E+02 0.  0.
        -11    1    3    3    0    0  0.21043718672E+01 -0.97771895831E+01 -0.74610235119E+00  0.10028882594E+02  0.51100000000E-03 0. -1.
         11    1    3    3    0    0 -0.21043718672E+01  0.97771895831E+01 -0.80787796565E+00  0.10033667533E+02  0.51100000000E-03 0.  1.
<mgrwt>
<rscale>  0 0.20002276E+02</rscale>
<asrwt>0</asrwt>
<pdfrwt beam="2">  1        1 0.16628100E-02 0.20002276E+02</pdfrwt>
<pdfrwt beam="1">  1       -1 0.14237361E-02 0.20002276E+02</pdfrwt>
<totfact> 0.38733774E+06</totfact>
</mgrwt>
</event>
<event>
 5    1  0.9583198E-007  0.2000193E+02  0.7818608E-02  0.1745290E+00
         -1   -1    0    0    0  501 -0.00000000000E+00  0.00000000000E+00  0.17839012109E+02  0.17839012721E+02  0.46700000000E-02 0.  1.
          1   -1    0    0  501    0  0.00000000000E+00 -0.00000000000E+00 -0.56067706525E+01  0.56067725973E+01  0.46700000000E-02 0. -1.
       1023    2    1    2    0    0  0.00000000000E+00  0.00000000000E+00  0.12232241457E+02  0.23445785318E+02  0.20001927860E+02 0.  0.
        -11    1    3    3    0    0  0.99580729668E+01 -0.92472850085E+00  0.61520447370E+01  0.11741635096E+02  0.51100000000E-03 0.  1.
         11    1    3    3    0    0 -0.99580729668E+01  0.92472850085E+00  0.60801967200E+01  0.11704150222E+02  0.51100000000E-03 0. -1.
<mgrwt>
<rscale>  0 0.20001928E+02</rscale>
<asrwt>0</asrwt>
<pdfrwt beam="2">  1        1 0.86258030E-03 0.20001928E+02</pdfrwt>
<pdfrwt beam="1">  1       -1 0.27444636E-02 0.20001928E+02</pdfrwt>
<totfact> 0.37634265E+06</totfact>
</mgrwt>
</event>
<event>
 5    1  0.1009236E-006  0.2000206E+02  0.7818608E-02  0.1745287E+00
          1   -1    0    0  501    0  0.00000000000E+00  0.00000000000E+00  0.69845476626E+02  0.69845476782E+02  0.46700000000E-02 0. -1.
         -1   -1    0    0    0  501 -0.00000000000E+00 -0.00000000000E+00 -0.14320226810E+01  0.14320302957E+01  0.46700000000E-02 0.  1.
       1023    2    1    2    0    0  0.00000000000E+00  0.00000000000E+00  0.68413453945E+02  0.71277507078E+02  0.20002058258E+02 0.  0.
        -11    1    3    3    0    0 -0.73900468812E+01  0.67381134348E+01  0.34473819229E+02  0.35895113568E+02  0.51100000000E-03 0.  1.
         11    1    3    3    0    0  0.73900468812E+01 -0.67381134348E+01  0.33939634716E+02  0.35382393510E+02  0.51100000000E-03 0. -1.
<mgrwt>
<rscale>  0 0.20002058E+02</rscale>
<asrwt>0</asrwt>
<pdfrwt beam="1">  1        1 0.10745456E-01 0.20002058E+02</pdfrwt>
<pdfrwt beam="2">  1       -1 0.22031184E-03 0.20002058E+02</pdfrwt>
<totfact> 0.42815833E+06</totfact>
</mgrwt>
</event>
<event>
 5    1  0.9583198E-007  0.2001072E+02  0.7818608E-02  0.1745115E+00
          1   -1    0    0  501    0  0.00000000000E+00  0.00000000000E+00  0.42038758599E+02  0.42038758859E+02  0.46700000000E-02 0. -1.
         -1   -1    0    0    0  501 -0.00000000000E+00 -0.00000000000E+00 -0.23813061405E+01  0.23813107196E+01  0.46700000000E-02 0.  1.
       1023    2    1    2    0    0  0.00000000000E+00  0.00000000000E+00  0.39657452459E+02  0.44420069578E+02  0.20010723271E+02 0.  0.
        -11    1    3    3    0    0 -0.89503990004E+01 -0.44703428600E+01  0.19569343727E+02  0.21978462679E+02  0.51100000000E-03 0. -1.
         11    1    3    3    0    0  0.89503990004E+01  0.44703428600E+01  0.20088108732E+02  0.22441606900E+02  0.51100000000E-03 0.  1.
<mgrwt>
<rscale>  0 0.20010723E+02</rscale>
<asrwt>0</asrwt>
<pdfrwt beam="1">  1        1 0.64675014E-02 0.20010723E+02</pdfrwt>
<pdfrwt beam="2">  1       -1 0.36635518E-03 0.20010723E+02</pdfrwt>
<totfact> 0.41187700E+06</totfact>
</mgrwt>
</event>
<event>
 5    1  0.9583198E-007  0.2000017E+02  0.7818608E-02  0.1745325E+00
         -1   -1    0    0    0  501 -0.00000000000E+00  0.00000000000E+00  0.13555112034E+01  0.13555192480E+01  0.46700000000E-02 0.  1.
          1   -1    0    0  501    0  0.00000000000E+00 -0.00000000000E+00 -0.73773944920E+02  0.73773945068E+02  0.46700000000E-02 0. -1.
       1023    2    1    2    0    0  0.00000000000E+00  0.00000000000E+00 -0.72418433716E+02  0.75129464315E+02  0.20000171660E+02 0.  0.
        -11    1    3    3    0    0  0.62928754387E+01  0.77717692039E+01 -0.36088162943E+02  0.37448046447E+02  0.51100000000E-03 0. -1.
         11    1    3    3    0    0 -0.62928754387E+01 -0.77717692039E+01 -0.36330270773E+02  0.37681417868E+02  0.51100000000E-03 0.  1.
<mgrwt>
<rscale>  0 0.20000172E+02</rscale>
<asrwt>0</asrwt>
<pdfrwt beam="2">  1        1 0.11349835E-01 0.20000172E+02</pdfrwt>
<pdfrwt beam="1">  1       -1 0.20854087E-03 0.20000172E+02</pdfrwt>
<totfact> 0.43033745E+06</totfact>
</mgrwt>
</event>
<event>
 5    1  0.9583198E-007  0.2000271E+02  0.7818608E-02  0.1745274E+00
         -1   -1    0    0    0  501 -0.00000000000E+00  0.00000000000E+00  0.10206538813E+02  0.10206539881E+02  0.46700000000E-02 0. -1.
          1   -1    0    0  501    0  0.00000000000E+00 -0.00000000000E+00 -0.98002928325E+01  0.98002939452E+01  0.46700000000E-02 0.  1.
       1023    2    1    2    0    0  0.00000000000E+00  0.00000000000E+00  0.40624598007E+00  0.20006833826E+02  0.20002708915E+02 0.  0.
        -11    1    3    3    0    0 -0.72645086698E+01 -0.68724926608E+01  0.51932502972E-01  0.10000346936E+02  0.51100000000E-03 0. -1.
         11    1    3    3    0    0  0.72645086698E+01  0.68724926608E+01  0.35431347710E+00  0.10006486890E+02  0.51100000000E-03 0.  1.
<mgrwt>
<rscale>  0 0.20002709E+02</rscale>
<asrwt>0</asrwt>
<pdfrwt beam="2">  1        1 0.15077375E-02 0.20002709E+02</pdfrwt>
<pdfrwt beam="1">  1       -1 0.15702369E-02 0.20002709E+02</pdfrwt>
<totfact> 0.38580802E+06</totfact>
</mgrwt>
</event>
<event>
 4    1  0.9583198E-007  0.2006767E+02  0.7818608E-02  0.1743986E+00
         -1   -1    0    0    0  501 -0.00000000000E+00  0.00000000000E+00  0.14356059888E+02  0.14356060648E+02  0.46700000000E-02 0. -1.
          1   -1    0    0  501    0  0.00000000000E+00 -0.00000000000E+00 -0.70129167930E+01  0.70129183479E+01  0.46700000000E-02 0.  1.
        -11    1    1    2    0    0 -0.22647543811E+01 -0.97433236107E+01  0.45076013918E+01  0.10971779161E+02  0.51100000000E-03 0. -1.
         11    1    1    2    0    0  0.22647543811E+01  0.97433236107E+01  0.28355417034E+01  0.10397199835E+02  0.51100000000E-03 0.  1.
<mgrwt>
<rscale>  0 0.20067673E+02</rscale>
<asrwt>0</asrwt>
<pdfrwt beam="2">  1        1 0.10789105E-02 0.20067673E+02</pdfrwt>
<pdfrwt beam="1">  1       -1 0.22086248E-02 0.20067673E+02</pdfrwt>
<totfact> 0.37755569E+06</totfact>
</mgrwt>
</event>
<event>
 5    1  0.9583198E-007  0.2000022E+02  0.7818608E-02  0.1745324E+00
          1   -1    0    0  501    0  0.00000000000E+00  0.00000000000E+00  0.11565067678E+03  0.11565067687E+03  0.46700000000E-02 0.  1.
         -1   -1    0    0    0  501 -0.00000000000E+00 -0.00000000000E+00 -0.86468534558E+00  0.86469795638E+00  0.46700000000E-02 0. -1.
       1023    2    1    2    0    0  0.00000000000E+00  0.00000000000E+00  0.11478599143E+03  0.11651537483E+03  0.20000218557E+02 0.  0.
        -11    1    3    3    0    0 -0.79375178515E+01 -0.60824330213E+01  0.57653803929E+02  0.58514624572E+02  0.51100000000E-03 0.  1.
         11    1    3    3    0    0  0.79375178515E+01  0.60824330213E+01  0.57132187502E+02  0.58000750255E+02  0.51100000000E-03 0. -1.
<mgrwt>
<rscale>  0 0.20000219E+02</rscale>
<asrwt>0</asrwt>
<pdfrwt beam="1">  1        1 0.17792409E-01 0.20000219E+02</pdfrwt>
<pdfrwt beam="2">  1       -1 0.13302952E-03 0.20000219E+02</pdfrwt>
<totfact> 0.45099619E+06</totfact>
</mgrwt>
</event>
<event>
 5    1  0.9583198E-007  0.2000562E+02  0.7818608E-02  0.1745216E+00
         -1   -1    0    0    0  501 -0.00000000000E+00  0.00000000000E+00  0.21502072372E+02  0.21502072879E+02  0.46700000000E-02 0. -1.
          1   -1    0    0  501    0  0.00000000000E+00 -0.00000000000E+00 -0.46533290750E+01  0.46533314184E+01  0.46700000000E-02 0.  1.
       1023    2    1    2    0    0  0.00000000000E+00  0.00000000000E+00  0.16848743297E+02  0.26155404297E+02  0.20005624791E+02 0.  0.
        -11    1    3    3    0    0  0.30314795183E+01 -0.95323437420E+01  0.83871560498E+01  0.13053728668E+02  0.51100000000E-03 0. -1.
         11    1    3    3    0    0 -0.30314795183E+01  0.95323437420E+01  0.84615872470E+01  0.13101675629E+02  0.51100000000E-03 0.  1.
<mgrwt>
<rscale>  0 0.20005625E+02</rscale>
<asrwt>0</asrwt>
<pdfrwt beam="2">  1        1 0.71589701E-03 0.20005625E+02</pdfrwt>
<pdfrwt beam="1">  1       -1 0.33080113E-02 0.20005625E+02</pdfrwt>
<totfact> 0.37243367E+06</totfact>
</mgrwt>
</event>
<event>
 5    1  0.9583198E-007  0.2000269E+02  0.7818608E-02  0.1745275E+00
         -1   -1    0    0    0  501 -0.00000000000E+00  0.00000000000E+00  0.10830162965E+03  0.10830162975E+03  0.46700000000E-02 0.  1.
          1   -1    0    0  501    0  0.00000000000E+00 -0.00000000000E+00 -0.92358911978E+00  0.92360092631E+00  0.46700000000E-02 0. -1.
       1023    2    1    2    0    0  0.00000000000E+00  0.00000000000E+00  0.10737804053E+03  0.10922523068E+03  0.20002685528E+02 0.  0.
        -11    1    3    3    0    0 -0.10600313444E+01  0.99445328672E+01  0.54220024787E+02  0.55134639643E+02  0.51100000000E-03 0. -1.
         11    1    3    3    0    0  0.10600313444E+01 -0.99445328672E+01  0.53158015746E+02  0.54090591037E+02  0.51100000000E-03 0.  1.
<mgrwt>
<rscale>  0 0.20002686E+02</rscale>
<asrwt>0</asrwt>
<pdfrwt beam="2">  1        1 0.14209159E-03 0.20002686E+02</pdfrwt>
<pdfrwt beam="1">  1       -1 0.16661785E-01 0.20002686E+02</pdfrwt>
<totfact> 0.31420271E+06</totfact>
</mgrwt>
</event>
<event>
 5    1  0.9583198E-007  0.2000033E+02  0.7818608E-02  0.1745321E+00
          1   -1    0    0  501    0  0.00000000000E+00  0.00000000000E+00  0.24427237392E+02  0.24427237838E+02  0.46700000000E-02 0.  1.
         -1   -1    0    0    0  501 -0.00000000000E+00 -0.00000000000E+00 -0.40939251457E+01  0.40939278092E+01  0.46700000000E-02 0. -1.
       1023    2    1    2    0    0  0.00000000000E+00  0.00000000000E+00  0.20333312246E+02  0.28521165647E+02  0.20000332572E+02 0.  0.
        -11    1    3    3    0    0  0.41032440336E+01 -0.91195488112E+01  0.10199897292E+02  0.14284281121E+02  0.51100000000E-03 0.  1.
         11    1    3    3    0    0 -0.41032440336E+01  0.91195488112E+01  0.10133414954E+02  0.14236884526E+02  0.51100000000E-03 0. -1.
<mgrwt>
<rscale>  0 0.20000333E+02</rscale>
<asrwt>0</asrwt>
<pdfrwt beam="1">  1        1 0.37580367E-02 0.20000333E+02</pdfrwt>
<pdfrwt beam="2">  1       -1 0.62983488E-03 0.20000333E+02</pdfrwt>
<totfact> 0.40054947E+06</totfact>
</mgrwt>
</event>
<event>
 5    1  0.1084600E-006  0.2000327E+02  0.7818608E-02  0.1745263E+00
          1   -1    0    0  501    0  0.00000000000E+00  0.00000000000E+00  0.21256389506E+01  0.21256440806E+01  0.46700000000E-02 0.  1.
         -1   -1    0    0    0  501 -0.00000000000E+00 -0.00000000000E+00 -0.47059982662E+02  0.47059982894E+02  0.46700000000E-02 0. -1.
       1023    2    1    2    0    0  0.00000000000E+00  0.00000000000E+00 -0.44934343712E+02  0.49185626975E+02  0.20003266135E+02 0.  0.
        -11    1    3    3    0    0 -0.99888331929E+01 -0.47720120469E+00 -0.22879752641E+02  0.24969733494E+02  0.51100000000E-03 0.  1.
         11    1    3    3    0    0  0.99888331929E+01  0.47720120469E+00 -0.22054591070E+02  0.24215893481E+02  0.51100000000E-03 0. -1.
<mgrwt>
<rscale>  0 0.20003266E+02</rscale>
<asrwt>0</asrwt>
<pdfrwt beam="1">  1        1 0.32702182E-03 0.20003266E+02</pdfrwt>
<pdfrwt beam="2">  1       -1 0.72399970E-02 0.20003266E+02</pdfrwt>
<totfact> 0.35128628E+06</totfact>
</mgrwt>
</event>
<event>
 5    1  0.9583198E-007  0.2000003E+02  0.7818608E-02  0.1745327E+00
         -1   -1    0    0    0  501 -0.00000000000E+00  0.00000000000E+00  0.45478209515E+01  0.45478233492E+01  0.46700000000E-02 0.  1.
          1   -1    0    0  501    0  0.00000000000E+00 -0.00000000000E+00 -0.21988618529E+02  0.21988619025E+02  0.46700000000E-02 0. -1.
       1023    2    1    2    0    0  0.00000000000E+00  0.00000000000E+00 -0.17440797578E+02  0.26536442374E+02  0.20000033843E+02 0.  0.
        -11    1    3    3    0    0  0.61060717643E+01 -0.79193570747E+01 -0.87244466836E+01  0.13270881623E+02  0.51100000000E-03 0.  1.
         11    1    3    3    0    0 -0.61060717643E+01  0.79193570747E+01 -0.87163508940E+01  0.13265560751E+02  0.51100000000E-03 0. -1.
<mgrwt>
<rscale>  0 0.20000034E+02</rscale>
<asrwt>0</asrwt>
<pdfrwt beam="2">  1        1 0.33828646E-02 0.20000034E+02</pdfrwt>
<pdfrwt beam="1">  1       -1 0.69966500E-03 0.20000034E+02</pdfrwt>
<totfact> 0.39867875E+06</totfact>
</mgrwt>
</event>
<event>
 5    1  0.9626142E-007  0.2000183E+02  0.7818608E-02  0.1745292E+00
         -1   -1    0    0    0  501 -0.00000000000E+00  0.00000000000E+00  0.50286813770E+01  0.50286835454E+01  0.46700000000E-02 0. -1.
          1   -1    0    0  501    0  0.00000000000E+00 -0.00000000000E+00 -0.19889563524E+02  0.19889564072E+02  0.46700000000E-02 0.  1.
       1023    2    1    2    0    0  0.00000000000E+00  0.00000000000E+00 -0.14860882147E+02  0.24918247618E+02  0.20001831070E+02 0.  0.
        -11    1    3    3    0    0 -0.28412416009E+01 -0.95887798489E+01 -0.74690095558E+01  0.12482125493E+02  0.51100000000E-03 0.  1.
         11    1    3    3    0    0  0.28412416009E+01  0.95887798489E+01 -0.73918725912E+01  0.12436122124E+02  0.51100000000E-03 0. -1.
<mgrwt>
<rscale>  0 0.20001831E+02</rscale>
<asrwt>0</asrwt>
<pdfrwt beam="2">  1        1 0.30599330E-02 0.20001831E+02</pdfrwt>
<pdfrwt beam="1">  1       -1 0.77364350E-03 0.20001831E+02</pdfrwt>
<totfact> 0.39688479E+06</totfact>
</mgrwt>
</event>
<event>
 5    1  0.9583198E-007  0.2000066E+02  0.7818608E-02  0.1745315E+00
          1   -1    0    0  501    0  0.00000000000E+00  0.00000000000E+00  0.70406429490E+01  0.70406444978E+01  0.46700000000E-02 0. -1.
         -1   -1    0    0    0  501 -0.00000000000E+00 -0.00000000000E+00 -0.14204186111E+02  0.14204186879E+02  0.46700000000E-02 0.  1.
       1023    2    1    2    0    0  0.00000000000E+00  0.00000000000E+00 -0.71635431625E+01  0.21244831377E+02  0.20000662729E+02 0.  0.
        -11    1    3    3    0    0  0.67587467065E+01  0.73704203738E+01 -0.35248309025E+01  0.10603215865E+02  0.51100000000E-03 0.  1.
         11    1    3    3    0    0 -0.67587467065E+01 -0.73704203738E+01 -0.36387122600E+01  0.10641615512E+02  0.51100000000E-03 0. -1.
<mgrwt>
<rscale>  0 0.20000663E+02</rscale>
<asrwt>0</asrwt>
<pdfrwt beam="1">  1        1 0.10831760E-02 0.20000663E+02</pdfrwt>
<pdfrwt beam="2">  1       -1 0.21852596E-02 0.20000663E+02</pdfrwt>
<totfact> 0.38051945E+06</totfact>
</mgrwt>
</event>
<event>
 5    1  0.9583198E-007  0.2000021E+02  0.7818608E-02  0.1745324E+00
          1   -1    0    0  501    0  0.00000000000E+00  0.00000000000E+00  0.14472367786E+02  0.14472368539E+02  0.46700000000E-02 0.  1.
         -1   -1    0    0    0  501 -0.00000000000E+00 -0.00000000000E+00 -0.69098645390E+01  0.69098661171E+01  0.46700000000E-02 0. -1.
       1023    2    1    2    0    0  0.00000000000E+00  0.00000000000E+00  0.75625032469E+01  0.21382234657E+02  0.20000212588E+02 0.  0.
        -11    1    3    3    0    0 -0.24800067538E+01  0.96876458074E+01  0.37440500306E+01  0.10677959809E+02  0.51100000000E-03 0.  1.
         11    1    3    3    0    0  0.24800067538E+01 -0.96876458074E+01  0.38184532163E+01  0.10704274848E+02  0.51100000000E-03 0. -1.
<mgrwt>
<rscale>  0 0.20000213E+02</rscale>
<asrwt>0</asrwt>
<pdfrwt beam="1">  1        1 0.22265183E-02 0.20000213E+02</pdfrwt>
<pdfrwt beam="2">  1       -1 0.10630563E-02 0.20000213E+02</pdfrwt>
<totfact> 0.39188484E+06</totfact>
</mgrwt>
</event>
<event>
 5    1  0.9857018E-007  0.2000222E+02  0.7818608E-02  0.1745284E+00
         -1   -1    0    0    0  501 -0.00000000000E+00  0.00000000000E+00  0.39404614062E+01  0.39404641735E+01  0.46700000000E-02 0. -1.
          1   -1    0    0  501    0  0.00000000000E+00 -0.00000000000E+00 -0.25383363348E+02  0.25383363777E+02  0.46700000000E-02 0.  1.
       1023    2    1    2    0    0  0.00000000000E+00  0.00000000000E+00 -0.21442901942E+02  0.29323827951E+02  0.20002220927E+02 0.  0.
        -11    1    3    3    0    0  0.99606682874E+01 -0.89595922247E+00 -0.10622512129E+02  0.14589565444E+02  0.51100000000E-03 0. -1.
         11    1    3    3    0    0 -0.99606682874E+01  0.89595922247E+00 -0.10820389813E+02  0.14734262507E+02  0.51100000000E-03 0.  1.
<mgrwt>
<rscale>  0 0.20002221E+02</rscale>
<asrwt>0</asrwt>
<pdfrwt beam="2">  1        1 0.39051330E-02 0.20002221E+02</pdfrwt>
<pdfrwt beam="1">  1       -1 0.60622509E-03 0.20002221E+02</pdfrwt>
<totfact> 0.40117825E+06</totfact>
</mgrwt>
</event>
<event>
 5    1  0.9665872E-007  0.2000149E+02  0.7818608E-02  0.1745298E+00
          1   -1    0    0  501    0  0.00000000000E+00  0.00000000000E+00  0.11176561046E+02  0.11176562022E+02  0.46700000000E-02 0. -1.
         -1   -1    0    0    0  501 -0.00000000000E+00 -0.00000000000E+00 -0.89486272443E+01  0.89486284628E+01  0.46700000000E-02 0.  1.
       1023    2    1    2    0    0  0.00000000000E+00  0.00000000000E+00  0.22279338020E+01  0.20125190485E+02  0.20001490020E+02 0.  0.
        -11    1    3    3    0    0 -0.95898023527E+01 -0.28368092036E+01  0.11700328950E+01  0.10068801957E+02  0.51100000000E-03 0. -1.
         11    1    3    3    0    0  0.95898023527E+01  0.28368092036E+01  0.10579009071E+01  0.10056388527E+02  0.51100000000E-03 0.  1.
<mgrwt>
<rscale>  0 0.20001490E+02</rscale>
<asrwt>0</asrwt>
<pdfrwt beam="1">  1        1 0.17194711E-02 0.20001490E+02</pdfrwt>
<pdfrwt beam="2">  1       -1 0.13767121E-02 0.20001490E+02</pdfrwt>
<totfact> 0.38788523E+06</totfact>
</mgrwt>
</event>
<event>
 5    1  0.9583198E-007  0.2000486E+02  0.7818608E-02  0.1745231E+00
          1   -1    0    0  501    0  0.00000000000E+00  0.00000000000E+00  0.10412214287E+03  0.10412214297E+03  0.46700000000E-02 0. -1.
         -1   -1    0    0    0  501 -0.00000000000E+00 -0.00000000000E+00 -0.96087145004E+00  0.96088279847E+00  0.46700000000E-02 0.  1.
       1023    2    1    2    0    0  0.00000000000E+00  0.00000000000E+00  0.10316127142E+03  0.10508302577E+03  0.20004859026E+02 0.  0.
        -11    1    3    3    0    0  0.97721267392E+01  0.21326693916E+01  0.51178656423E+02  0.52146884981E+02  0.51100000000E-03 0.  1.
         11    1    3    3    0    0 -0.97721267392E+01 -0.21326693916E+01  0.51982614995E+02  0.52936140790E+02  0.51100000000E-03 0. -1.
<mgrwt>
<rscale>  0 0.20004859E+02</rscale>
<asrwt>0</asrwt>
<pdfrwt beam="1">  1        1 0.16018789E-01 0.20004859E+02</pdfrwt>
<pdfrwt beam="2">  1       -1 0.14782729E-03 0.20004859E+02</pdfrwt>
<totfact> 0.44535431E+06</totfact>
</mgrwt>
</event>
<event>
 5    1  0.9583198E-007  0.2000012E+02  0.7818608E-02  0.1745326E+00
         -1   -1    0    0    0  501 -0.00000000000E+00  0.00000000000E+00  0.21009021180E+02  0.21009021699E+02  0.46700000000E-02 0.  1.
          1   -1    0    0  501    0  0.00000000000E+00 -0.00000000000E+00 -0.47599143276E+01  0.47599166185E+01  0.46700000000E-02 0. -1.
       1023    2    1    2    0    0  0.00000000000E+00  0.00000000000E+00  0.16249106852E+02  0.25768938317E+02  0.20000117712E+02 0.  0.
        -11    1    3    3    0    0 -0.97382233186E+01  0.22733334991E+01  0.81397037718E+01  0.12894022505E+02  0.51100000000E-03 0.  1.
         11    1    3    3    0    0  0.97382233186E+01 -0.22733334991E+01  0.81094030803E+01  0.12874915813E+02  0.51100000000E-03 0. -1.
<mgrwt>
<rscale>  0 0.20000118E+02</rscale>
<asrwt>0</asrwt>
<pdfrwt beam="2">  1        1 0.73229473E-03 0.20000118E+02</pdfrwt>
<pdfrwt beam="1">  1       -1 0.32321573E-02 0.20000118E+02</pdfrwt>
<totfact> 0.37314748E+06</totfact>
</mgrwt>
</event>
<event>
 5    1  0.9583198E-007  0.2000373E+02  0.7818608E-02  0.1745254E+00
         -1   -1    0    0    0  501 -0.00000000000E+00  0.00000000000E+00  0.84243765674E+02  0.84243765804E+02  0.46700000000E-02 0.  1.
          1   -1    0    0  501    0  0.00000000000E+00 -0.00000000000E+00 -0.11874696800E+01  0.11874788629E+01  0.46700000000E-02 0. -1.
       1023    2    1    2    0    0  0.00000000000E+00  0.00000000000E+00  0.83056295994E+02  0.85431244666E+02  0.20003731177E+02 0.  0.
        -11    1    3    3    0    0  0.17975451883E+01 -0.98378197484E+01  0.40874164462E+02  0.42079819235E+02  0.51100000000E-03 0. -1.
         11    1    3    3    0    0 -0.17975451883E+01  0.98378197484E+01  0.42182131532E+02  0.43351425431E+02  0.51100000000E-03 0.  1.
<mgrwt>
<rscale>  0 0.20003731E+02</rscale>
<asrwt>0</asrwt>
<pdfrwt beam="2">  1        1 0.18268841E-03 0.20003731E+02</pdfrwt>
<pdfrwt beam="1">  1       -1 0.12960577E-01 0.20003731E+02</pdfrwt>
<totfact> 0.32732018E+06</totfact>
</mgrwt>
</event>
<event>
 5    1  0.9583198E-007  0.2000016E+02  0.7818608E-02  0.1745325E+00
         -1   -1    0    0    0  501 -0.00000000000E+00  0.00000000000E+00  0.20186461675E+02  0.20186462215E+02  0.46700000000E-02 0.  1.
          1   -1    0    0  501    0  0.00000000000E+00 -0.00000000000E+00 -0.49538905901E+01  0.49538927913E+01  0.46700000000E-02 0. -1.
       1023    2    1    2    0    0  0.00000000000E+00  0.00000000000E+00  0.15232571085E+02  0.25140355007E+02  0.20000155699E+02 0.  0.
        -11    1    3    3    0    0 -0.92201601713E+01 -0.38715386506E+01  0.75693934129E+01  0.12541765506E+02  0.51100000000E-03 0. -1.
         11    1    3    3    0    0  0.92201601713E+01  0.38715386506E+01  0.76631776720E+01  0.12598589500E+02  0.51100000000E-03 0.  1.
<mgrwt>
<rscale>  0 0.20000156E+02</rscale>
<asrwt>0</asrwt>
<pdfrwt beam="2">  1        1 0.76213723E-03 0.20000156E+02</pdfrwt>
<pdfrwt beam="1">  1       -1 0.31056097E-02 0.20000156E+02</pdfrwt>
<totfact> 0.37397213E+06</totfact>
</mgrwt>
</event>
<event>
 5    1  0.9583198E-007  0.2000164E+02  0.7818608E-02  0.1745295E+00
          1   -1    0    0  501    0  0.00000000000E+00  0.00000000000E+00  0.78458259663E+01  0.78458273561E+01  0.46700000000E-02 0. -1.
         -1   -1    0    0    0  501 -0.00000000000E+00 -0.00000000000E+00 -0.12747722537E+02  0.12747723393E+02  0.46700000000E-02 0.  1.
       1023    2    1    2    0    0  0.00000000000E+00  0.00000000000E+00 -0.49018965709E+01  0.20593550749E+02  0.20001643494E+02 0.  0.
        -11    1    3    3    0    0  0.86983569678E+01 -0.49348432582E+01 -0.25007898236E+01  0.10308639189E+02  0.51100000000E-03 0. -1.
         11    1    3    3    0    0 -0.86983569678E+01  0.49348432582E+01 -0.24011067473E+01  0.10284911560E+02  0.51100000000E-03 0.  1.
<mgrwt>
<rscale>  0 0.20001643E+02</rscale>
<asrwt>0</asrwt>
<pdfrwt beam="1">  1        1 0.12070503E-02 0.20001643E+02</pdfrwt>
<pdfrwt beam="2">  1       -1 0.19611882E-02 0.20001643E+02</pdfrwt>
<totfact> 0.38230135E+06</totfact>
</mgrwt>
</event>
<event>
 5    1  0.9583198E-007  0.2000100E+02  0.7818608E-02  0.1745308E+00
          1   -1    0    0  501    0  0.00000000000E+00  0.00000000000E+00  0.23205451206E+01  0.23205498197E+01  0.46700000000E-02 0.  1.
         -1   -1    0    0    0  501 -0.00000000000E+00 -0.00000000000E+00 -0.43097567485E+02  0.43097567738E+02  0.46700000000E-02 0. -1.
       1023    2    1    2    0    0  0.00000000000E+00  0.00000000000E+00 -0.40777022364E+02  0.45418117558E+02  0.20000996215E+02 0.  0.
        -11    1    3    3    0    0 -0.99800124997E+01  0.63791283463E+00 -0.20277733354E+02  0.22609600893E+02  0.51100000000E-03 0.  1.
         11    1    3    3    0    0  0.99800124997E+01 -0.63791283463E+00 -0.20499289010E+02  0.22808516665E+02  0.51100000000E-03 0. -1.
<mgrwt>
<rscale>  0 0.20000996E+02</rscale>
<asrwt>0</asrwt>
<pdfrwt beam="1">  1        1 0.35700735E-03 0.20000996E+02</pdfrwt>
<pdfrwt beam="2">  1       -1 0.66303948E-02 0.20000996E+02</pdfrwt>
<totfact> 0.35430746E+06</totfact>
</mgrwt>
</event>
<event>
 4    1  0.9583198E-007  0.2029227E+02  0.7818608E-02  0.1739578E+00
         -1   -1    0    0    0  501 -0.00000000000E+00  0.00000000000E+00  0.48999271633E+01  0.48999293887E+01  0.46700000000E-02 0.  1.
          1   -1    0    0  501    0  0.00000000000E+00 -0.00000000000E+00 -0.21009291277E+02  0.21009291796E+02  0.46700000000E-02 0. -1.
        -11    1    1    2    0    0 -0.93968332072E+01 -0.38146829306E+01 -0.84414333905E+01  0.13195077799E+02  0.51100000000E-03 0.  1.
         11    1    1    2    0    0  0.93968332072E+01  0.38146829306E+01 -0.76679307231E+01  0.12714143385E+02  0.51100000000E-03 0. -1.
<mgrwt>
<rscale>  0 0.20292268E+02</rscale>
<asrwt>0</asrwt>
<pdfrwt beam="2">  1        1 0.32321988E-02 0.20292268E+02</pdfrwt>
<pdfrwt beam="1">  1       -1 0.75383517E-03 0.20292268E+02</pdfrwt>
<totfact> 0.38514218E+06</totfact>
</mgrwt>
</event>
<event>
 5    1  0.9974645E-007  0.2000075E+02  0.7818608E-02  0.1745313E+00
          1   -1    0    0  501    0  0.00000000000E+00  0.00000000000E+00  0.71707646192E+02  0.71707646344E+02  0.46700000000E-02 0. -1.
         -1   -1    0    0    0  501 -0.00000000000E+00 -0.00000000000E+00 -0.13946521180E+01  0.13946599367E+01  0.46700000000E-02 0.  1.
       1023    2    1    2    0    0  0.00000000000E+00  0.00000000000E+00  0.70312994074E+02  0.73102306281E+02  0.20000751184E+02 0.  0.
        -11    1    3    3    0    0 -0.53268578934E+01 -0.84631445249E+01  0.35468381514E+02  0.36851137266E+02  0.51100000000E-03 0. -1.
         11    1    3    3    0    0  0.53268578934E+01  0.84631445249E+01  0.34844612560E+02  0.36251169015E+02  0.51100000000E-03 0.  1.
<mgrwt>
<rscale>  0 0.20000751E+02</rscale>
<asrwt>0</asrwt>
<pdfrwt beam="1">  1        1 0.11031946E-01 0.20000751E+02</pdfrwt>
<pdfrwt beam="2">  1       -1 0.21456248E-03 0.20000751E+02</pdfrwt>
<totfact> 0.42921543E+06</totfact>
</mgrwt>
</event>
<event>
 5    1  0.9583198E-007  0.2000452E+02  0.7818608E-02  0.1745238E+00
          1   -1    0    0  501    0  0.00000000000E+00  0.00000000000E+00  0.11785378838E+01  0.11785471363E+01  0.46700000000E-02 0.  1.
         -1   -1    0    0    0  501 -0.00000000000E+00 -0.00000000000E+00 -0.84888915954E+02  0.84888916082E+02  0.46700000000E-02 0. -1.
       1023    2    1    2    0    0  0.00000000000E+00  0.00000000000E+00 -0.83710378070E+02  0.86067463218E+02  0.20004520195E+02 0.  0.
        -11    1    3    3    0    0 -0.41515047695E+01 -0.90989933253E+01 -0.42440938644E+02  0.43603439596E+02  0.51100000000E-03 0. -1.
         11    1    3    3    0    0  0.41515047695E+01  0.90989933253E+01 -0.41269439426E+02  0.42464023622E+02  0.51100000000E-03 0.  1.
<mgrwt>
<rscale>  0 0.20004520E+02</rscale>
<asrwt>0</asrwt>
<pdfrwt beam="1">  1        1 0.18131431E-03 0.20004520E+02</pdfrwt>
<pdfrwt beam="2">  1       -1 0.13059829E-01 0.20004520E+02</pdfrwt>
<totfact> 0.32691953E+06</totfact>
</mgrwt>
</event>
<event>
 5    1  0.1026790E-006  0.2000099E+02  0.7818608E-02  0.1745308E+00
         -1   -1    0    0    0  501 -0.00000000000E+00  0.00000000000E+00  0.95465759088E+00  0.95466901318E+00  0.46700000000E-02 0.  1.
          1   -1    0    0  501    0  0.00000000000E+00 -0.00000000000E+00 -0.10475928434E+03  0.10475928444E+03  0.46700000000E-02 0. -1.
       1023    2    1    2    0    0  0.00000000000E+00  0.00000000000E+00 -0.10380462674E+03  0.10571395345E+03  0.20000985501E+02 0.  0.
        -11    1    3    3    0    0  0.34265767299E+01 -0.93948224114E+01 -0.52302709778E+02  0.53250141471E+02  0.51100000000E-03 0.  1.
         11    1    3    3    0    0 -0.34265767299E+01  0.93948224114E+01 -0.51501916966E+02  0.52463811982E+02  0.51100000000E-03 0. -1.
<mgrwt>
<rscale>  0 0.20000986E+02</rscale>
<asrwt>0</asrwt>
<pdfrwt beam="2">  1        1 0.16116805E-01 0.20000986E+02</pdfrwt>
<pdfrwt beam="1">  1       -1 0.14687137E-03 0.20000986E+02</pdfrwt>
<totfact> 0.44584855E+06</totfact>
</mgrwt>
</event>
<event>
 5    1  0.9583198E-007  0.2000045E+02  0.7818608E-02  0.1745319E+00
         -1   -1    0    0    0  501 -0.00000000000E+00  0.00000000000E+00  0.62524563668E+01  0.62524581108E+01  0.46700000000E-02 0. -1.
          1   -1    0    0  501    0  0.00000000000E+00 -0.00000000000E+00 -0.15994425799E+02  0.15994426481E+02  0.46700000000E-02 0.  1.
       1023    2    1    2    0    0  0.00000000000E+00  0.00000000000E+00 -0.97419694320E+01  0.22246884591E+02  0.20000447635E+02 0.  0.
        -11    1    3    3    0    0 -0.20189703738E+01 -0.97942195470E+01 -0.48279301142E+01  0.11104588572E+02  0.51100000000E-03 0.  1.
         11    1    3    3    0    0  0.20189703738E+01  0.97942195470E+01 -0.49140393178E+01  0.11142296019E+02  0.51100000000E-03 0. -1.
<mgrwt>
<rscale>  0 0.20000448E+02</rscale>
<asrwt>0</asrwt>
<pdfrwt beam="2">  1        1 0.24606811E-02 0.20000448E+02</pdfrwt>
<pdfrwt beam="1">  1       -1 0.96191656E-03 0.20000448E+02</pdfrwt>
<totfact> 0.39342587E+06</totfact>
</mgrwt>
</event>
<event>
 5    1  0.9787275E-007  0.2000176E+02  0.7818608E-02  0.1745293E+00
         -1   -1    0    0    0  501 -0.00000000000E+00  0.00000000000E+00  0.60644295604E+01  0.60644313585E+01  0.46700000000E-02 0. -1.
          1   -1    0    0  501    0  0.00000000000E+00 -0.00000000000E+00 -0.16492496201E+02  0.16492496862E+02  0.46700000000E-02 0.  1.
       1023    2    1    2    0    0  0.00000000000E+00  0.00000000000E+00 -0.10428066641E+02  0.22556928221E+02  0.20001760845E+02 0.  0.
        -11    1    3    3    0    0 -0.95524139429E+01 -0.29608301771E+01 -0.52702115250E+01  0.11304435291E+02  0.51100000000E-03 0.  1.
         11    1    3    3    0    0  0.95524139429E+01  0.29608301771E+01 -0.51578551159E+01  0.11252492930E+02  0.51100000000E-03 0. -1.
<mgrwt>
<rscale>  0 0.20001761E+02</rscale>
<asrwt>0</asrwt>
<pdfrwt beam="2">  1        1 0.25373073E-02 0.20001761E+02</pdfrwt>
<pdfrwt beam="1">  1       -1 0.93298936E-03 0.20001761E+02</pdfrwt>
<totfact> 0.39384986E+06</totfact>
</mgrwt>
</event>
<event>
 5    1  0.9583198E-007  0.2000747E+02  0.7818608E-02  0.1745180E+00
          1   -1    0    0  501    0  0.00000000000E+00  0.00000000000E+00  0.34026576830E+02  0.34026577150E+02  0.46700000000E-02 0.  1.
         -1   -1    0    0    0  501 -0.00000000000E+00 -0.00000000000E+00 -0.29410732793E+01  0.29410769869E+01  0.46700000000E-02 0. -1.
       1023    2    1    2    0    0  0.00000000000E+00  0.00000000000E+00  0.31085503550E+02  0.36967654137E+02  0.20007471640E+02 0.  0.
        -11    1    3    3    0    0 -0.49883116230E+01  0.86695686250E+01  0.15863085906E+02  0.18753190868E+02  0.51100000000E-03 0. -1.
         11    1    3    3    0    0  0.49883116230E+01 -0.86695686250E+01  0.15222417644E+02  0.18214463269E+02  0.51100000000E-03 0.  1.
<mgrwt>
<rscale>  0 0.20007472E+02</rscale>
<asrwt>0</asrwt>
<pdfrwt beam="1">  1        1 0.52348584E-02 0.20007472E+02</pdfrwt>
<pdfrwt beam="2">  1       -1 0.45247312E-03 0.20007472E+02</pdfrwt>
<totfact> 0.40693602E+06</totfact>
</mgrwt>
</event>
<event>
 5    1  0.9670844E-007  0.2000128E+02  0.7818608E-02  0.1745303E+00
         -1   -1    0    0    0  501 -0.00000000000E+00  0.00000000000E+00  0.12576367896E+02  0.12576368763E+02  0.46700000000E-02 0.  1.
          1   -1    0    0  501    0  0.00000000000E+00 -0.00000000000E+00 -0.79524343469E+01  0.79524357181E+01  0.46700000000E-02 0. -1.
       1023    2    1    2    0    0  0.00000000000E+00  0.00000000000E+00  0.46239335489E+01  0.20528804481E+02  0.20001276258E+02 0.  0.
        -11    1    3    3    0    0  0.45909662036E+01 -0.88844668043E+01  0.23583430856E+01  0.10274848099E+02  0.51100000000E-03 0. -1.
         11    1    3    3    0    0 -0.45909662036E+01  0.88844668043E+01  0.22655904633E+01  0.10253956382E+02  0.51100000000E-03 0.  1.
<mgrwt>
<rscale>  0 0.20001276E+02</rscale>
<asrwt>0</asrwt>
<pdfrwt beam="2">  1        1 0.12234516E-02 0.20001276E+02</pdfrwt>
<pdfrwt beam="1">  1       -1 0.19348260E-02 0.20001276E+02</pdfrwt>
<totfact> 0.38253950E+06</totfact>
</mgrwt>
</event>
<event>
 5    1  0.9583198E-007  0.2000026E+02  0.7818608E-02  0.1745323E+00
         -1   -1    0    0    0  501 -0.00000000000E+00  0.00000000000E+00  0.48302684123E+01  0.48302706698E+01  0.46700000000E-02 0. -1.
          1   -1    0    0  501    0  0.00000000000E+00 -0.00000000000E+00 -0.20703324067E+02  0.20703324594E+02  0.46700000000E-02 0.  1.
       1023    2    1    2    0    0  0.00000000000E+00  0.00000000000E+00 -0.15873055655E+02  0.25533595264E+02  0.20000264780E+02 0.  0.
        -11    1    3    3    0    0  0.14485544593E+00  0.99990767431E+01 -0.79220422700E+01  0.12757792631E+02  0.51100000000E-03 0. -1.
         11    1    3    3    0    0 -0.14485544593E+00 -0.99990767431E+01 -0.79510133853E+01  0.12775802633E+02  0.51100000000E-03 0.  1.
<mgrwt>
<rscale>  0 0.20000265E+02</rscale>
<asrwt>0</asrwt>
<pdfrwt beam="2">  1        1 0.31851270E-02 0.20000265E+02</pdfrwt>
<pdfrwt beam="1">  1       -1 0.74311844E-03 0.20000265E+02</pdfrwt>
<totfact> 0.39763079E+06</totfact>
</mgrwt>
</event>
<event>
 5    1  0.9583198E-007  0.2000167E+02  0.7818608E-02  0.1745295E+00
         -1   -1    0    0    0  501 -0.00000000000E+00  0.00000000000E+00  0.55143926825E+02  0.55143927022E+02  0.46700000000E-02 0. -1.
          1   -1    0    0  501    0  0.00000000000E+00 -0.00000000000E+00 -0.18137355611E+01  0.18137415732E+01  0.46700000000E-02 0.  1.
       1023    2    1    2    0    0  0.00000000000E+00  0.00000000000E+00  0.53330191264E+02  0.56957668596E+02  0.20001667722E+02 0.  0.
        -11    1    3    3    0    0 -0.85040582635E+01  0.52625038965E+01  0.26838858980E+02  0.28641531136E+02  0.51100000000E-03 0.  1.
         11    1    3    3    0    0  0.85040582635E+01 -0.52625038965E+01  0.26491332283E+02  0.28316137459E+02  0.51100000000E-03 0. -1.
<mgrwt>
<rscale>  0 0.20001668E+02</rscale>
<asrwt>0</asrwt>
<pdfrwt beam="2">  1        1 0.27903670E-03 0.20001668E+02</pdfrwt>
<pdfrwt beam="1">  1       -1 0.84836822E-02 0.20001668E+02</pdfrwt>
<totfact> 0.34564149E+06</totfact>
</mgrwt>
</event>
<event>
 5    1  0.9583198E-007  0.2000253E+02  0.7818608E-02  0.1745278E+00
          1   -1    0    0  501    0  0.00000000000E+00  0.00000000000E+00  0.90794269459E+01  0.90794281469E+01  0.46700000000E-02 0. -1.
         -1   -1    0    0    0  501 -0.00000000000E+00 -0.00000000000E+00 -0.11016695796E+02  0.11016696785E+02  0.46700000000E-02 0.  1.
       1023    2    1    2    0    0  0.00000000000E+00  0.00000000000E+00 -0.19372688498E+01  0.20096124932E+02  0.20002530507E+02 0.  0.
        -11    1    3    3    0    0  0.92253510809E+01  0.38617639042E+01 -0.10395579125E+01  0.10054899499E+02  0.51100000000E-03 0. -1.
         11    1    3    3    0    0 -0.92253510809E+01 -0.38617639042E+01 -0.89771093730E+00  0.10041225433E+02  0.51100000000E-03 0.  1.
<mgrwt>
<rscale>  0 0.20002531E+02</rscale>
<asrwt>0</asrwt>
<pdfrwt beam="1">  1        1 0.13968351E-02 0.20002531E+02</pdfrwt>
<pdfrwt beam="2">  1       -1 0.16948764E-02 0.20002531E+02</pdfrwt>
<totfact> 0.38461899E+06</totfact>
</mgrwt>
</event>
<event>
 5    1  0.9786777E-007  0.2000065E+02  0.7818608E-02  0.1745315E+00
          1   -1    0    0  501    0  0.00000000000E+00  0.00000000000E+00  0.27258792698E+02  0.27258793098E+02  0.46700000000E-02 0.  1.
         -1   -1    0    0    0  501 -0.00000000000E+00 -0.00000000000E+00 -0.36687781119E+01  0.36687810841E+01  0.46700000000E-02 0. -1.
       1023    2    1    2    0    0  0.00000000000E+00  0.00000000000E+00  0.23590014586E+02  0.30927574182E+02  0.20000651405E+02 0.  0.
        -11    1    3    3    0    0 -0.73018132346E+01  0.68328533651E+01  0.11866745433E+02  0.15518505375E+02  0.51100000000E-03 0. -1.
         11    1    3    3    0    0  0.73018132346E+01 -0.68328533651E+01  0.11723269152E+02  0.15409068807E+02  0.51100000000E-03 0.  1.
<mgrwt>
<rscale>  0 0.20000651E+02</rscale>
<asrwt>0</asrwt>
<pdfrwt beam="1">  1        1 0.41936605E-02 0.20000651E+02</pdfrwt>
<pdfrwt beam="2">  1       -1 0.56442768E-03 0.20000651E+02</pdfrwt>
<totfact> 0.40261356E+06</totfact>
</mgrwt>
</event>
<event>
 5    1  0.9583198E-007  0.2000264E+02  0.7818608E-02  0.1745276E+00
         -1   -1    0    0    0  501 -0.00000000000E+00  0.00000000000E+00  0.28534506502E+01  0.28534544717E+01  0.46700000000E-02 0.  1.
          1   -1    0    0  501    0  0.00000000000E+00 -0.00000000000E+00 -0.35054515759E+02  0.35054516070E+02  0.46700000000E-02 0. -1.
       1023    2    1    2    0    0  0.00000000000E+00  0.00000000000E+00 -0.32201065109E+02  0.37907970542E+02  0.20002640737E+02 0.  0.
        -11    1    3    3    0    0 -0.96688055915E+01 -0.25548465566E+01 -0.15881428823E+02  0.18767866800E+02  0.51100000000E-03 0.  1.
         11    1    3    3    0    0  0.96688055915E+01  0.25548465566E+01 -0.16319636286E+02  0.19140103742E+02  0.51100000000E-03 0. -1.
<mgrwt>
<rscale>  0 0.20002641E+02</rscale>
<asrwt>0</asrwt>
<pdfrwt beam="2">  1        1 0.53930024E-02 0.20002641E+02</pdfrwt>
<pdfrwt beam="1">  1       -1 0.43899275E-03 0.20002641E+02</pdfrwt>
<totfact> 0.40782867E+06</totfact>
</mgrwt>
</event>
<event>
 4    1  0.9583198E-007  0.2011226E+02  0.7818608E-02  0.1743105E+00
         -1   -1    0    0    0  501 -0.00000000000E+00  0.00000000000E+00  0.60255262328E+02  0.60255262509E+02  0.46700000000E-02 0.  1.
          1   -1    0    0  501    0  0.00000000000E+00 -0.00000000000E+00 -0.16782860433E+01  0.16782925407E+01  0.46700000000E-02 0. -1.
        -11    1    1    2    0    0 -0.99383580612E+01  0.14859305772E+01  0.28108547307E+02  0.29850785293E+02  0.51100000000E-03 0.  1.
         11    1    1    2    0    0  0.99383580612E+01 -0.14859305772E+01  0.30468428977E+02  0.32082769756E+02  0.51100000000E-03 0. -1.
<mgrwt>
<rscale>  0 0.20112262E+02</rscale>
<asrwt>0</asrwt>
<pdfrwt beam="2">  1        1 0.25819833E-03 0.20112262E+02</pdfrwt>
<pdfrwt beam="1">  1       -1 0.92700422E-02 0.20112262E+02</pdfrwt>
<totfact> 0.33807881E+06</totfact>
</mgrwt>
</event>
<event>
 5    1  0.9583198E-007  0.2000020E+02  0.7818608E-02  0.1745324E+00
         -1   -1    0    0    0  501 -0.00000000000E+00  0.00000000000E+00  0.17665317597E+01  0.17665379325E+01  0.46700000000E-02 0.  1.
          1   -1    0    0  501    0  0.00000000000E+00 -0.00000000000E+00 -0.56609106527E+02  0.56609106720E+02  0.46700000000E-02 0. -1.
       1023    2    1    2    0    0  0.00000000000E+00  0.00000000000E+00 -0.54842574768E+02  0.58375644652E+02  0.20000197035E+02 0.  0.
        -11    1    3    3    0    0 -0.87208017240E+01  0.48938156999E+01 -0.27457659112E+02  0.29221992727E+02  0.51100000000E-03 0.  1.
         11    1    3    3    0    0  0.87208017240E+01 -0.48938156999E+01 -0.27384915656E+02  0.29153651925E+02  0.51100000000E-03 0. -1.
<mgrwt>
<rscale>  0 0.20000197E+02</rscale>
<asrwt>0</asrwt>
<pdfrwt beam="2">  1        1 0.87090924E-02 0.20000197E+02</pdfrwt>
<pdfrwt beam="1">  1       -1 0.27177465E-03 0.20000197E+02</pdfrwt>
<totfact> 0.42094790E+06</totfact>
</mgrwt>
</event>
<event>
 5    1  0.9617736E-007  0.2000166E+02  0.7818608E-02  0.1745295E+00
          1   -1    0    0  501    0  0.00000000000E+00  0.00000000000E+00  0.78006519302E+01  0.78006533281E+01  0.46700000000E-02 0. -1.
         -1   -1    0    0    0  501 -0.00000000000E+00 -0.00000000000E+00 -0.12821571946E+02  0.12821572796E+02  0.46700000000E-02 0.  1.
       1023    2    1    2    0    0  0.00000000000E+00  0.00000000000E+00 -0.50209200156E+01  0.20622226124E+02  0.20001664244E+02 0.  0.
        -11    1    3    3    0    0 -0.66064313441E+01 -0.75077765897E+01 -0.25833531821E+01  0.10328860457E+02  0.51100000000E-03 0.  1.
         11    1    3    3    0    0  0.66064313441E+01  0.75077765897E+01 -0.24375668335E+01  0.10293365667E+02  0.51100000000E-03 0. -1.
<mgrwt>
<rscale>  0 0.20001664E+02</rscale>
<asrwt>0</asrwt>
<pdfrwt beam="1">  1        1 0.12001005E-02 0.20001664E+02</pdfrwt>
<pdfrwt beam="2">  1       -1 0.19725497E-02 0.20001664E+02</pdfrwt>
<totfact> 0.38220510E+06</totfact>
</mgrwt>
</event>
<event>
 4    1  0.9583198E-007  0.2002807E+02  0.7818608E-02  0.1744770E+00
         -1   -1    0    0    0  501 -0.00000000000E+00  0.00000000000E+00  0.30611404910E+01  0.30611440532E+01  0.46700000000E-02 0.  1.
          1   -1    0    0  501    0  0.00000000000E+00 -0.00000000000E+00 -0.32759296747E+02  0.32759297080E+02  0.46700000000E-02 0. -1.
        -11    1    1    2    0    0 -0.45137095873E+01 -0.89297603107E+01 -0.15579276986E+02  0.18515616790E+02  0.51100000000E-03 0.  1.
         11    1    1    2    0    0  0.45137095873E+01  0.89297603107E+01 -0.14118879269E+02  0.17304824343E+02  0.51100000000E-03 0. -1.
<mgrwt>
<rscale>  0 0.20028068E+02</rscale>
<asrwt>0</asrwt>
<pdfrwt beam="2">  1        1 0.50398919E-02 0.20028068E+02</pdfrwt>
<pdfrwt beam="1">  1       -1 0.47094501E-03 0.20028068E+02</pdfrwt>
<totfact> 0.40516582E+06</totfact>
</mgrwt>
</event>
<event>
 5    1  0.9583198E-007  0.2000781E+02  0.7818608E-02  0.1745173E+00
          1   -1    0    0  501    0  0.00000000000E+00  0.00000000000E+00  0.16761835532E+02  0.16761836183E+02  0.46700000000E-02 0.  1.
         -1   -1    0    0    0  501 -0.00000000000E+00 -0.00000000000E+00 -0.59705907125E+01  0.59705925388E+01  0.46700000000E-02 0. -1.
       1023    2    1    2    0    0  0.00000000000E+00  0.00000000000E+00  0.10791244820E+02  0.22732428721E+02  0.20007807247E+02 0.  0.
        -11    1    3    3    0    0 -0.85508386453E+01  0.51870493682E+01  0.56639258556E+01  0.11493579906E+02  0.51100000000E-03 0.  1.
         11    1    3    3    0    0  0.85508386453E+01 -0.51870493682E+01  0.51273189640E+01  0.11238848816E+02  0.51100000000E-03 0. -1.
<mgrwt>
<rscale>  0 0.20007807E+02</rscale>
<asrwt>0</asrwt>
<pdfrwt beam="1">  1        1 0.25787441E-02 0.20007807E+02</pdfrwt>
<pdfrwt beam="2">  1       -1 0.91855261E-03 0.20007807E+02</pdfrwt>
<totfact> 0.39383836E+06</totfact>
</mgrwt>
</event>
<event>
 5    1  0.9583198E-007  0.2000319E+02  0.7818608E-02  0.1745265E+00
          1   -1    0    0  501    0  0.00000000000E+00  0.00000000000E+00  0.56896606984E+01  0.56896626149E+01  0.46700000000E-02 0.  1.
         -1   -1    0    0    0  501 -0.00000000000E+00 -0.00000000000E+00 -0.17581341028E+02  0.17581341649E+02  0.46700000000E-02 0. -1.
       1023    2    1    2    0    0  0.00000000000E+00  0.00000000000E+00 -0.11891680330E+02  0.23271004264E+02  0.20003189205E+02 0.  0.
        -11    1    3    3    0    0 -0.59326894652E+01  0.80514507973E+01 -0.58340717569E+01  0.11578387528E+02  0.51100000000E-03 0.  1.
         11    1    3    3    0    0  0.59326894652E+01 -0.80514507973E+01 -0.60576085731E+01  0.11692616735E+02  0.51100000000E-03 0. -1.
<mgrwt>
<rscale>  0 0.20003189E+02</rscale>
<asrwt>0</asrwt>
<pdfrwt beam="1">  1        1 0.87533262E-03 0.20003189E+02</pdfrwt>
<pdfrwt beam="2">  1       -1 0.27048219E-02 0.20003189E+02</pdfrwt>
<totfact> 0.37656743E+06</totfact>
</mgrwt>
</event>
<event>
 5    1  0.9583198E-007  0.2000042E+02  0.7818608E-02  0.1745320E+00
          1   -1    0    0  501    0  0.00000000000E+00  0.00000000000E+00  0.92174976680E+01  0.92174988510E+01  0.46700000000E-02 0. -1.
         -1   -1    0    0    0  501 -0.00000000000E+00 -0.00000000000E+00 -0.10849390049E+02  0.10849391054E+02  0.46700000000E-02 0.  1.
       1023    2    1    2    0    0  0.00000000000E+00  0.00000000000E+00 -0.16318923811E+01  0.20066889905E+02  0.20000424939E+02 0.  0.
        -11    1    3    3    0    0 -0.70753204670E+00 -0.99749817925E+01 -0.75756509714E+00  0.10028697248E+02  0.51100000000E-03 0.  1.
         11    1    3    3    0    0  0.70753204670E+00  0.99749817925E+01 -0.87432728399E+00  0.10038192657E+02  0.51100000000E-03 0. -1.
<mgrwt>
<rscale>  0 0.20000425E+02</rscale>
<asrwt>0</asrwt>
<pdfrwt beam="1">  1        1 0.14180767E-02 0.20000425E+02</pdfrwt>
<pdfrwt beam="2">  1       -1 0.16691371E-02 0.20000425E+02</pdfrwt>
<totfact> 0.38494892E+06</totfact>
</mgrwt>
</event>
<event>
 5    1  0.1002029E-006  0.2000131E+02  0.7818608E-02  0.1745302E+00
          1   -1    0    0  501    0  0.00000000000E+00  0.00000000000E+00  0.21590819313E+02  0.21590819819E+02  0.46700000000E-02 0. -1.
         -1   -1    0    0    0  501 -0.00000000000E+00 -0.00000000000E+00 -0.46322042853E+01  0.46322066393E+01  0.46700000000E-02 0.  1.
       1023    2    1    2    0    0  0.00000000000E+00  0.00000000000E+00  0.16958615028E+02  0.26223026458E+02  0.20001312280E+02 0.  0.
        -11    1    3    3    0    0  0.63641801092E+01 -0.77140593790E+01  0.85582158676E+01  0.13162543814E+02  0.51100000000E-03 0.  1.
         11    1    3    3    0    0 -0.63641801092E+01  0.77140593790E+01  0.84003991606E+01  0.13060482644E+02  0.51100000000E-03 0. -1.
<mgrwt>
<rscale>  0 0.20001312E+02</rscale>
<asrwt>0</asrwt>
<pdfrwt beam="1">  1        1 0.33216647E-02 0.20001312E+02</pdfrwt>
<pdfrwt beam="2">  1       -1 0.71264703E-03 0.20001312E+02</pdfrwt>
<totfact> 0.39830425E+06</totfact>
</mgrwt>
</event>
<event>
 5    1  0.1018392E-006  0.2000104E+02  0.7818608E-02  0.1745307E+00
         -1   -1    0    0    0  501 -0.00000000000E+00  0.00000000000E+00  0.12413820517E+01  0.12413908358E+01  0.46700000000E-02 0. -1.
          1   -1    0    0  501    0  0.00000000000E+00 -0.00000000000E+00 -0.80563428499E+02  0.80563428634E+02  0.46700000000E-02 0.  1.
       1023    2    1    2    0    0  0.00000000000E+00  0.00000000000E+00 -0.79322046447E+02  0.81804819470E+02  0.20001035872E+02 0.  0.
        -11    1    3    3    0    0 -0.38707231805E+01  0.92208123696E+01 -0.39387265057E+02  0.40636960118E+02  0.51100000000E-03 0.  1.
         11    1    3    3    0    0  0.38707231805E+01 -0.92208123696E+01 -0.39934781390E+02  0.41167859352E+02  0.51100000000E-03 0. -1.
<mgrwt>
<rscale>  0 0.20001036E+02</rscale>
<asrwt>0</asrwt>
<pdfrwt beam="2">  1        1 0.12394370E-01 0.20001036E+02</pdfrwt>
<pdfrwt beam="1">  1       -1 0.19098260E-03 0.20001036E+02</pdfrwt>
<totfact> 0.43383488E+06</totfact>
</mgrwt>
</event>
<event>
 5    1  0.9621880E-007  0.2000176E+02  0.7818608E-02  0.1745293E+00
          1   -1    0    0  501    0  0.00000000000E+00  0.00000000000E+00  0.91171268845E+01  0.91171280805E+01  0.46700000000E-02 0.  1.
         -1   -1    0    0    0  501 -0.00000000000E+00 -0.00000000000E+00 -0.10970294602E+02  0.10970295596E+02  0.46700000000E-02 0. -1.
       1023    2    1    2    0    0  0.00000000000E+00  0.00000000000E+00 -0.18531677175E+01  0.20087423677E+02  0.20001758907E+02 0.  0.
        -11    1    3    3    0    0  0.63088877903E+01  0.77593854599E+01 -0.10133350449E+01  0.10051715080E+02  0.51100000000E-03 0. -1.
         11    1    3    3    0    0 -0.63088877903E+01 -0.77593854599E+01 -0.83983267258E+00  0.10035708597E+02  0.51100000000E-03 0.  1.
<mgrwt>
<rscale>  0 0.20001759E+02</rscale>
<asrwt>0</asrwt>
<pdfrwt beam="1">  1        1 0.14026351E-02 0.20001759E+02</pdfrwt>
<pdfrwt beam="2">  1       -1 0.16877378E-02 0.20001759E+02</pdfrwt>
<totfact> 0.38471810E+06</totfact>
</mgrwt>
</event>
<event>
 5    1  0.9583198E-007  0.2000009E+02  0.7818608E-02  0.1745326E+00
          1   -1    0    0  501    0  0.00000000000E+00  0.00000000000E+00  0.16062816645E+01  0.16062884531E+01  0.46700000000E-02 0. -1.
         -1   -1    0    0    0  501 -0.00000000000E+00 -0.00000000000E+00 -0.62256004505E+02  0.62256004680E+02  0.46700000000E-02 0.  1.
       1023    2    1    2    0    0  0.00000000000E+00  0.00000000000E+00 -0.60649722840E+02  0.63862293133E+02  0.20000090090E+02 0.  0.
        -11    1    3    3    0    0  0.70662887016E+01  0.70758606741E+01 -0.30406915272E+02  0.32009072729E+02  0.51100000000E-03 0. -1.
         11    1    3    3    0    0 -0.70662887016E+01 -0.70758606741E+01 -0.30242807568E+02  0.31853220405E+02  0.51100000000E-03 0.  1.
<mgrwt>
<rscale>  0 0.20000090E+02</rscale>
<asrwt>0</asrwt>
<pdfrwt beam="1">  1        1 0.24712084E-03 0.20000090E+02</pdfrwt>
<pdfrwt beam="2">  1       -1 0.95778455E-02 0.20000090E+02</pdfrwt>
<totfact> 0.34094333E+06</totfact>
</mgrwt>
</event>
<event>
 5    1  0.9583198E-007  0.2000395E+02  0.7818608E-02  0.1745250E+00
          1   -1    0    0  501    0  0.00000000000E+00  0.00000000000E+00  0.25735747577E+01  0.25735789947E+01  0.46700000000E-02 0. -1.
         -1   -1    0    0    0  501 -0.00000000000E+00 -0.00000000000E+00 -0.38871764992E+02  0.38871765273E+02  0.46700000000E-02 0.  1.
       1023    2    1    2    0    0  0.00000000000E+00  0.00000000000E+00 -0.36298190234E+02  0.41445344267E+02  0.20003948289E+02 0.  0.
        -11    1    3    3    0    0 -0.99345215266E+01 -0.11445920538E+01 -0.18534914905E+02  0.21060576434E+02  0.51100000000E-03 0. -1.
         11    1    3    3    0    0  0.99345215266E+01  0.11445920538E+01 -0.17763275330E+02  0.20384767834E+02  0.51100000000E-03 0.  1.
<mgrwt>
<rscale>  0 0.20003948E+02</rscale>
<asrwt>0</asrwt>
<pdfrwt beam="1">  1        1 0.39593495E-03 0.20003948E+02</pdfrwt>
<pdfrwt beam="2">  1       -1 0.59802715E-02 0.20003948E+02</pdfrwt>
<totfact> 0.35743403E+06</totfact>
</mgrwt>
</event>
<event>
 5    1  0.9583198E-007  0.2000325E+02  0.7818608E-02  0.1745263E+00
         -1   -1    0    0    0  501 -0.00000000000E+00  0.00000000000E+00  0.13773968726E+02  0.13773969518E+02  0.46700000000E-02 0.  1.
          1   -1    0    0  501    0  0.00000000000E+00 -0.00000000000E+00 -0.72624285464E+01  0.72624300479E+01  0.46700000000E-02 0. -1.
       1023    2    1    2    0    0  0.00000000000E+00  0.00000000000E+00  0.65115401801E+01  0.21036399566E+02  0.20003248516E+02 0.  0.
        -11    1    3    3    0    0 -0.99480837828E+01  0.10189521384E+01  0.34374746322E+01  0.10574444029E+02  0.51100000000E-03 0. -1.
         11    1    3    3    0    0  0.99480837828E+01 -0.10189521384E+01  0.30740655479E+01  0.10461955537E+02  0.51100000000E-03 0.  1.
<mgrwt>
<rscale>  0 0.20003249E+02</rscale>
<asrwt>0</asrwt>
<pdfrwt beam="2">  1        1 0.11172969E-02 0.20003249E+02</pdfrwt>
<pdfrwt beam="1">  1       -1 0.21190723E-02 0.20003249E+02</pdfrwt>
<totfact> 0.38093749E+06</totfact>
</mgrwt>
</event>
<event>
 5    1  0.9583198E-007  0.2000982E+02  0.7818608E-02  0.1745133E+00
          1   -1    0    0  501    0  0.00000000000E+00  0.00000000000E+00  0.35932472839E+02  0.35932473142E+02  0.46700000000E-02 0.  1.
         -1   -1    0    0    0  501 -0.00000000000E+00 -0.00000000000E+00 -0.27857295863E+01  0.27857335007E+01  0.46700000000E-02 0. -1.
       1023    2    1    2    0    0  0.00000000000E+00  0.00000000000E+00  0.33146743252E+02  0.38718206643E+02  0.20009821024E+02 0.  0.
        -11    1    3    3    0    0 -0.90798061519E+01  0.41905781866E+01  0.15978835487E+02  0.18850119603E+02  0.51100000000E-03 0.  1.
         11    1    3    3    0    0  0.90798061519E+01 -0.41905781866E+01  0.17167907766E+02  0.19868087039E+02  0.51100000000E-03 0. -1.
<mgrwt>
<rscale>  0 0.20009821E+02</rscale>
<asrwt>0</asrwt>
<pdfrwt beam="1">  1        1 0.55280731E-02 0.20009821E+02</pdfrwt>
<pdfrwt beam="2">  1       -1 0.42857411E-03 0.20009821E+02</pdfrwt>
<totfact> 0.40807192E+06</totfact>
</mgrwt>
</event>
<event>
 4    1  0.9583198E-007  0.2001513E+02  0.7818608E-02  0.1745027E+00
         -1   -1    0    0    0  501 -0.00000000000E+00  0.00000000000E+00  0.31588599254E+02  0.31588599599E+02  0.46700000000E-02 0.  1.
          1   -1    0    0  501    0  0.00000000000E+00 -0.00000000000E+00 -0.31704874560E+01  0.31704908954E+01  0.46700000000E-02 0. -1.
        -11    1    1    2    0    0 -0.31812006397E+01  0.94825042204E+01  0.14793866775E+02  0.17857671131E+02  0.51100000000E-03 0. -1.
         11    1    1    2    0    0  0.31812006397E+01 -0.94825042204E+01  0.13624245023E+02  0.16901419364E+02  0.51100000000E-03 0.  1.
<mgrwt>
<rscale>  0 0.20015127E+02</rscale>
<asrwt>0</asrwt>
<pdfrwt beam="2">  1        1 0.48776761E-03 0.20015127E+02</pdfrwt>
<pdfrwt beam="1">  1       -1 0.48597846E-02 0.20015127E+02</pdfrwt>
<totfact> 0.36290321E+06</totfact>
</mgrwt>
</event>
<event>
 5    1  0.9583198E-007  0.2000338E+02  0.7818608E-02  0.1745261E+00
          1   -1    0    0  501    0  0.00000000000E+00  0.00000000000E+00  0.35895762909E+01  0.35895793287E+01  0.46700000000E-02 0. -1.
         -1   -1    0    0    0  501 -0.00000000000E+00 -0.00000000000E+00 -0.27867854552E+02  0.27867854943E+02  0.46700000000E-02 0.  1.
       1023    2    1    2    0    0  0.00000000000E+00  0.00000000000E+00 -0.24278278261E+02  0.31457434272E+02  0.20003384105E+02 0.  0.
        -11    1    3    3    0    0  0.71615223428E+01  0.69812725899E+01 -0.11996088957E+02  0.15618313602E+02  0.51100000000E-03 0.  1.
         11    1    3    3    0    0 -0.71615223428E+01 -0.69812725899E+01 -0.12282189304E+02  0.15839120670E+02  0.51100000000E-03 0. -1.
<mgrwt>
<rscale>  0 0.20003384E+02</rscale>
<asrwt>0</asrwt>
<pdfrwt beam="1">  1        1 0.55224279E-03 0.20003384E+02</pdfrwt>
<pdfrwt beam="2">  1       -1 0.42873624E-02 0.20003384E+02</pdfrwt>
<totfact> 0.36659531E+06</totfact>
</mgrwt>
</event>
<event>
 5    1  0.9583198E-007  0.2000186E+02  0.7818608E-02  0.1745291E+00
         -1   -1    0    0    0  501 -0.00000000000E+00  0.00000000000E+00  0.70516357608E+01  0.70516373072E+01  0.46700000000E-02 0. -1.
          1   -1    0    0  501    0  0.00000000000E+00 -0.00000000000E+00 -0.14183737910E+02  0.14183738679E+02  0.46700000000E-02 0.  1.
       1023    2    1    2    0    0  0.00000000000E+00  0.00000000000E+00 -0.71321021497E+01  0.21235375987E+02  0.20001857719E+02 0.  0.
        -11    1    3    3    0    0 -0.99861240985E+01 -0.53678469767E+00 -0.34724946769E+01  0.10586266191E+02  0.51100000000E-03 0. -1.
         11    1    3    3    0    0  0.99861240985E+01  0.53678469767E+00 -0.36596074728E+01  0.10649109796E+02  0.51100000000E-03 0.  1.
<mgrwt>
<rscale>  0 0.20001858E+02</rscale>
<asrwt>0</asrwt>
<pdfrwt beam="2">  1        1 0.21821137E-02 0.20001858E+02</pdfrwt>
<pdfrwt beam="1">  1       -1 0.10848672E-02 0.20001858E+02</pdfrwt>
<totfact> 0.39150287E+06</totfact>
</mgrwt>
</event>
<event>
 5    1  0.9583198E-007  0.2000940E+02  0.7818608E-02  0.1745141E+00
         -1   -1    0    0    0  501 -0.00000000000E+00  0.00000000000E+00  0.43559132344E+02  0.43559132594E+02  0.46700000000E-02 0.  1.
          1   -1    0    0  501    0  0.00000000000E+00 -0.00000000000E+00 -0.22978861586E+01  0.22978909040E+01  0.46700000000E-02 0. -1.
       1023    2    1    2    0    0  0.00000000000E+00  0.00000000000E+00  0.41261246185E+02  0.45857023498E+02  0.20009401974E+02 0.  0.
        -11    1    3    3    0    0 -0.11764593780E+01 -0.99316601363E+01  0.20015198195E+02  0.22374764553E+02  0.51100000000E-03 0.  1.
         11    1    3    3    0    0  0.11764593780E+01  0.99316601363E+01  0.21246047989E+02  0.23482258945E+02  0.51100000000E-03 0. -1.
<mgrwt>
<rscale>  0 0.20009402E+02</rscale>
<asrwt>0</asrwt>
<pdfrwt beam="2">  1        1 0.35352135E-03 0.20009402E+02</pdfrwt>
<pdfrwt beam="1">  1       -1 0.67014051E-02 0.20009402E+02</pdfrwt>
<totfact> 0.35363373E+06</totfact>
</mgrwt>
</event>
<event>
 5    1  0.9948709E-007  0.2000228E+02  0.7818608E-02  0.1745283E+00
          1   -1    0    0  501    0  0.00000000000E+00  0.00000000000E+00  0.36705708927E+02  0.36705709224E+02  0.46700000000E-02 0.  1.
         -1   -1    0    0    0  501 -0.00000000000E+00 -0.00000000000E+00 -0.27249913604E+01  0.27249953620E+01  0.46700000000E-02 0. -1.
       1023    2    1    2    0    0  0.00000000000E+00  0.00000000000E+00  0.33980717567E+02  0.39430704586E+02  0.20002282315E+02 0.  0.
        -11    1    3    3    0    0  0.33317083029E+00 -0.99955746314E+01  0.16955696271E+02  0.19685480723E+02  0.51100000000E-03 0. -1.
         11    1    3    3    0    0 -0.33317083029E+00  0.99955746314E+01  0.17025021296E+02  0.19745223863E+02  0.51100000000E-03 0.  1.
<mgrwt>
<rscale>  0 0.20002282E+02</rscale>
<asrwt>0</asrwt>
<pdfrwt beam="1">  1        1 0.56470322E-02 0.20002282E+02</pdfrwt>
<pdfrwt beam="2">  1       -1 0.41922979E-03 0.20002282E+02</pdfrwt>
<totfact> 0.40891308E+06</totfact>
</mgrwt>
</event>
<event>
 5    1  0.9583198E-007  0.2001085E+02  0.7818608E-02  0.1745112E+00
         -1   -1    0    0    0  501 -0.00000000000E+00  0.00000000000E+00  0.46327969939E+01  0.46327993476E+01  0.46700000000E-02 0.  1.
          1   -1    0    0  501    0  0.00000000000E+00 -0.00000000000E+00 -0.21608655870E+02  0.21608656374E+02  0.46700000000E-02 0. -1.
       1023    2    1    2    0    0  0.00000000000E+00  0.00000000000E+00 -0.16975858876E+02  0.26241455722E+02  0.20010852402E+02 0.  0.
        -11    1    3    3    0    0 -0.96263257914E+01 -0.27234114707E+01 -0.86970696257E+01  0.13256022730E+02  0.51100000000E-03 0. -1.
         11    1    3    3    0    0  0.96263257914E+01  0.27234114707E+01 -0.82787892501E+01  0.12985432992E+02  0.51100000000E-03 0.  1.
<mgrwt>
<rscale>  0 0.20010852E+02</rscale>
<asrwt>0</asrwt>
<pdfrwt beam="2">  1        1 0.33244088E-02 0.20010852E+02</pdfrwt>
<pdfrwt beam="1">  1       -1 0.71273823E-03 0.20010852E+02</pdfrwt>
<totfact> 0.39789315E+06</totfact>
</mgrwt>
</event>
<event>
 5    1  0.9583198E-007  0.2000004E+02  0.7818608E-02  0.1745327E+00
          1   -1    0    0  501    0  0.00000000000E+00  0.00000000000E+00  0.37779516732E+02  0.37779517021E+02  0.46700000000E-02 0.  1.
         -1   -1    0    0    0  501 -0.00000000000E+00 -0.00000000000E+00 -0.26469450969E+01  0.26469492166E+01  0.46700000000E-02 0. -1.
       1023    2    1    2    0    0  0.00000000000E+00  0.00000000000E+00  0.35132571636E+02  0.40426466238E+02  0.20000039568E+02 0.  0.
        -11    1    3    3    0    0  0.59489423078E+01 -0.80380585757E+01  0.17586005471E+02  0.20230370459E+02  0.51100000000E-03 0. -1.
         11    1    3    3    0    0 -0.59489423078E+01  0.80380585757E+01  0.17546566165E+02  0.20196095778E+02  0.51100000000E-03 0.  1.
<mgrwt>
<rscale>  0 0.20000040E+02</rscale>
<asrwt>0</asrwt>
<pdfrwt beam="1">  1        1 0.58122332E-02 0.20000040E+02</pdfrwt>
<pdfrwt beam="2">  1       -1 0.40722270E-03 0.20000040E+02</pdfrwt>
<totfact> 0.40970171E+06</totfact>
</mgrwt>
</event>
<event>
 5    1  0.9583198E-007  0.2000196E+02  0.7818608E-02  0.1745289E+00
          1   -1    0    0  501    0  0.00000000000E+00  0.00000000000E+00  0.10542135333E+01  0.10542238770E+01  0.46700000000E-02 0. -1.
         -1   -1    0    0    0  501 -0.00000000000E+00 -0.00000000000E+00 -0.94875591033E+02  0.94875591148E+02  0.46700000000E-02 0.  1.
       1023    2    1    2    0    0  0.00000000000E+00  0.00000000000E+00 -0.93821377500E+02  0.95929815025E+02  0.20001963273E+02 0.  0.
        -11    1    3    3    0    0 -0.89583496397E+01  0.44459271311E+01 -0.46735314895E+02  0.47793388193E+02  0.51100000000E-03 0. -1.
         11    1    3    3    0    0  0.89583496397E+01 -0.44459271311E+01 -0.47086062604E+02  0.48136426832E+02  0.51100000000E-03 0.  1.
<mgrwt>
<rscale>  0 0.20001963E+02</rscale>
<asrwt>0</asrwt>
<pdfrwt beam="1">  1        1 0.16218758E-03 0.20001963E+02</pdfrwt>
<pdfrwt beam="2">  1       -1 0.14596239E-01 0.20001963E+02</pdfrwt>
<totfact> 0.32139257E+06</totfact>
</mgrwt>
</event>
<event>
 5    1  0.9583198E-007  0.2000027E+02  0.7818608E-02  0.1745323E+00
         -1   -1    0    0    0  501 -0.00000000000E+00  0.00000000000E+00  0.49969521663E+01  0.49969543485E+01  0.46700000000E-02 0. -1.
          1   -1    0    0  501    0  0.00000000000E+00 -0.00000000000E+00 -0.20012726659E+02  0.20012727204E+02  0.46700000000E-02 0.  1.
       1023    2    1    2    0    0  0.00000000000E+00  0.00000000000E+00 -0.15015774492E+02  0.25009681552E+02  0.20000267191E+02 0.  0.
        -11    1    3    3    0    0 -0.51318651159E+01 -0.85828043446E+01 -0.74505606299E+01  0.12470421963E+02  0.51100000000E-03 0. -1.
         11    1    3    3    0    0  0.51318651159E+01  0.85828043446E+01 -0.75652138625E+01  0.12539259589E+02  0.51100000000E-03 0.  1.
<mgrwt>
<rscale>  0 0.20000267E+02</rscale>
<asrwt>0</asrwt>
<pdfrwt beam="2">  1        1 0.30788812E-02 0.20000267E+02</pdfrwt>
<pdfrwt beam="1">  1       -1 0.76876209E-03 0.20000267E+02</pdfrwt>
<totfact> 0.39705780E+06</totfact>
</mgrwt>
</event>
<event>
 4    1  0.9583198E-007  0.2001360E+02  0.7818608E-02  0.1745058E+00
         -1   -1    0    0    0  501 -0.00000000000E+00  0.00000000000E+00  0.98117073904E+00  0.98118185269E+00  0.46700000000E-02 0. -1.
          1   -1    0    0  501    0  0.00000000000E+00 -0.00000000000E+00 -0.10205715218E+03  0.10205715228E+03  0.46700000000E-02 0.  1.
        -11    1    1    2    0    0  0.95214814490E+01 -0.30638587064E+01 -0.52084488247E+02  0.53036211737E+02  0.51100000000E-03 0.  1.
         11    1    1    2    0    0 -0.95214814490E+01  0.30638587064E+01 -0.48991493190E+02  0.50002122399E+02  0.51100000000E-03 0. -1.
<mgrwt>
<rscale>  0 0.20013602E+02</rscale>
<asrwt>0</asrwt>
<pdfrwt beam="2">  1        1 0.15701093E-01 0.20013602E+02</pdfrwt>
<pdfrwt beam="1">  1       -1 0.15095029E-03 0.20013602E+02</pdfrwt>
<totfact> 0.44393508E+06</totfact>
</mgrwt>
</event>
<event>
 5    1  0.9583198E-007  0.2000009E+02  0.7818608E-02  0.1745326E+00
         -1   -1    0    0    0  501 -0.00000000000E+00  0.00000000000E+00  0.19414879657E+01  0.19414935822E+01  0.46700000000E-02 0.  1.
          1   -1    0    0  501    0  0.00000000000E+00 -0.00000000000E+00 -0.51507252161E+02  0.51507252373E+02  0.46700000000E-02 0. -1.
       1023    2    1    2    0    0  0.00000000000E+00  0.00000000000E+00 -0.49565764196E+02  0.53448745955E+02  0.20000086597E+02 0.  0.
        -11    1    3    3    0    0  0.86609028087E+01  0.49989171080E+01 -0.24725814936E+02  0.26671451671E+02  0.51100000000E-03 0.  1.
         11    1    3    3    0    0 -0.86609028087E+01 -0.49989171080E+01 -0.24839949260E+02  0.26777294284E+02  0.51100000000E-03 0. -1.
<mgrwt>
<rscale>  0 0.20000087E+02</rscale>
<asrwt>0</asrwt>
<pdfrwt beam="2">  1        1 0.79241921E-02 0.20000087E+02</pdfrwt>
<pdfrwt beam="1">  1       -1 0.29869094E-03 0.20000087E+02</pdfrwt>
<totfact> 0.41802433E+06</totfact>
</mgrwt>
</event>
<event>
 5    1  0.9583198E-007  0.2000078E+02  0.7818608E-02  0.1745312E+00
          1   -1    0    0  501    0  0.00000000000E+00  0.00000000000E+00  0.23845737328E+01  0.23845783057E+01  0.46700000000E-02 0. -1.
         -1   -1    0    0    0  501 -0.00000000000E+00 -0.00000000000E+00 -0.41939458063E+02  0.41939458323E+02  0.46700000000E-02 0.  1.
       1023    2    1    2    0    0  0.00000000000E+00  0.00000000000E+00 -0.39554884331E+02  0.44324036629E+02  0.20000783702E+02 0.  0.
        -11    1    3    3    0    0  0.95072723624E+01  0.31013086597E+01 -0.19691791844E+02  0.22085583748E+02  0.51100000000E-03 0. -1.
         11    1    3    3    0    0 -0.95072723624E+01 -0.31013086597E+01 -0.19863092486E+02  0.22238452881E+02  0.51100000000E-03 0.  1.
<mgrwt>
<rscale>  0 0.20000784E+02</rscale>
<asrwt>0</asrwt>
<pdfrwt beam="1">  1        1 0.36685790E-03 0.20000784E+02</pdfrwt>
<pdfrwt beam="2">  1       -1 0.64522242E-02 0.20000784E+02</pdfrwt>
<totfact> 0.35519222E+06</totfact>
</mgrwt>
</event>
<event>
 5    1  0.9583198E-007  0.2000104E+02  0.7818608E-02  0.1745307E+00
         -1   -1    0    0    0  501 -0.00000000000E+00  0.00000000000E+00  0.36222365931E+02  0.36222366232E+02  0.46700000000E-02 0. -1.
          1   -1    0    0  501    0  0.00000000000E+00 -0.00000000000E+00 -0.27610105848E+01  0.27610145342E+01  0.46700000000E-02 0.  1.
       1023    2    1    2    0    0  0.00000000000E+00  0.00000000000E+00  0.33461355346E+02  0.38983380766E+02  0.20001041832E+02 0.  0.
        -11    1    3    3    0    0  0.81299006198E+01  0.58234771668E+01  0.16823087487E+02  0.19571010277E+02  0.51100000000E-03 0.  1.
         11    1    3    3    0    0 -0.81299006198E+01 -0.58234771668E+01  0.16638267859E+02  0.19412370489E+02  0.51100000000E-03 0. -1.
<mgrwt>
<rscale>  0 0.20001042E+02</rscale>
<asrwt>0</asrwt>
<pdfrwt beam="2">  1        1 0.42477113E-03 0.20001042E+02</pdfrwt>
<pdfrwt beam="1">  1       -1 0.55726727E-02 0.20001042E+02</pdfrwt>
<totfact> 0.35964758E+06</totfact>
</mgrwt>
</event>
<event>
 5    1  0.1039063E-006  0.2000150E+02  0.7818608E-02  0.1745298E+00
         -1   -1    0    0    0  501 -0.00000000000E+00  0.00000000000E+00  0.12069746640E+01  0.12069836984E+01  0.46700000000E-02 0.  1.
          1   -1    0    0  501    0  0.00000000000E+00 -0.00000000000E+00 -0.82863855211E+02  0.82863855343E+02  0.46700000000E-02 0. -1.
       1023    2    1    2    0    0  0.00000000000E+00  0.00000000000E+00 -0.81656880547E+02  0.84070839041E+02  0.20001495854E+02 0.  0.
        -11    1    3    3    0    0  0.99999821224E+01  0.21925878653E-01 -0.41340400351E+02  0.42532679491E+02  0.51100000000E-03 0.  1.
         11    1    3    3    0    0 -0.99999821224E+01 -0.21925878653E-01 -0.40316480196E+02  0.41538159551E+02  0.51100000000E-03 0. -1.
<mgrwt>
<rscale>  0 0.20001496E+02</rscale>
<asrwt>0</asrwt>
<pdfrwt beam="2">  1        1 0.12748282E-01 0.20001496E+02</pdfrwt>
<pdfrwt beam="1">  1       -1 0.18568918E-03 0.20001496E+02</pdfrwt>
<totfact> 0.43499284E+06</totfact>
</mgrwt>
</event>
<event>
 5    1  0.9583198E-007  0.2000043E+02  0.7818608E-02  0.1745320E+00
          1   -1    0    0  501    0  0.00000000000E+00  0.00000000000E+00  0.57164132762E+02  0.57164132953E+02  0.46700000000E-02 0.  1.
         -1   -1    0    0    0  501 -0.00000000000E+00 -0.00000000000E+00 -0.17494197775E+01  0.17494260107E+01  0.46700000000E-02 0. -1.
       1023    2    1    2    0    0  0.00000000000E+00  0.00000000000E+00  0.55414712985E+02  0.58913558964E+02  0.20000425360E+02 0.  0.
        -11    1    3    3    0    0  0.52715036147E+01 -0.84979414914E+01  0.27641924434E+02  0.29395233400E+02  0.51100000000E-03 0.  1.
         11    1    3    3    0    0 -0.52715036147E+01  0.84979414914E+01  0.27772788550E+02  0.29518325564E+02  0.51100000000E-03 0. -1.
<mgrwt>
<rscale>  0 0.20000425E+02</rscale>
<asrwt>0</asrwt>
<pdfrwt beam="1">  1        1 0.87944821E-02 0.20000425E+02</pdfrwt>
<pdfrwt beam="2">  1       -1 0.26914201E-03 0.20000425E+02</pdfrwt>
<totfact> 0.42125148E+06</totfact>
</mgrwt>
</event>
<event>
 5    1  0.9583198E-007  0.2000170E+02  0.7818608E-02  0.1745294E+00
          1   -1    0    0  501    0  0.00000000000E+00  0.00000000000E+00  0.54738809876E+01  0.54738829797E+01  0.46700000000E-02 0. -1.
         -1   -1    0    0    0  501 -0.00000000000E+00 -0.00000000000E+00 -0.18271679182E+02  0.18271679779E+02  0.46700000000E-02 0.  1.
       1023    2    1    2    0    0  0.00000000000E+00  0.00000000000E+00 -0.12797798195E+02  0.23745562759E+02  0.20001702730E+02 0.  0.
        -11    1    3    3    0    0  0.96145855663E+01 -0.27512085803E+01 -0.62952435242E+01  0.11816915653E+02  0.51100000000E-03 0. -1.
         11    1    3    3    0    0 -0.96145855663E+01  0.27512085803E+01 -0.65025546706E+01  0.11928647106E+02  0.51100000000E-03 0.  1.
<mgrwt>
<rscale>  0 0.20001703E+02</rscale>
<asrwt>0</asrwt>
<pdfrwt beam="1">  1        1 0.84213574E-03 0.20001703E+02</pdfrwt>
<pdfrwt beam="2">  1       -1 0.28110277E-02 0.20001703E+02</pdfrwt>
<totfact> 0.37589133E+06</totfact>
</mgrwt>
</event>
<event>
 5    1  0.9740201E-007  0.2000180E+02  0.7818608E-02  0.1745292E+00
         -1   -1    0    0    0  501 -0.00000000000E+00  0.00000000000E+00  0.41370050434E+01  0.41370076792E+01  0.46700000000E-02 0.  1.
          1   -1    0    0  501    0  0.00000000000E+00 -0.00000000000E+00 -0.24176422451E+02  0.24176422902E+02  0.46700000000E-02 0. -1.
       1023    2    1    2    0    0  0.00000000000E+00  0.00000000000E+00 -0.20039417407E+02  0.28313430581E+02  0.20001802450E+02 0.  0.
        -11    1    3    3    0    0 -0.76889981903E+01 -0.63950943454E+01 -0.10005539764E+02  0.14146686929E+02  0.51100000000E-03 0. -1.
         11    1    3    3    0    0  0.76889981903E+01  0.63950943454E+01 -0.10033877644E+02  0.14166743652E+02  0.51100000000E-03 0.  1.
<mgrwt>
<rscale>  0 0.20001802E+02</rscale>
<asrwt>0</asrwt>
<pdfrwt beam="2">  1        1 0.37194498E-02 0.20001802E+02</pdfrwt>
<pdfrwt beam="1">  1       -1 0.63646257E-03 0.20001802E+02</pdfrwt>
<totfact> 0.40029427E+06</totfact>
</mgrwt>
</event>
<event>
 4    1  0.9583198E-007  0.2002016E+02  0.7818608E-02  0.1744927E+00
          1   -1    0    0  501    0  0.00000000000E+00  0.00000000000E+00  0.52252508023E+02  0.52252508232E+02  0.46700000000E-02 0. -1.
         -1   -1    0    0    0  501 -0.00000000000E+00 -0.00000000000E+00 -0.19176417074E+01  0.19176473938E+01  0.46700000000E-02 0.  1.
        -11    1    1    2    0    0 -0.58301029069E+01 -0.81345761233E+01  0.24624120271E+02  0.26580231903E+02  0.51100000000E-03 0.  1.
         11    1    1    2    0    0  0.58301029069E+01  0.81345761233E+01  0.25710746044E+02  0.27589923723E+02  0.51100000000E-03 0. -1.
<mgrwt>
<rscale>  0 0.20020165E+02</rscale>
<asrwt>0</asrwt>
<pdfrwt beam="1">  1        1 0.80388479E-02 0.20020165E+02</pdfrwt>
<pdfrwt beam="2">  1       -1 0.29502225E-03 0.20020165E+02</pdfrwt>
<totfact> 0.41752516E+06</totfact>
</mgrwt>
</event>
<event>
 5    1  0.9583198E-007  0.2000151E+02  0.7818608E-02  0.1745298E+00
         -1   -1    0    0    0  501 -0.00000000000E+00  0.00000000000E+00  0.21690247728E+02  0.21690248230E+02  0.46700000000E-02 0.  1.
          1   -1    0    0  501    0  0.00000000000E+00 -0.00000000000E+00 -0.46110630348E+01  0.46110653996E+01  0.46700000000E-02 0. -1.
       1023    2    1    2    0    0  0.00000000000E+00  0.00000000000E+00  0.17079184693E+02  0.26301313630E+02  0.20001513665E+02 0.  0.
        -11    1    3    3    0    0 -0.40354897910E+01 -0.91504013004E+01  0.85537030825E+01  0.13159819850E+02  0.51100000000E-03 0. -1.
         11    1    3    3    0    0  0.40354897910E+01  0.91504013004E+01  0.85254816104E+01  0.13141493780E+02  0.51100000000E-03 0.  1.
<mgrwt>
<rscale>  0 0.20001514E+02</rscale>
<asrwt>0</asrwt>
<pdfrwt beam="2">  1        1 0.70939452E-03 0.20001514E+02</pdfrwt>
<pdfrwt beam="1">  1       -1 0.33369615E-02 0.20001514E+02</pdfrwt>
<totfact> 0.37241688E+06</totfact>
</mgrwt>
</event>
<event>
 5    1  0.9583198E-007  0.2000078E+02  0.7818608E-02  0.1745313E+00
          1   -1    0    0  501    0  0.00000000000E+00  0.00000000000E+00  0.10054200585E+01  0.10054309041E+01  0.46700000000E-02 0.  1.
         -1   -1    0    0    0  501 -0.00000000000E+00 -0.00000000000E+00 -0.99468128821E+02  0.99468128931E+02  0.46700000000E-02 0. -1.
       1023    2    1    2    0    0  0.00000000000E+00  0.00000000000E+00 -0.98462708763E+02  0.10047355984E+03  0.20000780210E+02 0.  0.
        -11    1    3    3    0    0 -0.56007911585E+01  0.82844317114E+01 -0.48807127155E+02  0.49821043062E+02  0.51100000000E-03 0. -1.
         11    1    3    3    0    0  0.56007911585E+01 -0.82844317114E+01 -0.49655581608E+02  0.50652516773E+02  0.51100000000E-03 0.  1.
<mgrwt>
<rscale>  0 0.20000780E+02</rscale>
<asrwt>0</asrwt>
<pdfrwt beam="1">  1        1 0.15468093E-03 0.20000780E+02</pdfrwt>
<pdfrwt beam="2">  1       -1 0.15302782E-01 0.20000780E+02</pdfrwt>
<totfact> 0.31893676E+06</totfact>
</mgrwt>
</event>
<event>
 5    1  0.9583198E-007  0.2000049E+02  0.7818608E-02  0.1745318E+00
          1   -1    0    0  501    0  0.00000000000E+00  0.00000000000E+00  0.15280293016E+02  0.15280293729E+02  0.46700000000E-02 0. -1.
         -1   -1    0    0    0  501 -0.00000000000E+00 -0.00000000000E+00 -0.65446952837E+01  0.65446969499E+01  0.46700000000E-02 0.  1.
       1023    2    1    2    0    0  0.00000000000E+00  0.00000000000E+00  0.87355977320E+01  0.21824990679E+02  0.20000488754E+02 0.  0.
        -11    1    3    3    0    0  0.20095626841E+01  0.97962512740E+01  0.43705022706E+01  0.10913577395E+02  0.51100000000E-03 0. -1.
         11    1    3    3    0    0 -0.20095626841E+01 -0.97962512740E+01  0.43650954615E+01  0.10911413284E+02  0.51100000000E-03 0.  1.
<mgrwt>
<rscale>  0 0.20000489E+02</rscale>
<asrwt>0</asrwt>
<pdfrwt beam="1">  1        1 0.23508145E-02 0.20000489E+02</pdfrwt>
<pdfrwt beam="2">  1       -1 0.10068764E-02 0.20000489E+02</pdfrwt>
<totfact> 0.39271181E+06</totfact>
</mgrwt>
</event>
<event>
 5    1  0.9588365E-007  0.2000193E+02  0.7818608E-02  0.1745290E+00
          1   -1    0    0  501    0  0.00000000000E+00  0.00000000000E+00  0.96490176640E+02  0.96490176753E+02  0.46700000000E-02 0. -1.
         -1   -1    0    0    0  501 -0.00000000000E+00 -0.00000000000E+00 -0.10365692079E+01  0.10365797276E+01  0.46700000000E-02 0.  1.
       1023    2    1    2    0    0  0.00000000000E+00  0.00000000000E+00  0.95453607432E+02  0.97526756480E+02  0.20001926353E+02 0.  0.
        -11    1    3    3    0    0 -0.99971691514E+01  0.27399622162E+00  0.47864647202E+02  0.48898291555E+02  0.51100000000E-03 0. -1.
         11    1    3    3    0    0  0.99971691514E+01 -0.27399622162E+00  0.47588960229E+02  0.48628464925E+02  0.51100000000E-03 0.  1.
<mgrwt>
<rscale>  0 0.20001926E+02</rscale>
<asrwt>0</asrwt>
<pdfrwt beam="1">  1        1 0.14844645E-01 0.20001926E+02</pdfrwt>
<pdfrwt beam="2">  1       -1 0.15947298E-03 0.20001926E+02</pdfrwt>
<totfact> 0.44180088E+06</totfact>
</mgrwt>
</event>
<event>
 5    1  0.9583198E-007  0.2000295E+02  0.7818608E-02  0.1745269E+00
         -1   -1    0    0    0  501 -0.00000000000E+00  0.00000000000E+00  0.34549181826E+01  0.34549213388E+01  0.46700000000E-02 0.  1.
          1   -1    0    0  501    0  0.00000000000E+00 -0.00000000000E+00 -0.28952765126E+02  0.28952765502E+02  0.46700000000E-02 0. -1.
       1023    2    1    2    0    0  0.00000000000E+00  0.00000000000E+00 -0.25497846943E+02  0.32407686841E+02  0.20002948974E+02 0.  0.
        -11    1    3    3    0    0  0.99766846405E+01  0.70365551501E+00 -0.12730871158E+02  0.16189640150E+02  0.51100000000E-03 0.  1.
         11    1    3    3    0    0 -0.99766846405E+01 -0.70365551501E+00 -0.12766975785E+02  0.16218046691E+02  0.51100000000E-03 0. -1.
<mgrwt>
<rscale>  0 0.20002949E+02</rscale>
<asrwt>0</asrwt>
<pdfrwt beam="2">  1        1 0.44542717E-02 0.20002949E+02</pdfrwt>
<pdfrwt beam="1">  1       -1 0.53152617E-03 0.20002949E+02</pdfrwt>
<totfact> 0.40370762E+06</totfact>
</mgrwt>
</event>
<event>
 5    1  0.9711938E-007  0.2000063E+02  0.7818608E-02  0.1745316E+00
         -1   -1    0    0    0  501 -0.00000000000E+00  0.00000000000E+00  0.34465445062E+01  0.34465476700E+01  0.46700000000E-02 0.  1.
          1   -1    0    0  501    0  0.00000000000E+00 -0.00000000000E+00 -0.29016383849E+02  0.29016384225E+02  0.46700000000E-02 0. -1.
       1023    2    1    2    0    0  0.00000000000E+00  0.00000000000E+00 -0.25569839343E+02  0.32462931895E+02  0.20000631570E+02 0.  0.
        -11    1    3    3    0    0 -0.22636693839E+01 -0.97407431325E+01 -0.12774694819E+02  0.16223412213E+02  0.51100000000E-03 0.  1.
         11    1    3    3    0    0  0.22636693839E+01  0.97407431325E+01 -0.12795144525E+02  0.16239519683E+02  0.51100000000E-03 0. -1.
<mgrwt>
<rscale>  0 0.20000632E+02</rscale>
<asrwt>0</asrwt>
<pdfrwt beam="2">  1        1 0.44640592E-02 0.20000632E+02</pdfrwt>
<pdfrwt beam="1">  1       -1 0.53023791E-03 0.20000632E+02</pdfrwt>
<totfact> 0.40385654E+06</totfact>
</mgrwt>
</event>
<event>
 5    1  0.1005631E-006  0.2000099E+02  0.7818608E-02  0.1745308E+00
          1   -1    0    0  501    0  0.00000000000E+00  0.00000000000E+00  0.65411275359E+02  0.65411275526E+02  0.46700000000E-02 0.  1.
         -1   -1    0    0    0  501 -0.00000000000E+00 -0.00000000000E+00 -0.15289355263E+01  0.15289426584E+01  0.46700000000E-02 0. -1.
       1023    2    1    2    0    0  0.00000000000E+00  0.00000000000E+00  0.63882339833E+02  0.66940218184E+02  0.20000986676E+02 0.  0.
        -11    1    3    3    0    0 -0.62637441323E+01 -0.77955794816E+01  0.31721275797E+02  0.33260259898E+02  0.51100000000E-03 0.  1.
         11    1    3    3    0    0  0.62637441323E+01  0.77955794816E+01  0.32161064035E+02  0.33679958286E+02  0.51100000000E-03 0. -1.
<mgrwt>
<rscale>  0 0.20000987E+02</rscale>
<asrwt>0</asrwt>
<pdfrwt beam="1">  1        1 0.10063275E-01 0.20000987E+02</pdfrwt>
<pdfrwt beam="2">  1       -1 0.23522138E-03 0.20000987E+02</pdfrwt>
<totfact> 0.42580923E+06</totfact>
</mgrwt>
</event>
<event>
 4    1  0.9583198E-007  0.2005198E+02  0.7818608E-02  0.1744296E+00
          1   -1    0    0  501    0  0.00000000000E+00  0.00000000000E+00  0.96591113353E+01  0.96591124642E+01  0.46700000000E-02 0. -1.
         -1   -1    0    0    0  501 -0.00000000000E+00 -0.00000000000E+00 -0.10406798832E+02  0.10406799880E+02  0.46700000000E-02 0.  1.
        -11    1    1    2    0    0  0.44419457084E+01  0.89595638533E+01  0.34483639547E+00  0.10006177018E+02  0.51100000000E-03 0. -1.
         11    1    1    2    0    0 -0.44419457084E+01 -0.89595638533E+01 -0.10925238925E+01  0.10059735326E+02  0.51100000000E-03 0.  1.
<mgrwt>
<rscale>  0 0.20051977E+02</rscale>
<asrwt>0</asrwt>
<pdfrwt beam="1">  1        1 0.14860173E-02 0.20051977E+02</pdfrwt>
<pdfrwt beam="2">  1       -1 0.16010461E-02 0.20051977E+02</pdfrwt>
<totfact> 0.38343701E+06</totfact>
</mgrwt>
</event>
<event>
 5    1  0.9583198E-007  0.2000031E+02  0.7818608E-02  0.1745322E+00
          1   -1    0    0  501    0  0.00000000000E+00  0.00000000000E+00  0.29901841951E+02  0.29901842316E+02  0.46700000000E-02 0. -1.
         -1   -1    0    0    0  501 -0.00000000000E+00 -0.00000000000E+00 -0.33443787695E+01  0.33443820301E+01  0.46700000000E-02 0.  1.
       1023    2    1    2    0    0  0.00000000000E+00  0.00000000000E+00  0.26557463181E+02  0.33246224346E+02  0.20000314563E+02 0.  0.
        -11    1    3    3    0    0  0.47184715849E+01  0.88169518159E+01  0.13240391834E+02  0.16592485938E+02  0.51100000000E-03 0.  1.
         11    1    3    3    0    0 -0.47184715849E+01 -0.88169518159E+01  0.13317071348E+02  0.16653738408E+02  0.51100000000E-03 0. -1.
<mgrwt>
<rscale>  0 0.20000315E+02</rscale>
<asrwt>0</asrwt>
<pdfrwt beam="1">  1        1 0.46002835E-02 0.20000315E+02</pdfrwt>
<pdfrwt beam="2">  1       -1 0.51452010E-03 0.20000315E+02</pdfrwt>
<totfact> 0.40448500E+06</totfact>
</mgrwt>
</event>
<event>
 5    1  0.9583198E-007  0.2000019E+02  0.7818608E-02  0.1745324E+00
          1   -1    0    0  501    0  0.00000000000E+00  0.00000000000E+00  0.53095967308E+02  0.53095967513E+02  0.46700000000E-02 0. -1.
         -1   -1    0    0    0  501 -0.00000000000E+00 -0.00000000000E+00 -0.18834157358E+01  0.18834215255E+01  0.46700000000E-02 0.  1.
       1023    2    1    2    0    0  0.00000000000E+00  0.00000000000E+00  0.51212551572E+02  0.54979389039E+02  0.20000194513E+02 0.  0.
        -11    1    3    3    0    0  0.68847917353E+00  0.99763358415E+01  0.25535414883E+02  0.27423688554E+02  0.51100000000E-03 0. -1.
         11    1    3    3    0    0 -0.68847917353E+00 -0.99763358415E+01  0.25677136689E+02  0.27555700484E+02  0.51100000000E-03 0.  1.
<mgrwt>
<rscale>  0 0.20000195E+02</rscale>
<asrwt>0</asrwt>
<pdfrwt beam="1">  1        1 0.81686092E-02 0.20000195E+02</pdfrwt>
<pdfrwt beam="2">  1       -1 0.28975679E-03 0.20000195E+02</pdfrwt>
<totfact> 0.41893937E+06</totfact>
</mgrwt>
</event>
<event>
 5    1  0.9583198E-007  0.2000008E+02  0.7818608E-02  0.1745326E+00
         -1   -1    0    0    0  501 -0.00000000000E+00  0.00000000000E+00  0.14281865152E+02  0.14281865916E+02  0.46700000000E-02 0.  1.
          1   -1    0    0  501    0  0.00000000000E+00 -0.00000000000E+00 -0.70019442538E+01  0.70019458112E+01  0.46700000000E-02 0. -1.
       1023    2    1    2    0    0  0.00000000000E+00  0.00000000000E+00  0.72799208982E+01  0.21283811727E+02  0.20000084833E+02 0.  0.
        -11    1    3    3    0    0  0.88175392133E+01 -0.47171750079E+01  0.36511338906E+01  0.10645727630E+02  0.51100000000E-03 0. -1.
         11    1    3    3    0    0 -0.88175392133E+01  0.47171750079E+01  0.36287870076E+01  0.10638084096E+02  0.51100000000E-03 0.  1.
<mgrwt>
<rscale>  0 0.20000085E+02</rscale>
<asrwt>0</asrwt>
<pdfrwt beam="2">  1        1 0.10772224E-02 0.20000085E+02</pdfrwt>
<pdfrwt beam="1">  1       -1 0.21972102E-02 0.20000085E+02</pdfrwt>
<totfact> 0.38044961E+06</totfact>
</mgrwt>
</event>
<event>
 5    1  0.1018607E-006  0.2000159E+02  0.7818608E-02  0.1745296E+00
          1   -1    0    0  501    0  0.00000000000E+00  0.00000000000E+00  0.30415770789E+02  0.30415771147E+02  0.46700000000E-02 0. -1.
         -1   -1    0    0    0  501 -0.00000000000E+00 -0.00000000000E+00 -0.32882903334E+01  0.32882936495E+01  0.46700000000E-02 0.  1.
       1023    2    1    2    0    0  0.00000000000E+00  0.00000000000E+00  0.27127480455E+02  0.33704064797E+02  0.20001594636E+02 0.  0.
        -11    1    3    3    0    0 -0.21699983547E+01 -0.97624510715E+01  0.13496275393E+02  0.16797731797E+02  0.51100000000E-03 0. -1.
         11    1    3    3    0    0  0.21699983547E+01  0.97624510715E+01  0.13631205062E+02  0.16906333000E+02  0.51100000000E-03 0.  1.
<mgrwt>
<rscale>  0 0.20001595E+02</rscale>
<asrwt>0</asrwt>
<pdfrwt beam="1">  1        1 0.46793495E-02 0.20001595E+02</pdfrwt>
<pdfrwt beam="2">  1       -1 0.50589111E-03 0.20001595E+02</pdfrwt>
<totfact> 0.40478037E+06</totfact>
</mgrwt>
</event>
<event>
 5    1  0.9964644E-007  0.2000163E+02  0.7818608E-02  0.1745296E+00
         -1   -1    0    0    0  501 -0.00000000000E+00  0.00000000000E+00  0.20600704591E+01  0.20600757524E+01  0.46700000000E-02 0.  1.
          1   -1    0    0  501    0  0.00000000000E+00 -0.00000000000E+00 -0.48549892446E+02  0.48549892671E+02  0.46700000000E-02 0. -1.
       1023    2    1    2    0    0  0.00000000000E+00  0.00000000000E+00 -0.46489821987E+02  0.50609968423E+02  0.20001633818E+02 0.  0.
        -11    1    3    3    0    0 -0.58876991639E+01 -0.80839442467E+01 -0.23157898379E+02  0.25225055275E+02  0.51100000000E-03 0. -1.
         11    1    3    3    0    0  0.58876991639E+01  0.80839442467E+01 -0.23331923607E+02  0.25384913148E+02  0.51100000000E-03 0.  1.
<mgrwt>
<rscale>  0 0.20001634E+02</rscale>
<asrwt>0</asrwt>
<pdfrwt beam="2">  1        1 0.74692138E-02 0.20001634E+02</pdfrwt>
<pdfrwt beam="1">  1       -1 0.31693438E-03 0.20001634E+02</pdfrwt>
<totfact> 0.41621912E+06</totfact>
</mgrwt>
</event>
<event>
 5    1  0.9794048E-007  0.2000067E+02  0.7818608E-02  0.1745315E+00
         -1   -1    0    0    0  501 -0.00000000000E+00  0.00000000000E+00  0.29063653217E+01  0.29063690736E+01  0.46700000000E-02 0. -1.
          1   -1    0    0  501    0  0.00000000000E+00 -0.00000000000E+00 -0.34409519162E+02  0.34409519479E+02  0.46700000000E-02 0.  1.
       1023    2    1    2    0    0  0.00000000000E+00  0.00000000000E+00 -0.31503153840E+02  0.37315888553E+02  0.20000670903E+02 0.  0.
        -11    1    3    3    0    0 -0.98119443423E+01 -0.19302776248E+01 -0.15901827983E+02  0.18784790575E+02  0.51100000000E-03 0.  1.
         11    1    3    3    0    0  0.98119443423E+01  0.19302776248E+01 -0.15601325858E+02  0.18531097978E+02  0.51100000000E-03 0. -1.
<mgrwt>
<rscale>  0 0.20000671E+02</rscale>
<asrwt>0</asrwt>
<pdfrwt beam="2">  1        1 0.52937722E-02 0.20000671E+02</pdfrwt>
<pdfrwt beam="1">  1       -1 0.44713346E-03 0.20000671E+02</pdfrwt>
<totfact> 0.40749644E+06</totfact>
</mgrwt>
</event>
<event>
 5    1  0.9583198E-007  0.2000010E+02  0.7818608E-02  0.1745326E+00
         -1   -1    0    0    0  501 -0.00000000000E+00  0.00000000000E+00  0.87843038800E+02  0.87843038924E+02  0.46700000000E-02 0. -1.
          1   -1    0    0  501    0  0.00000000000E+00 -0.00000000000E+00 -0.11384004024E+01  0.11384099811E+01  0.46700000000E-02 0.  1.
       1023    2    1    2    0    0  0.00000000000E+00  0.00000000000E+00  0.86704638398E+02  0.88981448905E+02  0.20000098241E+02 0.  0.
        -11    1    3    3    0    0  0.46116549635E+01 -0.88731845484E+01  0.43286838842E+02  0.44426919572E+02  0.51100000000E-03 0.  1.
         11    1    3    3    0    0 -0.46116549635E+01  0.88731845484E+01  0.43417799556E+02  0.44554529333E+02  0.51100000000E-03 0. -1.
<mgrwt>
<rscale>  0 0.20000098E+02</rscale>
<asrwt>0</asrwt>
<pdfrwt beam="2">  1        1 0.17513923E-03 0.20000098E+02</pdfrwt>
<pdfrwt beam="1">  1       -1 0.13514317E-01 0.20000098E+02</pdfrwt>
<totfact> 0.32538732E+06</totfact>
</mgrwt>
</event>
<event>
 5    1  0.9583198E-007  0.2000684E+02  0.7818608E-02  0.1745192E+00
          1   -1    0    0  501    0  0.00000000000E+00  0.00000000000E+00  0.93036345176E+02  0.93036345293E+02  0.46700000000E-02 0. -1.
         -1   -1    0    0    0  501 -0.00000000000E+00 -0.00000000000E+00 -0.10755791117E+01  0.10755892498E+01  0.46700000000E-02 0.  1.
       1023    2    1    2    0    0  0.00000000000E+00  0.00000000000E+00  0.91960766064E+02  0.94111934543E+02  0.20006842037E+02 0.  0.
        -11    1    3    3    0    0 -0.98575921391E+01 -0.16956695210E+01  0.45298484818E+02  0.46389655581E+02  0.51100000000E-03 0. -1.
         11    1    3    3    0    0  0.98575921391E+01  0.16956695210E+01  0.46662281247E+02  0.47722278962E+02  0.51100000000E-03 0.  1.
<mgrwt>
<rscale>  0 0.20006842E+02</rscale>
<asrwt>0</asrwt>
<pdfrwt beam="1">  1        1 0.14313287E-01 0.20006842E+02</pdfrwt>
<pdfrwt beam="2">  1       -1 0.16547447E-03 0.20006842E+02</pdfrwt>
<totfact> 0.43985921E+06</totfact>
</mgrwt>
</event>
<event>
 5    1  0.9748278E-007  0.2000069E+02  0.7818608E-02  0.1745314E+00
          1   -1    0    0  501    0  0.00000000000E+00  0.00000000000E+00  0.40085432474E+02  0.40085432746E+02  0.46700000000E-02 0. -1.
         -1   -1    0    0    0  501 -0.00000000000E+00 -0.00000000000E+00 -0.24948417490E+01  0.24948461198E+01  0.46700000000E-02 0.  1.
       1023    2    1    2    0    0  0.00000000000E+00  0.00000000000E+00  0.37590590725E+02  0.42580278866E+02  0.20000690919E+02 0.  0.
        -11    1    3    3    0    0 -0.72146748414E+01 -0.69249797235E+01  0.18783287885E+02  0.21279539028E+02  0.51100000000E-03 0. -1.
         11    1    3    3    0    0  0.72146748414E+01  0.69249797235E+01  0.18807302841E+02  0.21300739838E+02  0.51100000000E-03 0.  1.
<mgrwt>
<rscale>  0 0.20000691E+02</rscale>
<asrwt>0</asrwt>
<pdfrwt beam="1">  1        1 0.61669897E-02 0.20000691E+02</pdfrwt>
<pdfrwt beam="2">  1       -1 0.38382218E-03 0.20000691E+02</pdfrwt>
<totfact> 0.41112557E+06</totfact>
</mgrwt>
</event>
<event>
 5    1  0.9583198E-007  0.2000415E+02  0.7818608E-02  0.1745246E+00
          1   -1    0    0  501    0  0.00000000000E+00  0.00000000000E+00  0.47888690742E+02  0.47888690970E+02  0.46700000000E-02 0.  1.
         -1   -1    0    0    0  501 -0.00000000000E+00 -0.00000000000E+00 -0.20890395500E+01  0.20890447698E+01  0.46700000000E-02 0. -1.
       1023    2    1    2    0    0  0.00000000000E+00  0.00000000000E+00  0.45799651192E+02  0.49977735740E+02  0.20004150078E+02 0.  0.
        -11    1    3    3    0    0  0.33921865194E+01 -0.94085482567E+01  0.23193265789E+02  0.25257776781E+02  0.51100000000E-03 0. -1.
         11    1    3    3    0    0 -0.33921865194E+01  0.94085482567E+01  0.22606385403E+02  0.24719958959E+02  0.51100000000E-03 0.  1.
<mgrwt>
<rscale>  0 0.20004150E+02</rscale>
<asrwt>0</asrwt>
<pdfrwt beam="1">  1        1 0.73674911E-02 0.20004150E+02</pdfrwt>
<pdfrwt beam="2">  1       -1 0.32139113E-03 0.20004150E+02</pdfrwt>
<totfact> 0.41571136E+06</totfact>
</mgrwt>
</event>
<event>
 5    1  0.9583198E-007  0.2000129E+02  0.7818608E-02  0.1745302E+00
          1   -1    0    0  501    0  0.00000000000E+00  0.00000000000E+00  0.93605010015E+00  0.93606174951E+00  0.46700000000E-02 0. -1.
         -1   -1    0    0    0  501 -0.00000000000E+00 -0.00000000000E+00 -0.10684501212E+03  0.10684501222E+03  0.46700000000E-02 0.  1.
       1023    2    1    2    0    0  0.00000000000E+00  0.00000000000E+00 -0.10590896202E+03  0.10778107397E+03  0.20001291717E+02 0.  0.
        -11    1    3    3    0    0  0.94006526583E+01 -0.34117248046E+01 -0.52803907740E+02  0.53742579111E+02  0.51100000000E-03 0.  1.
         11    1    3    3    0    0 -0.94006526583E+01  0.34117248046E+01 -0.53105054276E+02  0.54038494858E+02  0.51100000000E-03 0. -1.
<mgrwt>
<rscale>  0 0.20001292E+02</rscale>
<asrwt>0</asrwt>
<pdfrwt beam="1">  1        1 0.14400870E-03 0.20001292E+02</pdfrwt>
<pdfrwt beam="2">  1       -1 0.16437685E-01 0.20001292E+02</pdfrwt>
<totfact> 0.31500894E+06</totfact>
</mgrwt>
</event>
<event>
 5    1  0.9583198E-007  0.2000051E+02  0.7818608E-02  0.1745318E+00
          1   -1    0    0  501    0  0.00000000000E+00  0.00000000000E+00  0.12629658119E+01  0.12629744459E+01  0.46700000000E-02 0. -1.
         -1   -1    0    0    0  501 -0.00000000000E+00 -0.00000000000E+00 -0.79182473939E+02  0.79182474077E+02  0.46700000000E-02 0.  1.
       1023    2    1    2    0    0  0.00000000000E+00  0.00000000000E+00 -0.77919508127E+02  0.80445448523E+02  0.20000511024E+02 0.  0.
        -11    1    3    3    0    0 -0.25814562294E+01 -0.96611486569E+01 -0.39194299009E+02  0.40449904632E+02  0.51100000000E-03 0.  1.
         11    1    3    3    0    0  0.25814562294E+01  0.96611486569E+01 -0.38725209118E+02  0.39995543891E+02  0.51100000000E-03 0. -1.
<mgrwt>
<rscale>  0 0.20000511E+02</rscale>
<asrwt>0</asrwt>
<pdfrwt beam="1">  1        1 0.19430317E-03 0.20000511E+02</pdfrwt>
<pdfrwt beam="2">  1       -1 0.12181916E-01 0.20000511E+02</pdfrwt>
<totfact> 0.33039968E+06</totfact>
</mgrwt>
</event>
<event>
 5    1  0.9583198E-007  0.2000075E+02  0.7818608E-02  0.1745313E+00
          1   -1    0    0  501    0  0.00000000000E+00  0.00000000000E+00  0.14464457928E+01  0.14464533315E+01  0.46700000000E-02 0. -1.
         -1   -1    0    0    0  501 -0.00000000000E+00 -0.00000000000E+00 -0.69139958115E+02  0.69139958272E+02  0.46700000000E-02 0.  1.
       1023    2    1    2    0    0  0.00000000000E+00  0.00000000000E+00 -0.67693512322E+02  0.70586411604E+02  0.20000747302E+02 0.  0.
        -11    1    3    3    0    0 -0.17687416962E+01 -0.98426947646E+01 -0.33777465201E+02  0.35226754649E+02  0.51100000000E-03 0.  1.
         11    1    3    3    0    0  0.17687416962E+01  0.98426947646E+01 -0.33916047121E+02  0.35359656955E+02  0.51100000000E-03 0. -1.
<mgrwt>
<rscale>  0 0.20000747E+02</rscale>
<asrwt>0</asrwt>
<pdfrwt beam="1">  1        1 0.22253077E-03 0.20000747E+02</pdfrwt>
<pdfrwt beam="2">  1       -1 0.10636915E-01 0.20000747E+02</pdfrwt>
<totfact> 0.33651445E+06</totfact>
</mgrwt>
</event>
<event>
 5    1  0.9774494E-007  0.2000130E+02  0.7818608E-02  0.1745302E+00
          1   -1    0    0  501    0  0.00000000000E+00  0.00000000000E+00  0.15841711260E+02  0.15841711948E+02  0.46700000000E-02 0. -1.
         -1   -1    0    0    0  501 -0.00000000000E+00 -0.00000000000E+00 -0.63132705967E+01  0.63132723239E+01  0.46700000000E-02 0.  1.
       1023    2    1    2    0    0  0.00000000000E+00  0.00000000000E+00  0.95284406630E+01  0.22154984272E+02  0.20001303623E+02 0.  0.
        -11    1    3    3    0    0 -0.99310816161E+01  0.11751843329E+01  0.46813581468E+01  0.11041854674E+02  0.51100000000E-03 0.  1.
         11    1    3    3    0    0  0.99310816161E+01 -0.11751843329E+01  0.48470825162E+01  0.11113129598E+02  0.51100000000E-03 0. -1.
<mgrwt>
<rscale>  0 0.20001304E+02</rscale>
<asrwt>0</asrwt>
<pdfrwt beam="1">  1        1 0.24371865E-02 0.20001304E+02</pdfrwt>
<pdfrwt beam="2">  1       -1 0.97127260E-03 0.20001304E+02</pdfrwt>
<totfact> 0.39323784E+06</totfact>
</mgrwt>
</event>
<event>
 5    1  0.9583198E-007  0.2000671E+02  0.7818608E-02  0.1745195E+00
         -1   -1    0    0    0  501 -0.00000000000E+00  0.00000000000E+00  0.38430328367E+02  0.38430328651E+02  0.46700000000E-02 0. -1.
          1   -1    0    0  501    0  0.00000000000E+00 -0.00000000000E+00 -0.26038556253E+01  0.26038598131E+01  0.46700000000E-02 0.  1.
       1023    2    1    2    0    0  0.00000000000E+00  0.00000000000E+00  0.35826472742E+02  0.41034188464E+02  0.20006710718E+02 0.  0.
        -11    1    3    3    0    0 -0.96846770477E+01 -0.25039358522E+01  0.18050116684E+02  0.20636602842E+02  0.51100000000E-03 0. -1.
         11    1    3    3    0    0  0.96846770477E+01  0.25039358522E+01  0.17776356058E+02  0.20397585622E+02  0.51100000000E-03 0.  1.
<mgrwt>
<rscale>  0 0.20006711E+02</rscale>
<asrwt>0</asrwt>
<pdfrwt beam="2">  1        1 0.40059352E-03 0.20006711E+02</pdfrwt>
<pdfrwt beam="1">  1       -1 0.59123584E-02 0.20006711E+02</pdfrwt>
<totfact> 0.35767122E+06</totfact>
</mgrwt>
</event>
<event>
 5    1  0.9583198E-007  0.2000275E+02  0.7818608E-02  0.1745273E+00
         -1   -1    0    0    0  501 -0.00000000000E+00  0.00000000000E+00  0.10740703789E+03  0.10740703799E+03  0.46700000000E-02 0.  1.
          1   -1    0    0  501    0  0.00000000000E+00 -0.00000000000E+00 -0.93128763415E+00  0.93129934308E+00  0.46700000000E-02 0. -1.
       1023    2    1    2    0    0  0.00000000000E+00  0.00000000000E+00  0.10647575026E+03  0.10833833734E+03  0.20002748408E+02 0.  0.
        -11    1    3    3    0    0  0.11015799526E+01 -0.99399265775E+01  0.52647861404E+02  0.53589298647E+02  0.51100000000E-03 0. -1.
         11    1    3    3    0    0 -0.11015799526E+01  0.99399265775E+01  0.53827888855E+02  0.54749038691E+02  0.51100000000E-03 0.  1.
<mgrwt>
<rscale>  0 0.20002748E+02</rscale>
<asrwt>0</asrwt>
<pdfrwt beam="2">  1        1 0.14327588E-03 0.20002748E+02</pdfrwt>
<pdfrwt beam="1">  1       -1 0.16524166E-01 0.20002748E+02</pdfrwt>
<totfact> 0.31466559E+06</totfact>
</mgrwt>
</event>
<event>
 5    1  0.9583198E-007  0.2000267E+02  0.7818608E-02  0.1745275E+00
          1   -1    0    0  501    0  0.00000000000E+00  0.00000000000E+00  0.82534998470E+01  0.82535011682E+01  0.46700000000E-02 0.  1.
         -1   -1    0    0    0  501 -0.00000000000E+00 -0.00000000000E+00 -0.12119304898E+02  0.12119305797E+02  0.46700000000E-02 0. -1.
       1023    2    1    2    0    0  0.00000000000E+00  0.00000000000E+00 -0.38658050507E+01  0.20372806966E+02  0.20002670196E+02 0.  0.
        -11    1    3    3    0    0 -0.67937247091E+01 -0.73397381109E+01 -0.19167175407E+01  0.10183332330E+02  0.51100000000E-03 0. -1.
         11    1    3    3    0    0  0.67937247091E+01  0.73397381109E+01 -0.19490875100E+01  0.10189474635E+02  0.51100000000E-03 0.  1.
<mgrwt>
<rscale>  0 0.20002670E+02</rscale>
<asrwt>0</asrwt>
<pdfrwt beam="1">  1        1 0.12697694E-02 0.20002670E+02</pdfrwt>
<pdfrwt beam="2">  1       -1 0.18645086E-02 0.20002670E+02</pdfrwt>
<totfact> 0.38308548E+06</totfact>
</mgrwt>
</event>
<event>
 5    1  0.9583198E-007  0.2000082E+02  0.7818608E-02  0.1745312E+00
         -1   -1    0    0    0  501 -0.00000000000E+00  0.00000000000E+00  0.92211631997E+01  0.92211643823E+01  0.46700000000E-02 0. -1.
          1   -1    0    0  501    0  0.00000000000E+00 -0.00000000000E+00 -0.10845507342E+02  0.10845508348E+02  0.46700000000E-02 0.  1.
       1023    2    1    2    0    0  0.00000000000E+00  0.00000000000E+00 -0.16243441426E+01  0.20066672730E+02  0.20000821497E+02 0.  0.
        -11    1    3    3    0    0 -0.39379905160E+01  0.91923440496E+01 -0.84773521060E+00  0.10036215107E+02  0.51100000000E-03 0.  1.
         11    1    3    3    0    0  0.39379905160E+01 -0.91923440496E+01 -0.77660893196E+00  0.10030457623E+02  0.51100000000E-03 0. -1.
<mgrwt>
<rscale>  0 0.20000821E+02</rscale>
<asrwt>0</asrwt>
<pdfrwt beam="2">  1        1 0.16685398E-02 0.20000821E+02</pdfrwt>
<pdfrwt beam="1">  1       -1 0.14186407E-02 0.20000821E+02</pdfrwt>
<totfact> 0.38745424E+06</totfact>
</mgrwt>
</event>
<event>
 5    1  0.9583198E-007  0.2000654E+02  0.7818608E-02  0.1745198E+00
         -1   -1    0    0    0  501 -0.00000000000E+00  0.00000000000E+00  0.11354224094E+01  0.11354320133E+01  0.46700000000E-02 0. -1.
          1   -1    0    0  501    0  0.00000000000E+00 -0.00000000000E+00 -0.88130215307E+02  0.88130215431E+02  0.46700000000E-02 0.  1.
       1023    2    1    2    0    0  0.00000000000E+00  0.00000000000E+00 -0.86994792898E+02  0.89265647444E+02  0.20006544487E+02 0.  0.
        -11    1    3    3    0    0  0.91282420084E+01  0.40915147971E+01 -0.43553802391E+02  0.44687794737E+02  0.51100000000E-03 0. -1.
         11    1    3    3    0    0 -0.91282420084E+01 -0.40915147971E+01 -0.43440990507E+02  0.44577852707E+02  0.51100000000E-03 0.  1.
<mgrwt>
<rscale>  0 0.20006544E+02</rscale>
<asrwt>0</asrwt>
<pdfrwt beam="2">  1        1 0.13558490E-01 0.20006544E+02</pdfrwt>
<pdfrwt beam="1">  1       -1 0.17468119E-03 0.20006544E+02</pdfrwt>
<totfact> 0.43742306E+06</totfact>
</mgrwt>
</event>
<event>
 5    1  0.9583198E-007  0.2000229E+02  0.7818608E-02  0.1745282E+00
         -1   -1    0    0    0  501 -0.00000000000E+00  0.00000000000E+00  0.37947525698E+02  0.37947525985E+02  0.46700000000E-02 0.  1.
          1   -1    0    0  501    0  0.00000000000E+00 -0.00000000000E+00 -0.26358200220E+01  0.26358241590E+01  0.46700000000E-02 0. -1.
       1023    2    1    2    0    0  0.00000000000E+00  0.00000000000E+00  0.35311705676E+02  0.40583350144E+02  0.20002293648E+02 0.  0.
        -11    1    3    3    0    0  0.50612132416E+00 -0.99876659360E+01  0.17889910437E+02  0.20495329355E+02  0.51100000000E-03 0. -1.
         11    1    3    3    0    0 -0.50612132416E+00  0.99876659360E+01  0.17421795239E+02  0.20088020790E+02  0.51100000000E-03 0.  1.
<mgrwt>
<rscale>  0 0.20002294E+02</rscale>
<asrwt>0</asrwt>
<pdfrwt beam="2">  1        1 0.40551109E-03 0.20002294E+02</pdfrwt>
<pdfrwt beam="1">  1       -1 0.58380815E-02 0.20002294E+02</pdfrwt>
<totfact> 0.35822499E+06</totfact>
</mgrwt>
</event>
<event>
 5    1  0.9583198E-007  0.2000256E+02  0.7818608E-02  0.1745277E+00
          1   -1    0    0  501    0  0.00000000000E+00  0.00000000000E+00  0.13257028130E+01  0.13257110384E+01  0.46700000000E-02 0.  1.
         -1   -1    0    0    0  501 -0.00000000000E+00 -0.00000000000E+00 -0.75450733719E+02  0.75450733863E+02  0.46700000000E-02 0. -1.
       1023    2    1    2    0    0  0.00000000000E+00  0.00000000000E+00 -0.74125030906E+02  0.76776444902E+02  0.20002556960E+02 0.  0.
        -11    1    3    3    0    0 -0.91705609599E+01  0.39902492741E+01 -0.37314018081E+02  0.38631039634E+02  0.51100000000E-03 0.  1.
         11    1    3    3    0    0  0.91705609599E+01 -0.39902492741E+01 -0.36811012825E+02  0.38145405268E+02  0.51100000000E-03 0. -1.
<mgrwt>
<rscale>  0 0.20002557E+02</rscale>
<asrwt>0</asrwt>
<pdfrwt beam="1">  1        1 0.20395498E-03 0.20002557E+02</pdfrwt>
<pdfrwt beam="2">  1       -1 0.11607803E-01 0.20002557E+02</pdfrwt>
<totfact> 0.33256147E+06</totfact>
</mgrwt>
</event>
<event>
 5    1  0.9583198E-007  0.2000020E+02  0.7818608E-02  0.1745324E+00
          1   -1    0    0  501    0  0.00000000000E+00  0.00000000000E+00  0.40589689397E+02  0.40589689666E+02  0.46700000000E-02 0.  1.
         -1   -1    0    0    0  501 -0.00000000000E+00 -0.00000000000E+00 -0.24637260722E+01  0.24637304982E+01  0.46700000000E-02 0. -1.
       1023    2    1    2    0    0  0.00000000000E+00  0.00000000000E+00  0.38125963325E+02  0.43053420164E+02  0.20000197708E+02 0.  0.
        -11    1    3    3    0    0 -0.86532792480E+01  0.50121279249E+01  0.18985106060E+02  0.21457747330E+02  0.51100000000E-03 0.  1.
         11    1    3    3    0    0  0.86532792480E+01 -0.50121279249E+01  0.19140857265E+02  0.21595672834E+02  0.51100000000E-03 0. -1.
<mgrwt>
<rscale>  0 0.20000198E+02</rscale>
<asrwt>0</asrwt>
<pdfrwt beam="1">  1        1 0.62445678E-02 0.20000198E+02</pdfrwt>
<pdfrwt beam="2">  1       -1 0.37903515E-03 0.20000198E+02</pdfrwt>
<totfact> 0.41146259E+06</totfact>
</mgrwt>
</event>
<event>
 5    1  0.9583198E-007  0.2000143E+02  0.7818608E-02  0.1745300E+00
          1   -1    0    0  501    0  0.00000000000E+00  0.00000000000E+00  0.41504914571E+01  0.41504940844E+01  0.46700000000E-02 0. -1.
         -1   -1    0    0    0  501 -0.00000000000E+00 -0.00000000000E+00 -0.24096961316E+02  0.24096961769E+02  0.46700000000E-02 0.  1.
       1023    2    1    2    0    0  0.00000000000E+00  0.00000000000E+00 -0.19946469859E+02  0.28247455853E+02  0.20001427507E+02 0.  0.
        -11    1    3    3    0    0  0.98489817076E+01 -0.17342558150E+01 -0.10064667013E+02  0.14188291167E+02  0.51100000000E-03 0. -1.
         11    1    3    3    0    0 -0.98489817076E+01  0.17342558150E+01 -0.98818028465E+01  0.14059164686E+02  0.51100000000E-03 0.  1.
<mgrwt>
<rscale>  0 0.20001428E+02</rscale>
<asrwt>0</asrwt>
<pdfrwt beam="1">  1        1 0.63853740E-03 0.20001428E+02</pdfrwt>
<pdfrwt beam="2">  1       -1 0.37072249E-02 0.20001428E+02</pdfrwt>
<totfact> 0.37011112E+06</totfact>
</mgrwt>
</event>
<event>
 5    1  0.9719752E-007  0.2000058E+02  0.7818608E-02  0.1745316E+00
          1   -1    0    0  501    0  0.00000000000E+00  0.00000000000E+00  0.17576661118E+02  0.17576661738E+02  0.46700000000E-02 0. -1.
         -1   -1    0    0    0  501 -0.00000000000E+00 -0.00000000000E+00 -0.56896931692E+01  0.56896950857E+01  0.46700000000E-02 0.  1.
       1023    2    1    2    0    0  0.00000000000E+00  0.00000000000E+00  0.11886967948E+02  0.23266356824E+02  0.20000583812E+02 0.  0.
        -11    1    3    3    0    0  0.27345677478E+00  0.99963478057E+01  0.60178785744E+01  0.11671187209E+02  0.51100000000E-03 0. -1.
         11    1    3    3    0    0 -0.27345677478E+00 -0.99963478057E+01  0.58690893740E+01  0.11595169615E+02  0.51100000000E-03 0.  1.
<mgrwt>
<rscale>  0 0.20000584E+02</rscale>
<asrwt>0</asrwt>
<pdfrwt beam="1">  1        1 0.27041019E-02 0.20000584E+02</pdfrwt>
<pdfrwt beam="2">  1       -1 0.87533760E-03 0.20000584E+02</pdfrwt>
<totfact> 0.39491523E+06</totfact>
</mgrwt>
</event>
<event>
 5    1  0.9583198E-007  0.2000431E+02  0.7818608E-02  0.1745242E+00
         -1   -1    0    0    0  501 -0.00000000000E+00  0.00000000000E+00  0.59182064687E+02  0.59182064871E+02  0.46700000000E-02 0. -1.
          1   -1    0    0  501    0  0.00000000000E+00 -0.00000000000E+00 -0.16904252583E+01  0.16904317090E+01  0.46700000000E-02 0.  1.
       1023    2    1    2    0    0  0.00000000000E+00  0.00000000000E+00  0.57491639429E+02  0.60872496580E+02  0.20004305429E+02 0.  0.
        -11    1    3    3    0    0  0.99955309676E+01  0.31093390729E+00  0.29321089484E+02  0.30979567589E+02  0.51100000000E-03 0. -1.
         11    1    3    3    0    0 -0.99955309676E+01 -0.31093390729E+00  0.28170549945E+02  0.29892928991E+02  0.51100000000E-03 0.  1.
<mgrwt>
<rscale>  0 0.20004305E+02</rscale>
<asrwt>0</asrwt>
<pdfrwt beam="2">  1        1 0.26006597E-03 0.20004305E+02</pdfrwt>
<pdfrwt beam="1">  1       -1 0.91049322E-02 0.20004305E+02</pdfrwt>
<totfact> 0.34281371E+06</totfact>
</mgrwt>
</event>
<event>
 5    1  0.9583198E-007  0.2000225E+02  0.7818608E-02  0.1745283E+00
          1   -1    0    0  501    0  0.00000000000E+00  0.00000000000E+00  0.34512541206E+01  0.34512572802E+01  0.46700000000E-02 0.  1.
         -1   -1    0    0    0  501 -0.00000000000E+00 -0.00000000000E+00 -0.28981474807E+02  0.28981475183E+02  0.46700000000E-02 0. -1.
       1023    2    1    2    0    0  0.00000000000E+00  0.00000000000E+00 -0.25530220686E+02  0.32432732463E+02  0.20002249042E+02 0.  0.
        -11    1    3    3    0    0  0.23755829697E+01  0.97144906791E+01 -0.12908017641E+02  0.16328859216E+02  0.51100000000E-03 0.  1.
         11    1    3    3    0    0 -0.23755829697E+01 -0.97144906791E+01 -0.12622203045E+02  0.16103873247E+02  0.51100000000E-03 0. -1.
<mgrwt>
<rscale>  0 0.20002249E+02</rscale>
<asrwt>0</asrwt>
<pdfrwt beam="1">  1        1 0.53096246E-03 0.20002249E+02</pdfrwt>
<pdfrwt beam="2">  1       -1 0.44586885E-02 0.20002249E+02</pdfrwt>
<totfact> 0.36565970E+06</totfact>
</mgrwt>
</event>
<event>
 4    1  0.9583198E-007  0.2001266E+02  0.7818608E-02  0.1745076E+00
          1   -1    0    0  501    0  0.00000000000E+00  0.00000000000E+00  0.70721008299E+02  0.70721008453E+02  0.46700000000E-02 0. -1.
         -1   -1    0    0    0  501 -0.00000000000E+00 -0.00000000000E+00 -0.14157935402E+01  0.14158012422E+01  0.46700000000E-02 0.  1.
        -11    1    1    2    0    0 -0.98088033891E+01 -0.19783831981E+01  0.34661286592E+02  0.36076743374E+02  0.51100000000E-03 0. -1.
         11    1    1    2    0    0  0.98088033891E+01  0.19783831981E+01  0.34643928167E+02  0.36060066322E+02  0.51100000000E-03 0.  1.
<mgrwt>
<rscale>  0 0.20012659E+02</rscale>
<asrwt>0</asrwt>
<pdfrwt beam="1">  1        1 0.10880157E-01 0.20012659E+02</pdfrwt>
<pdfrwt beam="2">  1       -1 0.21781498E-03 0.20012659E+02</pdfrwt>
<totfact> 0.42812454E+06</totfact>
</mgrwt>
</event>
<event>
 5    1  0.9834667E-007  0.2000109E+02  0.7818608E-02  0.1745306E+00
         -1   -1    0    0    0  501 -0.00000000000E+00  0.00000000000E+00  0.25048441934E+01  0.25048485468E+01  0.46700000000E-02 0.  1.
          1   -1    0    0  501    0  0.00000000000E+00 -0.00000000000E+00 -0.39926952909E+02  0.39926953182E+02  0.46700000000E-02 0. -1.
       1023    2    1    2    0    0  0.00000000000E+00  0.00000000000E+00 -0.37422108716E+02  0.42431801729E+02  0.20001089401E+02 0.  0.
        -11    1    3    3    0    0  0.99428475229E+01 -0.10723447174E+01 -0.18652800966E+02  0.21164525135E+02  0.51100000000E-03 0. -1.
         11    1    3    3    0    0 -0.99428475229E+01  0.10723447174E+01 -0.18769307750E+02  0.21267276594E+02  0.51100000000E-03 0.  1.
<mgrwt>
<rscale>  0 0.20001089E+02</rscale>
<asrwt>0</asrwt>
<pdfrwt beam="2">  1        1 0.61426080E-02 0.20001089E+02</pdfrwt>
<pdfrwt beam="1">  1       -1 0.38536103E-03 0.20001089E+02</pdfrwt>
<totfact> 0.41100827E+06</totfact>
</mgrwt>
</event>
<event>
 5    1  0.9583198E-007  0.2000182E+02  0.7818608E-02  0.1745292E+00
         -1   -1    0    0    0  501 -0.00000000000E+00  0.00000000000E+00  0.15091789441E+02  0.15091790163E+02  0.46700000000E-02 0. -1.
          1   -1    0    0  501    0  0.00000000000E+00 -0.00000000000E+00 -0.66273258396E+01  0.66273274850E+01  0.46700000000E-02 0.  1.
       1023    2    1    2    0    0  0.00000000000E+00  0.00000000000E+00  0.84644636013E+01  0.21719117648E+02  0.20001823101E+02 0.  0.
        -11    1    3    3    0    0 -0.44155010007E+01 -0.89728148082E+01  0.43417737835E+01  0.10902249975E+02  0.51100000000E-03 0. -1.
         11    1    3    3    0    0  0.44155010007E+01  0.89728148082E+01  0.41226898178E+01  0.10816867673E+02  0.51100000000E-03 0.  1.
<mgrwt>
<rscale>  0 0.20001823E+02</rscale>
<asrwt>0</asrwt>
<pdfrwt beam="2">  1        1 0.10195888E-02 0.20001823E+02</pdfrwt>
<pdfrwt beam="1">  1       -1 0.23218139E-02 0.20001823E+02</pdfrwt>
<totfact> 0.37941512E+06</totfact>
</mgrwt>
</event>
<event>
 5    1  0.1007802E-006  0.2000101E+02  0.7818608E-02  0.1745308E+00
         -1   -1    0    0    0  501 -0.00000000000E+00  0.00000000000E+00  0.19565971084E+01  0.19566026816E+01  0.46700000000E-02 0.  1.
          1   -1    0    0  501    0  0.00000000000E+00 -0.00000000000E+00 -0.51114240442E+02  0.51114240655E+02  0.46700000000E-02 0. -1.
       1023    2    1    2    0    0  0.00000000000E+00  0.00000000000E+00 -0.49157643334E+02  0.53070843337E+02  0.20001012834E+02 0.  0.
        -11    1    3    3    0    0 -0.48744606135E+01  0.87320870099E+01 -0.24633104047E+02  0.26585701515E+02  0.51100000000E-03 0. -1.
         11    1    3    3    0    0  0.48744606135E+01 -0.87320870099E+01 -0.24524539287E+02  0.26485141822E+02  0.51100000000E-03 0.  1.
<mgrwt>
<rscale>  0 0.20001013E+02</rscale>
<asrwt>0</asrwt>
<pdfrwt beam="2">  1        1 0.78637287E-02 0.20001013E+02</pdfrwt>
<pdfrwt beam="1">  1       -1 0.30101542E-03 0.20001013E+02</pdfrwt>
<totfact> 0.41775257E+06</totfact>
</mgrwt>
</event>
<event>
 5    1  0.9583198E-007  0.2000042E+02  0.7818608E-02  0.1745320E+00
          1   -1    0    0  501    0  0.00000000000E+00  0.00000000000E+00  0.67855323257E+01  0.67855339327E+01  0.46700000000E-02 0.  1.
         -1   -1    0    0    0  501 -0.00000000000E+00 -0.00000000000E+00 -0.14737850749E+02  0.14737851489E+02  0.46700000000E-02 0. -1.
       1023    2    1    2    0    0  0.00000000000E+00  0.00000000000E+00 -0.79523184236E+01  0.21523385422E+02  0.20000418788E+02 0.  0.
        -11    1    3    3    0    0 -0.99617312107E+01 -0.87531091504E+00 -0.39288852089E+01  0.10744226224E+02  0.51100000000E-03 0.  1.
         11    1    3    3    0    0  0.99617312107E+01  0.87531091504E+00 -0.40234332146E+01  0.10779159198E+02  0.51100000000E-03 0. -1.
<mgrwt>
<rscale>  0 0.20000419E+02</rscale>
<asrwt>0</asrwt>
<pdfrwt beam="1">  1        1 0.10439282E-02 0.20000419E+02</pdfrwt>
<pdfrwt beam="2">  1       -1 0.22673618E-02 0.20000419E+02</pdfrwt>
<totfact> 0.37989022E+06</totfact>
</mgrwt>
</event>
<event>
 5    1  0.9583198E-007  0.2000002E+02  0.7818608E-02  0.1745328E+00
          1   -1    0    0  501    0  0.00000000000E+00  0.00000000000E+00  0.10589612095E+01  0.10589715067E+01  0.46700000000E-02 0. -1.
         -1   -1    0    0    0  501 -0.00000000000E+00 -0.00000000000E+00 -0.94431844148E+02  0.94431844263E+02  0.46700000000E-02 0.  1.
       1023    2    1    2    0    0  0.00000000000E+00  0.00000000000E+00 -0.93372882938E+02  0.95490815770E+02  0.20000015705E+02 0.  0.
        -11    1    3    3    0    0  0.68047929915E+01  0.73276828227E+01 -0.46704036872E+02  0.47762613031E+02  0.51100000000E-03 0. -1.
         11    1    3    3    0    0 -0.68047929915E+01 -0.73276828227E+01 -0.46668846067E+02  0.47728202739E+02  0.51100000000E-03 0.  1.
<mgrwt>
<rscale>  0 0.20000016E+02</rscale>
<asrwt>0</asrwt>
<pdfrwt beam="1">  1        1 0.16291799E-03 0.20000016E+02</pdfrwt>
<pdfrwt beam="2">  1       -1 0.14527970E-01 0.20000016E+02</pdfrwt>
<totfact> 0.32170526E+06</totfact>
</mgrwt>
</event>
<event>
 5    1  0.9583198E-007  0.2000045E+02  0.7818608E-02  0.1745319E+00
         -1   -1    0    0    0  501 -0.00000000000E+00  0.00000000000E+00  0.14764567314E+01  0.14764641169E+01  0.46700000000E-02 0. -1.
          1   -1    0    0  501    0  0.00000000000E+00 -0.00000000000E+00 -0.67732596703E+02  0.67732596864E+02  0.46700000000E-02 0.  1.
       1023    2    1    2    0    0  0.00000000000E+00  0.00000000000E+00 -0.66256139972E+02  0.69209060981E+02  0.20000450943E+02 0.  0.
        -11    1    3    3    0    0 -0.28893716969E+00  0.99959394904E+01 -0.33291047199E+02  0.34760554007E+02  0.51100000000E-03 0.  1.
         11    1    3    3    0    0  0.28893716969E+00 -0.99959394904E+01 -0.32965092773E+02  0.34448506974E+02  0.51100000000E-03 0. -1.
<mgrwt>
<rscale>  0 0.20000451E+02</rscale>
<asrwt>0</asrwt>
<pdfrwt beam="2">  1        1 0.10420398E-01 0.20000451E+02</pdfrwt>
<pdfrwt beam="1">  1       -1 0.22714782E-03 0.20000451E+02</pdfrwt>
<totfact> 0.42709626E+06</totfact>
</mgrwt>
</event>
<event>
 5    1  0.9583198E-007  0.2000500E+02  0.7818608E-02  0.1745229E+00
         -1   -1    0    0    0  501 -0.00000000000E+00  0.00000000000E+00  0.83361523415E+02  0.83361523546E+02  0.46700000000E-02 0. -1.
          1   -1    0    0  501    0  0.00000000000E+00 -0.00000000000E+00 -0.12001898277E+01  0.12001989132E+01  0.46700000000E-02 0.  1.
       1023    2    1    2    0    0  0.00000000000E+00  0.00000000000E+00  0.82161333588E+02  0.84561722459E+02  0.20005003584E+02 0.  0.
        -11    1    3    3    0    0 -0.72137035128E+01  0.69290318743E+01  0.40944299913E+02  0.42148365291E+02  0.51100000000E-03 0.  1.
         11    1    3    3    0    0  0.72137035128E+01 -0.69290318743E+01  0.41217033674E+02  0.42413357168E+02  0.51100000000E-03 0. -1.
<mgrwt>
<rscale>  0 0.20005004E+02</rscale>
<asrwt>0</asrwt>
<pdfrwt beam="2">  1        1 0.18464528E-03 0.20005004E+02</pdfrwt>
<pdfrwt beam="1">  1       -1 0.12824851E-01 0.20005004E+02</pdfrwt>
<totfact> 0.32778547E+06</totfact>
</mgrwt>
</event>
<event>
 5    1  0.9583198E-007  0.2000612E+02  0.7818608E-02  0.1745206E+00
          1   -1    0    0  501    0  0.00000000000E+00  0.00000000000E+00  0.29212699046E+01  0.29212736374E+01  0.46700000000E-02 0.  1.
         -1   -1    0    0    0  501 -0.00000000000E+00 -0.00000000000E+00 -0.34252632262E+02  0.34252632580E+02  0.46700000000E-02 0. -1.
       1023    2    1    2    0    0  0.00000000000E+00  0.00000000000E+00 -0.31331362357E+02  0.37173906217E+02  0.20006124970E+02 0.  0.
        -11    1    3    3    0    0  0.98633261861E+01 -0.16658291759E+01 -0.15604942348E+02  0.18535760471E+02  0.51100000000E-03 0.  1.
         11    1    3    3    0    0 -0.98633261861E+01  0.16658291759E+01 -0.15726420009E+02  0.18638145746E+02  0.51100000000E-03 0. -1.
<mgrwt>
<rscale>  0 0.20006125E+02</rscale>
<asrwt>0</asrwt>
<pdfrwt beam="1">  1        1 0.44942648E-03 0.20006125E+02</pdfrwt>
<pdfrwt beam="2">  1       -1 0.52696358E-02 0.20006125E+02</pdfrwt>
<totfact> 0.36104427E+06</totfact>
</mgrwt>
</event>
<event>
 4    1  0.9583198E-007  0.2005647E+02  0.7818608E-02  0.1744208E+00
          1   -1    0    0  501    0  0.00000000000E+00  0.00000000000E+00  0.42615459406E+01  0.42615484994E+01  0.46700000000E-02 0.  1.
         -1   -1    0    0    0  501 -0.00000000000E+00 -0.00000000000E+00 -0.23598340700E+02  0.23598341162E+02  0.46700000000E-02 0. -1.
        -11    1    1    2    0    0  0.81793831539E+01 -0.58019467806E+01 -0.96355373263E+01  0.13907137558E+02  0.51100000000E-03 0.  1.
         11    1    1    2    0    0 -0.81793831539E+01  0.58019467806E+01 -0.97012574333E+01  0.13952752104E+02  0.51100000000E-03 0. -1.
<mgrwt>
<rscale>  0 0.20056466E+02</rscale>
<asrwt>0</asrwt>
<pdfrwt beam="1">  1        1 0.65562270E-03 0.20056466E+02</pdfrwt>
<pdfrwt beam="2">  1       -1 0.36305141E-02 0.20056466E+02</pdfrwt>
<totfact> 0.36834865E+06</totfact>
</mgrwt>
</event>
<event>
 5    1  0.9583198E-007  0.2000235E+02  0.7818608E-02  0.1745281E+00
         -1   -1    0    0    0  501 -0.00000000000E+00  0.00000000000E+00  0.22857501465E+02  0.22857501942E+02  0.46700000000E-02 0. -1.
          1   -1    0    0  501    0  0.00000000000E+00 -0.00000000000E+00 -0.43759586114E+01  0.43759611033E+01  0.46700000000E-02 0.  1.
       1023    2    1    2    0    0  0.00000000000E+00  0.00000000000E+00  0.18481542853E+02  0.27233463045E+02  0.20002351941E+02 0.  0.
        -11    1    3    3    0    0 -0.56869875574E+01  0.82259969974E+01  0.90758851868E+01  0.13504834181E+02  0.51100000000E-03 0.  1.
         11    1    3    3    0    0  0.56869875574E+01 -0.82259969974E+01  0.94056576665E+01  0.13728628864E+02  0.51100000000E-03 0. -1.
<mgrwt>
<rscale>  0 0.20002352E+02</rscale>
<asrwt>0</asrwt>
<pdfrwt beam="2">  1        1 0.67322462E-03 0.20002352E+02</pdfrwt>
<pdfrwt beam="1">  1       -1 0.35165390E-02 0.20002352E+02</pdfrwt>
<totfact> 0.37124983E+06</totfact>
</mgrwt>
</event>
<event>
 4    1  0.9583198E-007  0.2003578E+02  0.7818608E-02  0.1744617E+00
          1   -1    0    0  501    0  0.00000000000E+00  0.00000000000E+00  0.53378353948E+01  0.53378374376E+01  0.46700000000E-02 0. -1.
         -1   -1    0    0    0  501 -0.00000000000E+00 -0.00000000000E+00 -0.18801270892E+02  0.18801271472E+02  0.46700000000E-02 0.  1.
        -11    1    1    2    0    0  0.99504543497E+01  0.10981346169E+01 -0.62798306248E+01  0.11817517266E+02  0.51100000000E-03 0. -1.
         11    1    1    2    0    0 -0.99504543497E+01 -0.10981346169E+01 -0.71836048727E+01  0.12321591644E+02  0.51100000000E-03 0.  1.
<mgrwt>
<rscale>  0 0.20035780E+02</rscale>
<asrwt>0</asrwt>
<pdfrwt beam="1">  1        1 0.82120565E-03 0.20035780E+02</pdfrwt>
<pdfrwt beam="2">  1       -1 0.28925034E-02 0.20035780E+02</pdfrwt>
<totfact> 0.37393356E+06</totfact>
</mgrwt>
</event>
<event>
 5    1  0.9844690E-007  0.2000465E+02  0.7818608E-02  0.1745236E+00
          1   -1    0    0  501    0  0.00000000000E+00  0.00000000000E+00  0.10893032516E+03  0.10893032526E+03  0.46700000000E-02 0.  1.
         -1   -1    0    0    0  501 -0.00000000000E+00 -0.00000000000E+00 -0.91843860078E+00  0.91845047351E+00  0.46700000000E-02 0. -1.
       1023    2    1    2    0    0  0.00000000000E+00  0.00000000000E+00  0.10801188656E+03  0.10984877574E+03  0.20004646763E+02 0.  0.
        -11    1    3    3    0    0 -0.65467585338E+01 -0.75601961619E+01  0.54954810156E+02  0.55857387809E+02  0.51100000000E-03 0. -1.
         11    1    3    3    0    0  0.65467585338E+01  0.75601961619E+01  0.53057076406E+02  0.53991387927E+02  0.51100000000E-03 0.  1.
<mgrwt>
<rscale>  0 0.20004647E+02</rscale>
<asrwt>0</asrwt>
<pdfrwt beam="1">  1        1 0.16758516E-01 0.20004647E+02</pdfrwt>
<pdfrwt beam="2">  1       -1 0.14129914E-03 0.20004647E+02</pdfrwt>
<totfact> 0.44764417E+06</totfact>
</mgrwt>
</event>
<event>
 5    1  0.9583198E-007  0.2000099E+02  0.7818608E-02  0.1745308E+00
         -1   -1    0    0    0  501 -0.00000000000E+00  0.00000000000E+00  0.69966359693E+02  0.69966359848E+02  0.46700000000E-02 0. -1.
          1   -1    0    0  501    0  0.00000000000E+00 -0.00000000000E+00 -0.14293960607E+01  0.14294036894E+01  0.46700000000E-02 0.  1.
       1023    2    1    2    0    0  0.00000000000E+00  0.00000000000E+00  0.68536963632E+02  0.71395763538E+02  0.20000991658E+02 0.  0.
        -11    1    3    3    0    0 -0.95212548523E+01 -0.30582543492E+01  0.34082898686E+02  0.35519729683E+02  0.51100000000E-03 0.  1.
         11    1    3    3    0    0  0.95212548523E+01  0.30582543492E+01  0.34454064946E+02  0.35876033855E+02  0.51100000000E-03 0. -1.
<mgrwt>
<rscale>  0 0.20000992E+02</rscale>
<asrwt>0</asrwt>
<pdfrwt beam="2">  1        1 0.21990771E-03 0.20000992E+02</pdfrwt>
<pdfrwt beam="1">  1       -1 0.10764055E-01 0.20000992E+02</pdfrwt>
<totfact> 0.33598882E+06</totfact>
</mgrwt>
</event>
<event>
 5    1  0.9583198E-007  0.2000059E+02  0.7818608E-02  0.1745316E+00
         -1   -1    0    0    0  501 -0.00000000000E+00  0.00000000000E+00  0.86104134873E+00  0.86105401289E+00  0.46700000000E-02 0. -1.
          1   -1    0    0  501    0  0.00000000000E+00 -0.00000000000E+00 -0.11614439656E+03  0.11614439666E+03  0.46700000000E-02 0.  1.
       1023    2    1    2    0    0  0.00000000000E+00  0.00000000000E+00 -0.11528335521E+03  0.11700545067E+03  0.20000587416E+02 0.  0.
        -11    1    3    3    0    0 -0.39598930472E+01 -0.91827043929E+01 -0.57965345738E+02  0.58821629692E+02  0.51100000000E-03 0.  1.
         11    1    3    3    0    0  0.39598930472E+01  0.91827043929E+01 -0.57318009475E+02  0.58183820976E+02  0.51100000000E-03 0. -1.
<mgrwt>
<rscale>  0 0.20000587E+02</rscale>
<asrwt>0</asrwt>
<pdfrwt beam="2">  1        1 0.17868357E-01 0.20000587E+02</pdfrwt>
<pdfrwt beam="1">  1       -1 0.13246897E-03 0.20000587E+02</pdfrwt>
<totfact> 0.45120565E+06</totfact>
</mgrwt>
</event>
<event>
 5    1  0.9583198E-007  0.2000194E+02  0.7818608E-02  0.1745290E+00
          1   -1    0    0  501    0  0.00000000000E+00  0.00000000000E+00  0.57921738218E+01  0.57921757045E+01  0.46700000000E-02 0. -1.
         -1   -1    0    0    0  501 -0.00000000000E+00 -0.00000000000E+00 -0.17268018767E+02  0.17268019399E+02  0.46700000000E-02 0.  1.
       1023    2    1    2    0    0  0.00000000000E+00  0.00000000000E+00 -0.11475844945E+02  0.23060195103E+02  0.20001939431E+02 0.  0.
        -11    1    3    3    0    0 -0.91605925422E+01  0.40116216068E+01 -0.58522359281E+01  0.11586985340E+02  0.51100000000E-03 0.  1.
         11    1    3    3    0    0  0.91605925422E+01 -0.40116216068E+01 -0.56236090172E+01  0.11473209764E+02  0.51100000000E-03 0. -1.
<mgrwt>
<rscale>  0 0.20001939E+02</rscale>
<asrwt>0</asrwt>
<pdfrwt beam="1">  1        1 0.89110387E-03 0.20001939E+02</pdfrwt>
<pdfrwt beam="2">  1       -1 0.26566184E-02 0.20001939E+02</pdfrwt>
<totfact> 0.37695858E+06</totfact>
</mgrwt>
</event>
<event>
 5    1  0.9583198E-007  0.2000057E+02  0.7818608E-02  0.1745317E+00
         -1   -1    0    0    0  501 -0.00000000000E+00  0.00000000000E+00  0.10661715875E+03  0.10661715885E+03  0.46700000000E-02 0. -1.
          1   -1    0    0  501    0  0.00000000000E+00 -0.00000000000E+00 -0.93798275696E+00  0.93799438232E+00  0.46700000000E-02 0.  1.
       1023    2    1    2    0    0  0.00000000000E+00  0.00000000000E+00  0.10567917599E+03  0.10755515323E+03  0.20000568710E+02 0.  0.
        -11    1    3    3    0    0  0.26426257667E+01 -0.96448022995E+01  0.52828073824E+02  0.53766263275E+02  0.51100000000E-03 0.  1.
         11    1    3    3    0    0 -0.26426257667E+01  0.96448022995E+01  0.52851102166E+02  0.53788889956E+02  0.51100000000E-03 0. -1.
<mgrwt>
<rscale>  0 0.20000569E+02</rscale>
<asrwt>0</asrwt>
<pdfrwt beam="2">  1        1 0.14430593E-03 0.20000569E+02</pdfrwt>
<pdfrwt beam="1">  1       -1 0.16402642E-01 0.20000569E+02</pdfrwt>
<totfact> 0.31515288E+06</totfact>
</mgrwt>
</event>
<event>
 5    1  0.9583198E-007  0.2000024E+02  0.7818608E-02  0.1745323E+00
          1   -1    0    0  501    0  0.00000000000E+00  0.00000000000E+00  0.37313969809E+01  0.37313999032E+01  0.46700000000E-02 0.  1.
         -1   -1    0    0    0  501 -0.00000000000E+00 -0.00000000000E+00 -0.26800245419E+02  0.26800245826E+02  0.46700000000E-02 0. -1.
       1023    2    1    2    0    0  0.00000000000E+00  0.00000000000E+00 -0.23068848438E+02  0.30531645729E+02  0.20000240565E+02 0.  0.
        -11    1    3    3    0    0  0.78868656259E+01  0.61481340960E+01 -0.11556182030E+02  0.15282262451E+02  0.51100000000E-03 0. -1.
         11    1    3    3    0    0 -0.78868656259E+01 -0.61481340960E+01 -0.11512666408E+02  0.15249383278E+02  0.51100000000E-03 0.  1.
<mgrwt>
<rscale>  0 0.20000241E+02</rscale>
<asrwt>0</asrwt>
<pdfrwt beam="1">  1        1 0.57406135E-03 0.20000241E+02</pdfrwt>
<pdfrwt beam="2">  1       -1 0.41231148E-02 0.20000241E+02</pdfrwt>
<totfact> 0.36767599E+06</totfact>
</mgrwt>
</event>
<event>
 5    1  0.9583198E-007  0.2000035E+02  0.7818608E-02  0.1745321E+00
          1   -1    0    0  501    0  0.00000000000E+00  0.00000000000E+00  0.31576552965E+02  0.31576553310E+02  0.46700000000E-02 0.  1.
         -1   -1    0    0    0  501 -0.00000000000E+00 -0.00000000000E+00 -0.31670146294E+01  0.31670180725E+01  0.46700000000E-02 0. -1.
       1023    2    1    2    0    0  0.00000000000E+00  0.00000000000E+00  0.28409538335E+02  0.34743571382E+02  0.20000347097E+02 0.  0.
        -11    1    3    3    0    0 -0.95390713735E+01  0.30013256217E+01  0.14274959020E+02  0.17429179368E+02  0.51100000000E-03 0. -1.
         11    1    3    3    0    0  0.95390713735E+01 -0.30013256217E+01  0.14134579316E+02  0.17314392015E+02  0.51100000000E-03 0.  1.
<mgrwt>
<rscale>  0 0.20000347E+02</rscale>
<asrwt>0</asrwt>
<pdfrwt beam="1">  1        1 0.48579316E-02 0.20000347E+02</pdfrwt>
<pdfrwt beam="2">  1       -1 0.48723330E-03 0.20000347E+02</pdfrwt>
<totfact> 0.40562638E+06</totfact>
</mgrwt>
</event>
<event>
 5    1  0.9583198E-007  0.2000025E+02  0.7818608E-02  0.1745323E+00
         -1   -1    0    0    0  501 -0.00000000000E+00  0.00000000000E+00  0.99784734832E+01  0.99784745760E+01  0.46700000000E-02 0.  1.
          1   -1    0    0  501    0  0.00000000000E+00 -0.00000000000E+00 -0.10021818852E+02  0.10021819940E+02  0.46700000000E-02 0. -1.
       1023    2    1    2    0    0  0.00000000000E+00  0.00000000000E+00 -0.43345369051E-01  0.20000294516E+02  0.20000247546E+02 0.  0.
        -11    1    3    3    0    0 -0.87457533133E+01  0.48489530191E+01  0.22245768028E-01  0.10000052077E+02  0.51100000000E-03 0. -1.
         11    1    3    3    0    0  0.87457533133E+01 -0.48489530191E+01 -0.65591137079E-01  0.10000242440E+02  0.51100000000E-03 0.  1.
<mgrwt>
<rscale>  0 0.20000248E+02</rscale>
<asrwt>0</asrwt>
<pdfrwt beam="2">  1        1 0.15418185E-02 0.20000248E+02</pdfrwt>
<pdfrwt beam="1">  1       -1 0.15351499E-02 0.20000248E+02</pdfrwt>
<totfact> 0.38626255E+06</totfact>
</mgrwt>
</event>
<event>
 5    1  0.9583198E-007  0.2000059E+02  0.7818608E-02  0.1745316E+00
          1   -1    0    0  501    0  0.00000000000E+00  0.00000000000E+00  0.23031998107E+01  0.23032045452E+01  0.46700000000E-02 0.  1.
         -1   -1    0    0    0  501 -0.00000000000E+00 -0.00000000000E+00 -0.43420379297E+02  0.43420379548E+02  0.46700000000E-02 0. -1.
       1023    2    1    2    0    0  0.00000000000E+00  0.00000000000E+00 -0.41117179486E+02  0.45723584093E+02  0.20000592327E+02 0.  0.
        -11    1    3    3    0    0  0.25654638848E+01 -0.96656254722E+01 -0.20555060679E+02  0.22858618516E+02  0.51100000000E-03 0. -1.
         11    1    3    3    0    0 -0.25654638848E+01  0.96656254722E+01 -0.20562118807E+02  0.22864965577E+02  0.51100000000E-03 0.  1.
<mgrwt>
<rscale>  0 0.20000592E+02</rscale>
<asrwt>0</asrwt>
<pdfrwt beam="1">  1        1 0.35433885E-03 0.20000592E+02</pdfrwt>
<pdfrwt beam="2">  1       -1 0.66800581E-02 0.20000592E+02</pdfrwt>
<totfact> 0.35408047E+06</totfact>
</mgrwt>
</event>
<event>
 5    1  0.9583198E-007  0.2000263E+02  0.7818608E-02  0.1745276E+00
          1   -1    0    0  501    0  0.00000000000E+00  0.00000000000E+00  0.19451375836E+01  0.19451431896E+01  0.46700000000E-02 0.  1.
         -1   -1    0    0    0  501 -0.00000000000E+00 -0.00000000000E+00 -0.51423687981E+02  0.51423688193E+02  0.46700000000E-02 0. -1.
       1023    2    1    2    0    0  0.00000000000E+00  0.00000000000E+00 -0.49478550397E+02  0.53368831383E+02  0.20002630170E+02 0.  0.
        -11    1    3    3    0    0  0.96635239189E+00  0.99545051155E+01 -0.24693516880E+02  0.26641992891E+02  0.51100000000E-03 0.  1.
         11    1    3    3    0    0 -0.96635239189E+00 -0.99545051155E+01 -0.24785033518E+02  0.26726838492E+02  0.51100000000E-03 0. -1.
<mgrwt>
<rscale>  0 0.20002630E+02</rscale>
<asrwt>0</asrwt>
<pdfrwt beam="1">  1        1 0.29925242E-03 0.20002630E+02</pdfrwt>
<pdfrwt beam="2">  1       -1 0.79113360E-02 0.20002630E+02</pdfrwt>
<totfact> 0.34818774E+06</totfact>
</mgrwt>
</event>
<event>
 5    1  0.9583198E-007  0.2000027E+02  0.7818608E-02  0.1745323E+00
          1   -1    0    0  501    0  0.00000000000E+00  0.00000000000E+00  0.10664608191E+03  0.10664608201E+03  0.46700000000E-02 0. -1.
         -1   -1    0    0    0  501 -0.00000000000E+00 -0.00000000000E+00 -0.93770043616E+00  0.93771206502E+00  0.46700000000E-02 0.  1.
       1023    2    1    2    0    0  0.00000000000E+00  0.00000000000E+00  0.10570838147E+03  0.10758379407E+03  0.20000270854E+02 0.  0.
        -11    1    3    3    0    0 -0.30221272574E+01  0.95325170348E+01  0.52725303091E+02  0.53665256177E+02  0.51100000000E-03 0.  1.
         11    1    3    3    0    0  0.30221272574E+01 -0.95325170348E+01  0.52983078380E+02  0.53918537898E+02  0.51100000000E-03 0. -1.
<mgrwt>
<rscale>  0 0.20000271E+02</rscale>
<asrwt>0</asrwt>
<pdfrwt beam="1">  1        1 0.16407082E-01 0.20000271E+02</pdfrwt>
<pdfrwt beam="2">  1       -1 0.14426259E-03 0.20000271E+02</pdfrwt>
<totfact> 0.44678076E+06</totfact>
</mgrwt>
</event>
<event>
 5    1  0.9583198E-007  0.2000271E+02  0.7818608E-02  0.1745274E+00
          1   -1    0    0  501    0  0.00000000000E+00  0.00000000000E+00  0.74727266585E+02  0.74727266731E+02  0.46700000000E-02 0. -1.
         -1   -1    0    0    0  501 -0.00000000000E+00 -0.00000000000E+00 -0.13385586461E+01  0.13385667925E+01  0.46700000000E-02 0.  1.
       1023    2    1    2    0    0  0.00000000000E+00  0.00000000000E+00  0.73388707939E+02  0.76065833524E+02  0.20002714233E+02 0.  0.
        -11    1    3    3    0    0 -0.27392932900E+00  0.99974513154E+01  0.36483520053E+02  0.37829503113E+02  0.51100000000E-03 0. -1.
         11    1    3    3    0    0  0.27392932900E+00 -0.99974513154E+01  0.36905187886E+02  0.38236330411E+02  0.51100000000E-03 0.  1.
<mgrwt>
<rscale>  0 0.20002714E+02</rscale>
<asrwt>0</asrwt>
<pdfrwt beam="1">  1        1 0.11496503E-01 0.20002714E+02</pdfrwt>
<pdfrwt beam="2">  1       -1 0.20593273E-03 0.20002714E+02</pdfrwt>
<totfact> 0.43071841E+06</totfact>
</mgrwt>
</event>
<event>
 5    1  0.9688732E-007  0.2000058E+02  0.7818608E-02  0.1745317E+00
          1   -1    0    0  501    0  0.00000000000E+00  0.00000000000E+00  0.27792774097E+02  0.27792774489E+02  0.46700000000E-02 0. -1.
         -1   -1    0    0    0  501 -0.00000000000E+00 -0.00000000000E+00 -0.35982631901E+01  0.35982662206E+01  0.46700000000E-02 0.  1.
       1023    2    1    2    0    0  0.00000000000E+00  0.00000000000E+00  0.24194510906E+02  0.31391040709E+02  0.20000576962E+02 0.  0.
        -11    1    3    3    0    0 -0.53421277970E+01  0.84538334118E+01  0.12115871744E+02  0.15709868782E+02  0.51100000000E-03 0.  1.
         11    1    3    3    0    0  0.53421277970E+01 -0.84538334118E+01  0.12078639162E+02  0.15681171928E+02  0.51100000000E-03 0. -1.
<mgrwt>
<rscale>  0 0.20000577E+02</rscale>
<asrwt>0</asrwt>
<pdfrwt beam="1">  1        1 0.42758117E-02 0.20000577E+02</pdfrwt>
<pdfrwt beam="2">  1       -1 0.55357921E-03 0.20000577E+02</pdfrwt>
<totfact> 0.40299780E+06</totfact>
</mgrwt>
</event>
<event>
 5    1  0.9583198E-007  0.2000263E+02  0.7818608E-02  0.1745276E+00
          1   -1    0    0  501    0  0.00000000000E+00  0.00000000000E+00  0.49671330276E+02  0.49671330495E+02  0.46700000000E-02 0. -1.
         -1   -1    0    0    0  501 -0.00000000000E+00 -0.00000000000E+00 -0.20137598787E+01  0.20137652937E+01  0.46700000000E-02 0.  1.
       1023    2    1    2    0    0  0.00000000000E+00  0.00000000000E+00  0.47657570397E+02  0.51685095789E+02  0.20002627592E+02 0.  0.
        -11    1    3    3    0    0 -0.57363077420E+01 -0.81923096420E+01  0.24046718177E+02  0.26043498596E+02  0.51100000000E-03 0. -1.
         11    1    3    3    0    0  0.57363077420E+01  0.81923096420E+01  0.23610852220E+02  0.25641597193E+02  0.51100000000E-03 0.  1.
<mgrwt>
<rscale>  0 0.20002628E+02</rscale>
<asrwt>0</asrwt>
<pdfrwt beam="1">  1        1 0.76417431E-02 0.20002628E+02</pdfrwt>
<pdfrwt beam="2">  1       -1 0.30980966E-03 0.20002628E+02</pdfrwt>
<totfact> 0.41683372E+06</totfact>
</mgrwt>
</event>
<event>
 5    1  0.9583198E-007  0.2000042E+02  0.7818608E-02  0.1745320E+00
         -1   -1    0    0    0  501 -0.00000000000E+00  0.00000000000E+00  0.13615861496E+02  0.13615862296E+02  0.46700000000E-02 0. -1.
          1   -1    0    0  501    0  0.00000000000E+00 -0.00000000000E+00 -0.73446839957E+01  0.73446854803E+01  0.46700000000E-02 0.  1.
       1023    2    1    2    0    0  0.00000000000E+00  0.00000000000E+00  0.62711774999E+01  0.20960547777E+02  0.20000422392E+02 0.  0.
        -11    1    3    3    0    0 -0.58511171603E+01 -0.81097811730E+01  0.31461215285E+01  0.10483425186E+02  0.51100000000E-03 0. -1.
         11    1    3    3    0    0  0.58511171603E+01  0.81097811730E+01  0.31250559714E+01  0.10477122591E+02  0.51100000000E-03 0.  1.
<mgrwt>
<rscale>  0 0.20000422E+02</rscale>
<asrwt>0</asrwt>
<pdfrwt beam="2">  1        1 0.11299516E-02 0.20000422E+02</pdfrwt>
<pdfrwt beam="1">  1       -1 0.20947481E-02 0.20000422E+02</pdfrwt>
<totfact> 0.38125137E+06</totfact>
</mgrwt>
</event>
<event>
 5    1  0.9583198E-007  0.2000151E+02  0.7818608E-02  0.1745298E+00
         -1   -1    0    0    0  501 -0.00000000000E+00  0.00000000000E+00  0.15939906255E+02  0.15939906939E+02  0.46700000000E-02 0. -1.
          1   -1    0    0  501    0  0.00000000000E+00 -0.00000000000E+00 -0.62745052048E+01  0.62745069427E+01  0.46700000000E-02 0.  1.
       1023    2    1    2    0    0  0.00000000000E+00  0.00000000000E+00  0.96654010497E+01  0.22214413881E+02  0.20001505109E+02 0.  0.
        -11    1    3    3    0    0  0.97773482217E+01  0.21019150960E+01  0.48087230893E+01  0.11096774456E+02  0.51100000000E-03 0. -1.
         11    1    3    3    0    0 -0.97773482217E+01 -0.21019150960E+01  0.48566779604E+01  0.11117639425E+02  0.51100000000E-03 0.  1.
<mgrwt>
<rscale>  0 0.20001505E+02</rscale>
<asrwt>0</asrwt>
<pdfrwt beam="2">  1        1 0.96530868E-03 0.20001505E+02</pdfrwt>
<pdfrwt beam="1">  1       -1 0.24522934E-02 0.20001505E+02</pdfrwt>
<totfact> 0.37845198E+06</totfact>
</mgrwt>
</event>
<event>
 5    1  0.9583198E-007  0.2000017E+02  0.7818608E-02  0.1745325E+00
         -1   -1    0    0    0  501 -0.00000000000E+00  0.00000000000E+00  0.17569486127E+01  0.17569548191E+01  0.46700000000E-02 0.  1.
          1   -1    0    0  501    0  0.00000000000E+00 -0.00000000000E+00 -0.56917723559E+02  0.56917723750E+02  0.46700000000E-02 0. -1.
       1023    2    1    2    0    0  0.00000000000E+00  0.00000000000E+00 -0.55160774946E+02  0.58674678569E+02  0.20000170314E+02 0.  0.
        -11    1    3    3    0    0  0.82519691430E+01 -0.56485745504E+01 -0.27632347591E+02  0.29386187620E+02  0.51100000000E-03 0. -1.
         11    1    3    3    0    0 -0.82519691430E+01  0.56485745504E+01 -0.27528427355E+02  0.29288490950E+02  0.51100000000E-03 0.  1.
<mgrwt>
<rscale>  0 0.20000170E+02</rscale>
<asrwt>0</asrwt>
<pdfrwt beam="2">  1        1 0.87565719E-02 0.20000170E+02</pdfrwt>
<pdfrwt beam="1">  1       -1 0.27030032E-03 0.20000170E+02</pdfrwt>
<totfact> 0.42112398E+06</totfact>
</mgrwt>
</event>
<event>
 5    1  0.9583198E-007  0.2000109E+02  0.7818608E-02  0.1745306E+00
         -1   -1    0    0    0  501 -0.00000000000E+00  0.00000000000E+00  0.24626625832E+02  0.24626626275E+02  0.46700000000E-02 0.  1.
          1   -1    0    0  501    0  0.00000000000E+00 -0.00000000000E+00 -0.40610858687E+01  0.40610885538E+01  0.46700000000E-02 0. -1.
       1023    2    1    2    0    0  0.00000000000E+00  0.00000000000E+00  0.20565539963E+02  0.28687714828E+02  0.20001088673E+02 0.  0.
        -11    1    3    3    0    0 -0.89650783830E+01  0.44309555069E+01  0.10182474571E+02  0.14271958021E+02  0.51100000000E-03 0. -1.
         11    1    3    3    0    0  0.89650783830E+01 -0.44309555069E+01  0.10383065393E+02  0.14415756807E+02  0.51100000000E-03 0.  1.
<mgrwt>
<rscale>  0 0.20001089E+02</rscale>
<asrwt>0</asrwt>
<pdfrwt beam="2">  1        1 0.62478269E-03 0.20001089E+02</pdfrwt>
<pdfrwt beam="1">  1       -1 0.37887118E-02 0.20001089E+02</pdfrwt>
<totfact> 0.36962983E+06</totfact>
</mgrwt>
</event>
<event>
 4    1  0.9583198E-007  0.2001632E+02  0.7818608E-02  0.1745004E+00
          1   -1    0    0  501    0  0.00000000000E+00  0.00000000000E+00  0.15304730840E+02  0.15304731552E+02  0.46700000000E-02 0. -1.
         -1   -1    0    0    0  501 -0.00000000000E+00 -0.00000000000E+00 -0.65445951583E+01  0.65445968244E+01  0.46700000000E-02 0.  1.
        -11    1    1    2    0    0  0.81907575048E+01  0.57439429987E+01  0.46924633416E+01  0.11049914124E+02  0.51100000000E-03 0. -1.
         11    1    1    2    0    0 -0.81907575048E+01 -0.57439429987E+01  0.40676723399E+01  0.10799414253E+02  0.51100000000E-03 0.  1.
<mgrwt>
<rscale>  0 0.20016323E+02</rscale>
<asrwt>0</asrwt>
<pdfrwt beam="1">  1        1 0.23545741E-02 0.20016323E+02</pdfrwt>
<pdfrwt beam="2">  1       -1 0.10068610E-02 0.20016323E+02</pdfrwt>
<totfact> 0.39203786E+06</totfact>
</mgrwt>
</event>
<event>
 5    1  0.9882473E-007  0.2000096E+02  0.7818608E-02  0.1745309E+00
          1   -1    0    0  501    0  0.00000000000E+00  0.00000000000E+00  0.37773997962E+02  0.37773998251E+02  0.46700000000E-02 0.  1.
         -1   -1    0    0    0  501 -0.00000000000E+00 -0.00000000000E+00 -0.26475758693E+01  0.26475799879E+01  0.46700000000E-02 0. -1.
       1023    2    1    2    0    0  0.00000000000E+00  0.00000000000E+00  0.35126422093E+02  0.40421578239E+02  0.20000961434E+02 0.  0.
        -11    1    3    3    0    0 -0.83272296774E+01  0.55369238687E+01  0.17758466307E+02  0.20380466282E+02  0.51100000000E-03 0.  1.
         11    1    3    3    0    0  0.83272296774E+01 -0.55369238687E+01  0.17367955786E+02  0.20041111957E+02  0.51100000000E-03 0. -1.
<mgrwt>
<rscale>  0 0.20000961E+02</rscale>
<asrwt>0</asrwt>
<pdfrwt beam="1">  1        1 0.58113843E-02 0.20000961E+02</pdfrwt>
<pdfrwt beam="2">  1       -1 0.40731973E-03 0.20000961E+02</pdfrwt>
<totfact> 0.40965612E+06</totfact>
</mgrwt>
</event>
<event>
 5    1  0.9583198E-007  0.2000014E+02  0.7818608E-02  0.1745325E+00
         -1   -1    0    0    0  501 -0.00000000000E+00  0.00000000000E+00  0.11003839853E+02  0.11003840844E+02  0.46700000000E-02 0.  1.
          1   -1    0    0  501    0  0.00000000000E+00 -0.00000000000E+00 -0.90878611562E+01  0.90878623561E+01  0.46700000000E-02 0. -1.
       1023    2    1    2    0    0  0.00000000000E+00  0.00000000000E+00  0.19159786967E+01  0.20091703200E+02  0.20000139077E+02 0.  0.
        -11    1    3    3    0    0  0.55989110441E+01 -0.82857218858E+01  0.93793631059E+00  0.10043939308E+02  0.51100000000E-03 0. -1.
         11    1    3    3    0    0 -0.55989110441E+01  0.82857218858E+01  0.97804238607E+00  0.10047763891E+02  0.51100000000E-03 0.  1.
<mgrwt>
<rscale>  0 0.20000139E+02</rscale>
<asrwt>0</asrwt>
<pdfrwt beam="2">  1        1 0.13981327E-02 0.20000139E+02</pdfrwt>
<pdfrwt beam="1">  1       -1 0.16928986E-02 0.20000139E+02</pdfrwt>
<totfact> 0.38473806E+06</totfact>
</mgrwt>
</event>
<event>
 5    1  0.9583198E-007  0.2000057E+02  0.7818608E-02  0.1745317E+00
          1   -1    0    0  501    0  0.00000000000E+00  0.00000000000E+00  0.56041153451E+01  0.56041172909E+01  0.46700000000E-02 0.  1.
         -1   -1    0    0    0  501 -0.00000000000E+00 -0.00000000000E+00 -0.17845041287E+02  0.17845041898E+02  0.46700000000E-02 0. -1.
       1023    2    1    2    0    0  0.00000000000E+00  0.00000000000E+00 -0.12240925942E+02  0.23449159189E+02  0.20000569961E+02 0.  0.
        -11    1    3    3    0    0 -0.72265138460E+01  0.69121975495E+01 -0.62010290605E+01  0.11766636690E+02  0.51100000000E-03 0.  1.
         11    1    3    3    0    0  0.72265138460E+01 -0.69121975495E+01 -0.60398968810E+01  0.11682522498E+02  0.51100000000E-03 0. -1.
<mgrwt>
<rscale>  0 0.20000570E+02</rscale>
<asrwt>0</asrwt>
<pdfrwt beam="1">  1        1 0.86217179E-03 0.20000570E+02</pdfrwt>
<pdfrwt beam="2">  1       -1 0.27453911E-02 0.20000570E+02</pdfrwt>
<totfact> 0.37639231E+06</totfact>
</mgrwt>
</event>
<event>
 5    1  0.9931901E-007  0.2000244E+02  0.7818608E-02  0.1745279E+00
         -1   -1    0    0    0  501 -0.00000000000E+00  0.00000000000E+00  0.48045760888E+01  0.48045783584E+01  0.46700000000E-02 0.  1.
          1   -1    0    0  501    0  0.00000000000E+00 -0.00000000000E+00 -0.20818570981E+02  0.20818571505E+02  0.46700000000E-02 0. -1.
       1023    2    1    2    0    0  0.00000000000E+00  0.00000000000E+00 -0.16013994892E+02  0.25623149863E+02  0.20002444263E+02 0.  0.
        -11    1    3    3    0    0 -0.39651198226E+01  0.91804349216E+01 -0.78174988811E+01  0.12693141832E+02  0.51100000000E-03 0.  1.
         11    1    3    3    0    0  0.39651198226E+01 -0.91804349216E+01 -0.81964960110E+01  0.12930008031E+02  0.51100000000E-03 0. -1.
<mgrwt>
<rscale>  0 0.20002444E+02</rscale>
<asrwt>0</asrwt>
<pdfrwt beam="2">  1        1 0.32028572E-02 0.20002444E+02</pdfrwt>
<pdfrwt beam="1">  1       -1 0.73916578E-03 0.20002444E+02</pdfrwt>
<totfact> 0.39762816E+06</totfact>
</mgrwt>
</event>
<event>
 5    1  0.1016864E-006  0.2000121E+02  0.7818608E-02  0.1745304E+00
         -1   -1    0    0    0  501 -0.00000000000E+00  0.00000000000E+00  0.19311115550E+01  0.19311172017E+01  0.46700000000E-02 0.  1.
          1   -1    0    0  501    0  0.00000000000E+00 -0.00000000000E+00 -0.51789854885E+02  0.51789855095E+02  0.46700000000E-02 0. -1.
       1023    2    1    2    0    0  0.00000000000E+00  0.00000000000E+00 -0.49858743329E+02  0.53720972297E+02  0.20001214416E+02 0.  0.
        -11    1    3    3    0    0 -0.88211829257E+01 -0.47105346745E+01 -0.25194433848E+02  0.27106491885E+02  0.51100000000E-03 0.  1.
         11    1    3    3    0    0  0.88211829257E+01  0.47105346745E+01 -0.24664309481E+02  0.26614480411E+02  0.51100000000E-03 0. -1.
<mgrwt>
<rscale>  0 0.20001214E+02</rscale>
<asrwt>0</asrwt>
<pdfrwt beam="2">  1        1 0.79676694E-02 0.20001214E+02</pdfrwt>
<pdfrwt beam="1">  1       -1 0.29709457E-03 0.20001214E+02</pdfrwt>
<totfact> 0.41813617E+06</totfact>
</mgrwt>
</event>
<event>
 5    1  0.9865850E-007  0.2000135E+02  0.7818608E-02  0.1745301E+00
          1   -1    0    0  501    0  0.00000000000E+00  0.00000000000E+00  0.23824376030E+02  0.23824376488E+02  0.46700000000E-02 0.  1.
         -1   -1    0    0    0  501 -0.00000000000E+00 -0.00000000000E+00 -0.41979479357E+01  0.41979505333E+01  0.46700000000E-02 0. -1.
       1023    2    1    2    0    0  0.00000000000E+00  0.00000000000E+00  0.19626428094E+02  0.28022327021E+02  0.20001353253E+02 0.  0.
        -11    1    3    3    0    0  0.99727052615E+01 -0.74575428382E+00  0.98837264560E+01  0.14060549371E+02  0.51100000000E-03 0.  1.
         11    1    3    3    0    0 -0.99727052615E+01  0.74575428382E+00  0.97427016382E+01  0.13961777650E+02  0.51100000000E-03 0. -1.
<mgrwt>
<rscale>  0 0.20001353E+02</rscale>
<asrwt>0</asrwt>
<pdfrwt beam="1">  1        1 0.36652889E-02 0.20001353E+02</pdfrwt>
<pdfrwt beam="2">  1       -1 0.64583838E-03 0.20001353E+02</pdfrwt>
<totfact> 0.40004701E+06</totfact>
</mgrwt>
</event>
<event>
 5    1  0.9742914E-007  0.2000188E+02  0.7818608E-02  0.1745291E+00
          1   -1    0    0  501    0  0.00000000000E+00  0.00000000000E+00  0.10488743475E+03  0.10488743485E+03  0.46700000000E-02 0.  1.
         -1   -1    0    0    0  501 -0.00000000000E+00 -0.00000000000E+00 -0.95357601305E+00  0.95358744831E+00  0.46700000000E-02 0. -1.
       1023    2    1    2    0    0  0.00000000000E+00  0.00000000000E+00  0.10393385873E+03  0.10584102230E+03  0.20001875163E+02 0.  0.
        -11    1    3    3    0    0  0.99342131685E+01 -0.11533035314E+01  0.51928796476E+02  0.52883065380E+02  0.51100000000E-03 0. -1.
         11    1    3    3    0    0 -0.99342131685E+01  0.11533035314E+01  0.52005062257E+02  0.52957956918E+02  0.51100000000E-03 0.  1.
<mgrwt>
<rscale>  0 0.20001875E+02</rscale>
<asrwt>0</asrwt>
<pdfrwt beam="1">  1        1 0.16136531E-01 0.20001875E+02</pdfrwt>
<pdfrwt beam="2">  1       -1 0.14670487E-03 0.20001875E+02</pdfrwt>
<totfact> 0.44586595E+06</totfact>
</mgrwt>
</event>
<event>
 5    1  0.9583198E-007  0.2000121E+02  0.7818608E-02  0.1745304E+00
         -1   -1    0    0    0  501 -0.00000000000E+00  0.00000000000E+00  0.78321671258E+02  0.78321671398E+02  0.46700000000E-02 0.  1.
          1   -1    0    0  501    0  0.00000000000E+00 -0.00000000000E+00 -0.12769356199E+01  0.12769441594E+01  0.46700000000E-02 0. -1.
       1023    2    1    2    0    0  0.00000000000E+00  0.00000000000E+00  0.77044735638E+02  0.79598615557E+02  0.20001207688E+02 0.  0.
        -11    1    3    3    0    0  0.93818967833E+01  0.34629222259E+01  0.38586463431E+02  0.39861346917E+02  0.51100000000E-03 0.  1.
         11    1    3    3    0    0 -0.93818967833E+01 -0.34629222259E+01  0.38458272207E+02  0.39737268640E+02  0.51100000000E-03 0. -1.
<mgrwt>
<rscale>  0 0.20001208E+02</rscale>
<asrwt>0</asrwt>
<pdfrwt beam="2">  1        1 0.19645228E-03 0.20001208E+02</pdfrwt>
<pdfrwt beam="1">  1       -1 0.12049490E-01 0.20001208E+02</pdfrwt>
<totfact> 0.33088629E+06</totfact>
</mgrwt>
</event>
<event>
 5    1  0.9583198E-007  0.2000282E+02  0.7818608E-02  0.1745272E+00
         -1   -1    0    0    0  501 -0.00000000000E+00  0.00000000000E+00  0.77781579132E+01  0.77781593151E+01  0.46700000000E-02 0.  1.
          1   -1    0    0  501    0  0.00000000000E+00 -0.00000000000E+00 -0.12860136998E+02  0.12860137846E+02  0.46700000000E-02 0. -1.
       1023    2    1    2    0    0  0.00000000000E+00  0.00000000000E+00 -0.50819790852E+01  0.20638297161E+02  0.20002819759E+02 0.  0.
        -11    1    3    3    0    0 -0.96429529450E+01 -0.26523906167E+01 -0.26240571089E+01  0.10339603158E+02  0.51100000000E-03 0.  1.
         11    1    3    3    0    0  0.96429529450E+01  0.26523906167E+01 -0.24579219763E+01  0.10298694004E+02  0.51100000000E-03 0. -1.
<mgrwt>
<rscale>  0 0.20002820E+02</rscale>
<asrwt>0</asrwt>
<pdfrwt beam="2">  1        1 0.19784828E-02 0.20002820E+02</pdfrwt>
<pdfrwt beam="1">  1       -1 0.11966399E-02 0.20002820E+02</pdfrwt>
<totfact> 0.38996480E+06</totfact>
</mgrwt>
</event>
<event>
 5    1  0.9820991E-007  0.2000089E+02  0.7818608E-02  0.1745310E+00
          1   -1    0    0  501    0  0.00000000000E+00  0.00000000000E+00  0.13166984161E+02  0.13166984989E+02  0.46700000000E-02 0. -1.
         -1   -1    0    0    0  501 -0.00000000000E+00 -0.00000000000E+00 -0.75954292473E+01  0.75954306829E+01  0.46700000000E-02 0.  1.
       1023    2    1    2    0    0  0.00000000000E+00  0.00000000000E+00  0.55715549139E+01  0.20762415672E+02  0.20000891990E+02 0.  0.
        -11    1    3    3    0    0  0.42280998993E+00  0.99910597650E+01  0.28835788443E+01  0.10407452653E+02  0.51100000000E-03 0. -1.
         11    1    3    3    0    0 -0.42280998993E+00 -0.99910597650E+01  0.26879760697E+01  0.10354963019E+02  0.51100000000E-03 0.  1.
<mgrwt>
<rscale>  0 0.20000892E+02</rscale>
<asrwt>0</asrwt>
<pdfrwt beam="1">  1        1 0.20256900E-02 0.20000892E+02</pdfrwt>
<pdfrwt beam="2">  1       -1 0.11685277E-02 0.20000892E+02</pdfrwt>
<totfact> 0.39040900E+06</totfact>
</mgrwt>
</event>
<event>
 5    1  0.1178294E-006  0.2000175E+02  0.7818608E-02  0.1745293E+00
         -1   -1    0    0    0  501 -0.00000000000E+00  0.00000000000E+00  0.14607193939E+02  0.14607194686E+02  0.46700000000E-02 0. -1.
          1   -1    0    0  501    0  0.00000000000E+00 -0.00000000000E+00 -0.68471363026E+01  0.68471378951E+01  0.46700000000E-02 0.  1.
       1023    2    1    2    0    0  0.00000000000E+00  0.00000000000E+00  0.77600576367E+01  0.21454332581E+02  0.20001747223E+02 0.  0.
        -11    1    3    3    0    0 -0.99888765720E+01  0.47602383769E+00  0.37567057898E+01  0.10682560204E+02  0.51100000000E-03 0.  1.
         11    1    3    3    0    0  0.99888765720E+01 -0.47602383769E+00  0.40033518470E+01  0.10771772377E+02  0.51100000000E-03 0. -1.
<mgrwt>
<rscale>  0 0.20001747E+02</rscale>
<asrwt>0</asrwt>
<pdfrwt beam="2">  1        1 0.10534058E-02 0.20001747E+02</pdfrwt>
<pdfrwt beam="1">  1       -1 0.22472608E-02 0.20001747E+02</pdfrwt>
<totfact> 0.37999013E+06</totfact>
</mgrwt>
</event>
<event>
 5    1  0.9583198E-007  0.2000193E+02  0.7818608E-02  0.1745290E+00
         -1   -1    0    0    0  501 -0.00000000000E+00  0.00000000000E+00  0.10040674296E+02  0.10040675382E+02  0.46700000000E-02 0. -1.
          1   -1    0    0  501    0  0.00000000000E+00 -0.00000000000E+00 -0.99614097495E+01  0.99614108442E+01  0.46700000000E-02 0.  1.
       1023    2    1    2    0    0  0.00000000000E+00  0.00000000000E+00  0.79264546287E-01  0.20002086226E+02  0.20001929170E+02 0.  0.
        -11    1    3    3    0    0  0.63544524165E+01 -0.77225551986E+01 -0.90308338782E-02  0.10000850270E+02  0.51100000000E-03 0. -1.
         11    1    3    3    0    0 -0.63544524165E+01  0.77225551986E+01  0.88295380165E-01  0.10001235956E+02  0.51100000000E-03 0.  1.
<mgrwt>
<rscale>  0 0.20001929E+02</rscale>
<asrwt>0</asrwt>
<pdfrwt beam="2">  1        1 0.15325247E-02 0.20001929E+02</pdfrwt>
<pdfrwt beam="1">  1       -1 0.15447193E-02 0.20001929E+02</pdfrwt>
<totfact> 0.38609528E+06</totfact>
</mgrwt>
</event>
<event>
 5    1  0.9583198E-007  0.2000223E+02  0.7818608E-02  0.1745284E+00
         -1   -1    0    0    0  501 -0.00000000000E+00  0.00000000000E+00  0.17320227122E+02  0.17320227751E+02  0.46700000000E-02 0.  1.
          1   -1    0    0  501    0  0.00000000000E+00 -0.00000000000E+00 -0.57748846331E+01  0.57748865213E+01  0.46700000000E-02 0. -1.
       1023    2    1    2    0    0  0.00000000000E+00  0.00000000000E+00  0.11545342489E+02  0.23095114272E+02  0.20002234127E+02 0.  0.
        -11    1    3    3    0    0 -0.67230513241E+01  0.74042081986E+01  0.58015162332E+01  0.11561976865E+02  0.51100000000E-03 0.  1.
         11    1    3    3    0    0  0.67230513241E+01 -0.74042081986E+01  0.57438262553E+01  0.11533137408E+02  0.51100000000E-03 0. -1.
<mgrwt>
<rscale>  0 0.20002234E+02</rscale>
<asrwt>0</asrwt>
<pdfrwt beam="2">  1        1 0.88844401E-03 0.20002234E+02</pdfrwt>
<pdfrwt beam="1">  1       -1 0.26646504E-02 0.20002234E+02</pdfrwt>
<totfact> 0.37688960E+06</totfact>
</mgrwt>
</event>
<event>
 5    1  0.9583198E-007  0.2000542E+02  0.7818608E-02  0.1745220E+00
         -1   -1    0    0    0  501 -0.00000000000E+00  0.00000000000E+00  0.46154355655E+02  0.46154355892E+02  0.46700000000E-02 0. -1.
          1   -1    0    0  501    0  0.00000000000E+00 -0.00000000000E+00 -0.21678150385E+01  0.21678200686E+01  0.46700000000E-02 0.  1.
       1023    2    1    2    0    0  0.00000000000E+00  0.00000000000E+00  0.43986540617E+02  0.48322175960E+02  0.20005422617E+02 0.  0.
        -11    1    3    3    0    0  0.50628919216E+01  0.86266991967E+01  0.22084279502E+02  0.24243931510E+02  0.51100000000E-03 0.  1.
         11    1    3    3    0    0 -0.50628919216E+01 -0.86266991967E+01  0.21902261114E+02  0.24078244451E+02  0.51100000000E-03 0. -1.
<mgrwt>
<rscale>  0 0.20005423E+02</rscale>
<asrwt>0</asrwt>
<pdfrwt beam="2">  1        1 0.33351046E-03 0.20005423E+02</pdfrwt>
<pdfrwt beam="1">  1       -1 0.71006695E-02 0.20005423E+02</pdfrwt>
<totfact> 0.35186463E+06</totfact>
</mgrwt>
</event>
<event>
 5    1  0.9583198E-007  0.2000040E+02  0.7818608E-02  0.1745320E+00
         -1   -1    0    0    0  501 -0.00000000000E+00  0.00000000000E+00  0.10095770344E+01  0.10095878353E+01  0.46700000000E-02 0. -1.
          1   -1    0    0  501    0  0.00000000000E+00 -0.00000000000E+00 -0.99054792634E+02  0.99054792744E+02  0.46700000000E-02 0.  1.
       1023    2    1    2    0    0  0.00000000000E+00  0.00000000000E+00 -0.98045215600E+02  0.10006438058E+03  0.20000398965E+02 0.  0.
        -11    1    3    3    0    0  0.59287143509E+01 -0.80532089395E+01 -0.48959056397E+02  0.49969921269E+02  0.51100000000E-03 0.  1.
         11    1    3    3    0    0 -0.59287143509E+01  0.80532089395E+01 -0.49086159202E+02  0.50094459310E+02  0.51100000000E-03 0. -1.
<mgrwt>
<rscale>  0 0.20000399E+02</rscale>
<asrwt>0</asrwt>
<pdfrwt beam="2">  1        1 0.15239192E-01 0.20000399E+02</pdfrwt>
<pdfrwt beam="1">  1       -1 0.15532046E-03 0.20000399E+02</pdfrwt>
<totfact> 0.44312803E+06</totfact>
</mgrwt>
</event>
<event>
 5    1  0.9583198E-007  0.2000107E+02  0.7818608E-02  0.1745307E+00
         -1   -1    0    0    0  501 -0.00000000000E+00  0.00000000000E+00  0.22569142964E+02  0.22569143447E+02  0.46700000000E-02 0. -1.
          1   -1    0    0  501    0  0.00000000000E+00 -0.00000000000E+00 -0.44312991014E+01  0.44313015622E+01  0.46700000000E-02 0.  1.
       1023    2    1    2    0    0  0.00000000000E+00  0.00000000000E+00  0.18137843862E+02  0.27000445009E+02  0.20001066239E+02 0.  0.
        -11    1    3    3    0    0 -0.99788047942E+01 -0.65866307406E+00  0.90463227838E+01  0.13485041280E+02  0.51100000000E-03 0.  1.
         11    1    3    3    0    0  0.99788047942E+01  0.65866307406E+00  0.90915210785E+01  0.13515403729E+02  0.51100000000E-03 0. -1.
<mgrwt>
<rscale>  0 0.20001066E+02</rscale>
<asrwt>0</asrwt>
<pdfrwt beam="2">  1        1 0.68173854E-03 0.20001066E+02</pdfrwt>
<pdfrwt beam="1">  1       -1 0.34721761E-02 0.20001066E+02</pdfrwt>
<totfact> 0.37157982E+06</totfact>
</mgrwt>
</event>
<event>
 5    1  0.9801185E-007  0.2000104E+02  0.7818608E-02  0.1745307E+00
         -1   -1    0    0    0  501 -0.00000000000E+00  0.00000000000E+00  0.75452709220E+01  0.75452723672E+01  0.46700000000E-02 0.  1.
          1   -1    0    0  501    0  0.00000000000E+00 -0.00000000000E+00 -0.13254704017E+02  0.13254704840E+02  0.46700000000E-02 0. -1.
       1023    2    1    2    0    0  0.00000000000E+00  0.00000000000E+00 -0.57094330955E+01  0.20799977207E+02  0.20001035612E+02 0.  0.
        -11    1    3    3    0    0  0.78873385299E+01 -0.61474248087E+01 -0.29556247777E+01  0.10427687133E+02  0.51100000000E-03 0. -1.
         11    1    3    3    0    0 -0.78873385299E+01  0.61474248087E+01 -0.27538083178E+01  0.10372290074E+02  0.51100000000E-03 0.  1.
<mgrwt>
<rscale>  0 0.20001036E+02</rscale>
<asrwt>0</asrwt>
<pdfrwt beam="2">  1        1 0.20391854E-02 0.20001036E+02</pdfrwt>
<pdfrwt beam="1">  1       -1 0.11608111E-02 0.20001036E+02</pdfrwt>
<totfact> 0.39050383E+06</totfact>
</mgrwt>
</event>
<event>
 4    1  0.9583198E-007  0.2001348E+02  0.7818608E-02  0.1745060E+00
         -1   -1    0    0    0  501 -0.00000000000E+00  0.00000000000E+00  0.11405998709E+02  0.11405999665E+02  0.46700000000E-02 0. -1.
          1   -1    0    0  501    0  0.00000000000E+00 -0.00000000000E+00 -0.87791330189E+01  0.87791342610E+01  0.46700000000E-02 0.  1.
        -11    1    1    2    0    0 -0.44185725792E+00 -0.99904044681E+01  0.16790090573E+01  0.10140142551E+02  0.51100000000E-03 0.  1.
         11    1    1    2    0    0  0.44185725792E+00  0.99904044681E+01  0.94785663280E+00  0.10044991375E+02  0.51100000000E-03 0. -1.
<mgrwt>
<rscale>  0 0.20013476E+02</rscale>
<asrwt>0</asrwt>
<pdfrwt beam="2">  1        1 0.13506360E-02 0.20013476E+02</pdfrwt>
<pdfrwt beam="1">  1       -1 0.17547692E-02 0.20013476E+02</pdfrwt>
<totfact> 0.38360788E+06</totfact>
</mgrwt>
</event>
<event>
 5    1  0.9583198E-007  0.2000144E+02  0.7818608E-02  0.1745300E+00
          1   -1    0    0  501    0  0.00000000000E+00  0.00000000000E+00  0.20695210789E+01  0.20695263480E+01  0.46700000000E-02 0.  1.
         -1   -1    0    0    0  501 -0.00000000000E+00 -0.00000000000E+00 -0.48327228627E+02  0.48327228853E+02  0.46700000000E-02 0. -1.
       1023    2    1    2    0    0  0.00000000000E+00  0.00000000000E+00 -0.46257707548E+02  0.50396755201E+02  0.20001435627E+02 0.  0.
        -11    1    3    3    0    0 -0.72576939777E+01  0.68804132275E+01 -0.23098151954E+02  0.25170197298E+02  0.51100000000E-03 0.  1.
         11    1    3    3    0    0  0.72576939777E+01 -0.68804132275E+01 -0.23159555594E+02  0.25226557903E+02  0.51100000000E-03 0. -1.
<mgrwt>
<rscale>  0 0.20001436E+02</rscale>
<asrwt>0</asrwt>
<pdfrwt beam="1">  1        1 0.31838832E-03 0.20001436E+02</pdfrwt>
<pdfrwt beam="2">  1       -1 0.74349579E-02 0.20001436E+02</pdfrwt>
<totfact> 0.35043890E+06</totfact>
</mgrwt>
</event>
<event>
 5    1  0.9583198E-007  0.2000039E+02  0.7818608E-02  0.1745320E+00
         -1   -1    0    0    0  501 -0.00000000000E+00  0.00000000000E+00  0.71079205671E+01  0.71079221012E+01  0.46700000000E-02 0.  1.
          1   -1    0    0  501    0  0.00000000000E+00 -0.00000000000E+00 -0.14069351422E+02  0.14069352197E+02  0.46700000000E-02 0. -1.
       1023    2    1    2    0    0  0.00000000000E+00  0.00000000000E+00 -0.69614308544E+01  0.21177274298E+02  0.20000385675E+02 0.  0.
        -11    1    3    3    0    0  0.90553721090E+01 -0.42431112671E+01 -0.34912650510E+01  0.10592105040E+02  0.51100000000E-03 0.  1.
         11    1    3    3    0    0 -0.90553721090E+01  0.42431112671E+01 -0.34701658034E+01  0.10585169258E+02  0.51100000000E-03 0. -1.
<mgrwt>
<rscale>  0 0.20000386E+02</rscale>
<asrwt>0</asrwt>
<pdfrwt beam="2">  1        1 0.21645158E-02 0.20000386E+02</pdfrwt>
<pdfrwt beam="1">  1       -1 0.10935264E-02 0.20000386E+02</pdfrwt>
<totfact> 0.39144364E+06</totfact>
</mgrwt>
</event>
<event>
 4    1  0.9583198E-007  0.2002645E+02  0.7818608E-02  0.1744803E+00
         -1   -1    0    0    0  501 -0.00000000000E+00  0.00000000000E+00  0.12591823111E+02  0.12591823977E+02  0.46700000000E-02 0. -1.
          1   -1    0    0  501    0  0.00000000000E+00 -0.00000000000E+00 -0.79626823575E+01  0.79626837269E+01  0.46700000000E-02 0.  1.
        -11    1    1    2    0    0  0.96973068150E+01 -0.24643313007E+01  0.19117654924E+01  0.10186536987E+02  0.51100000000E-03 0.  1.
         11    1    1    2    0    0 -0.96973068150E+01  0.24643313007E+01  0.27173752615E+01  0.10367970717E+02  0.51100000000E-03 0. -1.
<mgrwt>
<rscale>  0 0.20026454E+02</rscale>
<asrwt>0</asrwt>
<pdfrwt beam="2">  1        1 0.12250282E-02 0.20026454E+02</pdfrwt>
<pdfrwt beam="1">  1       -1 0.19372037E-02 0.20026454E+02</pdfrwt>
<totfact> 0.38146651E+06</totfact>
</mgrwt>
</event>
<event>
 5    1  0.9617361E-007  0.2000140E+02  0.7818608E-02  0.1745300E+00
         -1   -1    0    0    0  501 -0.00000000000E+00  0.00000000000E+00  0.14767728197E+02  0.14767728935E+02  0.46700000000E-02 0.  1.
          1   -1    0    0  501    0  0.00000000000E+00 -0.00000000000E+00 -0.67724715250E+01  0.67724731351E+01  0.46700000000E-02 0. -1.
       1023    2    1    2    0    0  0.00000000000E+00  0.00000000000E+00  0.79952566718E+01  0.21540202070E+02  0.20001404350E+02 0.  0.
        -11    1    3    3    0    0 -0.79547654245E+01 -0.60609986590E+01  0.39903215857E+01  0.10767388928E+02  0.51100000000E-03 0. -1.
         11    1    3    3    0    0  0.79547654245E+01  0.60609986590E+01  0.40049350862E+01  0.10772813143E+02  0.51100000000E-03 0.  1.
<mgrwt>
<rscale>  0 0.20001404E+02</rscale>
<asrwt>0</asrwt>
<pdfrwt beam="2">  1        1 0.10419189E-02 0.20001404E+02</pdfrwt>
<pdfrwt beam="1">  1       -1 0.22719583E-02 0.20001404E+02</pdfrwt>
<totfact> 0.37981377E+06</totfact>
</mgrwt>
</event>
<event>
 5    1  0.9922868E-007  0.2000235E+02  0.7818608E-02  0.1745281E+00
          1   -1    0    0  501    0  0.00000000000E+00  0.00000000000E+00  0.19654634174E+02  0.19654634729E+02  0.46700000000E-02 0.  1.
         -1   -1    0    0    0  501 -0.00000000000E+00 -0.00000000000E+00 -0.50890515497E+01  0.50890536925E+01  0.46700000000E-02 0. -1.
       1023    2    1    2    0    0  0.00000000000E+00  0.00000000000E+00  0.14565582625E+02  0.24743688422E+02  0.20002347850E+02 0.  0.
        -11    1    3    3    0    0 -0.78897419030E+01 -0.61457567692E+01  0.73713589515E+01  0.12423980305E+02  0.51100000000E-03 0. -1.
         11    1    3    3    0    0  0.78897419030E+01  0.61457567692E+01  0.71942236731E+01  0.12319708117E+02  0.51100000000E-03 0.  1.
<mgrwt>
<rscale>  0 0.20002348E+02</rscale>
<asrwt>0</asrwt>
<pdfrwt beam="1">  1        1 0.30237901E-02 0.20002348E+02</pdfrwt>
<pdfrwt beam="2">  1       -1 0.78293120E-03 0.20002348E+02</pdfrwt>
<totfact> 0.39666349E+06</totfact>
</mgrwt>
</event>
<event>
 5    1  0.9712531E-007  0.2000134E+02  0.7818608E-02  0.1745301E+00
          1   -1    0    0  501    0  0.00000000000E+00  0.00000000000E+00  0.78299893828E+01  0.78299907754E+01  0.46700000000E-02 0. -1.
         -1   -1    0    0    0  501 -0.00000000000E+00 -0.00000000000E+00 -0.12773119009E+02  0.12773119862E+02  0.46700000000E-02 0.  1.
       1023    2    1    2    0    0  0.00000000000E+00  0.00000000000E+00 -0.49431296259E+01  0.20603110638E+02  0.20001340891E+02 0.  0.
        -11    1    3    3    0    0  0.53299465286E+01  0.84616459664E+01 -0.23942970364E+01  0.10283017116E+02  0.51100000000E-03 0. -1.
         11    1    3    3    0    0 -0.53299465286E+01 -0.84616459664E+01 -0.25488325895E+01  0.10320093521E+02  0.51100000000E-03 0.  1.
<mgrwt>
<rscale>  0 0.20001341E+02</rscale>
<asrwt>0</asrwt>
<pdfrwt beam="1">  1        1 0.12046139E-02 0.20001341E+02</pdfrwt>
<pdfrwt beam="2">  1       -1 0.19650954E-02 0.20001341E+02</pdfrwt>
<totfact> 0.38228118E+06</totfact>
</mgrwt>
</event>
<event>
 5    1  0.9583198E-007  0.2000130E+02  0.7818608E-02  0.1745302E+00
          1   -1    0    0  501    0  0.00000000000E+00  0.00000000000E+00  0.11618823535E+03  0.11618823544E+03  0.46700000000E-02 0.  1.
         -1   -1    0    0    0  501 -0.00000000000E+00 -0.00000000000E+00 -0.86077745983E+00  0.86079012788E+00  0.46700000000E-02 0. -1.
       1023    2    1    2    0    0  0.00000000000E+00  0.00000000000E+00  0.11532745789E+03  0.11704902557E+03  0.20001296055E+02 0.  0.
        -11    1    3    3    0    0  0.99439356783E+01 -0.10633211579E+01  0.57788152200E+02  0.58647106012E+02  0.51100000000E-03 0.  1.
         11    1    3    3    0    0 -0.99439356783E+01  0.10633211579E+01  0.57539305687E+02  0.58401919556E+02  0.51100000000E-03 0. -1.
<mgrwt>
<rscale>  0 0.20001296E+02</rscale>
<asrwt>0</asrwt>
<pdfrwt beam="1">  1        1 0.17875123E-01 0.20001296E+02</pdfrwt>
<pdfrwt beam="2">  1       -1 0.13242821E-03 0.20001296E+02</pdfrwt>
<totfact> 0.45119072E+06</totfact>
</mgrwt>
</event>
<event>
 5    1  0.9583198E-007  0.2000105E+02  0.7818608E-02  0.1745307E+00
          1   -1    0    0  501    0  0.00000000000E+00  0.00000000000E+00  0.13288278458E+02  0.13288279279E+02  0.46700000000E-02 0.  1.
         -1   -1    0    0    0  501 -0.00000000000E+00 -0.00000000000E+00 -0.75262192700E+01  0.75262207188E+01  0.46700000000E-02 0. -1.
       1023    2    1    2    0    0  0.00000000000E+00  0.00000000000E+00  0.57620591881E+01  0.20814499998E+02  0.20001052074E+02 0.  0.
        -11    1    3    3    0    0  0.80284901855E+01 -0.59625887479E+01  0.28420701557E+01  0.10396464893E+02  0.51100000000E-03 0. -1.
         11    1    3    3    0    0 -0.80284901855E+01  0.59625887479E+01  0.29199890324E+01  0.10418035105E+02  0.51100000000E-03 0.  1.
<mgrwt>
<rscale>  0 0.20001052E+02</rscale>
<asrwt>0</asrwt>
<pdfrwt beam="1">  1        1 0.20443507E-02 0.20001052E+02</pdfrwt>
<pdfrwt beam="2">  1       -1 0.11578801E-02 0.20001052E+02</pdfrwt>
<totfact> 0.39054165E+06</totfact>
</mgrwt>
</event>
<event>
 5    1  0.9583198E-007  0.2000210E+02  0.7818608E-02  0.1745286E+00
          1   -1    0    0  501    0  0.00000000000E+00  0.00000000000E+00  0.12266629667E+02  0.12266630556E+02  0.46700000000E-02 0.  1.
         -1   -1    0    0    0  501 -0.00000000000E+00 -0.00000000000E+00 -0.81539075689E+01  0.81539089062E+01  0.46700000000E-02 0. -1.
       1023    2    1    2    0    0  0.00000000000E+00  0.00000000000E+00  0.41127220984E+01  0.20420539462E+02  0.20002098612E+02 0.  0.
        -11    1    3    3    0    0  0.69309940123E+01 -0.72093492281E+01  0.19674022706E+01  0.10192353322E+02  0.51100000000E-03 0. -1.
         11    1    3    3    0    0 -0.69309940123E+01  0.72093492281E+01  0.21453198278E+01  0.10228186140E+02  0.51100000000E-03 0.  1.
<mgrwt>
<rscale>  0 0.20002099E+02</rscale>
<asrwt>0</asrwt>
<pdfrwt beam="1">  1        1 0.18871740E-02 0.20002099E+02</pdfrwt>
<pdfrwt beam="2">  1       -1 0.12544475E-02 0.20002099E+02</pdfrwt>
<totfact> 0.38927684E+06</totfact>
</mgrwt>
</event>
<event>
 5    1  0.9583198E-007  0.2000008E+02  0.7818608E-02  0.1745327E+00
         -1   -1    0    0    0  501 -0.00000000000E+00  0.00000000000E+00  0.15737001204E+02  0.15737001897E+02  0.46700000000E-02 0.  1.
          1   -1    0    0  501    0  0.00000000000E+00 -0.00000000000E+00 -0.63544974752E+01  0.63544991912E+01  0.46700000000E-02 0. -1.
       1023    2    1    2    0    0  0.00000000000E+00  0.00000000000E+00  0.93825037290E+01  0.22091501088E+02  0.20000076103E+02 0.  0.
        -11    1    3    3    0    0 -0.97370687634E+01 -0.22781991554E+01  0.46998980799E+01  0.11049422687E+02  0.51100000000E-03 0. -1.
         11    1    3    3    0    0  0.97370687634E+01  0.22781991554E+01  0.46826056490E+01  0.11042078401E+02  0.51100000000E-03 0.  1.
<mgrwt>
<rscale>  0 0.20000076E+02</rscale>
<asrwt>0</asrwt>
<pdfrwt beam="2">  1        1 0.97761519E-03 0.20000076E+02</pdfrwt>
<pdfrwt beam="1">  1       -1 0.24210773E-02 0.20000076E+02</pdfrwt>
<totfact> 0.37874229E+06</totfact>
</mgrwt>
</event>
<event>
 5    1  0.9776866E-007  0.2000268E+02  0.7818608E-02  0.1745275E+00
         -1   -1    0    0    0  501 -0.00000000000E+00  0.00000000000E+00  0.10950375918E+01  0.10950475498E+01  0.46700000000E-02 0.  1.
          1   -1    0    0  501    0  0.00000000000E+00 -0.00000000000E+00 -0.91345097805E+02  0.91345097924E+02  0.46700000000E-02 0. -1.
       1023    2    1    2    0    0  0.00000000000E+00  0.00000000000E+00 -0.90250060213E+02  0.92440145474E+02  0.20002677991E+02 0.  0.
        -11    1    3    3    0    0  0.99318784505E+01 -0.11688894700E+01 -0.44500384995E+02  0.45610226673E+02  0.51100000000E-03 0. -1.
         11    1    3    3    0    0 -0.99318784505E+01  0.11688894700E+01 -0.45749675218E+02  0.46829918801E+02  0.51100000000E-03 0.  1.
<mgrwt>
<rscale>  0 0.20002678E+02</rscale>
<asrwt>0</asrwt>
<pdfrwt beam="2">  1        1 0.14053087E-01 0.20002678E+02</pdfrwt>
<pdfrwt beam="1">  1       -1 0.16846817E-03 0.20002678E+02</pdfrwt>
<totfact> 0.43922068E+06</totfact>
</mgrwt>
</event>
<event>
 5    1  0.9583198E-007  0.2000409E+02  0.7818608E-02  0.1745247E+00
          1   -1    0    0  501    0  0.00000000000E+00  0.00000000000E+00  0.44056102119E+02  0.44056102367E+02  0.46700000000E-02 0. -1.
         -1   -1    0    0    0  501 -0.00000000000E+00 -0.00000000000E+00 -0.22707596247E+01  0.22707644268E+01  0.46700000000E-02 0.  1.
       1023    2    1    2    0    0  0.00000000000E+00  0.00000000000E+00  0.41785342494E+02  0.46326866793E+02  0.20004093069E+02 0.  0.
        -11    1    3    3    0    0 -0.16564789452E+01 -0.98626360351E+01  0.21261923991E+02  0.23496487485E+02  0.51100000000E-03 0.  1.
         11    1    3    3    0    0  0.16564789452E+01  0.98626360351E+01  0.20523418503E+02  0.22830379309E+02  0.51100000000E-03 0. -1.
<mgrwt>
<rscale>  0 0.20004093E+02</rscale>
<asrwt>0</asrwt>
<pdfrwt beam="1">  1        1 0.67778628E-02 0.20004093E+02</pdfrwt>
<pdfrwt beam="2">  1       -1 0.34934800E-03 0.20004093E+02</pdfrwt>
<totfact> 0.41341440E+06</totfact>
</mgrwt>
</event>
<event>
 5    1  0.9713577E-007  0.2000066E+02  0.7818608E-02  0.1745315E+00
         -1   -1    0    0    0  501 -0.00000000000E+00  0.00000000000E+00  0.16292739411E+01  0.16292806339E+01  0.46700000000E-02 0. -1.
          1   -1    0    0  501    0  0.00000000000E+00 -0.00000000000E+00 -0.61380937777E+02  0.61380937954E+02  0.46700000000E-02 0.  1.
       1023    2    1    2    0    0  0.00000000000E+00  0.00000000000E+00 -0.59751663835E+02  0.63010218588E+02  0.20000657875E+02 0.  0.
        -11    1    3    3    0    0 -0.15883132838E+01 -0.98731148947E+01 -0.30108232528E+02  0.31725491376E+02  0.51100000000E-03 0.  1.
         11    1    3    3    0    0  0.15883132838E+01  0.98731148947E+01 -0.29643431307E+02  0.31284727212E+02  0.51100000000E-03 0. -1.
<mgrwt>
<rscale>  0 0.20000658E+02</rscale>
<asrwt>0</asrwt>
<pdfrwt beam="2">  1        1 0.94432199E-02 0.20000658E+02</pdfrwt>
<pdfrwt beam="1">  1       -1 0.25065811E-03 0.20000658E+02</pdfrwt>
<totfact> 0.42360486E+06</totfact>
</mgrwt>
</event>
<event>
 5    1  0.9583198E-007  0.2000065E+02  0.7818608E-02  0.1745315E+00
         -1   -1    0    0    0  501 -0.00000000000E+00  0.00000000000E+00  0.27025253748E+02  0.27025254152E+02  0.46700000000E-02 0.  1.
          1   -1    0    0  501    0  0.00000000000E+00 -0.00000000000E+00 -0.37004824037E+01  0.37004853505E+01  0.46700000000E-02 0. -1.
       1023    2    1    2    0    0  0.00000000000E+00  0.00000000000E+00  0.23324771344E+02  0.30725739502E+02  0.20000652731E+02 0.  0.
        -11    1    3    3    0    0  0.73099726107E+01 -0.68238399793E+01  0.11781733828E+02  0.15453470286E+02  0.51100000000E-03 0. -1.
         11    1    3    3    0    0 -0.73099726107E+01  0.68238399793E+01  0.11543037516E+02  0.15272269216E+02  0.51100000000E-03 0.  1.
<mgrwt>
<rscale>  0 0.20000653E+02</rscale>
<asrwt>0</asrwt>
<pdfrwt beam="2">  1        1 0.56930524E-03 0.20000653E+02</pdfrwt>
<pdfrwt beam="1">  1       -1 0.41577316E-02 0.20000653E+02</pdfrwt>
<totfact> 0.36745724E+06</totfact>
</mgrwt>
</event>
<event>
 5    1  0.9894689E-007  0.2000069E+02  0.7818608E-02  0.1745314E+00
          1   -1    0    0  501    0  0.00000000000E+00  0.00000000000E+00  0.25648555804E+02  0.25648556230E+02  0.46700000000E-02 0.  1.
         -1   -1    0    0    0  501 -0.00000000000E+00 -0.00000000000E+00 -0.38991209531E+01  0.38991237498E+01  0.46700000000E-02 0. -1.
       1023    2    1    2    0    0  0.00000000000E+00  0.00000000000E+00  0.21749434851E+02  0.29547679979E+02  0.20000686883E+02 0.  0.
        -11    1    3    3    0    0 -0.84373775820E+01 -0.53681194346E+01  0.10832362337E+02  0.14742663287E+02  0.51100000000E-03 0. -1.
         11    1    3    3    0    0  0.84373775820E+01  0.53681194346E+01  0.10917072515E+02  0.14805016693E+02  0.51100000000E-03 0.  1.
<mgrwt>
<rscale>  0 0.20000687E+02</rscale>
<asrwt>0</asrwt>
<pdfrwt beam="1">  1        1 0.39459319E-02 0.20000687E+02</pdfrwt>
<pdfrwt beam="2">  1       -1 0.59986500E-03 0.20000687E+02</pdfrwt>
<totfact> 0.40144276E+06</totfact>
</mgrwt>
</event>
<event>
 5    1  0.9583198E-007  0.2000019E+02  0.7818608E-02  0.1745324E+00
         -1   -1    0    0    0  501 -0.00000000000E+00  0.00000000000E+00  0.36641731295E+02  0.36641731593E+02  0.46700000000E-02 0.  1.
          1   -1    0    0  501    0  0.00000000000E+00 -0.00000000000E+00 -0.27291784440E+01  0.27291824395E+01  0.46700000000E-02 0. -1.
       1023    2    1    2    0    0  0.00000000000E+00  0.00000000000E+00  0.33912552851E+02  0.39370914033E+02  0.20000190771E+02 0.  0.
        -11    1    3    3    0    0 -0.73129186572E+00 -0.99732904622E+01  0.17004375326E+02  0.19726887512E+02  0.51100000000E-03 0. -1.
         11    1    3    3    0    0  0.73129186572E+00  0.99732904622E+01  0.16908177526E+02  0.19644026520E+02  0.51100000000E-03 0.  1.
<mgrwt>
<rscale>  0 0.20000191E+02</rscale>
<asrwt>0</asrwt>
<pdfrwt beam="2">  1        1 0.41987393E-03 0.20000191E+02</pdfrwt>
<pdfrwt beam="1">  1       -1 0.56371899E-02 0.20000191E+02</pdfrwt>
<totfact> 0.35934516E+06</totfact>
</mgrwt>
</event>
<event>
 5    1  0.9583198E-007  0.2001064E+02  0.7818608E-02  0.1745117E+00
         -1   -1    0    0    0  501 -0.00000000000E+00  0.00000000000E+00  0.69625487923E+02  0.69625488079E+02  0.46700000000E-02 0.  1.
          1   -1    0    0  501    0  0.00000000000E+00 -0.00000000000E+00 -0.14377797689E+01  0.14377873531E+01  0.46700000000E-02 0. -1.
       1023    2    1    2    0    0  0.00000000000E+00  0.00000000000E+00  0.68187708154E+02  0.71063275432E+02  0.20010636469E+02 0.  0.
        -11    1    3    3    0    0 -0.81441820346E+01 -0.58035700185E+01  0.35201412150E+02  0.36594378579E+02  0.51100000000E-03 0. -1.
         11    1    3    3    0    0  0.81441820346E+01  0.58035700185E+01  0.32986296004E+02  0.34468896854E+02  0.51100000000E-03 0.  1.
<mgrwt>
<rscale>  0 0.20010636E+02</rscale>
<asrwt>0</asrwt>
<pdfrwt beam="2">  1        1 0.22119750E-03 0.20010636E+02</pdfrwt>
<pdfrwt beam="1">  1       -1 0.10711613E-01 0.20010636E+02</pdfrwt>
<totfact> 0.33584603E+06</totfact>
</mgrwt>
</event>
<event>
 5    1  0.9583198E-007  0.2000662E+02  0.7818608E-02  0.1745197E+00
          1   -1    0    0  501    0  0.00000000000E+00  0.00000000000E+00  0.62977409428E+02  0.62977409601E+02  0.46700000000E-02 0. -1.
         -1   -1    0    0    0  501 -0.00000000000E+00 -0.00000000000E+00 -0.15889184011E+01  0.15889252639E+01  0.46700000000E-02 0.  1.
       1023    2    1    2    0    0  0.00000000000E+00  0.00000000000E+00  0.61388491027E+02  0.64566334865E+02  0.20006618089E+02 0.  0.
        -11    1    3    3    0    0 -0.97896103270E+01 -0.20475452198E+01  0.30071129074E+02  0.31690719712E+02  0.51100000000E-03 0.  1.
         11    1    3    3    0    0  0.97896103270E+01  0.20475452198E+01  0.31317361953E+02  0.32875615153E+02  0.51100000000E-03 0. -1.
<mgrwt>
<rscale>  0 0.20006618E+02</rscale>
<asrwt>0</asrwt>
<pdfrwt beam="1">  1        1 0.96888340E-02 0.20006618E+02</pdfrwt>
<pdfrwt beam="2">  1       -1 0.24444949E-03 0.20006618E+02</pdfrwt>
<totfact> 0.42420841E+06</totfact>
</mgrwt>
</event>
<event>
 5    1  0.9583198E-007  0.2000625E+02  0.7818608E-02  0.1745204E+00
          1   -1    0    0  501    0  0.00000000000E+00  0.00000000000E+00  0.10388732352E+03  0.10388732362E+03  0.46700000000E-02 0. -1.
         -1   -1    0    0    0  501 -0.00000000000E+00 -0.00000000000E+00 -0.96317777104E+00  0.96318909230E+00  0.46700000000E-02 0.  1.
       1023    2    1    2    0    0  0.00000000000E+00  0.00000000000E+00  0.10292414575E+03  0.10485051272E+03  0.20006254995E+02 0.  0.
        -11    1    3    3    0    0  0.10002473810E+02  0.40858193532E-01  0.52021836566E+02  0.52974735787E+02  0.51100000000E-03 0.  1.
         11    1    3    3    0    0 -0.10002473810E+02 -0.40858193532E-01  0.50902309182E+02  0.51875776929E+02  0.51100000000E-03 0. -1.
<mgrwt>
<rscale>  0 0.20006255E+02</rscale>
<asrwt>0</asrwt>
<pdfrwt beam="1">  1        1 0.15982658E-01 0.20006255E+02</pdfrwt>
<pdfrwt beam="2">  1       -1 0.14818215E-03 0.20006255E+02</pdfrwt>
<totfact> 0.44517362E+06</totfact>
</mgrwt>
</event>
<event>
 4    1  0.9583198E-007  0.2004756E+02  0.7818608E-02  0.1744384E+00
         -1   -1    0    0    0  501 -0.00000000000E+00  0.00000000000E+00  0.10058066143E+01  0.10058174558E+01  0.46700000000E-02 0. -1.
          1   -1    0    0  501    0  0.00000000000E+00 -0.00000000000E+00 -0.99895563947E+02  0.99895564056E+02  0.46700000000E-02 0.  1.
        -11    1    1    2    0    0  0.99986672496E+01 -0.70904176994E+00 -0.49491052767E+02  0.50495944305E+02  0.51100000000E-03 0.  1.
         11    1    1    2    0    0 -0.99986672496E+01  0.70904176994E+00 -0.49398704565E+02  0.50405437207E+02  0.51100000000E-03 0. -1.
<mgrwt>
<rscale>  0 0.20047561E+02</rscale>
<asrwt>0</asrwt>
<pdfrwt beam="2">  1        1 0.15368541E-01 0.20047561E+02</pdfrwt>
<pdfrwt beam="1">  1       -1 0.15474040E-03 0.20047561E+02</pdfrwt>
<totfact> 0.44123722E+06</totfact>
</mgrwt>
</event>
<event>
 4    1  0.9583198E-007  0.2002045E+02  0.7818608E-02  0.1744922E+00
         -1   -1    0    0    0  501 -0.00000000000E+00  0.00000000000E+00  0.18034325447E+01  0.18034385912E+01  0.46700000000E-02 0.  1.
          1   -1    0    0  501    0  0.00000000000E+00 -0.00000000000E+00 -0.55563175033E+02  0.55563175229E+02  0.46700000000E-02 0. -1.
        -11    1    1    2    0    0  0.83751261777E+01  0.54813705398E+01 -0.26512301024E+02  0.28338847319E+02  0.51100000000E-03 0.  1.
         11    1    1    2    0    0 -0.83751261777E+01 -0.54813705398E+01 -0.27247441464E+02  0.29027766502E+02  0.51100000000E-03 0. -1.
<mgrwt>
<rscale>  0 0.20020451E+02</rscale>
<asrwt>0</asrwt>
<pdfrwt beam="2">  1        1 0.85481799E-02 0.20020451E+02</pdfrwt>
<pdfrwt beam="1">  1       -1 0.27745168E-03 0.20020451E+02</pdfrwt>
<totfact> 0.41940992E+06</totfact>
</mgrwt>
</event>
<event>
 5    1  0.9906244E-007  0.2000132E+02  0.7818608E-02  0.1745302E+00
         -1   -1    0    0    0  501 -0.00000000000E+00  0.00000000000E+00  0.23583113757E+01  0.23583159995E+01  0.46700000000E-02 0. -1.
          1   -1    0    0  501    0  0.00000000000E+00 -0.00000000000E+00 -0.42408784666E+02  0.42408784923E+02  0.46700000000E-02 0.  1.
       1023    2    1    2    0    0  0.00000000000E+00  0.00000000000E+00 -0.40050473290E+02  0.44767100922E+02  0.20001322812E+02 0.  0.
        -11    1    3    3    0    0 -0.77332376234E+01 -0.63408809113E+01 -0.19892946939E+02  0.22265198698E+02  0.51100000000E-03 0. -1.
         11    1    3    3    0    0  0.77332376234E+01  0.63408809113E+01 -0.20157526351E+02  0.22501902224E+02  0.51100000000E-03 0.  1.
<mgrwt>
<rscale>  0 0.20001323E+02</rscale>
<asrwt>0</asrwt>
<pdfrwt beam="2">  1        1 0.65244282E-02 0.20001323E+02</pdfrwt>
<pdfrwt beam="1">  1       -1 0.36281754E-03 0.20001323E+02</pdfrwt>
<totfact> 0.41253564E+06</totfact>
</mgrwt>
</event>
<event>
 5    1  0.9583198E-007  0.2000062E+02  0.7818608E-02  0.1745316E+00
          1   -1    0    0  501    0  0.00000000000E+00  0.00000000000E+00  0.30751285454E+01  0.30751320914E+01  0.46700000000E-02 0.  1.
         -1   -1    0    0    0  501 -0.00000000000E+00 -0.00000000000E+00 -0.32520946346E+02  0.32520946681E+02  0.46700000000E-02 0. -1.
       1023    2    1    2    0    0  0.00000000000E+00  0.00000000000E+00 -0.29445817801E+02  0.35596078773E+02  0.20000615942E+02 0.  0.
        -11    1    3    3    0    0 -0.76615768431E+01  0.64267971129E+01 -0.14815016715E+02  0.17874232889E+02  0.51100000000E-03 0. -1.
         11    1    3    3    0    0  0.76615768431E+01 -0.64267971129E+01 -0.14630801085E+02  0.17721845883E+02  0.51100000000E-03 0.  1.
<mgrwt>
<rscale>  0 0.20000616E+02</rscale>
<asrwt>0</asrwt>
<pdfrwt beam="1">  1        1 0.47309702E-03 0.20000616E+02</pdfrwt>
<pdfrwt beam="2">  1       -1 0.50032226E-02 0.20000616E+02</pdfrwt>
<totfact> 0.36269796E+06</totfact>
</mgrwt>
</event>
<event>
 5    1  0.9583198E-007  0.2000051E+02  0.7818608E-02  0.1745318E+00
         -1   -1    0    0    0  501 -0.00000000000E+00  0.00000000000E+00  0.19127696163E+02  0.19127696733E+02  0.46700000000E-02 0. -1.
          1   -1    0    0  501    0  0.00000000000E+00 -0.00000000000E+00 -0.52282842850E+01  0.52282863706E+01  0.46700000000E-02 0.  1.
       1023    2    1    2    0    0  0.00000000000E+00  0.00000000000E+00  0.13899411878E+02  0.24355983104E+02  0.20000506554E+02 0.  0.
        -11    1    3    3    0    0  0.74843731823E+01 -0.66322229582E+01  0.70146261221E+01  0.12215040041E+02  0.51100000000E-03 0.  1.
         11    1    3    3    0    0 -0.74843731823E+01  0.66322229582E+01  0.68847857563E+01  0.12140943063E+02  0.51100000000E-03 0. -1.
<mgrwt>
<rscale>  0 0.20000507E+02</rscale>
<asrwt>0</asrwt>
<pdfrwt beam="2">  1        1 0.80435164E-03 0.20000507E+02</pdfrwt>
<pdfrwt beam="1">  1       -1 0.29427227E-02 0.20000507E+02</pdfrwt>
<totfact> 0.37504392E+06</totfact>
</mgrwt>
</event>
<event>
 5    1  0.9583198E-007  0.2000866E+02  0.7818608E-02  0.1745156E+00
         -1   -1    0    0    0  501 -0.00000000000E+00  0.00000000000E+00  0.63863850376E+02  0.63863850546E+02  0.46700000000E-02 0.  1.
          1   -1    0    0  501    0  0.00000000000E+00 -0.00000000000E+00 -0.15671838586E+01  0.15671908165E+01  0.46700000000E-02 0. -1.
       1023    2    1    2    0    0  0.00000000000E+00  0.00000000000E+00  0.62296666517E+02  0.65431041363E+02  0.20008660992E+02 0.  0.
        -11    1    3    3    0    0  0.11088099280E+01 -0.99388959063E+01  0.32046978986E+02  0.33571118148E+02  0.51100000000E-03 0. -1.
         11    1    3    3    0    0 -0.11088099280E+01  0.99388959063E+01  0.30249687531E+02  0.31859923215E+02  0.51100000000E-03 0.  1.
<mgrwt>
<rscale>  0 0.20008661E+02</rscale>
<asrwt>0</asrwt>
<pdfrwt beam="2">  1        1 0.24110578E-03 0.20008661E+02</pdfrwt>
<pdfrwt beam="1">  1       -1 0.98252075E-02 0.20008661E+02</pdfrwt>
<totfact> 0.33957819E+06</totfact>
</mgrwt>
</event>
<event>
 4    1  0.9583198E-007  0.2005998E+02  0.7818608E-02  0.1744138E+00
          1   -1    0    0  501    0  0.00000000000E+00  0.00000000000E+00  0.96899665825E+01  0.96899677078E+01  0.46700000000E-02 0.  1.
         -1   -1    0    0    0  501 -0.00000000000E+00 -0.00000000000E+00 -0.10381939136E+02  0.10381940186E+02  0.46700000000E-02 0. -1.
        -11    1    1    2    0    0  0.50331227681E+00  0.10017348016E+02 -0.33701769580E+00  0.10035644758E+02  0.51100000000E-03 0.  1.
         11    1    1    2    0    0 -0.50331227681E+00 -0.10017348016E+02 -0.35495485743E+00  0.10036263136E+02  0.51100000000E-03 0. -1.
<mgrwt>
<rscale>  0 0.20059977E+02</rscale>
<asrwt>0</asrwt>
<pdfrwt beam="1">  1        1 0.14907643E-02 0.20059977E+02</pdfrwt>
<pdfrwt beam="2">  1       -1 0.15972216E-02 0.20059977E+02</pdfrwt>
<totfact> 0.38313980E+06</totfact>
</mgrwt>
</event>
<event>
 5    1  0.9583198E-007  0.2000063E+02  0.7818608E-02  0.1745316E+00
         -1   -1    0    0    0  501 -0.00000000000E+00  0.00000000000E+00  0.21734070088E+02  0.21734070590E+02  0.46700000000E-02 0.  1.
          1   -1    0    0  501    0  0.00000000000E+00 -0.00000000000E+00 -0.46013601252E+01  0.46013624951E+01  0.46700000000E-02 0. -1.
       1023    2    1    2    0    0  0.00000000000E+00  0.00000000000E+00  0.17132709963E+02  0.26335433085E+02  0.20000632117E+02 0.  0.
        -11    1    3    3    0    0 -0.88975390702E+01 -0.45649619227E+01  0.86127620324E+01  0.13197906991E+02  0.51100000000E-03 0.  1.
         11    1    3    3    0    0  0.88975390702E+01  0.45649619227E+01  0.85199479304E+01  0.13137526094E+02  0.51100000000E-03 0. -1.
<mgrwt>
<rscale>  0 0.20000632E+02</rscale>
<asrwt>0</asrwt>
<pdfrwt beam="2">  1        1 0.70790178E-03 0.20000632E+02</pdfrwt>
<pdfrwt beam="1">  1       -1 0.33437033E-02 0.20000632E+02</pdfrwt>
<totfact> 0.37240996E+06</totfact>
</mgrwt>
</event>
<event>
 4    1  0.9583198E-007  0.2002442E+02  0.7818608E-02  0.1744843E+00
          1   -1    0    0  501    0  0.00000000000E+00  0.00000000000E+00  0.37080370761E+02  0.37080371056E+02  0.46700000000E-02 0.  1.
         -1   -1    0    0    0  501 -0.00000000000E+00 -0.00000000000E+00 -0.27034329106E+01  0.27034369442E+01  0.46700000000E-02 0. -1.
        -11    1    1    2    0    0 -0.98263825054E+01  0.18633938243E+01  0.18108301703E+02  0.20686725708E+02  0.51100000000E-03 0.  1.
         11    1    1    2    0    0  0.98263825054E+01 -0.18633938243E+01  0.16268636148E+02  0.19097082292E+02  0.51100000000E-03 0. -1.
<mgrwt>
<rscale>  0 0.20024423E+02</rscale>
<asrwt>0</asrwt>
<pdfrwt beam="1">  1        1 0.57046724E-02 0.20024423E+02</pdfrwt>
<pdfrwt beam="2">  1       -1 0.41591311E-03 0.20024423E+02</pdfrwt>
<totfact> 0.40814553E+06</totfact>
</mgrwt>
</event>
<event>
 5    1  0.9583198E-007  0.2000023E+02  0.7818608E-02  0.1745323E+00
         -1   -1    0    0    0  501 -0.00000000000E+00  0.00000000000E+00  0.52576288196E+02  0.52576288404E+02  0.46700000000E-02 0.  1.
          1   -1    0    0  501    0  0.00000000000E+00 -0.00000000000E+00 -0.19020392717E+01  0.19020450047E+01  0.46700000000E-02 0. -1.
       1023    2    1    2    0    0  0.00000000000E+00  0.00000000000E+00  0.50674248925E+02  0.54478333409E+02  0.20000232671E+02 0.  0.
        -11    1    3    3    0    0  0.99132448604E+01 -0.13151567804E+01  0.25381503033E+02  0.27280446431E+02  0.51100000000E-03 0.  1.
         11    1    3    3    0    0 -0.99132448604E+01  0.13151567804E+01  0.25292745892E+02  0.27197886977E+02  0.51100000000E-03 0. -1.
<mgrwt>
<rscale>  0 0.20000233E+02</rscale>
<asrwt>0</asrwt>
<pdfrwt beam="2">  1        1 0.29262191E-03 0.20000233E+02</pdfrwt>
<pdfrwt beam="1">  1       -1 0.80886595E-02 0.20000233E+02</pdfrwt>
<totfact> 0.34747155E+06</totfact>
</mgrwt>
</event>
<event>
 5    1  0.9583198E-007  0.2000899E+02  0.7818608E-02  0.1745149E+00
          1   -1    0    0  501    0  0.00000000000E+00  0.00000000000E+00  0.23564862624E+02  0.23564863087E+02  0.46700000000E-02 0.  1.
         -1   -1    0    0    0  501 -0.00000000000E+00 -0.00000000000E+00 -0.42474207957E+01  0.42474233630E+01  0.46700000000E-02 0. -1.
       1023    2    1    2    0    0  0.00000000000E+00  0.00000000000E+00  0.19317441829E+02  0.27812286450E+02  0.20008990949E+02 0.  0.
        -11    1    3    3    0    0 -0.98141301754E+01 -0.19350729747E+01  0.98924331507E+01  0.14068471574E+02  0.51100000000E-03 0.  1.
         11    1    3    3    0    0  0.98141301754E+01  0.19350729747E+01  0.94250086781E+01  0.13743814877E+02  0.51100000000E-03 0. -1.
<mgrwt>
<rscale>  0 0.20008991E+02</rscale>
<asrwt>0</asrwt>
<pdfrwt beam="1">  1        1 0.36253636E-02 0.20008991E+02</pdfrwt>
<pdfrwt beam="2">  1       -1 0.65344961E-03 0.20008991E+02</pdfrwt>
<totfact> 0.39950705E+06</totfact>
</mgrwt>
</event>
<event>
 5    1  0.9583198E-007  0.2000233E+02  0.7818608E-02  0.1745282E+00
          1   -1    0    0  501    0  0.00000000000E+00  0.00000000000E+00  0.21985831427E+01  0.21985881024E+01  0.46700000000E-02 0. -1.
         -1   -1    0    0    0  501 -0.00000000000E+00 -0.00000000000E+00 -0.45494368109E+02  0.45494368349E+02  0.46700000000E-02 0.  1.
       1023    2    1    2    0    0  0.00000000000E+00  0.00000000000E+00 -0.43295784966E+02  0.47692956451E+02  0.20002327344E+02 0.  0.
        -11    1    3    3    0    0  0.70825625689E+01  0.70595712155E+01 -0.22009784989E+02  0.24175005146E+02  0.51100000000E-03 0. -1.
         11    1    3    3    0    0 -0.70825625689E+01 -0.70595712155E+01 -0.21285999977E+02  0.23517951305E+02  0.51100000000E-03 0.  1.
<mgrwt>
<rscale>  0 0.20002327E+02</rscale>
<asrwt>0</asrwt>
<pdfrwt beam="1">  1        1 0.33824400E-03 0.20002327E+02</pdfrwt>
<pdfrwt beam="2">  1       -1 0.69991332E-02 0.20002327E+02</pdfrwt>
<totfact> 0.35246978E+06</totfact>
</mgrwt>
</event>
<event>
 5    1  0.9583198E-007  0.2000417E+02  0.7818608E-02  0.1745245E+00
          1   -1    0    0  501    0  0.00000000000E+00  0.00000000000E+00  0.12013715838E+02  0.12013716746E+02  0.46700000000E-02 0. -1.
         -1   -1    0    0    0  501 -0.00000000000E+00 -0.00000000000E+00 -0.83272852435E+01  0.83272865530E+01  0.46700000000E-02 0.  1.
       1023    2    1    2    0    0  0.00000000000E+00  0.00000000000E+00  0.36864305946E+01  0.20341003299E+02  0.20004165683E+02 0.  0.
        -11    1    3    3    0    0 -0.83602896337E+01  0.54906156173E+01  0.18624626015E+01  0.10173989867E+02  0.51100000000E-03 0. -1.
         11    1    3    3    0    0  0.83602896337E+01 -0.54906156173E+01  0.18239679931E+01  0.10167013432E+02  0.51100000000E-03 0.  1.
<mgrwt>
<rscale>  0 0.20004166E+02</rscale>
<asrwt>0</asrwt>
<pdfrwt beam="1">  1        1 0.18482641E-02 0.20004166E+02</pdfrwt>
<pdfrwt beam="2">  1       -1 0.12811210E-02 0.20004166E+02</pdfrwt>
<totfact> 0.38886888E+06</totfact>
</mgrwt>
</event>
<event>
 4    1  0.9583198E-007  0.2004184E+02  0.7818608E-02  0.1744497E+00
         -1   -1    0    0    0  501 -0.00000000000E+00  0.00000000000E+00  0.12591088958E+02  0.12591089824E+02  0.46700000000E-02 0. -1.
          1   -1    0    0  501    0  0.00000000000E+00 -0.00000000000E+00 -0.79753884302E+01  0.79753897974E+01  0.46700000000E-02 0.  1.
        -11    1    1    2    0    0  0.63683175862E+01  0.77249905272E+01  0.18630283482E+01  0.10183409174E+02  0.51100000000E-03 0.  1.
         11    1    1    2    0    0 -0.63683175862E+01 -0.77249905272E+01  0.27526721797E+01  0.10383070447E+02  0.51100000000E-03 0. -1.
<mgrwt>
<rscale>  0 0.20041841E+02</rscale>
<asrwt>0</asrwt>
<pdfrwt beam="2">  1        1 0.12269830E-02 0.20041841E+02</pdfrwt>
<pdfrwt beam="1">  1       -1 0.19370908E-02 0.20041841E+02</pdfrwt>
<totfact> 0.38082602E+06</totfact>
</mgrwt>
</event>
<event>
 5    1  0.9583198E-007  0.2000036E+02  0.7818608E-02  0.1745321E+00
          1   -1    0    0  501    0  0.00000000000E+00  0.00000000000E+00  0.12862411820E+01  0.12862496598E+01  0.46700000000E-02 0.  1.
         -1   -1    0    0    0  501 -0.00000000000E+00 -0.00000000000E+00 -0.77748440610E+02  0.77748440750E+02  0.46700000000E-02 0. -1.
       1023    2    1    2    0    0  0.00000000000E+00  0.00000000000E+00 -0.76462199428E+02  0.79034690410E+02  0.20000358668E+02 0.  0.
        -11    1    3    3    0    0 -0.44629251715E+01  0.89489227733E+01 -0.38435158689E+02  0.39714762288E+02  0.51100000000E-03 0.  1.
         11    1    3    3    0    0  0.44629251715E+01 -0.89489227733E+01 -0.38027040739E+02  0.39319928122E+02  0.51100000000E-03 0. -1.
<mgrwt>
<rscale>  0 0.20000359E+02</rscale>
<asrwt>0</asrwt>
<pdfrwt beam="1">  1        1 0.19788398E-03 0.20000359E+02</pdfrwt>
<pdfrwt beam="2">  1       -1 0.11961296E-01 0.20000359E+02</pdfrwt>
<totfact> 0.33125932E+06</totfact>
</mgrwt>
</event>
<event>
 5    1  0.9583198E-007  0.2000005E+02  0.7818608E-02  0.1745327E+00
          1   -1    0    0  501    0  0.00000000000E+00  0.00000000000E+00  0.13818132688E+01  0.13818211602E+01  0.46700000000E-02 0.  1.
         -1   -1    0    0    0  501 -0.00000000000E+00 -0.00000000000E+00 -0.72368833666E+02  0.72368833817E+02  0.46700000000E-02 0. -1.
       1023    2    1    2    0    0  0.00000000000E+00  0.00000000000E+00 -0.70987020397E+02  0.73750654977E+02  0.20000051116E+02 0.  0.
        -11    1    3    3    0    0 -0.23453617322E+01 -0.97210900349E+01 -0.35441650903E+02  0.36825411499E+02  0.51100000000E-03 0. -1.
         11    1    3    3    0    0  0.23453617322E+01  0.97210900349E+01 -0.35545369495E+02  0.36925243478E+02  0.51100000000E-03 0.  1.
<mgrwt>
<rscale>  0 0.20000051E+02</rscale>
<asrwt>0</asrwt>
<pdfrwt beam="1">  1        1 0.21258733E-03 0.20000051E+02</pdfrwt>
<pdfrwt beam="2">  1       -1 0.11133664E-01 0.20000051E+02</pdfrwt>
<totfact> 0.33453471E+06</totfact>
</mgrwt>
</event>
<event>
 4    1  0.9583198E-007  0.2001618E+02  0.7818608E-02  0.1745007E+00
         -1   -1    0    0    0  501 -0.00000000000E+00  0.00000000000E+00  0.55725852200E+02  0.55725852396E+02  0.46700000000E-02 0. -1.
          1   -1    0    0  501    0  0.00000000000E+00 -0.00000000000E+00 -0.17974000231E+01  0.17974060899E+01  0.46700000000E-02 0.  1.
        -11    1    1    2    0    0 -0.15021263674E+00  0.10002434280E+02  0.26099336637E+02  0.27950789408E+02  0.51100000000E-03 0. -1.
         11    1    1    2    0    0  0.15021263674E+00 -0.10002434280E+02  0.27829115540E+02  0.29572469078E+02  0.51100000000E-03 0.  1.
<mgrwt>
<rscale>  0 0.20016176E+02</rscale>
<asrwt>0</asrwt>
<pdfrwt beam="2">  1        1 0.27652361E-03 0.20016176E+02</pdfrwt>
<pdfrwt beam="1">  1       -1 0.85732072E-02 0.20016176E+02</pdfrwt>
<totfact> 0.34469402E+06</totfact>
</mgrwt>
</event>
<event>
 5    1  0.9583198E-007  0.2000038E+02  0.7818608E-02  0.1745321E+00
         -1   -1    0    0    0  501 -0.00000000000E+00  0.00000000000E+00  0.13106175985E+02  0.13106176817E+02  0.46700000000E-02 0.  1.
          1   -1    0    0  501    0  0.00000000000E+00 -0.00000000000E+00 -0.76302768263E+01  0.76302782554E+01  0.46700000000E-02 0. -1.
       1023    2    1    2    0    0  0.00000000000E+00  0.00000000000E+00  0.54758991583E+01  0.20736455072E+02  0.20000377431E+02 0.  0.
        -11    1    3    3    0    0  0.69936038068E+01  0.71477475010E+01  0.27946005711E+01  0.10383187428E+02  0.51100000000E-03 0. -1.
         11    1    3    3    0    0 -0.69936038068E+01 -0.71477475010E+01  0.26812985872E+01  0.10353267644E+02  0.51100000000E-03 0.  1.
<mgrwt>
<rscale>  0 0.20000377E+02</rscale>
<asrwt>0</asrwt>
<pdfrwt beam="2">  1        1 0.11738889E-02 0.20000377E+02</pdfrwt>
<pdfrwt beam="1">  1       -1 0.20163349E-02 0.20000377E+02</pdfrwt>
<totfact> 0.38189454E+06</totfact>
</mgrwt>
</event>
<event>
 5    1  0.9583198E-007  0.2000049E+02  0.7818608E-02  0.1745318E+00
          1   -1    0    0  501    0  0.00000000000E+00  0.00000000000E+00  0.11453945406E+01  0.11454040608E+01  0.46700000000E-02 0. -1.
         -1   -1    0    0    0  501 -0.00000000000E+00 -0.00000000000E+00 -0.87310079483E+02  0.87310079607E+02  0.46700000000E-02 0.  1.
       1023    2    1    2    0    0  0.00000000000E+00  0.00000000000E+00 -0.86164684942E+02  0.88455483668E+02  0.20000491490E+02 0.  0.
        -11    1    3    3    0    0  0.97608414945E+01 -0.21744289090E+01 -0.42850545121E+02  0.44001947515E+02  0.51100000000E-03 0. -1.
         11    1    3    3    0    0 -0.97608414945E+01  0.21744289090E+01 -0.43314139821E+02  0.44453536153E+02  0.51100000000E-03 0.  1.
<mgrwt>
<rscale>  0 0.20000491E+02</rscale>
<asrwt>0</asrwt>
<pdfrwt beam="1">  1        1 0.17621536E-03 0.20000491E+02</pdfrwt>
<pdfrwt beam="2">  1       -1 0.13432315E-01 0.20000491E+02</pdfrwt>
<totfact> 0.32567651E+06</totfact>
</mgrwt>
</event>
<event>
 5    1  0.9583198E-007  0.2000086E+02  0.7818608E-02  0.1745311E+00
          1   -1    0    0  501    0  0.00000000000E+00  0.00000000000E+00  0.11041930977E+02  0.11041931964E+02  0.46700000000E-02 0. -1.
         -1   -1    0    0    0  501 -0.00000000000E+00 -0.00000000000E+00 -0.90571652861E+01  0.90571664901E+01  0.46700000000E-02 0.  1.
       1023    2    1    2    0    0  0.00000000000E+00  0.00000000000E+00  0.19847656907E+01  0.20099098454E+02  0.20000861577E+02 0.  0.
        -11    1    3    3    0    0 -0.39624364558E+01  0.91817382930E+01  0.93383047075E+00  0.10043767239E+02  0.51100000000E-03 0. -1.
         11    1    3    3    0    0  0.39624364558E+01 -0.91817382930E+01  0.10509352199E+01  0.10055331215E+02  0.51100000000E-03 0.  1.
<mgrwt>
<rscale>  0 0.20000862E+02</rscale>
<asrwt>0</asrwt>
<pdfrwt beam="1">  1        1 0.16987588E-02 0.20000862E+02</pdfrwt>
<pdfrwt beam="2">  1       -1 0.13934102E-02 0.20000862E+02</pdfrwt>
<totfact> 0.38772748E+06</totfact>
</mgrwt>
</event>
<event>
 5    1  0.9583198E-007  0.2000043E+02  0.7818608E-02  0.1745319E+00
         -1   -1    0    0    0  501 -0.00000000000E+00  0.00000000000E+00  0.32415329136E+02  0.32415329473E+02  0.46700000000E-02 0. -1.
          1   -1    0    0  501    0  0.00000000000E+00 -0.00000000000E+00 -0.30850913429E+01  0.30850948774E+01  0.46700000000E-02 0.  1.
       1023    2    1    2    0    0  0.00000000000E+00  0.00000000000E+00  0.29330237793E+02  0.35500424350E+02  0.20000431996E+02 0.  0.
        -11    1    3    3    0    0 -0.96744334254E+01 -0.25311714239E+01  0.14570712781E+02  0.17672214408E+02  0.51100000000E-03 0.  1.
         11    1    3    3    0    0  0.96744334254E+01  0.25311714239E+01  0.14759525012E+02  0.17828209942E+02  0.51100000000E-03 0. -1.
<mgrwt>
<rscale>  0 0.20000432E+02</rscale>
<asrwt>0</asrwt>
<pdfrwt beam="2">  1        1 0.47462974E-03 0.20000432E+02</pdfrwt>
<pdfrwt beam="1">  1       -1 0.49869739E-02 0.20000432E+02</pdfrwt>
<totfact> 0.36279375E+06</totfact>
</mgrwt>
</event>
<event>
 5    1  0.9583198E-007  0.2000347E+02  0.7818608E-02  0.1745259E+00
         -1   -1    0    0    0  501 -0.00000000000E+00  0.00000000000E+00  0.97525048816E+00  0.97526166928E+00  0.46700000000E-02 0. -1.
          1   -1    0    0  501    0  0.00000000000E+00 -0.00000000000E+00 -0.10257275449E+03  0.10257275460E+03  0.46700000000E-02 0.  1.
       1023    2    1    2    0    0  0.00000000000E+00  0.00000000000E+00 -0.10159750401E+03  0.10354801627E+03  0.20003471028E+02 0.  0.
        -11    1    3    3    0    0  0.87952919216E+01  0.47596329045E+01 -0.51591410538E+02  0.52551735527E+02  0.51100000000E-03 0.  1.
         11    1    3    3    0    0 -0.87952919216E+01 -0.47596329045E+01 -0.50006093469E+02  0.50996280744E+02  0.51100000000E-03 0. -1.
<mgrwt>
<rscale>  0 0.20003471E+02</rscale>
<asrwt>0</asrwt>
<pdfrwt beam="2">  1        1 0.15780416E-01 0.20003471E+02</pdfrwt>
<pdfrwt beam="1">  1       -1 0.15003949E-03 0.20003471E+02</pdfrwt>
<totfact> 0.44467946E+06</totfact>
</mgrwt>
</event>
<event>
 5    1  0.9583198E-007  0.2000128E+02  0.7818608E-02  0.1745303E+00
         -1   -1    0    0    0  501 -0.00000000000E+00  0.00000000000E+00  0.60182270888E+02  0.60182271069E+02  0.46700000000E-02 0. -1.
          1   -1    0    0  501    0  0.00000000000E+00 -0.00000000000E+00 -0.16618282613E+01  0.16618348230E+01  0.46700000000E-02 0.  1.
       1023    2    1    2    0    0  0.00000000000E+00  0.00000000000E+00  0.58520442627E+02  0.61844105892E+02  0.20001280669E+02 0.  0.
        -11    1    3    3    0    0 -0.56404080585E+01 -0.82582393865E+01  0.29288896194E+02  0.30949186765E+02  0.51100000000E-03 0. -1.
         11    1    3    3    0    0  0.56404080585E+01  0.82582393865E+01  0.29231546432E+02  0.30894919128E+02  0.51100000000E-03 0.  1.
<mgrwt>
<rscale>  0 0.20001281E+02</rscale>
<asrwt>0</asrwt>
<pdfrwt beam="2">  1        1 0.25566640E-03 0.20001281E+02</pdfrwt>
<pdfrwt beam="1">  1       -1 0.92588117E-02 0.20001281E+02</pdfrwt>
<totfact> 0.34226297E+06</totfact>
</mgrwt>
</event>
<event>
 5    1  0.9583198E-007  0.2000024E+02  0.7818608E-02  0.1745323E+00
         -1   -1    0    0    0  501 -0.00000000000E+00  0.00000000000E+00  0.11399232854E+02  0.11399233811E+02  0.46700000000E-02 0.  1.
          1   -1    0    0  501    0  0.00000000000E+00 -0.00000000000E+00 -0.87727282243E+01  0.87727294673E+01  0.46700000000E-02 0. -1.
       1023    2    1    2    0    0  0.00000000000E+00  0.00000000000E+00  0.26265046302E+01  0.20171963278E+02  0.20000239397E+02 0.  0.
        -11    1    3    3    0    0 -0.86683422027E+01  0.49861728746E+01  0.13312165447E+01  0.10088320684E+02  0.51100000000E-03 0.  1.
         11    1    3    3    0    0  0.86683422027E+01 -0.49861728746E+01  0.12952880854E+01  0.10083642594E+02  0.51100000000E-03 0. -1.
<mgrwt>
<rscale>  0 0.20000239E+02</rscale>
<asrwt>0</asrwt>
<pdfrwt beam="2">  1        1 0.13496507E-02 0.20000239E+02</pdfrwt>
<pdfrwt beam="1">  1       -1 0.17537283E-02 0.20000239E+02</pdfrwt>
<totfact> 0.38417322E+06</totfact>
</mgrwt>
</event>
<event>
 5    1  0.9583198E-007  0.2000008E+02  0.7818608E-02  0.1745326E+00
          1   -1    0    0  501    0  0.00000000000E+00  0.00000000000E+00  0.77559757303E+02  0.77559757443E+02  0.46700000000E-02 0.  1.
         -1   -1    0    0    0  501 -0.00000000000E+00 -0.00000000000E+00 -0.12893345968E+01  0.12893430542E+01  0.46700000000E-02 0. -1.
       1023    2    1    2    0    0  0.00000000000E+00  0.00000000000E+00  0.76270422706E+02  0.78849100498E+02  0.20000081738E+02 0.  0.
        -11    1    3    3    0    0  0.80079073705E+01 -0.59895104113E+01  0.38130069135E+02  0.39419576202E+02  0.51100000000E-03 0.  1.
         11    1    3    3    0    0 -0.80079073705E+01  0.59895104113E+01  0.38140353571E+02  0.39429524296E+02  0.51100000000E-03 0. -1.
<mgrwt>
<rscale>  0 0.20000082E+02</rscale>
<asrwt>0</asrwt>
<pdfrwt beam="1">  1        1 0.11932275E-01 0.20000082E+02</pdfrwt>
<pdfrwt beam="2">  1       -1 0.19835976E-03 0.20000082E+02</pdfrwt>
<totfact> 0.43232558E+06</totfact>
</mgrwt>
</event>
<event>
 5    1  0.9583198E-007  0.2000403E+02  0.7818608E-02  0.1745248E+00
         -1   -1    0    0    0  501 -0.00000000000E+00  0.00000000000E+00  0.24207455562E+01  0.24207500608E+01  0.46700000000E-02 0.  1.
          1   -1    0    0  501    0  0.00000000000E+00 -0.00000000000E+00 -0.41326192464E+02  0.41326192728E+02  0.46700000000E-02 0. -1.
       1023    2    1    2    0    0  0.00000000000E+00  0.00000000000E+00 -0.38905446908E+02  0.43746942789E+02  0.20004029701E+02 0.  0.
        -11    1    3    3    0    0 -0.56167105820E+01 -0.82744496449E+01 -0.19807690887E+02  0.22189154406E+02  0.51100000000E-03 0. -1.
         11    1    3    3    0    0  0.56167105820E+01  0.82744496449E+01 -0.19097756021E+02  0.21557788384E+02  0.51100000000E-03 0.  1.
<mgrwt>
<rscale>  0 0.20004030E+02</rscale>
<asrwt>0</asrwt>
<pdfrwt beam="2">  1        1 0.63578756E-02 0.20004030E+02</pdfrwt>
<pdfrwt beam="1">  1       -1 0.37242279E-03 0.20004030E+02</pdfrwt>
<totfact> 0.41174406E+06</totfact>
</mgrwt>
</event>
<event>
 5    1  0.9583198E-007  0.2000017E+02  0.7818608E-02  0.1745325E+00
         -1   -1    0    0    0  501 -0.00000000000E+00  0.00000000000E+00  0.68760046482E+01  0.68760062341E+01  0.46700000000E-02 0.  1.
          1   -1    0    0  501    0  0.00000000000E+00 -0.00000000000E+00 -0.14543578399E+02  0.14543579149E+02  0.46700000000E-02 0. -1.
       1023    2    1    2    0    0  0.00000000000E+00  0.00000000000E+00 -0.76675737509E+01  0.21419585383E+02  0.20000173768E+02 0.  0.
        -11    1    3    3    0    0 -0.98878473664E+01  0.14940326810E+01 -0.38432595997E+01  0.10713183645E+02  0.51100000000E-03 0.  1.
         11    1    3    3    0    0  0.98878473664E+01 -0.14940326810E+01 -0.38243141513E+01  0.10706401738E+02  0.51100000000E-03 0. -1.
<mgrwt>
<rscale>  0 0.20000174E+02</rscale>
<asrwt>0</asrwt>
<pdfrwt beam="2">  1        1 0.22374738E-02 0.20000174E+02</pdfrwt>
<pdfrwt beam="1">  1       -1 0.10578470E-02 0.20000174E+02</pdfrwt>
<totfact> 0.39196207E+06</totfact>
</mgrwt>
</event>
<event>
 5    1  0.9583198E-007  0.2000019E+02  0.7818608E-02  0.1745324E+00
         -1   -1    0    0    0  501 -0.00000000000E+00  0.00000000000E+00  0.10927296532E+01  0.10927396323E+01  0.46700000000E-02 0. -1.
          1   -1    0    0  501    0  0.00000000000E+00 -0.00000000000E+00 -0.91515235730E+02  0.91515235849E+02  0.46700000000E-02 0.  1.
       1023    2    1    2    0    0  0.00000000000E+00  0.00000000000E+00 -0.90422506076E+02  0.92607975481E+02  0.20000187938E+02 0.  0.
        -11    1    3    3    0    0  0.99340237296E+01 -0.11470398849E+01 -0.45041049088E+02  0.46137800458E+02  0.51100000000E-03 0. -1.
         11    1    3    3    0    0 -0.99340237296E+01  0.11470398849E+01 -0.45381456989E+02  0.46470175023E+02  0.51100000000E-03 0.  1.
<mgrwt>
<rscale>  0 0.20000188E+02</rscale>
<asrwt>0</asrwt>
<pdfrwt beam="2">  1        1 0.14079262E-01 0.20000188E+02</pdfrwt>
<pdfrwt beam="1">  1       -1 0.16811310E-03 0.20000188E+02</pdfrwt>
<totfact> 0.43942625E+06</totfact>
</mgrwt>
</event>
<event>
 5    1  0.9881679E-007  0.2000179E+02  0.7818608E-02  0.1745293E+00
          1   -1    0    0  501    0  0.00000000000E+00  0.00000000000E+00  0.16017771093E+02  0.16017771774E+02  0.46700000000E-02 0. -1.
         -1   -1    0    0    0  501 -0.00000000000E+00 -0.00000000000E+00 -0.62441799480E+01  0.62441816943E+01  0.46700000000E-02 0.  1.
       1023    2    1    2    0    0  0.00000000000E+00  0.00000000000E+00  0.97735911452E+01  0.22261953468E+02  0.20001787129E+02 0.  0.
        -11    1    3    3    0    0 -0.93771566039E+01 -0.34753287352E+01  0.49917722143E+01  0.11177064279E+02  0.51100000000E-03 0.  1.
         11    1    3    3    0    0  0.93771566039E+01  0.34753287352E+01  0.47818189309E+01  0.11084889189E+02  0.51100000000E-03 0. -1.
<mgrwt>
<rscale>  0 0.20001787E+02</rscale>
<asrwt>0</asrwt>
<pdfrwt beam="1">  1        1 0.24642726E-02 0.20001787E+02</pdfrwt>
<pdfrwt beam="2">  1       -1 0.96064327E-03 0.20001787E+02</pdfrwt>
<totfact> 0.39338947E+06</totfact>
</mgrwt>
</event>
<event>
 5    1  0.9583198E-007  0.2000048E+02  0.7818608E-02  0.1745319E+00
          1   -1    0    0  501    0  0.00000000000E+00  0.00000000000E+00  0.15722604919E+02  0.15722605613E+02  0.46700000000E-02 0. -1.
         -1   -1    0    0    0  501 -0.00000000000E+00 -0.00000000000E+00 -0.63605698193E+01  0.63605715337E+01  0.46700000000E-02 0.  1.
       1023    2    1    2    0    0  0.00000000000E+00  0.00000000000E+00  0.93620350999E+01  0.22083177146E+02  0.20000475286E+02 0.  0.
        -11    1    3    3    0    0 -0.26079243326E+01  0.96541862316E+01  0.46665564870E+01  0.11035457889E+02  0.51100000000E-03 0. -1.
         11    1    3    3    0    0  0.26079243326E+01 -0.96541862316E+01  0.46954786129E+01  0.11047719257E+02  0.51100000000E-03 0.  1.
<mgrwt>
<rscale>  0 0.20000475E+02</rscale>
<asrwt>0</asrwt>
<pdfrwt beam="1">  1        1 0.24188625E-02 0.20000475E+02</pdfrwt>
<pdfrwt beam="2">  1       -1 0.97854939E-03 0.20000475E+02</pdfrwt>
<totfact> 0.39315656E+06</totfact>
</mgrwt>
</event>
<event>
 5    1  0.9583198E-007  0.2000113E+02  0.7818608E-02  0.1745306E+00
          1   -1    0    0  501    0  0.00000000000E+00  0.00000000000E+00  0.13404762114E+01  0.13404843461E+01  0.46700000000E-02 0. -1.
         -1   -1    0    0    0  501 -0.00000000000E+00 -0.00000000000E+00 -0.74608520320E+02  0.74608520466E+02  0.46700000000E-02 0.  1.
       1023    2    1    2    0    0  0.00000000000E+00  0.00000000000E+00 -0.73268044109E+02  0.75949004812E+02  0.20001126080E+02 0.  0.
        -11    1    3    3    0    0 -0.92277857132E+01 -0.38547290500E+01 -0.36568731618E+02  0.37911516689E+02  0.51100000000E-03 0. -1.
         11    1    3    3    0    0  0.92277857132E+01  0.38547290500E+01 -0.36699312491E+02  0.38037488124E+02  0.51100000000E-03 0.  1.
<mgrwt>
<rscale>  0 0.20001126E+02</rscale>
<asrwt>0</asrwt>
<pdfrwt beam="1">  1        1 0.20622780E-03 0.20001126E+02</pdfrwt>
<pdfrwt beam="2">  1       -1 0.11478231E-01 0.20001126E+02</pdfrwt>
<totfact> 0.33312467E+06</totfact>
</mgrwt>
</event>
<event>
 5    1  0.9583198E-007  0.2000578E+02  0.7818608E-02  0.1745213E+00
          1   -1    0    0  501    0  0.00000000000E+00  0.00000000000E+00  0.16354045296E+01  0.16354111974E+01  0.46700000000E-02 0.  1.
         -1   -1    0    0    0  501 -0.00000000000E+00 -0.00000000000E+00 -0.61182197716E+02  0.61182197894E+02  0.46700000000E-02 0. -1.
       1023    2    1    2    0    0  0.00000000000E+00  0.00000000000E+00 -0.59546793187E+02  0.62817609092E+02  0.20005784994E+02 0.  0.
        -11    1    3    3    0    0  0.79229559684E+01  0.61058856707E+01 -0.29939160372E+02  0.31565937261E+02  0.51100000000E-03 0.  1.
         11    1    3    3    0    0 -0.79229559684E+01 -0.61058856707E+01 -0.29607632815E+02  0.31251671831E+02  0.51100000000E-03 0. -1.
<mgrwt>
<rscale>  0 0.20005785E+02</rscale>
<asrwt>0</asrwt>
<pdfrwt beam="1">  1        1 0.25160127E-03 0.20005785E+02</pdfrwt>
<pdfrwt beam="2">  1       -1 0.94126446E-02 0.20005785E+02</pdfrwt>
<totfact> 0.34143399E+06</totfact>
</mgrwt>
</event>
<event>
 5    1  0.9963526E-007  0.2000101E+02  0.7818608E-02  0.1745308E+00
          1   -1    0    0  501    0  0.00000000000E+00  0.00000000000E+00  0.25354052953E+02  0.25354053383E+02  0.46700000000E-02 0. -1.
         -1   -1    0    0    0  501 -0.00000000000E+00 -0.00000000000E+00 -0.39445399052E+01  0.39445426697E+01  0.46700000000E-02 0.  1.
       1023    2    1    2    0    0  0.00000000000E+00  0.00000000000E+00  0.21409513048E+02  0.29298596053E+02  0.20001012018E+02 0.  0.
        -11    1    3    3    0    0  0.95484869519E+01  0.29714119627E+01  0.10829295517E+02  0.14740303042E+02  0.51100000000E-03 0.  1.
         11    1    3    3    0    0 -0.95484869519E+01 -0.29714119627E+01  0.10580217531E+02  0.14558293011E+02  0.51100000000E-03 0. -1.
<mgrwt>
<rscale>  0 0.20001012E+02</rscale>
<asrwt>0</asrwt>
<pdfrwt beam="1">  1        1 0.39006236E-02 0.20001012E+02</pdfrwt>
<pdfrwt beam="2">  1       -1 0.60685256E-03 0.20001012E+02</pdfrwt>
<totfact> 0.40121081E+06</totfact>
</mgrwt>
</event>
<event>
 5    1  0.9692009E-007  0.2000133E+02  0.7818608E-02  0.1745302E+00
         -1   -1    0    0    0  501 -0.00000000000E+00  0.00000000000E+00  0.19575856101E+02  0.19575856658E+02  0.46700000000E-02 0.  1.
          1   -1    0    0  501    0  0.00000000000E+00 -0.00000000000E+00 -0.51090105611E+01  0.51090126955E+01  0.46700000000E-02 0. -1.
       1023    2    1    2    0    0  0.00000000000E+00  0.00000000000E+00  0.14466845540E+02  0.24684869354E+02  0.20001328834E+02 0.  0.
        -11    1    3    3    0    0 -0.26103352611E+01  0.96538173933E+01  0.73037600419E+01  0.12383656627E+02  0.51100000000E-03 0.  1.
         11    1    3    3    0    0  0.26103352611E+01 -0.96538173933E+01  0.71630854980E+01  0.12301212727E+02  0.51100000000E-03 0. -1.
<mgrwt>
<rscale>  0 0.20001329E+02</rscale>
<asrwt>0</asrwt>
<pdfrwt beam="2">  1        1 0.78600183E-03 0.20001329E+02</pdfrwt>
<pdfrwt beam="1">  1       -1 0.30116704E-02 0.20001329E+02</pdfrwt>
<totfact> 0.37454703E+06</totfact>
</mgrwt>
</event>
<event>
 5    1  0.9583198E-007  0.2000026E+02  0.7818608E-02  0.1745323E+00
         -1   -1    0    0    0  501 -0.00000000000E+00  0.00000000000E+00  0.14399405926E+01  0.14399481654E+01  0.46700000000E-02 0.  1.
          1   -1    0    0  501    0  0.00000000000E+00 -0.00000000000E+00 -0.69448958217E+02  0.69448958374E+02  0.46700000000E-02 0. -1.
       1023    2    1    2    0    0  0.00000000000E+00  0.00000000000E+00 -0.68009017625E+02  0.70888906540E+02  0.20000264801E+02 0.  0.
        -11    1    3    3    0    0 -0.38578869895E+01 -0.92260138146E+01 -0.34022172549E+02  0.35461399410E+02  0.51100000000E-03 0. -1.
         11    1    3    3    0    0  0.38578869895E+01  0.92260138146E+01 -0.33986845076E+02  0.35427507129E+02  0.51100000000E-03 0.  1.
<mgrwt>
<rscale>  0 0.20000265E+02</rscale>
<asrwt>0</asrwt>
<pdfrwt beam="2">  1        1 0.10684453E-01 0.20000265E+02</pdfrwt>
<pdfrwt beam="1">  1       -1 0.22152997E-03 0.20000265E+02</pdfrwt>
<totfact> 0.42803047E+06</totfact>
</mgrwt>
</event>
<event>
 4    1  0.9583198E-007  0.2004583E+02  0.7818608E-02  0.1744418E+00
         -1   -1    0    0    0  501 -0.00000000000E+00  0.00000000000E+00  0.79799332444E+02  0.79799332580E+02  0.46700000000E-02 0. -1.
          1   -1    0    0  501    0  0.00000000000E+00 -0.00000000000E+00 -0.12588883414E+01  0.12588970034E+01  0.46700000000E-02 0.  1.
        -11    1    1    2    0    0  0.28023841955E+01  0.96224895067E+01  0.39733817209E+02  0.40978310016E+02  0.51100000000E-03 0. -1.
         11    1    1    2    0    0 -0.28023841955E+01 -0.96224895067E+01  0.38806626893E+02  0.40079919568E+02  0.51100000000E-03 0.  1.
<mgrwt>
<rscale>  0 0.20045828E+02</rscale>
<asrwt>0</asrwt>
<pdfrwt beam="2">  1        1 0.19367572E-03 0.20045828E+02</pdfrwt>
<pdfrwt beam="1">  1       -1 0.12276827E-01 0.20045828E+02</pdfrwt>
<totfact> 0.32839996E+06</totfact>
</mgrwt>
</event>
<event>
 5    1  0.9583198E-007  0.2000020E+02  0.7818608E-02  0.1745324E+00
          1   -1    0    0  501    0  0.00000000000E+00  0.00000000000E+00  0.61644676328E+01  0.61644694017E+01  0.46700000000E-02 0.  1.
         -1   -1    0    0    0  501 -0.00000000000E+00 -0.00000000000E+00 -0.16222320316E+02  0.16222320988E+02  0.46700000000E-02 0. -1.
       1023    2    1    2    0    0  0.00000000000E+00  0.00000000000E+00 -0.10057852683E+02  0.22386790390E+02  0.20000199583E+02 0.  0.
        -11    1    3    3    0    0 -0.78332743349E+01  0.62161974568E+01 -0.50584976654E+01  0.11206680888E+02  0.51100000000E-03 0. -1.
         11    1    3    3    0    0  0.78332743349E+01 -0.62161974568E+01 -0.49993550179E+01  0.11180109502E+02  0.51100000000E-03 0.  1.
<mgrwt>
<rscale>  0 0.20000200E+02</rscale>
<asrwt>0</asrwt>
<pdfrwt beam="1">  1        1 0.94837983E-03 0.20000200E+02</pdfrwt>
<pdfrwt beam="2">  1       -1 0.24957418E-02 0.20000200E+02</pdfrwt>
<totfact> 0.37818728E+06</totfact>
</mgrwt>
</event>
<event>
 5    1  0.9583198E-007  0.2000016E+02  0.7818608E-02  0.1745325E+00
         -1   -1    0    0    0  501 -0.00000000000E+00  0.00000000000E+00  0.31410880134E+02  0.31410880481E+02  0.46700000000E-02 0. -1.
          1   -1    0    0  501    0  0.00000000000E+00 -0.00000000000E+00 -0.31836594218E+01  0.31836628470E+01  0.46700000000E-02 0.  1.
       1023    2    1    2    0    0  0.00000000000E+00  0.00000000000E+00  0.28227220712E+02  0.34594543328E+02  0.20000160973E+02 0.  0.
        -11    1    3    3    0    0  0.67213238689E+00 -0.99774539101E+01  0.14141554697E+02  0.17320072690E+02  0.51100000000E-03 0. -1.
         11    1    3    3    0    0 -0.67213238689E+00  0.99774539101E+01  0.14085666015E+02  0.17274470638E+02  0.51100000000E-03 0.  1.
<mgrwt>
<rscale>  0 0.20000161E+02</rscale>
<asrwt>0</asrwt>
<pdfrwt beam="2">  1        1 0.48979403E-03 0.20000161E+02</pdfrwt>
<pdfrwt beam="1">  1       -1 0.48324435E-02 0.20000161E+02</pdfrwt>
<totfact> 0.36365139E+06</totfact>
</mgrwt>
</event>
<event>
 5    1  0.1103963E-006  0.2000054E+02  0.7818608E-02  0.1745317E+00
          1   -1    0    0  501    0  0.00000000000E+00  0.00000000000E+00  0.31913374927E+01  0.31913409096E+01  0.46700000000E-02 0.  1.
         -1   -1    0    0    0  501 -0.00000000000E+00 -0.00000000000E+00 -0.31336503983E+02  0.31336504331E+02  0.46700000000E-02 0. -1.
       1023    2    1    2    0    0  0.00000000000E+00  0.00000000000E+00 -0.28145166490E+02  0.34527845241E+02  0.20000542497E+02 0.  0.
        -11    1    3    3    0    0 -0.10000247668E+02 -0.77082721865E-02 -0.14037544703E+02  0.17235361162E+02  0.51100000000E-03 0.  1.
         11    1    3    3    0    0  0.10000247668E+02  0.77082721865E-02 -0.14107621787E+02  0.17292484078E+02  0.51100000000E-03 0. -1.
<mgrwt>
<rscale>  0 0.20000542E+02</rscale>
<asrwt>0</asrwt>
<pdfrwt beam="1">  1        1 0.49097531E-03 0.20000542E+02</pdfrwt>
<pdfrwt beam="2">  1       -1 0.48210007E-02 0.20000542E+02</pdfrwt>
<totfact> 0.36369924E+06</totfact>
</mgrwt>
</event>
<event>
 5    1  0.1019501E-006  0.2000162E+02  0.7818608E-02  0.1745296E+00
         -1   -1    0    0    0  501 -0.00000000000E+00  0.00000000000E+00  0.15519865766E+01  0.15519936027E+01  0.46700000000E-02 0. -1.
          1   -1    0    0  501    0  0.00000000000E+00 -0.00000000000E+00 -0.64443864113E+02  0.64443864282E+02  0.46700000000E-02 0.  1.
       1023    2    1    2    0    0  0.00000000000E+00  0.00000000000E+00 -0.62891877536E+02  0.65995857885E+02  0.20001624882E+02 0.  0.
        -11    1    3    3    0    0 -0.50099111171E+01 -0.86548012573E+01 -0.31799080568E+02  0.33334461439E+02  0.51100000000E-03 0.  1.
         11    1    3    3    0    0  0.50099111171E+01  0.86548012573E+01 -0.31092796968E+02  0.32661396446E+02  0.51100000000E-03 0. -1.
<mgrwt>
<rscale>  0 0.20001625E+02</rscale>
<asrwt>0</asrwt>
<pdfrwt beam="2">  1        1 0.99144391E-02 0.20001625E+02</pdfrwt>
<pdfrwt beam="1">  1       -1 0.23876777E-03 0.20001625E+02</pdfrwt>
<totfact> 0.42524975E+06</totfact>
</mgrwt>
</event>
<event>
 5    1  0.9583198E-007  0.2000071E+02  0.7818608E-02  0.1745314E+00
          1   -1    0    0  501    0  0.00000000000E+00  0.00000000000E+00  0.12689223983E+02  0.12689224842E+02  0.46700000000E-02 0.  1.
         -1   -1    0    0    0  501 -0.00000000000E+00 -0.00000000000E+00 -0.78812620880E+01  0.78812634716E+01  0.46700000000E-02 0. -1.
       1023    2    1    2    0    0  0.00000000000E+00  0.00000000000E+00  0.48079618948E+01  0.20570488314E+02  0.20000712284E+02 0.  0.
        -11    1    3    3    0    0 -0.99936360807E+01  0.35841739496E+00  0.23249975907E+01  0.10266783294E+02  0.51100000000E-03 0.  1.
         11    1    3    3    0    0  0.99936360807E+01 -0.35841739496E+00  0.24829643041E+01  0.10303705020E+02  0.51100000000E-03 0. -1.
<mgrwt>
<rscale>  0 0.20000712E+02</rscale>
<asrwt>0</asrwt>
<pdfrwt beam="1">  1        1 0.19521885E-02 0.20000712E+02</pdfrwt>
<pdfrwt beam="2">  1       -1 0.12125020E-02 0.20000712E+02</pdfrwt>
<totfact> 0.38985361E+06</totfact>
</mgrwt>
</event>
<event>
 5    1  0.9583198E-007  0.2000105E+02  0.7818608E-02  0.1745307E+00
         -1   -1    0    0    0  501 -0.00000000000E+00  0.00000000000E+00  0.60579342045E+02  0.60579342225E+02  0.46700000000E-02 0.  1.
          1   -1    0    0  501    0  0.00000000000E+00 -0.00000000000E+00 -0.16508979643E+01  0.16509045695E+01  0.46700000000E-02 0. -1.
       1023    2    1    2    0    0  0.00000000000E+00  0.00000000000E+00  0.58928444081E+02  0.62230246795E+02  0.20001052331E+02 0.  0.
        -11    1    3    3    0    0 -0.62654602008E+01  0.77941362226E+01  0.29704669873E+02  0.31342813587E+02  0.51100000000E-03 0.  1.
         11    1    3    3    0    0  0.62654602008E+01 -0.77941362226E+01  0.29223774208E+02  0.30887433208E+02  0.51100000000E-03 0. -1.
<mgrwt>
<rscale>  0 0.20001052E+02</rscale>
<asrwt>0</asrwt>
<pdfrwt beam="2">  1        1 0.25398485E-03 0.20001052E+02</pdfrwt>
<pdfrwt beam="1">  1       -1 0.93198983E-02 0.20001052E+02</pdfrwt>
<totfact> 0.34200892E+06</totfact>
</mgrwt>
</event>
<event>
 5    1  0.9583198E-007  0.2000012E+02  0.7818608E-02  0.1745326E+00
         -1   -1    0    0    0  501 -0.00000000000E+00  0.00000000000E+00  0.29756872141E+01  0.29756908786E+01  0.46700000000E-02 0.  1.
          1   -1    0    0  501    0  0.00000000000E+00 -0.00000000000E+00 -0.33606051951E+02  0.33606052275E+02  0.46700000000E-02 0. -1.
       1023    2    1    2    0    0  0.00000000000E+00  0.00000000000E+00 -0.30630364737E+02  0.36581743154E+02  0.20000117207E+02 0.  0.
        -11    1    3    3    0    0  0.73993799827E+01  0.67268345181E+01 -0.15327458512E+02  0.18301150550E+02  0.51100000000E-03 0. -1.
         11    1    3    3    0    0 -0.73993799827E+01 -0.67268345181E+01 -0.15302906225E+02  0.18280592604E+02  0.51100000000E-03 0.  1.
<mgrwt>
<rscale>  0 0.20000117E+02</rscale>
<asrwt>0</asrwt>
<pdfrwt beam="2">  1        1 0.51701619E-02 0.20000117E+02</pdfrwt>
<pdfrwt beam="1">  1       -1 0.45779836E-03 0.20000117E+02</pdfrwt>
<totfact> 0.40699254E+06</totfact>
</mgrwt>
</event>
<event>
 5    1  0.9583198E-007  0.2001163E+02  0.7818608E-02  0.1745097E+00
          1   -1    0    0  501    0  0.00000000000E+00  0.00000000000E+00  0.71581636097E+01  0.71581651330E+01  0.46700000000E-02 0.  1.
         -1   -1    0    0    0  501 -0.00000000000E+00 -0.00000000000E+00 -0.13986305116E+02  0.13986305896E+02  0.46700000000E-02 0. -1.
       1023    2    1    2    0    0  0.00000000000E+00  0.00000000000E+00 -0.68281415066E+01  0.21144471029E+02  0.20011625088E+02 0.  0.
        -11    1    3    3    0    0  0.58702364278E+01 -0.81025023009E+01 -0.34963585083E+01  0.10598808534E+02  0.51100000000E-03 0. -1.
         11    1    3    3    0    0 -0.58702364278E+01  0.81025023009E+01 -0.33317829983E+01  0.10545662495E+02  0.51100000000E-03 0.  1.
<mgrwt>
<rscale>  0 0.20011625E+02</rscale>
<asrwt>0</asrwt>
<pdfrwt beam="1">  1        1 0.11012561E-02 0.20011625E+02</pdfrwt>
<pdfrwt beam="2">  1       -1 0.21517394E-02 0.20011625E+02</pdfrwt>
<totfact> 0.38032738E+06</totfact>
</mgrwt>
</event>
<event>
 5    1  0.9583198E-007  0.2000348E+02  0.7818608E-02  0.1745259E+00
          1   -1    0    0  501    0  0.00000000000E+00  0.00000000000E+00  0.61752752958E+01  0.61752770616E+01  0.46700000000E-02 0. -1.
         -1   -1    0    0    0  501 -0.00000000000E+00 -0.00000000000E+00 -0.16199239869E+02  0.16199240542E+02  0.46700000000E-02 0.  1.
       1023    2    1    2    0    0  0.00000000000E+00  0.00000000000E+00 -0.10023964573E+02  0.22374517603E+02  0.20003479003E+02 0.  0.
        -11    1    3    3    0    0 -0.71019883495E+01 -0.70418993336E+01 -0.49106452376E+01  0.11141858985E+02  0.51100000000E-03 0. -1.
         11    1    3    3    0    0  0.71019883495E+01  0.70418993336E+01 -0.51133193352E+01  0.11232658618E+02  0.51100000000E-03 0.  1.
<mgrwt>
<rscale>  0 0.20003479E+02</rscale>
<asrwt>0</asrwt>
<pdfrwt beam="1">  1        1 0.95004255E-03 0.20003479E+02</pdfrwt>
<pdfrwt beam="2">  1       -1 0.24921909E-02 0.20003479E+02</pdfrwt>
<totfact> 0.37807716E+06</totfact>
</mgrwt>
</event>
<event>
 5    1  0.9583198E-007  0.2000030E+02  0.7818608E-02  0.1745322E+00
          1   -1    0    0  501    0  0.00000000000E+00  0.00000000000E+00  0.45062211411E+02  0.45062211653E+02  0.46700000000E-02 0. -1.
         -1   -1    0    0    0  501 -0.00000000000E+00 -0.00000000000E+00 -0.22192173212E+01  0.22192222349E+01  0.46700000000E-02 0.  1.
       1023    2    1    2    0    0  0.00000000000E+00  0.00000000000E+00  0.42842994090E+02  0.47281433888E+02  0.20000296196E+02 0.  0.
        -11    1    3    3    0    0  0.81417662634E+01 -0.58062687095E+01  0.21319884607E+02  0.23548643148E+02  0.51100000000E-03 0.  1.
         11    1    3    3    0    0 -0.81417662634E+01  0.58062687095E+01  0.21523109483E+02  0.23732790740E+02  0.51100000000E-03 0. -1.
<mgrwt>
<rscale>  0 0.20000296E+02</rscale>
<asrwt>0</asrwt>
<pdfrwt beam="1">  1        1 0.69326485E-02 0.20000296E+02</pdfrwt>
<pdfrwt beam="2">  1       -1 0.34141844E-03 0.20000296E+02</pdfrwt>
<totfact> 0.41419827E+06</totfact>
</mgrwt>
</event>
<event>
 4    1  0.9583198E-007  0.2002968E+02  0.7818608E-02  0.1744739E+00
          1   -1    0    0  501    0  0.00000000000E+00  0.00000000000E+00  0.17429754931E+01  0.17429817493E+01  0.46700000000E-02 0. -1.
         -1   -1    0    0    0  501 -0.00000000000E+00 -0.00000000000E+00 -0.57543439510E+02  0.57543439699E+02  0.46700000000E-02 0.  1.
        -11    1    1    2    0    0 -0.54252975198E+01  0.84165423324E+01 -0.27432622696E+02  0.29203096176E+02  0.51100000000E-03 0. -1.
         11    1    1    2    0    0  0.54252975198E+01 -0.84165423324E+01 -0.28367841321E+02  0.30083325273E+02  0.51100000000E-03 0.  1.
<mgrwt>
<rscale>  0 0.20029678E+02</rscale>
<asrwt>0</asrwt>
<pdfrwt beam="1">  1        1 0.26815062E-03 0.20029678E+02</pdfrwt>
<pdfrwt beam="2">  1       -1 0.88528359E-02 0.20029678E+02</pdfrwt>
<totfact> 0.34295525E+06</totfact>
</mgrwt>
</event>
<event>
 5    1  0.1036221E-006  0.2000239E+02  0.7818608E-02  0.1745280E+00
         -1   -1    0    0    0  501 -0.00000000000E+00  0.00000000000E+00  0.13435420475E+01  0.13435501637E+01  0.46700000000E-02 0. -1.
          1   -1    0    0  501    0  0.00000000000E+00 -0.00000000000E+00 -0.74447713313E+02  0.74447713460E+02  0.46700000000E-02 0.  1.
       1023    2    1    2    0    0  0.00000000000E+00  0.00000000000E+00 -0.73104171266E+02  0.75791263623E+02  0.20002394486E+02 0.  0.
        -11    1    3    3    0    0  0.56728639938E+00  0.99839045442E+01 -0.37136422686E+02  0.38459251865E+02  0.51100000000E-03 0.  1.
         11    1    3    3    0    0 -0.56728639938E+00 -0.99839045442E+01 -0.35967748580E+02  0.37332011759E+02  0.51100000000E-03 0. -1.
<mgrwt>
<rscale>  0 0.20002394E+02</rscale>
<asrwt>0</asrwt>
<pdfrwt beam="2">  1        1 0.11453492E-01 0.20002394E+02</pdfrwt>
<pdfrwt beam="1">  1       -1 0.20669947E-03 0.20002394E+02</pdfrwt>
<totfact> 0.43058661E+06</totfact>
</mgrwt>
</event>
<event>
 5    1  0.9991643E-007  0.2000073E+02  0.7818608E-02  0.1745314E+00
         -1   -1    0    0    0  501 -0.00000000000E+00  0.00000000000E+00  0.30273098586E+01  0.30273134606E+01  0.46700000000E-02 0. -1.
          1   -1    0    0  501    0  0.00000000000E+00 -0.00000000000E+00 -0.33035017370E+02  0.33035017700E+02  0.46700000000E-02 0.  1.
       1023    2    1    2    0    0  0.00000000000E+00  0.00000000000E+00 -0.30007707512E+02  0.36062331161E+02  0.20000730453E+02 0.  0.
        -11    1    3    3    0    0  0.12479940514E+01  0.99220540877E+01 -0.14910897281E+02  0.17953815874E+02  0.51100000000E-03 0.  1.
         11    1    3    3    0    0 -0.12479940514E+01 -0.99220540877E+01 -0.15096810231E+02  0.18108515287E+02  0.51100000000E-03 0. -1.
<mgrwt>
<rscale>  0 0.20000730E+02</rscale>
<asrwt>0</asrwt>
<pdfrwt beam="2">  1        1 0.50823104E-02 0.20000730E+02</pdfrwt>
<pdfrwt beam="1">  1       -1 0.46574030E-03 0.20000730E+02</pdfrwt>
<totfact> 0.40658626E+06</totfact>
</mgrwt>
</event>
<event>
 4    1  0.9583198E-007  0.2002479E+02  0.7818608E-02  0.1744836E+00
         -1   -1    0    0    0  501 -0.00000000000E+00  0.00000000000E+00  0.68857865242E+02  0.68857865401E+02  0.46700000000E-02 0. -1.
          1   -1    0    0  501    0  0.00000000000E+00 -0.00000000000E+00 -0.14558647815E+01  0.14558722715E+01  0.46700000000E-02 0.  1.
        -11    1    1    2    0    0 -0.78337692067E+01 -0.62295302696E+01  0.34649855054E+02  0.36066430969E+02  0.51100000000E-03 0.  1.
         11    1    1    2    0    0  0.78337692067E+01  0.62295302696E+01  0.32752145407E+02  0.34247306703E+02  0.51100000000E-03 0. -1.
<mgrwt>
<rscale>  0 0.20024786E+02</rscale>
<asrwt>0</asrwt>
<pdfrwt beam="2">  1        1 0.22397980E-03 0.20024786E+02</pdfrwt>
<pdfrwt beam="1">  1       -1 0.10593518E-01 0.20024786E+02</pdfrwt>
<totfact> 0.33580475E+06</totfact>
</mgrwt>
</event>
<event>
 5    1  0.9583198E-007  0.2000003E+02  0.7818608E-02  0.1745327E+00
          1   -1    0    0  501    0  0.00000000000E+00  0.00000000000E+00  0.59139515164E+02  0.59139515348E+02  0.46700000000E-02 0.  1.
         -1   -1    0    0    0  501 -0.00000000000E+00 -0.00000000000E+00 -0.16909184348E+01  0.16909248836E+01  0.46700000000E-02 0. -1.
       1023    2    1    2    0    0  0.00000000000E+00  0.00000000000E+00  0.57448596729E+02  0.60830440232E+02  0.20000029817E+02 0.  0.
        -11    1    3    3    0    0  0.94004446655E+01 -0.34105209051E+01  0.28775658971E+02  0.30463725351E+02  0.51100000000E-03 0. -1.
         11    1    3    3    0    0 -0.94004446655E+01  0.34105209051E+01  0.28672937758E+02  0.30366714882E+02  0.51100000000E-03 0.  1.
<mgrwt>
<rscale>  0 0.20000030E+02</rscale>
<asrwt>0</asrwt>
<pdfrwt beam="1">  1        1 0.90983868E-02 0.20000030E+02</pdfrwt>
<pdfrwt beam="2">  1       -1 0.26014183E-03 0.20000030E+02</pdfrwt>
<totfact> 0.42238288E+06</totfact>
</mgrwt>
</event>
<event>
 5    1  0.9583198E-007  0.2000089E+02  0.7818608E-02  0.1745310E+00
         -1   -1    0    0    0  501 -0.00000000000E+00  0.00000000000E+00  0.44856806260E+02  0.44856806503E+02  0.46700000000E-02 0.  1.
          1   -1    0    0  501    0  0.00000000000E+00 -0.00000000000E+00 -0.22295117913E+01  0.22295166822E+01  0.46700000000E-02 0. -1.
       1023    2    1    2    0    0  0.00000000000E+00  0.00000000000E+00  0.42627294469E+02  0.47086323185E+02  0.20000889915E+02 0.  0.
        -11    1    3    3    0    0  0.98938111520E+01 -0.14538463441E+01  0.21520640944E+02  0.23730553201E+02  0.51100000000E-03 0. -1.
         11    1    3    3    0    0 -0.98938111520E+01  0.14538463441E+01  0.21106653524E+02  0.23355769984E+02  0.51100000000E-03 0.  1.
<mgrwt>
<rscale>  0 0.20000890E+02</rscale>
<asrwt>0</asrwt>
<pdfrwt beam="2">  1        1 0.34300220E-03 0.20000890E+02</pdfrwt>
<pdfrwt beam="1">  1       -1 0.69010477E-02 0.20000890E+02</pdfrwt>
<totfact> 0.35299703E+06</totfact>
</mgrwt>
</event>
<event>
 4    1  0.9583198E-007  0.2004720E+02  0.7818608E-02  0.1744391E+00
         -1   -1    0    0    0  501 -0.00000000000E+00  0.00000000000E+00  0.61926327132E+02  0.61926327308E+02  0.46700000000E-02 0.  1.
          1   -1    0    0  501    0  0.00000000000E+00 -0.00000000000E+00 -0.16224492179E+01  0.16224559389E+01  0.46700000000E-02 0. -1.
        -11    1    1    2    0    0 -0.67562895218E+01  0.73805047215E+01  0.28267901041E+02  0.29986555781E+02  0.51100000000E-03 0.  1.
         11    1    1    2    0    0  0.67562895218E+01 -0.73805047215E+01  0.32035976873E+02  0.33562227466E+02  0.51100000000E-03 0. -1.
<mgrwt>
<rscale>  0 0.20047198E+02</rscale>
<asrwt>0</asrwt>
<pdfrwt beam="2">  1        1 0.24960808E-03 0.20047198E+02</pdfrwt>
<pdfrwt beam="1">  1       -1 0.95271285E-02 0.20047198E+02</pdfrwt>
<totfact> 0.33940056E+06</totfact>
</mgrwt>
</event>
<event>
 5    1  0.1015472E-006  0.2000085E+02  0.7818608E-02  0.1745311E+00
         -1   -1    0    0    0  501 -0.00000000000E+00  0.00000000000E+00  0.11244512022E+01  0.11244608997E+01  0.46700000000E-02 0. -1.
          1   -1    0    0  501    0  0.00000000000E+00 -0.00000000000E+00 -0.88939437096E+02  0.88939437219E+02  0.46700000000E-02 0.  1.
       1023    2    1    2    0    0  0.00000000000E+00  0.00000000000E+00 -0.87814985894E+02  0.90063898119E+02  0.20000849900E+02 0.  0.
        -11    1    3    3    0    0  0.62010411789E+01  0.78457284905E+01 -0.43959164516E+02  0.45082330379E+02  0.51100000000E-03 0.  1.
         11    1    3    3    0    0 -0.62010411789E+01 -0.78457284905E+01 -0.43855821379E+02  0.44981567740E+02  0.51100000000E-03 0. -1.
<mgrwt>
<rscale>  0 0.20000850E+02</rscale>
<asrwt>0</asrwt>
<pdfrwt beam="2">  1        1 0.13682986E-01 0.20000850E+02</pdfrwt>
<pdfrwt beam="1">  1       -1 0.17299332E-03 0.20000850E+02</pdfrwt>
<totfact> 0.43810535E+06</totfact>
</mgrwt>
</event>
<event>
 5    1  0.9583198E-007  0.2000404E+02  0.7818608E-02  0.1745248E+00
          1   -1    0    0  501    0  0.00000000000E+00  0.00000000000E+00  0.45053066598E+01  0.45053090802E+01  0.46700000000E-02 0. -1.
         -1   -1    0    0    0  501 -0.00000000000E+00 -0.00000000000E+00 -0.22205013585E+02  0.22205014076E+02  0.46700000000E-02 0.  1.
       1023    2    1    2    0    0  0.00000000000E+00  0.00000000000E+00 -0.17699706925E+02  0.26710323156E+02  0.20004043038E+02 0.  0.
        -11    1    3    3    0    0 -0.48649482007E+00  0.99885947068E+01 -0.86119967419E+01  0.13197544831E+02  0.51100000000E-03 0.  1.
         11    1    3    3    0    0  0.48649482007E+00 -0.99885947068E+01 -0.90877101835E+01  0.13512778325E+02  0.51100000000E-03 0. -1.
<mgrwt>
<rscale>  0 0.20004043E+02</rscale>
<asrwt>0</asrwt>
<pdfrwt beam="1">  1        1 0.69312433E-03 0.20004043E+02</pdfrwt>
<pdfrwt beam="2">  1       -1 0.34161561E-02 0.20004043E+02</pdfrwt>
<totfact> 0.37181078E+06</totfact>
</mgrwt>
</event>
<event>
 5    1  0.9583198E-007  0.2000178E+02  0.7818608E-02  0.1745293E+00
          1   -1    0    0  501    0  0.00000000000E+00  0.00000000000E+00  0.63211993405E+01  0.63212010656E+01  0.46700000000E-02 0. -1.
         -1   -1    0    0    0  501 -0.00000000000E+00 -0.00000000000E+00 -0.15822587594E+02  0.15822588283E+02  0.46700000000E-02 0.  1.
       1023    2    1    2    0    0  0.00000000000E+00  0.00000000000E+00 -0.95013882536E+01  0.22143789349E+02  0.20001775621E+02 0.  0.
        -11    1    3    3    0    0  0.96211483641E+01 -0.27288395247E+01 -0.46748301908E+01  0.11039343213E+02  0.51100000000E-03 0.  1.
         11    1    3    3    0    0 -0.96211483641E+01  0.27288395247E+01 -0.48265580629E+01  0.11104446136E+02  0.51100000000E-03 0. -1.
<mgrwt>
<rscale>  0 0.20001776E+02</rscale>
<asrwt>0</asrwt>
<pdfrwt beam="1">  1        1 0.97249240E-03 0.20001776E+02</pdfrwt>
<pdfrwt beam="2">  1       -1 0.24342444E-02 0.20001776E+02</pdfrwt>
<totfact> 0.37857407E+06</totfact>
</mgrwt>
</event>
<event>
 5    1  0.9583198E-007  0.2000786E+02  0.7818608E-02  0.1745172E+00
          1   -1    0    0  501    0  0.00000000000E+00  0.00000000000E+00  0.79021990949E+02  0.79021991087E+02  0.46700000000E-02 0.  1.
         -1   -1    0    0    0  501 -0.00000000000E+00 -0.00000000000E+00 -0.12664608942E+01  0.12664695043E+01  0.46700000000E-02 0. -1.
       1023    2    1    2    0    0  0.00000000000E+00  0.00000000000E+00  0.77755530055E+02  0.80288460592E+02  0.20007859706E+02 0.  0.
        -11    1    3    3    0    0  0.13463522115E+01  0.99102435215E+01  0.37953752783E+02  0.39249368677E+02  0.51100000000E-03 0. -1.
         11    1    3    3    0    0 -0.13463522115E+01 -0.99102435215E+01  0.39801777272E+02  0.41039091915E+02  0.51100000000E-03 0.  1.
<mgrwt>
<rscale>  0 0.20007860E+02</rscale>
<asrwt>0</asrwt>
<pdfrwt beam="1">  1        1 0.12157236E-01 0.20007860E+02</pdfrwt>
<pdfrwt beam="2">  1       -1 0.19484072E-03 0.20007860E+02</pdfrwt>
<totfact> 0.43271241E+06</totfact>
</mgrwt>
</event>
<event>
 5    1  0.9583198E-007  0.2000066E+02  0.7818608E-02  0.1745315E+00
          1   -1    0    0  501    0  0.00000000000E+00  0.00000000000E+00  0.13059993651E+02  0.13059994486E+02  0.46700000000E-02 0.  1.
         -1   -1    0    0    0  501 -0.00000000000E+00 -0.00000000000E+00 -0.76574777879E+01  0.76574792119E+01  0.46700000000E-02 0. -1.
       1023    2    1    2    0    0  0.00000000000E+00  0.00000000000E+00  0.54025158635E+01  0.20717473698E+02  0.20000663459E+02 0.  0.
        -11    1    3    3    0    0 -0.97773430441E+01  0.20993747911E+01  0.26462225909E+01  0.10344385229E+02  0.51100000000E-03 0.  1.
         11    1    3    3    0    0  0.97773430441E+01 -0.20993747911E+01  0.27562932726E+01  0.10373088469E+02  0.51100000000E-03 0. -1.
<mgrwt>
<rscale>  0 0.20000663E+02</rscale>
<asrwt>0</asrwt>
<pdfrwt beam="1">  1        1 0.20092300E-02 0.20000663E+02</pdfrwt>
<pdfrwt beam="2">  1       -1 0.11780737E-02 0.20000663E+02</pdfrwt>
<totfact> 0.39029482E+06</totfact>
</mgrwt>
</event>
<event>
 5    1  0.9583198E-007  0.2000022E+02  0.7818608E-02  0.1745324E+00
         -1   -1    0    0    0  501 -0.00000000000E+00  0.00000000000E+00  0.14617867723E+01  0.14617942320E+01  0.46700000000E-02 0. -1.
          1   -1    0    0  501    0  0.00000000000E+00 -0.00000000000E+00 -0.68410761327E+02  0.68410761486E+02  0.46700000000E-02 0.  1.
       1023    2    1    2    0    0  0.00000000000E+00  0.00000000000E+00 -0.66948974554E+02  0.69872555718E+02  0.20000221216E+02 0.  0.
        -11    1    3    3    0    0  0.90239728231E+01 -0.43092981638E+01 -0.33444084109E+02  0.34907146809E+02  0.51100000000E-03 0.  1.
         11    1    3    3    0    0 -0.90239728231E+01  0.43092981638E+01 -0.33504890445E+02  0.34965408909E+02  0.51100000000E-03 0. -1.
<mgrwt>
<rscale>  0 0.20000221E+02</rscale>
<asrwt>0</asrwt>
<pdfrwt beam="2">  1        1 0.10524731E-01 0.20000221E+02</pdfrwt>
<pdfrwt beam="1">  1       -1 0.22489091E-03 0.20000221E+02</pdfrwt>
<totfact> 0.42747353E+06</totfact>
</mgrwt>
</event>
<event>
 5    1  0.9583198E-007  0.2000170E+02  0.7818608E-02  0.1745294E+00
         -1   -1    0    0    0  501 -0.00000000000E+00  0.00000000000E+00  0.10277752899E+02  0.10277753960E+02  0.46700000000E-02 0.  1.
          1   -1    0    0  501    0  0.00000000000E+00 -0.00000000000E+00 -0.97314053532E+01  0.97314064737E+01  0.46700000000E-02 0. -1.
       1023    2    1    2    0    0  0.00000000000E+00  0.00000000000E+00  0.54634754619E+00  0.20009160434E+02  0.20001700069E+02 0.  0.
        -11    1    3    3    0    0  0.52613535973E+00 -0.99869898790E+01  0.28787234581E+00  0.10004981560E+02  0.51100000000E-03 0.  1.
         11    1    3    3    0    0 -0.52613535973E+00  0.99869898790E+01  0.25847520037E+00  0.10004178874E+02  0.51100000000E-03 0. -1.
<mgrwt>
<rscale>  0 0.20001700E+02</rscale>
<asrwt>0</asrwt>
<pdfrwt beam="2">  1        1 0.14971395E-02 0.20001700E+02</pdfrwt>
<pdfrwt beam="1">  1       -1 0.15811929E-02 0.20001700E+02</pdfrwt>
<totfact> 0.38574239E+06</totfact>
</mgrwt>
</event>
<event>
 5    1  0.9583198E-007  0.2000043E+02  0.7818608E-02  0.1745319E+00
         -1   -1    0    0    0  501 -0.00000000000E+00  0.00000000000E+00  0.43374042689E+02  0.43374042941E+02  0.46700000000E-02 0. -1.
          1   -1    0    0  501    0  0.00000000000E+00 -0.00000000000E+00 -0.23056238051E+01  0.23056285346E+01  0.46700000000E-02 0.  1.
       1023    2    1    2    0    0  0.00000000000E+00  0.00000000000E+00  0.41068418884E+02  0.45679671475E+02  0.20000433906E+02 0.  0.
        -11    1    3    3    0    0  0.63071782251E+00  0.99802081139E+01  0.20635835029E+02  0.22931202467E+02  0.51100000000E-03 0. -1.
         11    1    3    3    0    0 -0.63071782251E+00 -0.99802081139E+01  0.20432583855E+02  0.22748469008E+02  0.51100000000E-03 0.  1.
<mgrwt>
<rscale>  0 0.20000434E+02</rscale>
<asrwt>0</asrwt>
<pdfrwt beam="2">  1        1 0.35471173E-03 0.20000434E+02</pdfrwt>
<pdfrwt beam="1">  1       -1 0.66729301E-02 0.20000434E+02</pdfrwt>
<totfact> 0.35412143E+06</totfact>
</mgrwt>
</event>
<event>
 5    1  0.9583198E-007  0.2000853E+02  0.7818608E-02  0.1745158E+00
          1   -1    0    0  501    0  0.00000000000E+00  0.00000000000E+00  0.44071211462E+02  0.44071211709E+02  0.46700000000E-02 0. -1.
         -1   -1    0    0    0  501 -0.00000000000E+00 -0.00000000000E+00 -0.22709886715E+01  0.22709934731E+01  0.46700000000E-02 0.  1.
       1023    2    1    2    0    0  0.00000000000E+00  0.00000000000E+00  0.41800222790E+02  0.46342205182E+02  0.20008532076E+02 0.  0.
        -11    1    3    3    0    0  0.94747154993E+01  0.32037613433E+01  0.20376964238E+02  0.22699228893E+02  0.51100000000E-03 0.  1.
         11    1    3    3    0    0 -0.94747154993E+01 -0.32037613433E+01  0.21423258552E+02  0.23642976289E+02  0.51100000000E-03 0. -1.
<mgrwt>
<rscale>  0 0.20008532E+02</rscale>
<asrwt>0</asrwt>
<pdfrwt beam="1">  1        1 0.67801863E-02 0.20008532E+02</pdfrwt>
<pdfrwt beam="2">  1       -1 0.34938329E-03 0.20008532E+02</pdfrwt>
<totfact> 0.41321951E+06</totfact>
</mgrwt>
</event>
<event>
 5    1  0.9583198E-007  0.2000004E+02  0.7818608E-02  0.1745327E+00
          1   -1    0    0  501    0  0.00000000000E+00  0.00000000000E+00  0.38806794235E+02  0.38806794516E+02  0.46700000000E-02 0.  1.
         -1   -1    0    0    0  501 -0.00000000000E+00 -0.00000000000E+00 -0.25768752370E+01  0.25768794687E+01  0.46700000000E-02 0. -1.
       1023    2    1    2    0    0  0.00000000000E+00  0.00000000000E+00  0.36229918998E+02  0.41383673985E+02  0.20000036047E+02 0.  0.
        -11    1    3    3    0    0 -0.99780652776E+01 -0.66224284500E+00  0.18120789208E+02  0.20696940693E+02  0.51100000000E-03 0. -1.
         11    1    3    3    0    0  0.99780652776E+01  0.66224284500E+00  0.18109129790E+02  0.20686733292E+02  0.51100000000E-03 0.  1.
<mgrwt>
<rscale>  0 0.20000036E+02</rscale>
<asrwt>0</asrwt>
<pdfrwt beam="1">  1        1 0.59702767E-02 0.20000036E+02</pdfrwt>
<pdfrwt beam="2">  1       -1 0.39644267E-03 0.20000036E+02</pdfrwt>
<totfact> 0.41035279E+06</totfact>
</mgrwt>
</event>
<event>
 4    1  0.9583198E-007  0.2001631E+02  0.7818608E-02  0.1745004E+00
          1   -1    0    0  501    0  0.00000000000E+00  0.00000000000E+00  0.39485163952E+01  0.39485191569E+01  0.46700000000E-02 0.  1.
         -1   -1    0    0    0  501 -0.00000000000E+00 -0.00000000000E+00 -0.25367291546E+02  0.25367291976E+02  0.46700000000E-02 0. -1.
        -11    1    1    2    0    0 -0.42472344704E+01 -0.90609766180E+01 -0.10931094548E+02  0.14819889547E+02  0.51100000000E-03 0.  1.
         11    1    1    2    0    0  0.42472344704E+01  0.90609766180E+01 -0.10487680603E+02  0.14495921585E+02  0.51100000000E-03 0. -1.
<mgrwt>
<rscale>  0 0.20016315E+02</rscale>
<asrwt>0</asrwt>
<pdfrwt beam="1">  1        1 0.60746432E-03 0.20016315E+02</pdfrwt>
<pdfrwt beam="2">  1       -1 0.39026604E-02 0.20016315E+02</pdfrwt>
<totfact> 0.36832784E+06</totfact>
</mgrwt>
</event>
<event>
 4    1  0.9583198E-007  0.2001932E+02  0.7818608E-02  0.1744944E+00
         -1   -1    0    0    0  501 -0.00000000000E+00  0.00000000000E+00  0.20910941440E+02  0.20910941961E+02  0.46700000000E-02 0.  1.
          1   -1    0    0  501    0  0.00000000000E+00 -0.00000000000E+00 -0.47914284892E+01  0.47914307650E+01  0.46700000000E-02 0. -1.
        -11    1    1    2    0    0 -0.56546241960E+01 -0.82550777736E+01  0.84048126838E+01  0.13067591988E+02  0.51100000000E-03 0.  1.
         11    1    1    2    0    0  0.56546241960E+01  0.82550777736E+01  0.77147002671E+01  0.12634780739E+02  0.51100000000E-03 0. -1.
<mgrwt>
<rscale>  0 0.20019322E+02</rscale>
<asrwt>0</asrwt>
<pdfrwt beam="2">  1        1 0.73714305E-03 0.20019322E+02</pdfrwt>
<pdfrwt beam="1">  1       -1 0.32170682E-02 0.20019322E+02</pdfrwt>
<totfact> 0.37245872E+06</totfact>
</mgrwt>
</event>
<event>
 5    1  0.9583198E-007  0.2000443E+02  0.7818608E-02  0.1745240E+00
         -1   -1    0    0    0  501 -0.00000000000E+00  0.00000000000E+00  0.17162766459E+01  0.17162829995E+01  0.46700000000E-02 0. -1.
          1   -1    0    0  501    0  0.00000000000E+00 -0.00000000000E+00 -0.58291356058E+02  0.58291356245E+02  0.46700000000E-02 0.  1.
       1023    2    1    2    0    0  0.00000000000E+00  0.00000000000E+00 -0.56575079412E+02  0.60007639244E+02  0.20004428440E+02 0.  0.
        -11    1    3    3    0    0  0.81812934527E+01  0.57511841575E+01 -0.27729501323E+02  0.29477702177E+02  0.51100000000E-03 0.  1.
         11    1    3    3    0    0 -0.81812934527E+01 -0.57511841575E+01 -0.28845578089E+02  0.30529937067E+02  0.51100000000E-03 0. -1.
<mgrwt>
<rscale>  0 0.20004428E+02</rscale>
<asrwt>0</asrwt>
<pdfrwt beam="2">  1        1 0.89678999E-02 0.20004428E+02</pdfrwt>
<pdfrwt beam="1">  1       -1 0.26404311E-03 0.20004428E+02</pdfrwt>
<totfact> 0.42170021E+06</totfact>
</mgrwt>
</event>
<event>
 4    1  0.9583198E-007  0.2017183E+02  0.7818608E-02  0.1741933E+00
          1   -1    0    0  501    0  0.00000000000E+00  0.00000000000E+00  0.15502030086E+01  0.15502100428E+01  0.46700000000E-02 0. -1.
         -1   -1    0    0    0  501 -0.00000000000E+00 -0.00000000000E+00 -0.65620691413E+02  0.65620691579E+02  0.46700000000E-02 0.  1.
        -11    1    1    2    0    0 -0.90426110232E+01 -0.44662910794E+01 -0.32352283176E+02  0.33887856189E+02  0.51100000000E-03 0.  1.
         11    1    1    2    0    0  0.90426110232E+01  0.44662910794E+01 -0.31718205229E+02  0.33283045433E+02  0.51100000000E-03 0. -1.
<mgrwt>
<rscale>  0 0.20171825E+02</rscale>
<asrwt>0</asrwt>
<pdfrwt beam="1">  1        1 0.23849338E-03 0.20171825E+02</pdfrwt>
<pdfrwt beam="2">  1       -1 0.10095489E-01 0.20171825E+02</pdfrwt>
<totfact> 0.33246304E+06</totfact>
</mgrwt>
</event>
<event>
 5    1  0.9583198E-007  0.2000037E+02  0.7818608E-02  0.1745321E+00
         -1   -1    0    0    0  501 -0.00000000000E+00  0.00000000000E+00  0.14644960905E+02  0.14644961650E+02  0.46700000000E-02 0. -1.
          1   -1    0    0  501    0  0.00000000000E+00 -0.00000000000E+00 -0.68285370119E+01  0.68285386088E+01  0.46700000000E-02 0.  1.
       1023    2    1    2    0    0  0.00000000000E+00  0.00000000000E+00  0.78164238933E+01  0.21473500259E+02  0.20000368268E+02 0.  0.
        -11    1    3    3    0    0 -0.71089957045E+01 -0.70331214697E+01  0.38731751797E+01  0.10723996632E+02  0.51100000000E-03 0.  1.
         11    1    3    3    0    0  0.71089957045E+01  0.70331214697E+01  0.39432487136E+01  0.10749503626E+02  0.51100000000E-03 0. -1.
<mgrwt>
<rscale>  0 0.20000368E+02</rscale>
<asrwt>0</asrwt>
<pdfrwt beam="2">  1        1 0.10505443E-02 0.20000368E+02</pdfrwt>
<pdfrwt beam="1">  1       -1 0.22530711E-02 0.20000368E+02</pdfrwt>
<totfact> 0.38000263E+06</totfact>
</mgrwt>
</event>
<event>
 5    1  0.9583198E-007  0.2000103E+02  0.7818608E-02  0.1745308E+00
          1   -1    0    0  501    0  0.00000000000E+00  0.00000000000E+00  0.94153400390E+00  0.94154558541E+00  0.46700000000E-02 0. -1.
         -1   -1    0    0    0  501 -0.00000000000E+00 -0.00000000000E+00 -0.10621987635E+03  0.10621987645E+03  0.46700000000E-02 0.  1.
       1023    2    1    2    0    0  0.00000000000E+00  0.00000000000E+00 -0.10527834235E+03  0.10716142204E+03  0.20001025126E+02 0.  0.
        -11    1    3    3    0    0 -0.48366110521E+01 -0.87530724474E+01 -0.52456100621E+02  0.53400857450E+02  0.51100000000E-03 0.  1.
         11    1    3    3    0    0  0.48366110521E+01  0.87530724474E+01 -0.52822241725E+02  0.53760564588E+02  0.51100000000E-03 0. -1.
<mgrwt>
<rscale>  0 0.20001025E+02</rscale>
<asrwt>0</asrwt>
<pdfrwt beam="1">  1        1 0.14485237E-03 0.20001025E+02</pdfrwt>
<pdfrwt beam="2">  1       -1 0.16341511E-01 0.20001025E+02</pdfrwt>
<totfact> 0.31534500E+06</totfact>
</mgrwt>
</event>
<event>
 5    1  0.1161633E-006  0.2000211E+02  0.7818608E-02  0.1745286E+00
         -1   -1    0    0    0  501 -0.00000000000E+00  0.00000000000E+00  0.22501854807E+02  0.22501855291E+02  0.46700000000E-02 0.  1.
          1   -1    0    0  501    0  0.00000000000E+00 -0.00000000000E+00 -0.44450122499E+01  0.44450147031E+01  0.46700000000E-02 0. -1.
       1023    2    1    2    0    0  0.00000000000E+00  0.00000000000E+00  0.18056842557E+02  0.26946869994E+02  0.20002105874E+02 0.  0.
        -11    1    3    3    0    0 -0.99982136409E+01  0.20885210913E+00  0.88738486335E+01  0.13369857331E+02  0.51100000000E-03 0. -1.
         11    1    3    3    0    0  0.99982136409E+01 -0.20885210913E+00  0.91829939233E+01  0.13577012664E+02  0.51100000000E-03 0.  1.
<mgrwt>
<rscale>  0 0.20002106E+02</rscale>
<asrwt>0</asrwt>
<pdfrwt beam="2">  1        1 0.68384826E-03 0.20002106E+02</pdfrwt>
<pdfrwt beam="1">  1       -1 0.34618241E-02 0.20002106E+02</pdfrwt>
<totfact> 0.37160234E+06</totfact>
</mgrwt>
</event>
<event>
 5    1  0.1017822E-006  0.2000125E+02  0.7818608E-02  0.1745303E+00
          1   -1    0    0  501    0  0.00000000000E+00  0.00000000000E+00  0.21559454064E+02  0.21559454570E+02  0.46700000000E-02 0. -1.
         -1   -1    0    0    0  501 -0.00000000000E+00 -0.00000000000E+00 -0.46389124146E+01  0.46389147652E+01  0.46700000000E-02 0.  1.
       1023    2    1    2    0    0  0.00000000000E+00  0.00000000000E+00  0.16920541650E+02  0.26198369335E+02  0.20001245614E+02 0.  0.
        -11    1    3    3    0    0 -0.58510978353E+00 -0.99833173580E+01  0.83830311341E+01  0.13049298456E+02  0.51100000000E-03 0. -1.
         11    1    3    3    0    0  0.58510978353E+00  0.99833173580E+01  0.85375105154E+01  0.13149070879E+02  0.51100000000E-03 0.  1.
<mgrwt>
<rscale>  0 0.20001246E+02</rscale>
<asrwt>0</asrwt>
<pdfrwt beam="1">  1        1 0.33168393E-02 0.20001246E+02</pdfrwt>
<pdfrwt beam="2">  1       -1 0.71367905E-03 0.20001246E+02</pdfrwt>
<totfact> 0.39828206E+06</totfact>
</mgrwt>
</event>
<event>
 5    1  0.9583198E-007  0.2000034E+02  0.7818608E-02  0.1745321E+00
          1   -1    0    0  501    0  0.00000000000E+00  0.00000000000E+00  0.31134046309E+01  0.31134081333E+01  0.46700000000E-02 0. -1.
         -1   -1    0    0    0  501 -0.00000000000E+00 -0.00000000000E+00 -0.32120243060E+02  0.32120243399E+02  0.46700000000E-02 0.  1.
       1023    2    1    2    0    0  0.00000000000E+00  0.00000000000E+00 -0.29006838429E+02  0.35233651532E+02  0.20000338114E+02 0.  0.
        -11    1    3    3    0    0 -0.34285021385E+01  0.93940804039E+01 -0.14498640516E+02  0.17612891603E+02  0.51100000000E-03 0. -1.
         11    1    3    3    0    0  0.34285021385E+01 -0.93940804039E+01 -0.14508197912E+02  0.17620759929E+02  0.51100000000E-03 0.  1.
<mgrwt>
<rscale>  0 0.20000338E+02</rscale>
<asrwt>0</asrwt>
<pdfrwt beam="1">  1        1 0.47898565E-03 0.20000338E+02</pdfrwt>
<pdfrwt beam="2">  1       -1 0.49415759E-02 0.20000338E+02</pdfrwt>
<totfact> 0.36304522E+06</totfact>
</mgrwt>
</event>
<event>
 5    1  0.9583198E-007  0.2000075E+02  0.7818608E-02  0.1745313E+00
          1   -1    0    0  501    0  0.00000000000E+00  0.00000000000E+00  0.11791444861E+02  0.11791445786E+02  0.46700000000E-02 0. -1.
         -1   -1    0    0    0  501 -0.00000000000E+00 -0.00000000000E+00 -0.84813563036E+01  0.84813575893E+01  0.46700000000E-02 0.  1.
       1023    2    1    2    0    0  0.00000000000E+00  0.00000000000E+00  0.33100885573E+01  0.20272803375E+02  0.20000746747E+02 0.  0.
        -11    1    3    3    0    0 -0.96145101664E+01  0.27510749478E+01  0.16390744057E+01  0.10133794170E+02  0.51100000000E-03 0. -1.
         11    1    3    3    0    0  0.96145101664E+01 -0.27510749478E+01  0.16710141516E+01  0.10139009205E+02  0.51100000000E-03 0.  1.
<mgrwt>
<rscale>  0 0.20000747E+02</rscale>
<asrwt>0</asrwt>
<pdfrwt beam="1">  1        1 0.18140686E-02 0.20000747E+02</pdfrwt>
<pdfrwt beam="2">  1       -1 0.13048242E-02 0.20000747E+02</pdfrwt>
<totfact> 0.38873460E+06</totfact>
</mgrwt>
</event>
<event>
 4    1  0.9583198E-007  0.2001451E+02  0.7818608E-02  0.1745040E+00
         -1   -1    0    0    0  501 -0.00000000000E+00  0.00000000000E+00  0.11191105187E+03  0.11191105197E+03  0.46700000000E-02 0.  1.
          1   -1    0    0  501    0  0.00000000000E+00 -0.00000000000E+00 -0.89485769511E+00  0.89486988071E+00  0.46700000000E-02 0. -1.
        -11    1    1    2    0    0 -0.28314774288E+01 -0.95956491800E+01  0.56786048493E+02  0.57660636932E+02  0.51100000000E-03 0.  1.
         11    1    1    2    0    0  0.28314774288E+01  0.95956491800E+01  0.54230145681E+02  0.55145284916E+02  0.51100000000E-03 0. -1.
<mgrwt>
<rscale>  0 0.20014511E+02</rscale>
<asrwt>0</asrwt>
<pdfrwt beam="2">  1        1 0.13767142E-03 0.20014511E+02</pdfrwt>
<pdfrwt beam="1">  1       -1 0.17217078E-01 0.20014511E+02</pdfrwt>
<totfact> 0.31193988E+06</totfact>
</mgrwt>
</event>
<event>
 5    1  0.9814777E-007  0.2000207E+02  0.7818608E-02  0.1745287E+00
          1   -1    0    0  501    0  0.00000000000E+00  0.00000000000E+00  0.29001639877E+02  0.29001640253E+02  0.46700000000E-02 0. -1.
         -1   -1    0    0    0  501 -0.00000000000E+00 -0.00000000000E+00 -0.34487922007E+01  0.34487953625E+01  0.46700000000E-02 0.  1.
       1023    2    1    2    0    0  0.00000000000E+00  0.00000000000E+00  0.25552847676E+02  0.32450435616E+02  0.20002068575E+02 0.  0.
        -11    1    3    3    0    0 -0.32787254514E+01  0.94482212875E+01  0.12844494545E+02  0.16278819566E+02  0.51100000000E-03 0.  1.
         11    1    3    3    0    0  0.32787254514E+01 -0.94482212875E+01  0.12708353131E+02  0.16171616049E+02  0.51100000000E-03 0. -1.
<mgrwt>
<rscale>  0 0.20002069E+02</rscale>
<asrwt>0</asrwt>
<pdfrwt beam="1">  1        1 0.44617909E-02 0.20002069E+02</pdfrwt>
<pdfrwt beam="2">  1       -1 0.53058370E-03 0.20002069E+02</pdfrwt>
<totfact> 0.40378144E+06</totfact>
</mgrwt>
</event>
<event>
 5    1  0.9758385E-007  0.2000229E+02  0.7818608E-02  0.1745283E+00
         -1   -1    0    0    0  501 -0.00000000000E+00  0.00000000000E+00  0.28333224522E+01  0.28333263009E+01  0.46700000000E-02 0. -1.
          1   -1    0    0  501    0  0.00000000000E+00 -0.00000000000E+00 -0.35302310577E+02  0.35302310886E+02  0.46700000000E-02 0.  1.
       1023    2    1    2    0    0  0.00000000000E+00  0.00000000000E+00 -0.32468988125E+02  0.38135637187E+02  0.20002290714E+02 0.  0.
        -11    1    3    3    0    0 -0.93541039382E+01  0.35382532377E+01 -0.16107858511E+02  0.18960000067E+02  0.51100000000E-03 0. -1.
         11    1    3    3    0    0  0.93541039382E+01 -0.35382532377E+01 -0.16361129614E+02  0.19175637120E+02  0.51100000000E-03 0.  1.
<mgrwt>
<rscale>  0 0.20002291E+02</rscale>
<asrwt>0</asrwt>
<pdfrwt beam="2">  1        1 0.54311247E-02 0.20002291E+02</pdfrwt>
<pdfrwt beam="1">  1       -1 0.43589611E-03 0.20002291E+02</pdfrwt>
<totfact> 0.40800591E+06</totfact>
</mgrwt>
</event>
<event>
 5    1  0.9583198E-007  0.2000022E+02  0.7818608E-02  0.1745324E+00
          1   -1    0    0  501    0  0.00000000000E+00  0.00000000000E+00  0.23658321703E+02  0.23658322164E+02  0.46700000000E-02 0.  1.
         -1   -1    0    0    0  501 -0.00000000000E+00 -0.00000000000E+00 -0.42269337914E+01  0.42269363711E+01  0.46700000000E-02 0. -1.
       1023    2    1    2    0    0  0.00000000000E+00  0.00000000000E+00  0.19431387912E+02  0.27885258535E+02  0.20000220184E+02 0.  0.
        -11    1    3    3    0    0  0.28155653745E+01  0.95955557481E+01  0.97015372925E+01  0.13932764427E+02  0.51100000000E-03 0.  1.
         11    1    3    3    0    0 -0.28155653745E+01 -0.95955557481E+01  0.97298506194E+01  0.13952494108E+02  0.51100000000E-03 0. -1.
<mgrwt>
<rscale>  0 0.20000220E+02</rscale>
<asrwt>0</asrwt>
<pdfrwt beam="1">  1        1 0.36397422E-02 0.20000220E+02</pdfrwt>
<pdfrwt beam="2">  1       -1 0.65029772E-03 0.20000220E+02</pdfrwt>
<totfact> 0.39997094E+06</totfact>
</mgrwt>
</event>
<event>
 5    1  0.9583198E-007  0.2000022E+02  0.7818608E-02  0.1745324E+00
         -1   -1    0    0    0  501 -0.00000000000E+00  0.00000000000E+00  0.83605256369E+02  0.83605256500E+02  0.46700000000E-02 0. -1.
          1   -1    0    0  501    0  0.00000000000E+00 -0.00000000000E+00 -0.11961183608E+01  0.11961274773E+01  0.46700000000E-02 0.  1.
       1023    2    1    2    0    0  0.00000000000E+00  0.00000000000E+00  0.82409138008E+02  0.84801383977E+02  0.20000217427E+02 0.  0.
        -11    1    3    3    0    0  0.62240680758E+01  0.78270770948E+01  0.41188278795E+02  0.42384861326E+02  0.51100000000E-03 0.  1.
         11    1    3    3    0    0 -0.62240680758E+01 -0.78270770948E+01  0.41220859213E+02  0.42416522651E+02  0.51100000000E-03 0. -1.
<mgrwt>
<rscale>  0 0.20000217E+02</rscale>
<asrwt>0</asrwt>
<pdfrwt beam="2">  1        1 0.18401890E-03 0.20000217E+02</pdfrwt>
<pdfrwt beam="1">  1       -1 0.12862349E-01 0.20000217E+02</pdfrwt>
<totfact> 0.32781604E+06</totfact>
</mgrwt>
</event>
<event>
 5    1  0.9583198E-007  0.2000004E+02  0.7818608E-02  0.1745327E+00
         -1   -1    0    0    0  501 -0.00000000000E+00  0.00000000000E+00  0.22831466720E+01  0.22831514481E+01  0.46700000000E-02 0.  1.
          1   -1    0    0  501    0  0.00000000000E+00 -0.00000000000E+00 -0.43799321569E+02  0.43799321818E+02  0.46700000000E-02 0. -1.
       1023    2    1    2    0    0  0.00000000000E+00  0.00000000000E+00 -0.41516174897E+02  0.46082473267E+02  0.20000039106E+02 0.  0.
        -11    1    3    3    0    0 -0.71363733833E+01  0.70051781668E+01 -0.20773472487E+02  0.23055097172E+02  0.51100000000E-03 0. -1.
         11    1    3    3    0    0  0.71363733833E+01 -0.70051781668E+01 -0.20742702411E+02  0.23027376094E+02  0.51100000000E-03 0.  1.
<mgrwt>
<rscale>  0 0.20000039E+02</rscale>
<asrwt>0</asrwt>
<pdfrwt beam="2">  1        1 0.67383569E-02 0.20000039E+02</pdfrwt>
<pdfrwt beam="1">  1       -1 0.35125375E-03 0.20000039E+02</pdfrwt>
<totfact> 0.41344475E+06</totfact>
</mgrwt>
</event>
<event>
 5    1  0.9583198E-007  0.2000105E+02  0.7818608E-02  0.1745307E+00
          1   -1    0    0  501    0  0.00000000000E+00  0.00000000000E+00  0.61747529029E+01  0.61747546689E+01  0.46700000000E-02 0. -1.
         -1   -1    0    0    0  501 -0.00000000000E+00 -0.00000000000E+00 -0.16196677465E+02  0.16196678138E+02  0.46700000000E-02 0.  1.
       1023    2    1    2    0    0  0.00000000000E+00  0.00000000000E+00 -0.10021924562E+02  0.22371432807E+02  0.20001050820E+02 0.  0.
        -11    1    3    3    0    0 -0.96934245718E+01 -0.24590330531E+01 -0.50494613790E+01  0.11202963178E+02  0.51100000000E-03 0. -1.
         11    1    3    3    0    0  0.96934245718E+01  0.24590330531E+01 -0.49724631828E+01  0.11168469629E+02  0.51100000000E-03 0.  1.
<mgrwt>
<rscale>  0 0.20001051E+02</rscale>
<asrwt>0</asrwt>
<pdfrwt beam="1">  1        1 0.94996218E-03 0.20001051E+02</pdfrwt>
<pdfrwt beam="2">  1       -1 0.24917967E-02 0.20001051E+02</pdfrwt>
<totfact> 0.37818080E+06</totfact>
</mgrwt>
</event>
<event>
 5    1  0.9583198E-007  0.2000159E+02  0.7818608E-02  0.1745297E+00
         -1   -1    0    0    0  501 -0.00000000000E+00  0.00000000000E+00  0.78414190950E+02  0.78414191089E+02  0.46700000000E-02 0.  1.
          1   -1    0    0  501    0  0.00000000000E+00 -0.00000000000E+00 -0.12754774215E+01  0.12754859708E+01  0.46700000000E-02 0. -1.
       1023    2    1    2    0    0  0.00000000000E+00  0.00000000000E+00  0.77138713529E+02  0.79689677060E+02  0.20001587564E+02 0.  0.
        -11    1    3    3    0    0  0.77805976133E+01 -0.62830933208E+01  0.38448832684E+02  0.39728172572E+02  0.51100000000E-03 0.  1.
         11    1    3    3    0    0 -0.77805976133E+01  0.62830933208E+01  0.38689880845E+02  0.39961504488E+02  0.51100000000E-03 0. -1.
<mgrwt>
<rscale>  0 0.20001588E+02</rscale>
<asrwt>0</asrwt>
<pdfrwt beam="2">  1        1 0.19622793E-03 0.20001588E+02</pdfrwt>
<pdfrwt beam="1">  1       -1 0.12063724E-01 0.20001588E+02</pdfrwt>
<totfact> 0.33081738E+06</totfact>
</mgrwt>
</event>
<event>
 5    1  0.9583198E-007  0.2000045E+02  0.7818608E-02  0.1745319E+00
         -1   -1    0    0    0  501 -0.00000000000E+00  0.00000000000E+00  0.82217704908E+01  0.82217718171E+01  0.46700000000E-02 0. -1.
          1   -1    0    0  501    0  0.00000000000E+00 -0.00000000000E+00 -0.12163368988E+02  0.12163369885E+02  0.46700000000E-02 0.  1.
       1023    2    1    2    0    0  0.00000000000E+00  0.00000000000E+00 -0.39415984973E+01  0.20385141702E+02  0.20000445082E+02 0.  0.
        -11    1    3    3    0    0  0.62055683977E+01  0.78417721861E+01 -0.19254409917E+01  0.10183800540E+02  0.51100000000E-03 0.  1.
         11    1    3    3    0    0 -0.62055683977E+01 -0.78417721861E+01 -0.20161575056E+01  0.10201341162E+02  0.51100000000E-03 0. -1.
<mgrwt>
<rscale>  0 0.20000445E+02</rscale>
<asrwt>0</asrwt>
<pdfrwt beam="2">  1        1 0.18712877E-02 0.20000445E+02</pdfrwt>
<pdfrwt beam="1">  1       -1 0.12648879E-02 0.20000445E+02</pdfrwt>
<totfact> 0.38922078E+06</totfact>
</mgrwt>
</event>
<event>
 4    1  0.9583198E-007  0.2014362E+02  0.7818608E-02  0.1742487E+00
          1   -1    0    0  501    0  0.00000000000E+00  0.00000000000E+00  0.80964607442E+02  0.80964607577E+02  0.46700000000E-02 0.  1.
         -1   -1    0    0    0  501 -0.00000000000E+00 -0.00000000000E+00 -0.12529054617E+01  0.12529141650E+01  0.46700000000E-02 0. -1.
        -11    1    1    2    0    0  0.99887398769E+01  0.12284561717E+01  0.41474813543E+02  0.42678380798E+02  0.51100000000E-03 0.  1.
         11    1    1    2    0    0 -0.99887398769E+01 -0.12284561717E+01  0.38236888438E+02  0.39539140943E+02  0.51100000000E-03 0. -1.
<mgrwt>
<rscale>  0 0.20143621E+02</rscale>
<asrwt>0</asrwt>
<pdfrwt beam="1">  1        1 0.12456096E-01 0.20143621E+02</pdfrwt>
<pdfrwt beam="2">  1       -1 0.19275533E-03 0.20143621E+02</pdfrwt>
<totfact> 0.42727355E+06</totfact>
</mgrwt>
</event>
<event>
 5    1  0.9583198E-007  0.2000472E+02  0.7818608E-02  0.1745234E+00
         -1   -1    0    0    0  501 -0.00000000000E+00  0.00000000000E+00  0.94548092540E+02  0.94548092656E+02  0.46700000000E-02 0. -1.
          1   -1    0    0  501    0  0.00000000000E+00 -0.00000000000E+00 -0.10581568166E+01  0.10581671217E+01  0.46700000000E-02 0.  1.
       1023    2    1    2    0    0  0.00000000000E+00  0.00000000000E+00  0.93489935724E+02  0.95606259777E+02  0.20004720118E+02 0.  0.
        -11    1    3    3    0    0 -0.54655968561E+01 -0.83768422416E+01  0.46484445094E+02  0.47548374009E+02  0.51100000000E-03 0.  1.
         11    1    3    3    0    0  0.54655968561E+01  0.83768422416E+01  0.47005490630E+02  0.48057885768E+02  0.51100000000E-03 0. -1.
<mgrwt>
<rscale>  0 0.20004720E+02</rscale>
<asrwt>0</asrwt>
<pdfrwt beam="2">  1        1 0.16279412E-03 0.20004720E+02</pdfrwt>
<pdfrwt beam="1">  1       -1 0.14545864E-01 0.20004720E+02</pdfrwt>
<totfact> 0.32147551E+06</totfact>
</mgrwt>
</event>
<event>
 5    1  0.9583198E-007  0.2000200E+02  0.7818608E-02  0.1745288E+00
          1   -1    0    0  501    0  0.00000000000E+00  0.00000000000E+00  0.12055882537E+01  0.12055972986E+01  0.46700000000E-02 0.  1.
         -1   -1    0    0    0  501 -0.00000000000E+00 -0.00000000000E+00 -0.82963290676E+02  0.82963290807E+02  0.46700000000E-02 0. -1.
       1023    2    1    2    0    0  0.00000000000E+00  0.00000000000E+00 -0.81757702422E+02  0.84168888106E+02  0.20001995391E+02 0.  0.
        -11    1    3    3    0    0 -0.25615954018E+01  0.96673281845E+01 -0.41008511600E+02  0.42210390061E+02  0.51100000000E-03 0.  1.
         11    1    3    3    0    0  0.25615954018E+01 -0.96673281845E+01 -0.40749190822E+02  0.41958498045E+02  0.51100000000E-03 0. -1.
<mgrwt>
<rscale>  0 0.20001995E+02</rscale>
<asrwt>0</asrwt>
<pdfrwt beam="1">  1        1 0.18547589E-03 0.20001995E+02</pdfrwt>
<pdfrwt beam="2">  1       -1 0.12763579E-01 0.20001995E+02</pdfrwt>
<totfact> 0.32812500E+06</totfact>
</mgrwt>
</event>
<event>
 5    1  0.9583198E-007  0.2000330E+02  0.7818608E-02  0.1745262E+00
          1   -1    0    0  501    0  0.00000000000E+00  0.00000000000E+00  0.72827794818E+01  0.72827809791E+01  0.46700000000E-02 0.  1.
         -1   -1    0    0    0  501 -0.00000000000E+00 -0.00000000000E+00 -0.13735548500E+02  0.13735549294E+02  0.46700000000E-02 0. -1.
       1023    2    1    2    0    0  0.00000000000E+00  0.00000000000E+00 -0.64527690180E+01  0.21018330273E+02  0.20003299214E+02 0.  0.
        -11    1    3    3    0    0  0.97430102326E+01  0.22575152705E+01 -0.33333902784E+01  0.10542016629E+02  0.51100000000E-03 0.  1.
         11    1    3    3    0    0 -0.97430102326E+01 -0.22575152705E+01 -0.31193787396E+01  0.10476313644E+02  0.51100000000E-03 0. -1.
<mgrwt>
<rscale>  0 0.20003299E+02</rscale>
<asrwt>0</asrwt>
<pdfrwt beam="1">  1        1 0.11204278E-02 0.20003299E+02</pdfrwt>
<pdfrwt beam="2">  1       -1 0.21131615E-02 0.20003299E+02</pdfrwt>
<totfact> 0.38098283E+06</totfact>
</mgrwt>
</event>
<event>
 5    1  0.1027371E-006  0.2000152E+02  0.7818608E-02  0.1745298E+00
          1   -1    0    0  501    0  0.00000000000E+00  0.00000000000E+00  0.91708411236E+02  0.91708411355E+02  0.46700000000E-02 0.  1.
         -1   -1    0    0    0  501 -0.00000000000E+00 -0.00000000000E+00 -0.10905728267E+01  0.10905828255E+01  0.46700000000E-02 0. -1.
       1023    2    1    2    0    0  0.00000000000E+00  0.00000000000E+00  0.90617838410E+02  0.92798994181E+02  0.20001517015E+02 0.  0.
        -11    1    3    3    0    0  0.64471704743E+01  0.76448423328E+01  0.44963306538E+02  0.46062007735E+02  0.51100000000E-03 0. -1.
         11    1    3    3    0    0 -0.64471704743E+01 -0.76448423328E+01  0.45654531871E+02  0.46736986446E+02  0.51100000000E-03 0.  1.
<mgrwt>
<rscale>  0 0.20001517E+02</rscale>
<asrwt>0</asrwt>
<pdfrwt beam="1">  1        1 0.14108985E-01 0.20001517E+02</pdfrwt>
<pdfrwt beam="2">  1       -1 0.16778124E-03 0.20001517E+02</pdfrwt>
<totfact> 0.43945800E+06</totfact>
</mgrwt>
</event>
<event>
 5    1  0.9660127E-007  0.2000087E+02  0.7818608E-02  0.1745311E+00
         -1   -1    0    0    0  501 -0.00000000000E+00  0.00000000000E+00  0.11770141063E+02  0.11770141989E+02  0.46700000000E-02 0.  1.
          1   -1    0    0  501    0  0.00000000000E+00 -0.00000000000E+00 -0.84968129125E+01  0.84968141958E+01  0.46700000000E-02 0. -1.
       1023    2    1    2    0    0  0.00000000000E+00  0.00000000000E+00  0.32733281503E+01  0.20266956185E+02  0.20000870877E+02 0.  0.
        -11    1    3    3    0    0 -0.59887871454E+01 -0.80083984379E+01  0.17311335613E+01  0.10148735915E+02  0.51100000000E-03 0. -1.
         11    1    3    3    0    0  0.59887871454E+01  0.80083984379E+01  0.15421945890E+01  0.10118220270E+02  0.51100000000E-03 0.  1.
<mgrwt>
<rscale>  0 0.20000871E+02</rscale>
<asrwt>0</asrwt>
<pdfrwt beam="2">  1        1 0.13072022E-02 0.20000871E+02</pdfrwt>
<pdfrwt beam="1">  1       -1 0.18107911E-02 0.20000871E+02</pdfrwt>
<totfact> 0.38363351E+06</totfact>
</mgrwt>
</event>
<event>
 5    1  0.9583198E-007  0.2000427E+02  0.7818608E-02  0.1745243E+00
         -1   -1    0    0    0  501 -0.00000000000E+00  0.00000000000E+00  0.13018260984E+02  0.13018261822E+02  0.46700000000E-02 0.  1.
          1   -1    0    0  501    0  0.00000000000E+00 -0.00000000000E+00 -0.76847967951E+01  0.76847982140E+01  0.46700000000E-02 0. -1.
       1023    2    1    2    0    0  0.00000000000E+00  0.00000000000E+00  0.53334641894E+01  0.20703060036E+02  0.20004270909E+02 0.  0.
        -11    1    3    3    0    0  0.16884091861E+01 -0.98585918119E+01  0.26796291278E+01  0.10354852516E+02  0.51100000000E-03 0. -1.
         11    1    3    3    0    0 -0.16884091861E+01  0.98585918119E+01  0.26538350615E+01  0.10348207521E+02  0.51100000000E-03 0.  1.
<mgrwt>
<rscale>  0 0.20004271E+02</rscale>
<asrwt>0</asrwt>
<pdfrwt beam="2">  1        1 0.11822766E-02 0.20004271E+02</pdfrwt>
<pdfrwt beam="1">  1       -1 0.20028096E-02 0.20004271E+02</pdfrwt>
<totfact> 0.38184373E+06</totfact>
</mgrwt>
</event>
<event>
 5    1  0.9583198E-007  0.2000187E+02  0.7818608E-02  0.1745291E+00
         -1   -1    0    0    0  501 -0.00000000000E+00  0.00000000000E+00  0.16508840348E+02  0.16508841008E+02  0.46700000000E-02 0.  1.
          1   -1    0    0  501    0  0.00000000000E+00 -0.00000000000E+00 -0.60584924943E+01  0.60584942942E+01  0.46700000000E-02 0. -1.
       1023    2    1    2    0    0  0.00000000000E+00  0.00000000000E+00  0.10450347854E+02  0.22567335303E+02  0.20001871222E+02 0.  0.
        -11    1    3    3    0    0  0.92552471818E+01 -0.37889477183E+01  0.51635040588E+01  0.11255109934E+02  0.51100000000E-03 0. -1.
         11    1    3    3    0    0 -0.92552471818E+01  0.37889477183E+01  0.52868437947E+01  0.11312225368E+02  0.51100000000E-03 0.  1.
<mgrwt>
<rscale>  0 0.20001871E+02</rscale>
<asrwt>0</asrwt>
<pdfrwt beam="2">  1        1 0.93207597E-03 0.20001871E+02</pdfrwt>
<pdfrwt beam="1">  1       -1 0.25398217E-02 0.20001871E+02</pdfrwt>
<totfact> 0.37779725E+06</totfact>
</mgrwt>
</event>
<event>
 4    1  0.9583198E-007  0.2001509E+02  0.7818608E-02  0.1745028E+00
          1   -1    0    0  501    0  0.00000000000E+00  0.00000000000E+00  0.54452684979E+01  0.54452705004E+01  0.46700000000E-02 0. -1.
         -1   -1    0    0    0  501 -0.00000000000E+00 -0.00000000000E+00 -0.18392286139E+02  0.18392286732E+02  0.46700000000E-02 0.  1.
        -11    1    1    2    0    0 -0.95623037642E+01 -0.29384605977E+01 -0.61392634691E+01  0.11737238183E+02  0.51100000000E-03 0. -1.
         11    1    1    2    0    0  0.95623037642E+01  0.29384605977E+01 -0.68077541721E+01  0.12100319049E+02  0.51100000000E-03 0.  1.
<mgrwt>
<rscale>  0 0.20015091E+02</rscale>
<asrwt>0</asrwt>
<pdfrwt beam="1">  1        1 0.83773383E-03 0.20015091E+02</pdfrwt>
<pdfrwt beam="2">  1       -1 0.28295826E-02 0.20015091E+02</pdfrwt>
<totfact> 0.37521199E+06</totfact>
</mgrwt>
</event>
<event>
 5    1  0.1015272E-006  0.2000163E+02  0.7818608E-02  0.1745296E+00
          1   -1    0    0  501    0  0.00000000000E+00  0.00000000000E+00  0.24022098908E+02  0.24022099362E+02  0.46700000000E-02 0.  1.
         -1   -1    0    0    0  501 -0.00000000000E+00 -0.00000000000E+00 -0.41635104385E+01  0.41635130575E+01  0.46700000000E-02 0. -1.
       1023    2    1    2    0    0  0.00000000000E+00  0.00000000000E+00  0.19858588469E+02  0.28185612419E+02  0.20001630220E+02 0.  0.
        -11    1    3    3    0    0  0.65897252505E+01 -0.75217756638E+01  0.10100231259E+02  0.14213242409E+02  0.51100000000E-03 0. -1.
         11    1    3    3    0    0 -0.65897252505E+01  0.75217756638E+01  0.97583572098E+01  0.13972370010E+02  0.51100000000E-03 0.  1.
<mgrwt>
<rscale>  0 0.20001630E+02</rscale>
<asrwt>0</asrwt>
<pdfrwt beam="1">  1        1 0.36957078E-02 0.20001630E+02</pdfrwt>
<pdfrwt beam="2">  1       -1 0.64054030E-03 0.20001630E+02</pdfrwt>
<totfact> 0.40018502E+06</totfact>
</mgrwt>
</event>
<event>
 5    1  0.9583198E-007  0.2000989E+02  0.7818608E-02  0.1745132E+00
          1   -1    0    0  501    0  0.00000000000E+00  0.00000000000E+00  0.88508408076E+01  0.88508420397E+01  0.46700000000E-02 0. -1.
         -1   -1    0    0    0  501 -0.00000000000E+00 -0.00000000000E+00 -0.11309531091E+02  0.11309532056E+02  0.46700000000E-02 0.  1.
       1023    2    1    2    0    0  0.00000000000E+00  0.00000000000E+00 -0.24586902838E+01  0.20160374095E+02  0.20009885701E+02 0.  0.
        -11    1    3    3    0    0  0.70176290477E+01 -0.71294828529E+01 -0.10790995970E+01  0.10061863615E+02  0.51100000000E-03 0.  1.
         11    1    3    3    0    0 -0.70176290477E+01  0.71294828529E+01 -0.13795906868E+01  0.10098510481E+02  0.51100000000E-03 0. -1.
<mgrwt>
<rscale>  0 0.20009886E+02</rscale>
<asrwt>0</asrwt>
<pdfrwt beam="1">  1        1 0.13616680E-02 0.20009886E+02</pdfrwt>
<pdfrwt beam="2">  1       -1 0.17399280E-02 0.20009886E+02</pdfrwt>
<totfact> 0.38389385E+06</totfact>
</mgrwt>
</event>
<event>
 5    1  0.9583198E-007  0.2000126E+02  0.7818608E-02  0.1745303E+00
          1   -1    0    0  501    0  0.00000000000E+00  0.00000000000E+00  0.19086982811E+01  0.19087039942E+01  0.46700000000E-02 0.  1.
         -1   -1    0    0    0  501 -0.00000000000E+00 -0.00000000000E+00 -0.52398253251E+02  0.52398253459E+02  0.46700000000E-02 0. -1.
       1023    2    1    2    0    0  0.00000000000E+00  0.00000000000E+00 -0.50489554969E+02  0.54306957453E+02  0.20001261630E+02 0.  0.
        -11    1    3    3    0    0  0.73704474079E+01 -0.67593621811E+01 -0.25277398635E+02  0.27183806836E+02  0.51100000000E-03 0.  1.
         11    1    3    3    0    0 -0.73704474079E+01  0.67593621811E+01 -0.25212156334E+02  0.27123150616E+02  0.51100000000E-03 0. -1.
<mgrwt>
<rscale>  0 0.20001262E+02</rscale>
<asrwt>0</asrwt>
<pdfrwt beam="1">  1        1 0.29364638E-03 0.20001262E+02</pdfrwt>
<pdfrwt beam="2">  1       -1 0.80612691E-02 0.20001262E+02</pdfrwt>
<totfact> 0.34755660E+06</totfact>
</mgrwt>
</event>
<event>
 5    1  0.9583198E-007  0.2000635E+02  0.7818608E-02  0.1745202E+00
          1   -1    0    0  501    0  0.00000000000E+00  0.00000000000E+00  0.27380568273E+01  0.27380608098E+01  0.46700000000E-02 0.  1.
         -1   -1    0    0    0  501 -0.00000000000E+00 -0.00000000000E+00 -0.36545424748E+02  0.36545425046E+02  0.46700000000E-02 0. -1.
       1023    2    1    2    0    0  0.00000000000E+00  0.00000000000E+00 -0.33807367920E+02  0.39283485856E+02  0.20006352373E+02 0.  0.
        -11    1    3    3    0    0 -0.96338539064E+01  0.26929483225E+01 -0.16944010949E+02  0.19676448334E+02  0.51100000000E-03 0.  1.
         11    1    3    3    0    0  0.96338539064E+01 -0.26929483225E+01 -0.16863356971E+02  0.19607037521E+02  0.51100000000E-03 0. -1.
<mgrwt>
<rscale>  0 0.20006352E+02</rscale>
<asrwt>0</asrwt>
<pdfrwt beam="1">  1        1 0.42123987E-03 0.20006352E+02</pdfrwt>
<pdfrwt beam="2">  1       -1 0.56223730E-02 0.20006352E+02</pdfrwt>
<totfact> 0.35917877E+06</totfact>
</mgrwt>
</event>
<event>
 5    1  0.9583198E-007  0.2000081E+02  0.7818608E-02  0.1745312E+00
          1   -1    0    0  501    0  0.00000000000E+00  0.00000000000E+00  0.84159532772E+00  0.84160828450E+00  0.46700000000E-02 0. -1.
         -1   -1    0    0    0  501 -0.00000000000E+00 -0.00000000000E+00 -0.11883059233E+03  0.11883059242E+03  0.46700000000E-02 0.  1.
       1023    2    1    2    0    0  0.00000000000E+00  0.00000000000E+00 -0.11798899700E+03  0.11967220071E+03  0.20000805191E+02 0.  0.
        -11    1    3    3    0    0 -0.79268793747E+01  0.60965438687E+01 -0.59408521949E+02  0.60244300512E+02  0.51100000000E-03 0. -1.
         11    1    3    3    0    0  0.79268793747E+01 -0.60965438687E+01 -0.58580475054E+02  0.59427900195E+02  0.51100000000E-03 0.  1.
<mgrwt>
<rscale>  0 0.20000805E+02</rscale>
<asrwt>0</asrwt>
<pdfrwt beam="1">  1        1 0.12947730E-03 0.20000805E+02</pdfrwt>
<pdfrwt beam="2">  1       -1 0.18281617E-01 0.20000805E+02</pdfrwt>
<totfact> 0.30891844E+06</totfact>
</mgrwt>
</event>
<event>
 5    1  0.1007921E-006  0.2000131E+02  0.7818608E-02  0.1745302E+00
         -1   -1    0    0    0  501 -0.00000000000E+00  0.00000000000E+00  0.21982857856E+01  0.21982907460E+01  0.46700000000E-02 0.  1.
          1   -1    0    0  501    0  0.00000000000E+00 -0.00000000000E+00 -0.45495872060E+02  0.45495872299E+02  0.46700000000E-02 0. -1.
       1023    2    1    2    0    0  0.00000000000E+00  0.00000000000E+00 -0.43297586274E+02  0.47694163045E+02  0.20001305243E+02 0.  0.
        -11    1    3    3    0    0  0.58719574307E+01 -0.80945656463E+01 -0.21900874610E+02  0.24075925445E+02  0.51100000000E-03 0. -1.
         11    1    3    3    0    0 -0.58719574307E+01  0.80945656463E+01 -0.21396711664E+02  0.23618237601E+02  0.51100000000E-03 0.  1.
<mgrwt>
<rscale>  0 0.20001305E+02</rscale>
<asrwt>0</asrwt>
<pdfrwt beam="2">  1        1 0.69993646E-02 0.20001305E+02</pdfrwt>
<pdfrwt beam="1">  1       -1 0.33819825E-03 0.20001305E+02</pdfrwt>
<totfact> 0.41441315E+06</totfact>
</mgrwt>
</event>
<event>
 5    1  0.9583198E-007  0.2000058E+02  0.7818608E-02  0.1745317E+00
          1   -1    0    0  501    0  0.00000000000E+00  0.00000000000E+00  0.10307112141E+02  0.10307113199E+02  0.46700000000E-02 0.  1.
         -1   -1    0    0    0  501 -0.00000000000E+00 -0.00000000000E+00 -0.97026002146E+01  0.97026013384E+01  0.46700000000E-02 0. -1.
       1023    2    1    2    0    0  0.00000000000E+00  0.00000000000E+00  0.60451192628E+00  0.20009714537E+02  0.20000581021E+02 0.  0.
        -11    1    3    3    0    0  0.32944652127E+00 -0.99947563658E+01  0.34832277790E+00  0.10006248990E+02  0.51100000000E-03 0. -1.
         11    1    3    3    0    0 -0.32944652127E+00  0.99947563658E+01  0.25618914838E+00  0.10003465548E+02  0.51100000000E-03 0.  1.
<mgrwt>
<rscale>  0 0.20000581E+02</rscale>
<asrwt>0</asrwt>
<pdfrwt beam="1">  1        1 0.15857097E-02 0.20000581E+02</pdfrwt>
<pdfrwt beam="2">  1       -1 0.14927079E-02 0.20000581E+02</pdfrwt>
<totfact> 0.38668183E+06</totfact>
</mgrwt>
</event>
<event>
 5    1  0.9583198E-007  0.2000547E+02  0.7818608E-02  0.1745219E+00
          1   -1    0    0  501    0  0.00000000000E+00  0.00000000000E+00  0.16683315332E+02  0.16683315986E+02  0.46700000000E-02 0. -1.
         -1   -1    0    0    0  501 -0.00000000000E+00 -0.00000000000E+00 -0.59972890351E+01  0.59972908533E+01  0.46700000000E-02 0.  1.
       1023    2    1    2    0    0  0.00000000000E+00  0.00000000000E+00  0.10686026297E+02  0.22680606839E+02  0.20005468467E+02 0.  0.
        -11    1    3    3    0    0  0.39857408563E+00 -0.99933667810E+01  0.55342424345E+01  0.11430401590E+02  0.51100000000E-03 0. -1.
         11    1    3    3    0    0 -0.39857408563E+00  0.99933667810E+01  0.51517838627E+01  0.11250205249E+02  0.51100000000E-03 0.  1.
<mgrwt>
<rscale>  0 0.20005468E+02</rscale>
<asrwt>0</asrwt>
<pdfrwt beam="1">  1        1 0.25666641E-02 0.20005468E+02</pdfrwt>
<pdfrwt beam="2">  1       -1 0.92266005E-03 0.20005468E+02</pdfrwt>
<totfact> 0.39386752E+06</totfact>
</mgrwt>
</event>
<event>
 5    1  0.9583198E-007  0.2000069E+02  0.7818608E-02  0.1745314E+00
          1   -1    0    0  501    0  0.00000000000E+00  0.00000000000E+00  0.61174605325E+01  0.61174623150E+01  0.46700000000E-02 0. -1.
         -1   -1    0    0    0  501 -0.00000000000E+00 -0.00000000000E+00 -0.16347777943E+02  0.16347778610E+02  0.46700000000E-02 0.  1.
       1023    2    1    2    0    0  0.00000000000E+00  0.00000000000E+00 -0.10230317410E+02  0.22465240925E+02  0.20000691376E+02 0.  0.
        -11    1    3    3    0    0  0.99974528253E+01  0.22941978007E+00 -0.51962891998E+01  0.11269566014E+02  0.51100000000E-03 0. -1.
         11    1    3    3    0    0 -0.99974528253E+01 -0.22941978007E+00 -0.50340282106E+01  0.11195674911E+02  0.51100000000E-03 0.  1.
<mgrwt>
<rscale>  0 0.20000691E+02</rscale>
<asrwt>0</asrwt>
<pdfrwt beam="1">  1        1 0.94114797E-03 0.20000691E+02</pdfrwt>
<pdfrwt beam="2">  1       -1 0.25150429E-02 0.20000691E+02</pdfrwt>
<totfact> 0.37802608E+06</totfact>
</mgrwt>
</event>
<event>
 5    1  0.9583198E-007  0.2000782E+02  0.7818608E-02  0.1745173E+00
          1   -1    0    0  501    0  0.00000000000E+00  0.00000000000E+00  0.84790262166E+01  0.84790275026E+01  0.46700000000E-02 0. -1.
         -1   -1    0    0    0  501 -0.00000000000E+00 -0.00000000000E+00 -0.11803027093E+02  0.11803028017E+02  0.46700000000E-02 0.  1.
       1023    2    1    2    0    0  0.00000000000E+00  0.00000000000E+00 -0.33240008764E+01  0.20282055519E+02  0.20007818329E+02 0.  0.
        -11    1    3    3    0    0  0.68887335838E+01  0.72494263435E+01 -0.19289838809E+01  0.10184783344E+02  0.51100000000E-03 0.  1.
         11    1    3    3    0    0 -0.68887335838E+01 -0.72494263435E+01 -0.13950169955E+01  0.10097272175E+02  0.51100000000E-03 0. -1.
<mgrwt>
<rscale>  0 0.20007818E+02</rscale>
<asrwt>0</asrwt>
<pdfrwt beam="1">  1        1 0.13044657E-02 0.20007818E+02</pdfrwt>
<pdfrwt beam="2">  1       -1 0.18158505E-02 0.20007818E+02</pdfrwt>
<totfact> 0.38329703E+06</totfact>
</mgrwt>
</event>
<event>
 4    1  0.9583198E-007  0.2003043E+02  0.7818608E-02  0.1744724E+00
          1   -1    0    0  501    0  0.00000000000E+00  0.00000000000E+00  0.10014355385E+03  0.10014355396E+03  0.46700000000E-02 0.  1.
         -1   -1    0    0    0  501 -0.00000000000E+00 -0.00000000000E+00 -0.10016015328E+01  0.10016124198E+01  0.46700000000E-02 0. -1.
        -11    1    1    2    0    0  0.59972205034E+01 -0.80028675072E+01  0.52299386891E+02  0.53246956829E+02  0.51100000000E-03 0.  1.
         11    1    1    2    0    0 -0.59972205034E+01  0.80028675072E+01  0.46842565423E+02  0.47898209546E+02  0.51100000000E-03 0. -1.
<mgrwt>
<rscale>  0 0.20030426E+02</rscale>
<asrwt>0</asrwt>
<pdfrwt beam="1">  1        1 0.15406705E-01 0.20030426E+02</pdfrwt>
<pdfrwt beam="2">  1       -1 0.15409335E-03 0.20030426E+02</pdfrwt>
<totfact> 0.44219065E+06</totfact>
</mgrwt>
</event>
<event>
 5    1  0.9583198E-007  0.2000020E+02  0.7818608E-02  0.1745324E+00
         -1   -1    0    0    0  501 -0.00000000000E+00  0.00000000000E+00  0.47457433494E+01  0.47457456472E+01  0.46700000000E-02 0.  1.
          1   -1    0    0  501    0  0.00000000000E+00 -0.00000000000E+00 -0.21071932412E+02  0.21071932930E+02  0.46700000000E-02 0. -1.
       1023    2    1    2    0    0  0.00000000000E+00  0.00000000000E+00 -0.16326189063E+02  0.25817678577E+02  0.20000201944E+02 0.  0.
        -11    1    3    3    0    0  0.22250113921E+01  0.97494228759E+01 -0.81503759479E+01  0.12900796505E+02  0.51100000000E-03 0. -1.
         11    1    3    3    0    0 -0.22250113921E+01 -0.97494228759E+01 -0.81758131147E+01  0.12916882072E+02  0.51100000000E-03 0.  1.
<mgrwt>
<rscale>  0 0.20000202E+02</rscale>
<asrwt>0</asrwt>
<pdfrwt beam="2">  1        1 0.32418359E-02 0.20000202E+02</pdfrwt>
<pdfrwt beam="1">  1       -1 0.73011459E-03 0.20000202E+02</pdfrwt>
<totfact> 0.39793480E+06</totfact>
</mgrwt>
</event>
<event>
 5    1  0.9583198E-007  0.2000193E+02  0.7818608E-02  0.1745290E+00
          1   -1    0    0  501    0  0.00000000000E+00  0.00000000000E+00  0.49551983871E+01  0.49552005877E+01  0.46700000000E-02 0.  1.
         -1   -1    0    0    0  501 -0.00000000000E+00 -0.00000000000E+00 -0.20184720827E+02  0.20184721367E+02  0.46700000000E-02 0. -1.
       1023    2    1    2    0    0  0.00000000000E+00  0.00000000000E+00 -0.15229522440E+02  0.25139921955E+02  0.20001932960E+02 0.  0.
        -11    1    3    3    0    0 -0.98666573751E+01 -0.16284980461E+01 -0.74538192529E+01  0.12472463885E+02  0.51100000000E-03 0. -1.
         11    1    3    3    0    0  0.98666573751E+01  0.16284980461E+01 -0.77757031872E+01  0.12667458070E+02  0.51100000000E-03 0.  1.
<mgrwt>
<rscale>  0 0.20001933E+02</rscale>
<asrwt>0</asrwt>
<pdfrwt beam="1">  1        1 0.76233844E-03 0.20001933E+02</pdfrwt>
<pdfrwt beam="2">  1       -1 0.31053418E-02 0.20001933E+02</pdfrwt>
<totfact> 0.37390088E+06</totfact>
</mgrwt>
</event>
<event>
 5    1  0.1009921E-006  0.2000163E+02  0.7818608E-02  0.1745296E+00
          1   -1    0    0  501    0  0.00000000000E+00  0.00000000000E+00  0.26791210597E+02  0.26791211004E+02  0.46700000000E-02 0. -1.
         -1   -1    0    0    0  501 -0.00000000000E+00 -0.00000000000E+00 -0.37331727460E+01  0.37331756669E+01  0.46700000000E-02 0.  1.
       1023    2    1    2    0    0  0.00000000000E+00  0.00000000000E+00  0.23058037851E+02  0.30524386671E+02  0.20001626736E+02 0.  0.
        -11    1    3    3    0    0 -0.24782538425E+01 -0.96888487709E+01  0.11487640895E+02  0.15230936485E+02  0.51100000000E-03 0.  1.
         11    1    3    3    0    0  0.24782538425E+01  0.96888487709E+01  0.11570396956E+02  0.15293450186E+02  0.51100000000E-03 0. -1.
<mgrwt>
<rscale>  0 0.20001627E+02</rscale>
<asrwt>0</asrwt>
<pdfrwt beam="1">  1        1 0.41217249E-02 0.20001627E+02</pdfrwt>
<pdfrwt beam="2">  1       -1 0.57433454E-03 0.20001627E+02</pdfrwt>
<totfact> 0.40223339E+06</totfact>
</mgrwt>
</event>
<event>
 5    1  0.9583198E-007  0.2001069E+02  0.7818608E-02  0.1745116E+00
          1   -1    0    0  501    0  0.00000000000E+00  0.00000000000E+00  0.21149303129E+01  0.21149354688E+01  0.46700000000E-02 0.  1.
         -1   -1    0    0    0  501 -0.00000000000E+00 -0.00000000000E+00 -0.47333370515E+02  0.47333370745E+02  0.46700000000E-02 0. -1.
       1023    2    1    2    0    0  0.00000000000E+00  0.00000000000E+00 -0.45218440202E+02  0.49448306214E+02  0.20010688472E+02 0.  0.
        -11    1    3    3    0    0 -0.17629108202E+01 -0.98456149440E+01 -0.23229089850E+02  0.25290998472E+02  0.51100000000E-03 0.  1.
         11    1    3    3    0    0  0.17629108202E+01  0.98456149440E+01 -0.21989350352E+02  0.24157307742E+02  0.51100000000E-03 0. -1.
<mgrwt>
<rscale>  0 0.20010688E+02</rscale>
<asrwt>0</asrwt>
<pdfrwt beam="1">  1        1 0.32537434E-03 0.20010688E+02</pdfrwt>
<pdfrwt beam="2">  1       -1 0.72820566E-02 0.20010688E+02</pdfrwt>
<totfact> 0.35080123E+06</totfact>
</mgrwt>
</event>
<event>
 4    1  0.9583198E-007  0.2046770E+02  0.7818608E-02  0.1736184E+00
         -1   -1    0    0    0  501 -0.00000000000E+00  0.00000000000E+00  0.98335749295E+01  0.98335760384E+01  0.46700000000E-02 0.  1.
          1   -1    0    0  501    0  0.00000000000E+00 -0.00000000000E+00 -0.10650412202E+02  0.10650413226E+02  0.46700000000E-02 0. -1.
        -11    1    1    2    0    0 -0.53963397935E+01 -0.86954403769E+01 -0.43037895661E+00  0.10242870341E+02  0.51100000000E-03 0.  1.
         11    1    1    2    0    0  0.53963397935E+01  0.86954403769E+01 -0.38645831604E+00  0.10241118924E+02  0.51100000000E-03 0. -1.
<mgrwt>
<rscale>  0 0.20467696E+02</rscale>
<asrwt>0</asrwt>
<pdfrwt beam="2">  1        1 0.16385251E-02 0.20467696E+02</pdfrwt>
<pdfrwt beam="1">  1       -1 0.15128579E-02 0.20467696E+02</pdfrwt>
<totfact> 0.36741330E+06</totfact>
</mgrwt>
</event>
<event>
 5    1  0.9583198E-007  0.2000049E+02  0.7818608E-02  0.1745318E+00
          1   -1    0    0  501    0  0.00000000000E+00  0.00000000000E+00  0.92662484785E+00  0.92663661570E+00  0.46700000000E-02 0. -1.
         -1   -1    0    0    0  501 -0.00000000000E+00 -0.00000000000E+00 -0.10792311288E+03  0.10792311298E+03  0.46700000000E-02 0.  1.
       1023    2    1    2    0    0  0.00000000000E+00  0.00000000000E+00 -0.10699648803E+03  0.10884974960E+03  0.20000488395E+02 0.  0.
        -11    1    3    3    0    0  0.65971964734E+01  0.75154185849E+01 -0.53394134534E+02  0.54322537871E+02  0.51100000000E-03 0. -1.
         11    1    3    3    0    0 -0.65971964734E+01 -0.75154185849E+01 -0.53602353498E+02  0.54527211726E+02  0.51100000000E-03 0.  1.
<mgrwt>
<rscale>  0 0.20000488E+02</rscale>
<asrwt>0</asrwt>
<pdfrwt beam="1">  1        1 0.14255867E-03 0.20000488E+02</pdfrwt>
<pdfrwt beam="2">  1       -1 0.16603547E-01 0.20000488E+02</pdfrwt>
<totfact> 0.31447491E+06</totfact>
</mgrwt>
</event>
<event>
 5    1  0.9965237E-007  0.2000093E+02  0.7818608E-02  0.1745310E+00
         -1   -1    0    0    0  501 -0.00000000000E+00  0.00000000000E+00  0.48001325452E+01  0.48001348169E+01  0.46700000000E-02 0.  1.
          1   -1    0    0  501    0  0.00000000000E+00 -0.00000000000E+00 -0.20834687057E+02  0.20834687580E+02  0.46700000000E-02 0. -1.
       1023    2    1    2    0    0  0.00000000000E+00  0.00000000000E+00 -0.16034554511E+02  0.25634822397E+02  0.20000929502E+02 0.  0.
        -11    1    3    3    0    0  0.53183830696E+01  0.84689801021E+01 -0.80451380965E+01  0.12834838125E+02  0.51100000000E-03 0.  1.
         11    1    3    3    0    0 -0.53183830696E+01 -0.84689801021E+01 -0.79894164149E+01  0.12799984272E+02  0.51100000000E-03 0. -1.
<mgrwt>
<rscale>  0 0.20000930E+02</rscale>
<asrwt>0</asrwt>
<pdfrwt beam="2">  1        1 0.32053366E-02 0.20000930E+02</pdfrwt>
<pdfrwt beam="1">  1       -1 0.73848216E-03 0.20000930E+02</pdfrwt>
<totfact> 0.39770886E+06</totfact>
</mgrwt>
</event>
<event>
 5    1  0.9583198E-007  0.2000051E+02  0.7818608E-02  0.1745318E+00
          1   -1    0    0  501    0  0.00000000000E+00  0.00000000000E+00  0.23259339585E+01  0.23259386467E+01  0.46700000000E-02 0. -1.
         -1   -1    0    0    0  501 -0.00000000000E+00 -0.00000000000E+00 -0.42995624704E+02  0.42995624957E+02  0.46700000000E-02 0.  1.
       1023    2    1    2    0    0  0.00000000000E+00  0.00000000000E+00 -0.40669690745E+02  0.45321563604E+02  0.20000509548E+02 0.  0.
        -11    1    3    3    0    0 -0.99843843952E+01  0.56317267502E+00 -0.20334225799E+02  0.22660225822E+02  0.51100000000E-03 0. -1.
         11    1    3    3    0    0  0.99843843952E+01 -0.56317267502E+00 -0.20335464947E+02  0.22661337782E+02  0.51100000000E-03 0.  1.
<mgrwt>
<rscale>  0 0.20000510E+02</rscale>
<asrwt>0</asrwt>
<pdfrwt beam="1">  1        1 0.35783641E-03 0.20000510E+02</pdfrwt>
<pdfrwt beam="2">  1       -1 0.66147113E-02 0.20000510E+02</pdfrwt>
<totfact> 0.35440321E+06</totfact>
</mgrwt>
</event>
<event>
 5    1  0.9583198E-007  0.2000056E+02  0.7818608E-02  0.1745317E+00
         -1   -1    0    0    0  501 -0.00000000000E+00  0.00000000000E+00  0.72513592463E+01  0.72513607500E+01  0.46700000000E-02 0.  1.
          1   -1    0    0  501    0  0.00000000000E+00 -0.00000000000E+00 -0.13791293475E+02  0.13791294266E+02  0.46700000000E-02 0. -1.
       1023    2    1    2    0    0  0.00000000000E+00  0.00000000000E+00 -0.65399342291E+01  0.21042655016E+02  0.20000564752E+02 0.  0.
        -11    1    3    3    0    0 -0.83671275218E+01 -0.54768986076E+01 -0.32487674292E+01  0.10514738770E+02  0.51100000000E-03 0.  1.
         11    1    3    3    0    0  0.83671275218E+01  0.54768986076E+01 -0.32911667998E+01  0.10527916246E+02  0.51100000000E-03 0. -1.
<mgrwt>
<rscale>  0 0.20000565E+02</rscale>
<asrwt>0</asrwt>
<pdfrwt beam="2">  1        1 0.21217376E-02 0.20000565E+02</pdfrwt>
<pdfrwt beam="1">  1       -1 0.11155939E-02 0.20000565E+02</pdfrwt>
<totfact> 0.39113022E+06</totfact>
</mgrwt>
</event>
<event>
 5    1  0.1001535E-006  0.2000093E+02  0.7818608E-02  0.1745310E+00
          1   -1    0    0  501    0  0.00000000000E+00  0.00000000000E+00  0.16053023150E+02  0.16053023829E+02  0.46700000000E-02 0.  1.
         -1   -1    0    0    0  501 -0.00000000000E+00 -0.00000000000E+00 -0.62299308124E+01  0.62299325628E+01  0.46700000000E-02 0. -1.
       1023    2    1    2    0    0  0.00000000000E+00  0.00000000000E+00  0.98230923378E+01  0.22282956392E+02  0.20000925041E+02 0.  0.
        -11    1    3    3    0    0 -0.20841447410E+01  0.97806223718E+01  0.49904591422E+01  0.11176265744E+02  0.51100000000E-03 0. -1.
         11    1    3    3    0    0  0.20841447410E+01 -0.97806223718E+01  0.48326331956E+01  0.11106690648E+02  0.51100000000E-03 0.  1.
<mgrwt>
<rscale>  0 0.20000925E+02</rscale>
<asrwt>0</asrwt>
<pdfrwt beam="1">  1        1 0.24696960E-02 0.20000925E+02</pdfrwt>
<pdfrwt beam="2">  1       -1 0.95845109E-03 0.20000925E+02</pdfrwt>
<totfact> 0.39346207E+06</totfact>
</mgrwt>
</event>
<event>
 4    1  0.9583198E-007  0.2005866E+02  0.7818608E-02  0.1744164E+00
          1   -1    0    0  501    0  0.00000000000E+00  0.00000000000E+00  0.32743851060E+01  0.32743884362E+01  0.46700000000E-02 0.  1.
         -1   -1    0    0    0  501 -0.00000000000E+00 -0.00000000000E+00 -0.30719482035E+02  0.30719482390E+02  0.46700000000E-02 0. -1.
        -11    1    1    2    0    0  0.25053748827E+01  0.97110372595E+01 -0.13587726288E+02  0.16888086153E+02  0.51100000000E-03 0. -1.
         11    1    1    2    0    0 -0.25053748827E+01 -0.97110372595E+01 -0.13857370641E+02  0.17105784673E+02  0.51100000000E-03 0.  1.
<mgrwt>
<rscale>  0 0.20058662E+02</rscale>
<asrwt>0</asrwt>
<pdfrwt beam="1">  1        1 0.50375186E-03 0.20058662E+02</pdfrwt>
<pdfrwt beam="2">  1       -1 0.47260742E-02 0.20058662E+02</pdfrwt>
<totfact> 0.36190730E+06</totfact>
</mgrwt>
</event>
<event>
 5    1  0.9583198E-007  0.2000387E+02  0.7818608E-02  0.1745251E+00
          1   -1    0    0  501    0  0.00000000000E+00  0.00000000000E+00  0.21358333644E+01  0.21358384698E+01  0.46700000000E-02 0.  1.
         -1   -1    0    0    0  501 -0.00000000000E+00 -0.00000000000E+00 -0.46838181793E+02  0.46838182026E+02  0.46700000000E-02 0. -1.
       1023    2    1    2    0    0  0.00000000000E+00  0.00000000000E+00 -0.44702348429E+02  0.48974020496E+02  0.20003867838E+02 0.  0.
        -11    1    3    3    0    0 -0.96663994381E+01 -0.25679017253E+01 -0.22529146878E+02  0.24649459562E+02  0.51100000000E-03 0.  1.
         11    1    3    3    0    0  0.96663994381E+01  0.25679017253E+01 -0.22173201550E+02  0.24324560934E+02  0.51100000000E-03 0. -1.
<mgrwt>
<rscale>  0 0.20003868E+02</rscale>
<asrwt>0</asrwt>
<pdfrwt beam="1">  1        1 0.32859019E-03 0.20003868E+02</pdfrwt>
<pdfrwt beam="2">  1       -1 0.72058738E-02 0.20003868E+02</pdfrwt>
<totfact> 0.35142466E+06</totfact>
</mgrwt>
</event>
<event>
 5    1  0.9583198E-007  0.2000052E+02  0.7818608E-02  0.1745318E+00
          1   -1    0    0  501    0  0.00000000000E+00  0.00000000000E+00  0.71613396050E+01  0.71613411277E+01  0.46700000000E-02 0. -1.
         -1   -1    0    0    0  501 -0.00000000000E+00 -0.00000000000E+00 -0.13964593802E+02  0.13964594583E+02  0.46700000000E-02 0.  1.
       1023    2    1    2    0    0  0.00000000000E+00  0.00000000000E+00 -0.68032541974E+01  0.21125935711E+02  0.20000522293E+02 0.  0.
        -11    1    3    3    0    0 -0.30767478653E+01  0.95149959069E+01 -0.34658618379E+01  0.10583653579E+02  0.51100000000E-03 0.  1.
         11    1    3    3    0    0  0.30767478653E+01 -0.95149959069E+01 -0.33373923595E+01  0.10542282132E+02  0.51100000000E-03 0. -1.
<mgrwt>
<rscale>  0 0.20000522E+02</rscale>
<asrwt>0</asrwt>
<pdfrwt beam="1">  1        1 0.11017447E-02 0.20000522E+02</pdfrwt>
<pdfrwt beam="2">  1       -1 0.21483992E-02 0.20000522E+02</pdfrwt>
<totfact> 0.38081705E+06</totfact>
</mgrwt>
</event>
<event>
 5    1  0.9583198E-007  0.2000138E+02  0.7818608E-02  0.1745301E+00
          1   -1    0    0  501    0  0.00000000000E+00  0.00000000000E+00  0.10002344554E+01  0.10002453572E+01  0.46700000000E-02 0. -1.
         -1   -1    0    0    0  501 -0.00000000000E+00 -0.00000000000E+00 -0.99989839962E+02  0.99989840071E+02  0.46700000000E-02 0.  1.
       1023    2    1    2    0    0  0.00000000000E+00  0.00000000000E+00 -0.98989605506E+02  0.10099008543E+03  0.20001383864E+02 0.  0.
        -11    1    3    3    0    0  0.86656173220E+01 -0.49913692696E+01 -0.49921690716E+02  0.50913474591E+02  0.51100000000E-03 0.  1.
         11    1    3    3    0    0 -0.86656173220E+01  0.49913692696E+01 -0.49067914790E+02  0.50076610837E+02  0.51100000000E-03 0. -1.
<mgrwt>
<rscale>  0 0.20001384E+02</rscale>
<asrwt>0</asrwt>
<pdfrwt beam="1">  1        1 0.15388315E-03 0.20001384E+02</pdfrwt>
<pdfrwt beam="2">  1       -1 0.15383045E-01 0.20001384E+02</pdfrwt>
<totfact> 0.31863522E+06</totfact>
</mgrwt>
</event>
<event>
 5    1  0.1000663E-006  0.2000158E+02  0.7818608E-02  0.1745297E+00
         -1   -1    0    0    0  501 -0.00000000000E+00  0.00000000000E+00  0.14487990810E+02  0.14487991563E+02  0.46700000000E-02 0. -1.
          1   -1    0    0  501    0  0.00000000000E+00 -0.00000000000E+00 -0.69033559582E+01  0.69033575377E+01  0.46700000000E-02 0.  1.
       1023    2    1    2    0    0  0.00000000000E+00  0.00000000000E+00  0.75846348521E+01  0.21391349101E+02  0.20001578200E+02 0.  0.
        -11    1    3    3    0    0  0.95120996804E+00  0.99553237649E+01  0.37387289880E+01  0.10676673938E+02  0.51100000000E-03 0. -1.
         11    1    3    3    0    0 -0.95120996804E+00 -0.99553237649E+01  0.38459058641E+01  0.10714675163E+02  0.51100000000E-03 0.  1.
<mgrwt>
<rscale>  0 0.20001578E+02</rscale>
<asrwt>0</asrwt>
<pdfrwt beam="2">  1        1 0.10620550E-02 0.20001578E+02</pdfrwt>
<pdfrwt beam="1">  1       -1 0.22289218E-02 0.20001578E+02</pdfrwt>
<totfact> 0.38013952E+06</totfact>
</mgrwt>
</event>
<event>
 4    1  0.9583198E-007  0.2001472E+02  0.7818608E-02  0.1745036E+00
          1   -1    0    0  501    0  0.00000000000E+00  0.00000000000E+00  0.86718590036E+02  0.86718590162E+02  0.46700000000E-02 0.  1.
         -1   -1    0    0    0  501 -0.00000000000E+00 -0.00000000000E+00 -0.11548482999E+01  0.11548577422E+01  0.46700000000E-02 0. -1.
        -11    1    1    2    0    0 -0.26700673557E+01  0.96383047906E+01  0.44309450977E+02  0.45424152442E+02  0.51100000000E-03 0.  1.
         11    1    1    2    0    0  0.26700673557E+01 -0.96383047906E+01  0.41254290759E+02  0.42449295462E+02  0.51100000000E-03 0. -1.
<mgrwt>
<rscale>  0 0.20014718E+02</rscale>
<asrwt>0</asrwt>
<pdfrwt beam="1">  1        1 0.13341326E-01 0.20014718E+02</pdfrwt>
<pdfrwt beam="2">  1       -1 0.17766965E-03 0.20014718E+02</pdfrwt>
<totfact> 0.43631675E+06</totfact>
</mgrwt>
</event>
<event>
 5    1  0.9583198E-007  0.2000242E+02  0.7818608E-02  0.1745280E+00
         -1   -1    0    0    0  501 -0.00000000000E+00  0.00000000000E+00  0.47412368749E+02  0.47412368979E+02  0.46700000000E-02 0.  1.
          1   -1    0    0  501    0  0.00000000000E+00 -0.00000000000E+00 -0.21096614453E+01  0.21096666141E+01  0.46700000000E-02 0. -1.
       1023    2    1    2    0    0  0.00000000000E+00  0.00000000000E+00  0.45302707304E+02  0.49522035593E+02  0.20002417860E+02 0.  0.
        -11    1    3    3    0    0  0.26226969319E+01  0.96511988787E+01  0.22653576897E+02  0.24763051619E+02  0.51100000000E-03 0.  1.
         11    1    3    3    0    0 -0.26226969319E+01 -0.96511988787E+01  0.22649130407E+02  0.24758983974E+02  0.51100000000E-03 0. -1.
<mgrwt>
<rscale>  0 0.20002418E+02</rscale>
<asrwt>0</asrwt>
<pdfrwt beam="2">  1        1 0.32456372E-03 0.20002418E+02</pdfrwt>
<pdfrwt beam="1">  1       -1 0.72942109E-02 0.20002418E+02</pdfrwt>
<totfact> 0.35106284E+06</totfact>
</mgrwt>
</event>
<event>
 5    1  0.9583198E-007  0.2000052E+02  0.7818608E-02  0.1745318E+00
          1   -1    0    0  501    0  0.00000000000E+00  0.00000000000E+00  0.21512742492E+01  0.21512793180E+01  0.46700000000E-02 0. -1.
         -1   -1    0    0    0  501 -0.00000000000E+00 -0.00000000000E+00 -0.46486423776E+02  0.46486424011E+02  0.46700000000E-02 0.  1.
       1023    2    1    2    0    0  0.00000000000E+00  0.00000000000E+00 -0.44335149527E+02  0.48637703329E+02  0.20000517531E+02 0.  0.
        -11    1    3    3    0    0  0.98643090366E+01 -0.16422081309E+01 -0.22018958740E+02  0.24183382405E+02  0.51100000000E-03 0. -1.
         11    1    3    3    0    0 -0.98643090366E+01  0.16422081309E+01 -0.22316190787E+02  0.24454320923E+02  0.51100000000E-03 0.  1.
<mgrwt>
<rscale>  0 0.20000518E+02</rscale>
<asrwt>0</asrwt>
<pdfrwt beam="1">  1        1 0.33096571E-03 0.20000518E+02</pdfrwt>
<pdfrwt beam="2">  1       -1 0.71517572E-02 0.20000518E+02</pdfrwt>
<totfact> 0.35181109E+06</totfact>
</mgrwt>
</event>
<event>
 5    1  0.9583198E-007  0.2000565E+02  0.7818608E-02  0.1745216E+00
          1   -1    0    0  501    0  0.00000000000E+00  0.00000000000E+00  0.21269224464E+02  0.21269224977E+02  0.46700000000E-02 0. -1.
         -1   -1    0    0    0  501 -0.00000000000E+00 -0.00000000000E+00 -0.47042821898E+01  0.47042845078E+01  0.46700000000E-02 0.  1.
       1023    2    1    2    0    0  0.00000000000E+00  0.00000000000E+00  0.16564942275E+02  0.25973509485E+02  0.20005646263E+02 0.  0.
        -11    1    3    3    0    0  0.25296270135E+01  0.96765293406E+01  0.84760778298E+01  0.13110229920E+02  0.51100000000E-03 0. -1.
         11    1    3    3    0    0 -0.25296270135E+01 -0.96765293406E+01  0.80888644449E+01  0.12863279565E+02  0.51100000000E-03 0.  1.
<mgrwt>
<rscale>  0 0.20005646E+02</rscale>
<asrwt>0</asrwt>
<pdfrwt beam="1">  1        1 0.32721886E-02 0.20005646E+02</pdfrwt>
<pdfrwt beam="2">  1       -1 0.72373594E-03 0.20005646E+02</pdfrwt>
<totfact> 0.39785203E+06</totfact>
</mgrwt>
</event>
<event>
 5    1  0.9583198E-007  0.2000021E+02  0.7818608E-02  0.1745324E+00
          1   -1    0    0  501    0  0.00000000000E+00  0.00000000000E+00  0.15799097354E+01  0.15799166373E+01  0.46700000000E-02 0. -1.
         -1   -1    0    0    0  501 -0.00000000000E+00 -0.00000000000E+00 -0.63295914071E+02  0.63295914243E+02  0.46700000000E-02 0.  1.
       1023    2    1    2    0    0  0.00000000000E+00  0.00000000000E+00 -0.61716004335E+02  0.64875830880E+02  0.20000206031E+02 0.  0.
        -11    1    3    3    0    0 -0.96699165178E+01  0.25484813180E+01 -0.30871600113E+02  0.32450851087E+02  0.51100000000E-03 0.  1.
         11    1    3    3    0    0  0.96699165178E+01 -0.25484813180E+01 -0.30844404222E+02  0.32424979793E+02  0.51100000000E-03 0. -1.
<mgrwt>
<rscale>  0 0.20000206E+02</rscale>
<asrwt>0</asrwt>
<pdfrwt beam="1">  1        1 0.24306363E-03 0.20000206E+02</pdfrwt>
<pdfrwt beam="2">  1       -1 0.97378315E-02 0.20000206E+02</pdfrwt>
<totfact> 0.34026159E+06</totfact>
</mgrwt>
</event>
<event>
 5    1  0.1026792E-006  0.2000132E+02  0.7818608E-02  0.1745302E+00
         -1   -1    0    0    0  501 -0.00000000000E+00  0.00000000000E+00  0.14188749956E+01  0.14188826809E+01  0.46700000000E-02 0. -1.
          1   -1    0    0  501    0  0.00000000000E+00 -0.00000000000E+00 -0.70487481025E+02  0.70487481179E+02  0.46700000000E-02 0.  1.
       1023    2    1    2    0    0  0.00000000000E+00  0.00000000000E+00 -0.69068606029E+02  0.71906363860E+02  0.20001320577E+02 0.  0.
        -11    1    3    3    0    0 -0.28067207088E+01  0.95986083730E+01 -0.34364072761E+02  0.35789669750E+02  0.51100000000E-03 0.  1.
         11    1    3    3    0    0  0.28067207088E+01 -0.95986083730E+01 -0.34704533267E+02  0.36116694110E+02  0.51100000000E-03 0. -1.
<mgrwt>
<rscale>  0 0.20001321E+02</rscale>
<asrwt>0</asrwt>
<pdfrwt beam="2">  1        1 0.10844226E-01 0.20001321E+02</pdfrwt>
<pdfrwt beam="1">  1       -1 0.21828912E-03 0.20001321E+02</pdfrwt>
<totfact> 0.42853726E+06</totfact>
</mgrwt>
</event>
<event>
 5    1  0.9583198E-007  0.2000052E+02  0.7818608E-02  0.1745318E+00
          1   -1    0    0  501    0  0.00000000000E+00  0.00000000000E+00  0.11158774508E+02  0.11158775485E+02  0.46700000000E-02 0. -1.
         -1   -1    0    0    0  501 -0.00000000000E+00 -0.00000000000E+00 -0.89620185874E+01  0.89620198041E+01  0.46700000000E-02 0.  1.
       1023    2    1    2    0    0  0.00000000000E+00  0.00000000000E+00  0.21967559204E+01  0.20120795289E+02  0.20000516656E+02 0.  0.
        -11    1    3    3    0    0 -0.62299541737E+01 -0.78225681002E+01  0.10819804435E+01  0.10058607390E+02  0.51100000000E-03 0. -1.
         11    1    3    3    0    0  0.62299541737E+01  0.78225681002E+01  0.11147754770E+01  0.10062187899E+02  0.51100000000E-03 0.  1.
<mgrwt>
<rscale>  0 0.20000517E+02</rscale>
<asrwt>0</asrwt>
<pdfrwt beam="1">  1        1 0.17167347E-02 0.20000517E+02</pdfrwt>
<pdfrwt beam="2">  1       -1 0.13787723E-02 0.20000517E+02</pdfrwt>
<totfact> 0.38790359E+06</totfact>
</mgrwt>
</event>
<event>
 4    1  0.9583198E-007  0.2003683E+02  0.7818608E-02  0.1744597E+00
          1   -1    0    0  501    0  0.00000000000E+00  0.00000000000E+00  0.70777368336E+02  0.70777368490E+02  0.46700000000E-02 0.  1.
         -1   -1    0    0    0  501 -0.00000000000E+00 -0.00000000000E+00 -0.14180847530E+01  0.14180924425E+01  0.46700000000E-02 0. -1.
        -11    1    1    2    0    0  0.52551711967E+01 -0.85182188705E+01  0.33102007016E+02  0.34582072607E+02  0.51100000000E-03 0.  1.
         11    1    1    2    0    0 -0.52551711967E+01  0.85182188705E+01  0.36257276567E+02  0.37613388326E+02  0.51100000000E-03 0. -1.
<mgrwt>
<rscale>  0 0.20036825E+02</rscale>
<asrwt>0</asrwt>
<pdfrwt beam="1">  1        1 0.10888828E-01 0.20036825E+02</pdfrwt>
<pdfrwt beam="2">  1       -1 0.21816746E-03 0.20036825E+02</pdfrwt>
<totfact> 0.42701177E+06</totfact>
</mgrwt>
</event>
<event>
 5    1  0.1004529E-006  0.2000111E+02  0.7818608E-02  0.1745306E+00
         -1   -1    0    0    0  501 -0.00000000000E+00  0.00000000000E+00  0.60190974697E+01  0.60190992813E+01  0.46700000000E-02 0. -1.
          1   -1    0    0  501    0  0.00000000000E+00 -0.00000000000E+00 -0.16615630755E+02  0.16615631411E+02  0.46700000000E-02 0.  1.
       1023    2    1    2    0    0  0.00000000000E+00  0.00000000000E+00 -0.10596533285E+02  0.22634730692E+02  0.20001112865E+02 0.  0.
        -11    1    3    3    0    0 -0.88318403112E+01 -0.46913157135E+01 -0.53387909393E+01  0.11336336946E+02  0.51100000000E-03 0. -1.
         11    1    3    3    0    0  0.88318403112E+01  0.46913157135E+01 -0.52577423459E+01  0.11298393746E+02  0.51100000000E-03 0.  1.
<mgrwt>
<rscale>  0 0.20001113E+02</rscale>
<asrwt>0</asrwt>
<pdfrwt beam="2">  1        1 0.25562511E-02 0.20001113E+02</pdfrwt>
<pdfrwt beam="1">  1       -1 0.92601519E-03 0.20001113E+02</pdfrwt>
<totfact> 0.39399603E+06</totfact>
</mgrwt>
</event>
<event>
 5    1  0.9583198E-007  0.2000016E+02  0.7818608E-02  0.1745325E+00
          1   -1    0    0  501    0  0.00000000000E+00  0.00000000000E+00  0.25142110788E+02  0.25142111221E+02  0.46700000000E-02 0. -1.
         -1   -1    0    0    0  501 -0.00000000000E+00 -0.00000000000E+00 -0.39774535708E+01  0.39774563124E+01  0.46700000000E-02 0.  1.
       1023    2    1    2    0    0  0.00000000000E+00  0.00000000000E+00  0.21164657217E+02  0.29119567534E+02  0.20000162455E+02 0.  0.
        -11    1    3    3    0    0 -0.25218878208E+01 -0.96768417521E+01  0.10612863113E+02  0.14581976828E+02  0.51100000000E-03 0.  1.
         11    1    3    3    0    0  0.25218878208E+01  0.96768417521E+01  0.10551794103E+02  0.14537590706E+02  0.51100000000E-03 0. -1.
<mgrwt>
<rscale>  0 0.20000162E+02</rscale>
<asrwt>0</asrwt>
<pdfrwt beam="1">  1        1 0.38680174E-02 0.20000162E+02</pdfrwt>
<pdfrwt beam="2">  1       -1 0.61191616E-03 0.20000162E+02</pdfrwt>
<totfact> 0.40109179E+06</totfact>
</mgrwt>
</event>
<event>
 5    1  0.9583198E-007  0.2000139E+02  0.7818608E-02  0.1745300E+00
          1   -1    0    0  501    0  0.00000000000E+00  0.00000000000E+00  0.21584029558E+01  0.21584080079E+01  0.46700000000E-02 0. -1.
         -1   -1    0    0    0  501 -0.00000000000E+00 -0.00000000000E+00 -0.46336955091E+02  0.46336955326E+02  0.46700000000E-02 0.  1.
       1023    2    1    2    0    0  0.00000000000E+00  0.00000000000E+00 -0.44178552135E+02  0.48495363334E+02  0.20001394855E+02 0.  0.
        -11    1    3    3    0    0  0.89873838008E+01  0.43859876368E+01 -0.21936052801E+02  0.24108097558E+02  0.51100000000E-03 0. -1.
         11    1    3    3    0    0 -0.89873838008E+01 -0.43859876368E+01 -0.22242499335E+02  0.24387265776E+02  0.51100000000E-03 0.  1.
<mgrwt>
<rscale>  0 0.20001395E+02</rscale>
<asrwt>0</asrwt>
<pdfrwt beam="1">  1        1 0.33206243E-03 0.20001395E+02</pdfrwt>
<pdfrwt beam="2">  1       -1 0.71287620E-02 0.20001395E+02</pdfrwt>
<totfact> 0.35188658E+06</totfact>
</mgrwt>
</event>
<event>
 5    1  0.9583198E-007  0.2000209E+02  0.7818608E-02  0.1745286E+00
         -1   -1    0    0    0  501 -0.00000000000E+00  0.00000000000E+00  0.34941162474E+02  0.34941162786E+02  0.46700000000E-02 0. -1.
          1   -1    0    0  501    0  0.00000000000E+00 -0.00000000000E+00 -0.28625503557E+01  0.28625541651E+01  0.46700000000E-02 0.  1.
       1023    2    1    2    0    0  0.00000000000E+00  0.00000000000E+00  0.32078612119E+02  0.37803716951E+02  0.20002091388E+02 0.  0.
        -11    1    3    3    0    0 -0.24939271834E+01  0.96846986290E+01  0.15871805954E+02  0.18759725073E+02  0.51100000000E-03 0. -1.
         11    1    3    3    0    0  0.24939271834E+01 -0.96846986290E+01  0.16206806165E+02  0.19043991878E+02  0.51100000000E-03 0.  1.
<mgrwt>
<rscale>  0 0.20002091E+02</rscale>
<asrwt>0</asrwt>
<pdfrwt beam="2">  1        1 0.44039269E-03 0.20002091E+02</pdfrwt>
<pdfrwt beam="1">  1       -1 0.53755636E-02 0.20002091E+02</pdfrwt>
<totfact> 0.36064187E+06</totfact>
</mgrwt>
</event>
<event>
 5    1  0.9583198E-007  0.2000237E+02  0.7818608E-02  0.1745281E+00
         -1   -1    0    0    0  501 -0.00000000000E+00  0.00000000000E+00  0.11454622227E+02  0.11454623179E+02  0.46700000000E-02 0.  1.
          1   -1    0    0  501    0  0.00000000000E+00 -0.00000000000E+00 -0.87321639029E+01  0.87321651517E+01  0.46700000000E-02 0. -1.
       1023    2    1    2    0    0  0.00000000000E+00  0.00000000000E+00  0.27224583240E+01  0.20186788331E+02  0.20002365954E+02 0.  0.
        -11    1    3    3    0    0 -0.87299999109E+01  0.48790040741E+01  0.12825262846E+01  0.10082780030E+02  0.51100000000E-03 0.  1.
         11    1    3    3    0    0  0.87299999109E+01 -0.48790040741E+01  0.14399320395E+01  0.10104008301E+02  0.51100000000E-03 0. -1.
<mgrwt>
<rscale>  0 0.20002366E+02</rscale>
<asrwt>0</asrwt>
<pdfrwt beam="2">  1        1 0.13434100E-02 0.20002366E+02</pdfrwt>
<pdfrwt beam="1">  1       -1 0.17622497E-02 0.20002366E+02</pdfrwt>
<totfact> 0.38400644E+06</totfact>
</mgrwt>
</event>
<event>
 5    1  0.9583198E-007  0.2000063E+02  0.7818608E-02  0.1745316E+00
          1   -1    0    0  501    0  0.00000000000E+00  0.00000000000E+00  0.25066659443E+01  0.25066702945E+01  0.46700000000E-02 0.  1.
         -1   -1    0    0    0  501 -0.00000000000E+00 -0.00000000000E+00 -0.39896093960E+02  0.39896094234E+02  0.46700000000E-02 0. -1.
       1023    2    1    2    0    0  0.00000000000E+00  0.00000000000E+00 -0.37389428016E+02  0.42402764528E+02  0.20000627797E+02 0.  0.
        -11    1    3    3    0    0  0.58239552607E+00  0.99833186963E+01 -0.18650189310E+02  0.21162121782E+02  0.51100000000E-03 0. -1.
         11    1    3    3    0    0 -0.58239552607E+00 -0.99833186963E+01 -0.18739238706E+02  0.21240642746E+02  0.51100000000E-03 0.  1.
<mgrwt>
<rscale>  0 0.20000628E+02</rscale>
<asrwt>0</asrwt>
<pdfrwt beam="1">  1        1 0.38564130E-03 0.20000628E+02</pdfrwt>
<pdfrwt beam="2">  1       -1 0.61378605E-02 0.20000628E+02</pdfrwt>
<totfact> 0.35676741E+06</totfact>
</mgrwt>
</event>
<event>
 5    1  0.9583198E-007  0.2000083E+02  0.7818608E-02  0.1745312E+00
          1   -1    0    0  501    0  0.00000000000E+00  0.00000000000E+00  0.99925757140E+00  0.99926848389E+00  0.46700000000E-02 0.  1.
         -1   -1    0    0    0  501 -0.00000000000E+00 -0.00000000000E+00 -0.10008204933E+03  0.10008204944E+03  0.46700000000E-02 0. -1.
       1023    2    1    2    0    0  0.00000000000E+00  0.00000000000E+00 -0.99082791756E+02  0.10108131792E+03  0.20000830241E+02 0.  0.
        -11    1    3    3    0    0  0.96684611028E+01 -0.25536335787E+01 -0.49996741627E+02  0.50987001854E+02  0.51100000000E-03 0. -1.
         11    1    3    3    0    0 -0.96684611028E+01  0.25536335787E+01 -0.49086050129E+02  0.50094316066E+02  0.51100000000E-03 0.  1.
<mgrwt>
<rscale>  0 0.20000830E+02</rscale>
<asrwt>0</asrwt>
<pdfrwt beam="1">  1        1 0.15373286E-03 0.20000830E+02</pdfrwt>
<pdfrwt beam="2">  1       -1 0.15397231E-01 0.20000830E+02</pdfrwt>
<totfact> 0.31860503E+06</totfact>
</mgrwt>
</event>
<event>
 5    1  0.1018272E-006  0.2000118E+02  0.7818608E-02  0.1745305E+00
          1   -1    0    0  501    0  0.00000000000E+00  0.00000000000E+00  0.92446346109E+02  0.92446346227E+02  0.46700000000E-02 0.  1.
         -1   -1    0    0    0  501 -0.00000000000E+00 -0.00000000000E+00 -0.10818310004E+01  0.10818410800E+01  0.46700000000E-02 0. -1.
       1023    2    1    2    0    0  0.00000000000E+00  0.00000000000E+00  0.91364515108E+02  0.93528187307E+02  0.20001179963E+02 0.  0.
        -11    1    3    3    0    0  0.33747842118E+01  0.94138869812E+01  0.45509611057E+02  0.46595441144E+02  0.51100000000E-03 0. -1.
         11    1    3    3    0    0 -0.33747842118E+01 -0.94138869812E+01  0.45854904052E+02  0.46932746163E+02  0.51100000000E-03 0.  1.
<mgrwt>
<rscale>  0 0.20001180E+02</rscale>
<asrwt>0</asrwt>
<pdfrwt beam="1">  1        1 0.14222515E-01 0.20001180E+02</pdfrwt>
<pdfrwt beam="2">  1       -1 0.16643633E-03 0.20001180E+02</pdfrwt>
<totfact> 0.43984137E+06</totfact>
</mgrwt>
</event>
<event>
 5    1  0.9583198E-007  0.2000361E+02  0.7818608E-02  0.1745256E+00
         -1   -1    0    0    0  501 -0.00000000000E+00  0.00000000000E+00  0.15234370200E+02  0.15234370915E+02  0.46700000000E-02 0.  1.
          1   -1    0    0  501    0  0.00000000000E+00 -0.00000000000E+00 -0.65664752666E+01  0.65664769272E+01  0.46700000000E-02 0. -1.
       1023    2    1    2    0    0  0.00000000000E+00  0.00000000000E+00  0.86678949329E+01  0.21800847843E+02  0.20003613776E+02 0.  0.
        -11    1    3    3    0    0 -0.57999974662E+01 -0.81473419074E+01  0.44760041163E+01  0.10956904849E+02  0.51100000000E-03 0. -1.
         11    1    3    3    0    0  0.57999974662E+01  0.81473419074E+01  0.41918908166E+01  0.10843942993E+02  0.51100000000E-03 0.  1.
<mgrwt>
<rscale>  0 0.20003614E+02</rscale>
<asrwt>0</asrwt>
<pdfrwt beam="2">  1        1 0.10102272E-02 0.20003614E+02</pdfrwt>
<pdfrwt beam="1">  1       -1 0.23437494E-02 0.20003614E+02</pdfrwt>
<totfact> 0.37917440E+06</totfact>
</mgrwt>
</event>
<event>
 5    1  0.1019371E-006  0.2000100E+02  0.7818608E-02  0.1745308E+00
         -1   -1    0    0    0  501 -0.00000000000E+00  0.00000000000E+00  0.94637107590E+00  0.94638259821E+00  0.46700000000E-02 0. -1.
          1   -1    0    0  501    0  0.00000000000E+00 -0.00000000000E+00 -0.10567672139E+03  0.10567672150E+03  0.46700000000E-02 0.  1.
       1023    2    1    2    0    0  0.00000000000E+00  0.00000000000E+00 -0.10473035032E+03  0.10662310409E+03  0.20001001204E+02 0.  0.
        -11    1    3    3    0    0 -0.48933866456E+01  0.87214946542E+01 -0.52459060551E+02  0.53403770803E+02  0.51100000000E-03 0.  1.
         11    1    3    3    0    0  0.48933866456E+01 -0.87214946542E+01 -0.52271289766E+02  0.53219333291E+02  0.51100000000E-03 0. -1.
<mgrwt>
<rscale>  0 0.20001001E+02</rscale>
<asrwt>0</asrwt>
<pdfrwt beam="2">  1        1 0.16257949E-01 0.20001001E+02</pdfrwt>
<pdfrwt beam="1">  1       -1 0.14559653E-03 0.20001001E+02</pdfrwt>
<totfact> 0.44628458E+06</totfact>
</mgrwt>
</event>
<event>
 5    1  0.9583198E-007  0.2000012E+02  0.7818608E-02  0.1745326E+00
          1   -1    0    0  501    0  0.00000000000E+00  0.00000000000E+00  0.88788723676E+00  0.88789951802E+00  0.46700000000E-02 0.  1.
         -1   -1    0    0    0  501 -0.00000000000E+00 -0.00000000000E+00 -0.11262744950E+03  0.11262744960E+03  0.46700000000E-02 0. -1.
       1023    2    1    2    0    0  0.00000000000E+00  0.00000000000E+00 -0.11173956227E+03  0.11351534912E+03  0.20000117747E+02 0.  0.
        -11    1    3    3    0    0 -0.51907202046E+01  0.85473268899E+01 -0.56030716919E+02  0.56916092732E+02  0.51100000000E-03 0. -1.
         11    1    3    3    0    0  0.51907202046E+01 -0.85473268899E+01 -0.55708845349E+02  0.56599256387E+02  0.51100000000E-03 0.  1.
<mgrwt>
<rscale>  0 0.20000118E+02</rscale>
<asrwt>0</asrwt>
<pdfrwt beam="1">  1        1 0.13659908E-03 0.20000118E+02</pdfrwt>
<pdfrwt beam="2">  1       -1 0.17327290E-01 0.20000118E+02</pdfrwt>
<totfact> 0.31206565E+06</totfact>
</mgrwt>
</event>
<event>
 5    1  0.9602354E-007  0.2000055E+02  0.7818608E-02  0.1745317E+00
          1   -1    0    0  501    0  0.00000000000E+00  0.00000000000E+00  0.32582424826E+02  0.32582425160E+02  0.46700000000E-02 0. -1.
         -1   -1    0    0    0  501 -0.00000000000E+00 -0.00000000000E+00 -0.30693074927E+01  0.30693110455E+01  0.46700000000E-02 0.  1.
       1023    2    1    2    0    0  0.00000000000E+00  0.00000000000E+00  0.29513117333E+02  0.35651736206E+02  0.20000554987E+02 0.  0.
        -11    1    3    3    0    0  0.11289532184E+01  0.99362886251E+01  0.14817860170E+02  0.17876614537E+02  0.51100000000E-03 0. -1.
         11    1    3    3    0    0 -0.11289532184E+01 -0.99362886251E+01  0.14695257163E+02  0.17775121669E+02  0.51100000000E-03 0.  1.
<mgrwt>
<rscale>  0 0.20000555E+02</rscale>
<asrwt>0</asrwt>
<pdfrwt beam="1">  1        1 0.50126809E-02 0.20000555E+02</pdfrwt>
<pdfrwt beam="2">  1       -1 0.47220146E-03 0.20000555E+02</pdfrwt>
<totfact> 0.40629263E+06</totfact>
</mgrwt>
</event>
<event>
 5    1  0.9583198E-007  0.2000518E+02  0.7818608E-02  0.1745225E+00
          1   -1    0    0  501    0  0.00000000000E+00  0.00000000000E+00  0.74468782161E+02  0.74468782307E+02  0.46700000000E-02 0.  1.
         -1   -1    0    0    0  501 -0.00000000000E+00 -0.00000000000E+00 -0.13435361209E+01  0.13435442372E+01  0.46700000000E-02 0. -1.
       1023    2    1    2    0    0  0.00000000000E+00  0.00000000000E+00  0.73125246040E+02  0.75812326545E+02  0.20005180521E+02 0.  0.
        -11    1    3    3    0    0 -0.98248446285E+00  0.99520007639E+01  0.37359498909E+02  0.38674794814E+02  0.51100000000E-03 0.  1.
         11    1    3    3    0    0  0.98248446285E+00 -0.99520007639E+01  0.35765747131E+02  0.37137531730E+02  0.51100000000E-03 0. -1.
<mgrwt>
<rscale>  0 0.20005181E+02</rscale>
<asrwt>0</asrwt>
<pdfrwt beam="1">  1        1 0.11456737E-01 0.20005181E+02</pdfrwt>
<pdfrwt beam="2">  1       -1 0.20669849E-03 0.20005181E+02</pdfrwt>
<totfact> 0.43046501E+06</totfact>
</mgrwt>
</event>
<event>
 5    1  0.9583198E-007  0.2000056E+02  0.7818608E-02  0.1745317E+00
         -1   -1    0    0    0  501 -0.00000000000E+00  0.00000000000E+00  0.17193705756E+01  0.17193769177E+01  0.46700000000E-02 0.  1.
          1   -1    0    0  501    0  0.00000000000E+00 -0.00000000000E+00 -0.58163939133E+02  0.58163939321E+02  0.46700000000E-02 0. -1.
       1023    2    1    2    0    0  0.00000000000E+00  0.00000000000E+00 -0.56444568557E+02  0.59883316238E+02  0.20000556093E+02 0.  0.
        -11    1    3    3    0    0  0.76654660910E+01  0.64222825375E+01 -0.28287701099E+02  0.30003318435E+02  0.51100000000E-03 0.  1.
         11    1    3    3    0    0 -0.76654660910E+01 -0.64222825375E+01 -0.28156867459E+02  0.29879997803E+02  0.51100000000E-03 0. -1.
<mgrwt>
<rscale>  0 0.20000556E+02</rscale>
<asrwt>0</asrwt>
<pdfrwt beam="2">  1        1 0.89482973E-02 0.20000556E+02</pdfrwt>
<pdfrwt beam="1">  1       -1 0.26451910E-03 0.20000556E+02</pdfrwt>
<totfact> 0.42180961E+06</totfact>
</mgrwt>
</event>
<event>
 5    1  0.9583198E-007  0.2000175E+02  0.7818608E-02  0.1745293E+00
          1   -1    0    0  501    0  0.00000000000E+00  0.00000000000E+00  0.83245759751E+01  0.83245772850E+01  0.46700000000E-02 0.  1.
         -1   -1    0    0    0  501 -0.00000000000E+00 -0.00000000000E+00 -0.12014727092E+02  0.12014728000E+02  0.46700000000E-02 0. -1.
       1023    2    1    2    0    0  0.00000000000E+00  0.00000000000E+00 -0.36901511174E+01  0.20339305285E+02  0.20001753028E+02 0.  0.
        -11    1    3    3    0    0 -0.98125380253E+01 -0.19312474440E+01 -0.18895353009E+01  0.10177718954E+02  0.51100000000E-03 0. -1.
         11    1    3    3    0    0  0.98125380253E+01  0.19312474440E+01 -0.18006158165E+01  0.10161586331E+02  0.51100000000E-03 0.  1.
<mgrwt>
<rscale>  0 0.20001753E+02</rscale>
<asrwt>0</asrwt>
<pdfrwt beam="1">  1        1 0.12807042E-02 0.20001753E+02</pdfrwt>
<pdfrwt beam="2">  1       -1 0.18484197E-02 0.20001753E+02</pdfrwt>
<totfact> 0.38326445E+06</totfact>
</mgrwt>
</event>
<event>
 5    1  0.9583198E-007  0.2000469E+02  0.7818608E-02  0.1745235E+00
          1   -1    0    0  501    0  0.00000000000E+00  0.00000000000E+00  0.13204392734E+02  0.13204393560E+02  0.46700000000E-02 0.  1.
         -1   -1    0    0    0  501 -0.00000000000E+00 -0.00000000000E+00 -0.75767891277E+01  0.75767905669E+01  0.46700000000E-02 0. -1.
       1023    2    1    2    0    0  0.00000000000E+00  0.00000000000E+00  0.56276036063E+01  0.20781184127E+02  0.20004691734E+02 0.  0.
        -11    1    3    3    0    0  0.62123584472E+01  0.78390656501E+01  0.28665142476E+01  0.10404866743E+02  0.51100000000E-03 0.  1.
         11    1    3    3    0    0 -0.62123584472E+01 -0.78390656501E+01  0.27610893587E+01  0.10376317384E+02  0.51100000000E-03 0. -1.
<mgrwt>
<rscale>  0 0.20004692E+02</rscale>
<asrwt>0</asrwt>
<pdfrwt beam="1">  1        1 0.20314452E-02 0.20004692E+02</pdfrwt>
<pdfrwt beam="2">  1       -1 0.11656600E-02 0.20004692E+02</pdfrwt>
<totfact> 0.39028499E+06</totfact>
</mgrwt>
</event>
<event>
 5    1  0.9583198E-007  0.2000039E+02  0.7818608E-02  0.1745320E+00
         -1   -1    0    0    0  501 -0.00000000000E+00  0.00000000000E+00  0.22725956421E+01  0.22726004403E+01  0.46700000000E-02 0.  1.
          1   -1    0    0  501    0  0.00000000000E+00 -0.00000000000E+00 -0.44004210435E+02  0.44004210683E+02  0.46700000000E-02 0. -1.
       1023    2    1    2    0    0  0.00000000000E+00  0.00000000000E+00 -0.41731614793E+02  0.46276811123E+02  0.20000389359E+02 0.  0.
        -11    1    3    3    0    0  0.88914506751E+01 -0.45766437782E+01 -0.20823776296E+02  0.23100502654E+02  0.51100000000E-03 0. -1.
         11    1    3    3    0    0 -0.88914506751E+01  0.45766437782E+01 -0.20907838497E+02  0.23176308469E+02  0.51100000000E-03 0.  1.
<mgrwt>
<rscale>  0 0.20000389E+02</rscale>
<asrwt>0</asrwt>
<pdfrwt beam="2">  1        1 0.67698783E-02 0.20000389E+02</pdfrwt>
<pdfrwt beam="1">  1       -1 0.34963052E-03 0.20000389E+02</pdfrwt>
<totfact> 0.41355323E+06</totfact>
</mgrwt>
</event>
<event>
 5    1  0.9583198E-007  0.2000045E+02  0.7818608E-02  0.1745319E+00
          1   -1    0    0  501    0  0.00000000000E+00  0.00000000000E+00  0.25510990648E+01  0.25511033392E+01  0.46700000000E-02 0. -1.
         -1   -1    0    0    0  501 -0.00000000000E+00 -0.00000000000E+00 -0.39200517127E+02  0.39200517405E+02  0.46700000000E-02 0.  1.
       1023    2    1    2    0    0  0.00000000000E+00  0.00000000000E+00 -0.36649418062E+02  0.41751620744E+02  0.20000449757E+02 0.  0.
        -11    1    3    3    0    0 -0.85299943071E+01 -0.52195467159E+01 -0.18335467744E+02  0.20885254331E+02  0.51100000000E-03 0. -1.
         11    1    3    3    0    0  0.85299943071E+01  0.52195467159E+01 -0.18313950318E+02  0.20866366413E+02  0.51100000000E-03 0.  1.
<mgrwt>
<rscale>  0 0.20000450E+02</rscale>
<asrwt>0</asrwt>
<pdfrwt beam="1">  1        1 0.39247716E-03 0.20000450E+02</pdfrwt>
<pdfrwt beam="2">  1       -1 0.60308487E-02 0.20000450E+02</pdfrwt>
<totfact> 0.35731487E+06</totfact>
</mgrwt>
</event>
<event>
 5    1  0.9583198E-007  0.2000049E+02  0.7818608E-02  0.1745318E+00
         -1   -1    0    0    0  501 -0.00000000000E+00  0.00000000000E+00  0.68131213491E+01  0.68131229496E+01  0.46700000000E-02 0.  1.
          1   -1    0    0  501    0  0.00000000000E+00 -0.00000000000E+00 -0.14678272116E+02  0.14678272859E+02  0.46700000000E-02 0. -1.
       1023    2    1    2    0    0  0.00000000000E+00  0.00000000000E+00 -0.78651507672E+01  0.21491395809E+02  0.20000487425E+02 0.  0.
        -11    1    3    3    0    0  0.90531540612E+01  0.42478750099E+01 -0.39635976930E+01  0.10757051059E+02  0.51100000000E-03 0. -1.
         11    1    3    3    0    0 -0.90531540612E+01 -0.42478750099E+01 -0.39015530742E+01  0.10734344750E+02  0.51100000000E-03 0.  1.
<mgrwt>
<rscale>  0 0.20000487E+02</rscale>
<asrwt>0</asrwt>
<pdfrwt beam="2">  1        1 0.22581959E-02 0.20000487E+02</pdfrwt>
<pdfrwt beam="1">  1       -1 0.10481727E-02 0.20000487E+02</pdfrwt>
<totfact> 0.39209022E+06</totfact>
</mgrwt>
</event>
<event>
 4    1  0.9583198E-007  0.2004315E+02  0.7818608E-02  0.1744471E+00
         -1   -1    0    0    0  501 -0.00000000000E+00  0.00000000000E+00  0.50343254057E+01  0.50343275717E+01  0.46700000000E-02 0.  1.
          1   -1    0    0  501    0  0.00000000000E+00 -0.00000000000E+00 -0.19949424063E+02  0.19949424609E+02  0.46700000000E-02 0. -1.
        -11    1    1    2    0    0  0.61461840680E+01 -0.79001479652E+01 -0.68418124338E+01  0.12124286128E+02  0.51100000000E-03 0. -1.
         11    1    1    2    0    0 -0.61461840680E+01  0.79001479652E+01 -0.80732862231E+01  0.12859466053E+02  0.51100000000E-03 0.  1.
<mgrwt>
<rscale>  0 0.20043146E+02</rscale>
<asrwt>0</asrwt>
<pdfrwt beam="2">  1        1 0.30691423E-02 0.20043146E+02</pdfrwt>
<pdfrwt beam="1">  1       -1 0.77451182E-03 0.20043146E+02</pdfrwt>
<totfact> 0.39510213E+06</totfact>
</mgrwt>
</event>
<event>
 5    1  0.9583198E-007  0.2000384E+02  0.7818608E-02  0.1745252E+00
         -1   -1    0    0    0  501 -0.00000000000E+00  0.00000000000E+00  0.55179259687E+02  0.55179259884E+02  0.46700000000E-02 0.  1.
          1   -1    0    0  501    0  0.00000000000E+00 -0.00000000000E+00 -0.18129677018E+01  0.18129737165E+01  0.46700000000E-02 0. -1.
       1023    2    1    2    0    0  0.00000000000E+00  0.00000000000E+00  0.53366291985E+02  0.56992233601E+02  0.20003838896E+02 0.  0.
        -11    1    3    3    0    0  0.31192026119E+01  0.95028553063E+01  0.26487647832E+02  0.28313056561E+02  0.51100000000E-03 0.  1.
         11    1    3    3    0    0 -0.31192026119E+01 -0.95028553063E+01  0.26878644153E+02  0.28679177039E+02  0.51100000000E-03 0. -1.
<mgrwt>
<rscale>  0 0.20003839E+02</rscale>
<asrwt>0</asrwt>
<pdfrwt beam="2">  1        1 0.27891858E-03 0.20003839E+02</pdfrwt>
<pdfrwt beam="1">  1       -1 0.84891174E-02 0.20003839E+02</pdfrwt>
<totfact> 0.34553487E+06</totfact>
</mgrwt>
</event>
<event>
 5    1  0.9936907E-007  0.2000206E+02  0.7818608E-02  0.1745287E+00
          1   -1    0    0  501    0  0.00000000000E+00  0.00000000000E+00  0.13848213345E+02  0.13848214133E+02  0.46700000000E-02 0.  1.
         -1   -1    0    0    0  501 -0.00000000000E+00 -0.00000000000E+00 -0.72226374828E+01  0.72226389925E+01  0.46700000000E-02 0. -1.
       1023    2    1    2    0    0  0.00000000000E+00  0.00000000000E+00  0.66255758623E+01  0.21070853125E+02  0.20002064791E+02 0.  0.
        -11    1    3    3    0    0  0.63682129525E+01  0.77111189363E+01  0.33884392827E+01  0.10559214577E+02  0.51100000000E-03 0.  1.
         11    1    3    3    0    0 -0.63682129525E+01 -0.77111189363E+01  0.32371365796E+01  0.10511638548E+02  0.51100000000E-03 0. -1.
<mgrwt>
<rscale>  0 0.20002065E+02</rscale>
<asrwt>0</asrwt>
<pdfrwt beam="1">  1        1 0.21304945E-02 0.20002065E+02</pdfrwt>
<pdfrwt beam="2">  1       -1 0.11111752E-02 0.20002065E+02</pdfrwt>
<totfact> 0.39112710E+06</totfact>
</mgrwt>
</event>
<event>
 5    1  0.9583198E-007  0.2000144E+02  0.7818608E-02  0.1745299E+00
         -1   -1    0    0    0  501 -0.00000000000E+00  0.00000000000E+00  0.28661002426E+02  0.28661002807E+02  0.46700000000E-02 0. -1.
          1   -1    0    0  501    0  0.00000000000E+00 -0.00000000000E+00 -0.34895626038E+01  0.34895657287E+01  0.46700000000E-02 0.  1.
       1023    2    1    2    0    0  0.00000000000E+00  0.00000000000E+00  0.25171439823E+02  0.32150568536E+02  0.20001441809E+02 0.  0.
        -11    1    3    3    0    0 -0.20217737512E+01 -0.97937373169E+01  0.12428566172E+02  0.15952244892E+02  0.51100000000E-03 0. -1.
         11    1    3    3    0    0  0.20217737512E+01  0.97937373169E+01  0.12742873650E+02  0.16198323644E+02  0.51100000000E-03 0.  1.
<mgrwt>
<rscale>  0 0.20001442E+02</rscale>
<asrwt>0</asrwt>
<pdfrwt beam="2">  1        1 0.53685606E-03 0.20001442E+02</pdfrwt>
<pdfrwt beam="1">  1       -1 0.44093852E-02 0.20001442E+02</pdfrwt>
<totfact> 0.36597308E+06</totfact>
</mgrwt>
</event>
<event>
 5    1  0.9583198E-007  0.2000124E+02  0.7818608E-02  0.1745304E+00
         -1   -1    0    0    0  501 -0.00000000000E+00  0.00000000000E+00  0.10062420749E+03  0.10062420760E+03  0.46700000000E-02 0.  1.
          1   -1    0    0  501    0  0.00000000000E+00 -0.00000000000E+00 -0.99391384702E+00  0.99392481818E+00  0.46700000000E-02 0. -1.
       1023    2    1    2    0    0  0.00000000000E+00  0.00000000000E+00  0.99630293646E+02  0.10161813242E+03  0.20001235573E+02 0.  0.
        -11    1    3    3    0    0  0.21667509609E+01 -0.97630644645E+01  0.49759866784E+02  0.50754867550E+02  0.51100000000E-03 0. -1.
         11    1    3    3    0    0 -0.21667509609E+01  0.97630644645E+01  0.49870426862E+02  0.50863264869E+02  0.51100000000E-03 0.  1.
<mgrwt>
<rscale>  0 0.20001236E+02</rscale>
<asrwt>0</asrwt>
<pdfrwt beam="2">  1        1 0.15291066E-03 0.20001236E+02</pdfrwt>
<pdfrwt beam="1">  1       -1 0.15480650E-01 0.20001236E+02</pdfrwt>
<totfact> 0.31830020E+06</totfact>
</mgrwt>
</event>
<event>
 5    1  0.9995626E-007  0.2000067E+02  0.7818608E-02  0.1745315E+00
         -1   -1    0    0    0  501 -0.00000000000E+00  0.00000000000E+00  0.97420816245E+00  0.97421935553E+00  0.46700000000E-02 0.  1.
          1   -1    0    0  501    0  0.00000000000E+00 -0.00000000000E+00 -0.10265371565E+03  0.10265371576E+03  0.46700000000E-02 0. -1.
       1023    2    1    2    0    0  0.00000000000E+00  0.00000000000E+00 -0.10167950749E+03  0.10362793512E+03  0.20000667305E+02 0.  0.
        -11    1    3    3    0    0  0.50781298665E+01  0.86148345948E+01 -0.50516399741E+02  0.51496693303E+02  0.51100000000E-03 0.  1.
         11    1    3    3    0    0 -0.50781298665E+01 -0.86148345948E+01 -0.51163107750E+02  0.52131241813E+02  0.51100000000E-03 0. -1.
<mgrwt>
<rscale>  0 0.20000667E+02</rscale>
<asrwt>0</asrwt>
<pdfrwt beam="2">  1        1 0.15792872E-01 0.20000667E+02</pdfrwt>
<pdfrwt beam="1">  1       -1 0.14987913E-03 0.20000667E+02</pdfrwt>
<totfact> 0.44485592E+06</totfact>
</mgrwt>
</event>
<event>
 5    1  0.9583198E-007  0.2000013E+02  0.7818608E-02  0.1745325E+00
         -1   -1    0    0    0  501 -0.00000000000E+00  0.00000000000E+00  0.33614082404E+01  0.33614114844E+01  0.46700000000E-02 0. -1.
          1   -1    0    0  501    0  0.00000000000E+00 -0.00000000000E+00 -0.29749810059E+02  0.29749810426E+02  0.46700000000E-02 0.  1.
       1023    2    1    2    0    0  0.00000000000E+00  0.00000000000E+00 -0.26388401819E+02  0.33111221910E+02  0.20000131645E+02 0.  0.
        -11    1    3    3    0    0  0.96885726380E+01 -0.24764633758E+01 -0.13190288781E+02  0.16552493135E+02  0.51100000000E-03 0.  1.
         11    1    3    3    0    0 -0.96885726380E+01  0.24764633758E+01 -0.13198113038E+02  0.16558728775E+02  0.51100000000E-03 0. -1.
<mgrwt>
<rscale>  0 0.20000132E+02</rscale>
<asrwt>0</asrwt>
<pdfrwt beam="2">  1        1 0.45768940E-02 0.20000132E+02</pdfrwt>
<pdfrwt beam="1">  1       -1 0.51714003E-03 0.20000132E+02</pdfrwt>
<totfact> 0.40438832E+06</totfact>
</mgrwt>
</event>
<event>
 5    1  0.9583198E-007  0.2000079E+02  0.7818608E-02  0.1745312E+00
         -1   -1    0    0    0  501 -0.00000000000E+00  0.00000000000E+00  0.37639258790E+02  0.37639259080E+02  0.46700000000E-02 0. -1.
          1   -1    0    0  501    0  0.00000000000E+00 -0.00000000000E+00 -0.26570077388E+01  0.26570118428E+01  0.46700000000E-02 0.  1.
       1023    2    1    2    0    0  0.00000000000E+00  0.00000000000E+00  0.34982251051E+02  0.40296270922E+02  0.20000789026E+02 0.  0.
        -11    1    3    3    0    0  0.98126697358E+01  0.19282575103E+01  0.17561663721E+02  0.20209371521E+02  0.51100000000E-03 0. -1.
         11    1    3    3    0    0 -0.98126697358E+01 -0.19282575103E+01  0.17420587330E+02  0.20086899401E+02  0.51100000000E-03 0.  1.
<mgrwt>
<rscale>  0 0.20000789E+02</rscale>
<asrwt>0</asrwt>
<pdfrwt beam="2">  1        1 0.40877077E-03 0.20000789E+02</pdfrwt>
<pdfrwt beam="1">  1       -1 0.57906554E-02 0.20000789E+02</pdfrwt>
<totfact> 0.35852791E+06</totfact>
</mgrwt>
</event>
<event>
 5    1  0.9583198E-007  0.2000047E+02  0.7818608E-02  0.1745319E+00
          1   -1    0    0  501    0  0.00000000000E+00  0.00000000000E+00  0.14171899775E+02  0.14171900544E+02  0.46700000000E-02 0. -1.
         -1   -1    0    0    0  501 -0.00000000000E+00 -0.00000000000E+00 -0.70565489987E+01  0.70565505440E+01  0.46700000000E-02 0.  1.
       1023    2    1    2    0    0  0.00000000000E+00  0.00000000000E+00  0.71153507762E+01  0.21228451088E+02  0.20000472968E+02 0.  0.
        -11    1    3    3    0    0 -0.11796203084E+01  0.99303978227E+01  0.35358073680E+01  0.10606895823E+02  0.51100000000E-03 0. -1.
         11    1    3    3    0    0  0.11796203084E+01 -0.99303978227E+01  0.35795434082E+01  0.10621555266E+02  0.51100000000E-03 0.  1.
<mgrwt>
<rscale>  0 0.20000473E+02</rscale>
<asrwt>0</asrwt>
<pdfrwt beam="1">  1        1 0.21802924E-02 0.20000473E+02</pdfrwt>
<pdfrwt beam="2">  1       -1 0.10856231E-02 0.20000473E+02</pdfrwt>
<totfact> 0.39155113E+06</totfact>
</mgrwt>
</event>
<event>
 5    1  0.9583198E-007  0.2000027E+02  0.7818608E-02  0.1745323E+00
          1   -1    0    0  501    0  0.00000000000E+00  0.00000000000E+00  0.97180891755E+01  0.97180902976E+01  0.46700000000E-02 0.  1.
         -1   -1    0    0    0  501 -0.00000000000E+00 -0.00000000000E+00 -0.10290359278E+02  0.10290360338E+02  0.46700000000E-02 0. -1.
       1023    2    1    2    0    0  0.00000000000E+00  0.00000000000E+00 -0.57227010258E+00  0.20008450635E+02  0.20000265092E+02 0.  0.
        -11    1    3    3    0    0 -0.75344174288E+01  0.65752610668E+01 -0.32001024461E+00  0.10005194196E+02  0.51100000000E-03 0.  1.
         11    1    3    3    0    0  0.75344174288E+01 -0.65752610668E+01 -0.25225985798E+00  0.10003256439E+02  0.51100000000E-03 0. -1.
<mgrwt>
<rscale>  0 0.20000265E+02</rscale>
<asrwt>0</asrwt>
<pdfrwt beam="1">  1        1 0.14950908E-02 0.20000265E+02</pdfrwt>
<pdfrwt beam="2">  1       -1 0.15831324E-02 0.20000265E+02</pdfrwt>
<totfact> 0.38578381E+06</totfact>
</mgrwt>
</event>
<event>
 5    1  0.9583198E-007  0.2000021E+02  0.7818608E-02  0.1745324E+00
         -1   -1    0    0    0  501 -0.00000000000E+00  0.00000000000E+00  0.11536415608E+01  0.11536510130E+01  0.46700000000E-02 0. -1.
          1   -1    0    0  501    0  0.00000000000E+00 -0.00000000000E+00 -0.86683459557E+02  0.86683459682E+02  0.46700000000E-02 0.  1.
       1023    2    1    2    0    0  0.00000000000E+00  0.00000000000E+00 -0.85529817996E+02  0.87837110695E+02  0.20000206222E+02 0.  0.
        -11    1    3    3    0    0  0.85094969775E+01  0.52526022542E+01 -0.42649318733E+02  0.43806001391E+02  0.51100000000E-03 0. -1.
         11    1    3    3    0    0 -0.85094969775E+01 -0.52526022542E+01 -0.42880499263E+02  0.44031109304E+02  0.51100000000E-03 0.  1.
<mgrwt>
<rscale>  0 0.20000206E+02</rscale>
<asrwt>0</asrwt>
<pdfrwt beam="2">  1        1 0.13335912E-01 0.20000206E+02</pdfrwt>
<pdfrwt beam="1">  1       -1 0.17748412E-03 0.20000206E+02</pdfrwt>
<totfact> 0.43699876E+06</totfact>
</mgrwt>
</event>
<event>
 5    1  0.9583198E-007  0.2000059E+02  0.7818608E-02  0.1745316E+00
          1   -1    0    0  501    0  0.00000000000E+00  0.00000000000E+00  0.11825568760E+03  0.11825568769E+03  0.46700000000E-02 0.  1.
         -1   -1    0    0    0  501 -0.00000000000E+00 -0.00000000000E+00 -0.84566822596E+00  0.84568112034E+00  0.46700000000E-02 0. -1.
       1023    2    1    2    0    0  0.00000000000E+00  0.00000000000E+00  0.11741001937E+03  0.11910136881E+03  0.20000585081E+02 0.  0.
        -11    1    3    3    0    0 -0.18991540847E+01  0.98182932100E+01  0.58624488030E+02  0.59471306231E+02  0.51100000000E-03 0.  1.
         11    1    3    3    0    0  0.18991540847E+01 -0.98182932100E+01  0.58785531340E+02  0.59630062578E+02  0.51100000000E-03 0. -1.
<mgrwt>
<rscale>  0 0.20000585E+02</rscale>
<asrwt>0</asrwt>
<pdfrwt beam="1">  1        1 0.18193182E-01 0.20000585E+02</pdfrwt>
<pdfrwt beam="2">  1       -1 0.13010381E-03 0.20000585E+02</pdfrwt>
<totfact> 0.45217639E+06</totfact>
</mgrwt>
</event>
<event>
 5    1  0.9822949E-007  0.2000074E+02  0.7818608E-02  0.1745313E+00
          1   -1    0    0  501    0  0.00000000000E+00  0.00000000000E+00  0.11229475891E+02  0.11229476862E+02  0.46700000000E-02 0.  1.
         -1   -1    0    0    0  501 -0.00000000000E+00 -0.00000000000E+00 -0.89057937949E+01  0.89057950193E+01  0.46700000000E-02 0. -1.
       1023    2    1    2    0    0  0.00000000000E+00  0.00000000000E+00  0.23236820959E+01  0.20135271881E+02  0.20000741867E+02 0.  0.
        -11    1    3    3    0    0 -0.16258143366E+01 -0.98669639580E+01  0.12470777949E+01  0.10077472565E+02  0.51100000000E-03 0. -1.
         11    1    3    3    0    0  0.16258143366E+01  0.98669639580E+01  0.10766043009E+01  0.10057799316E+02  0.51100000000E-03 0.  1.
<mgrwt>
<rscale>  0 0.20000742E+02</rscale>
<asrwt>0</asrwt>
<pdfrwt beam="1">  1        1 0.17276118E-02 0.20000742E+02</pdfrwt>
<pdfrwt beam="2">  1       -1 0.13701223E-02 0.20000742E+02</pdfrwt>
<totfact> 0.38799017E+06</totfact>
</mgrwt>
</event>
<event>
 5    1  0.9833526E-007  0.2000150E+02  0.7818608E-02  0.1745298E+00
         -1   -1    0    0    0  501 -0.00000000000E+00  0.00000000000E+00  0.73474811324E+01  0.73474826165E+01  0.46700000000E-02 0. -1.
          1   -1    0    0  501    0  0.00000000000E+00 -0.00000000000E+00 -0.13612148281E+02  0.13612149082E+02  0.46700000000E-02 0.  1.
       1023    2    1    2    0    0  0.00000000000E+00  0.00000000000E+00 -0.62646671485E+01  0.20959631698E+02  0.20001502605E+02 0.  0.
        -11    1    3    3    0    0  0.98907034103E+01 -0.14793603061E+01 -0.31087735353E+01  0.10472773941E+02  0.51100000000E-03 0.  1.
         11    1    3    3    0    0 -0.98907034103E+01  0.14793603061E+01 -0.31558936131E+01  0.10486857757E+02  0.51100000000E-03 0. -1.
<mgrwt>
<rscale>  0 0.20001503E+02</rscale>
<asrwt>0</asrwt>
<pdfrwt beam="2">  1        1 0.20941768E-02 0.20001503E+02</pdfrwt>
<pdfrwt beam="1">  1       -1 0.11303819E-02 0.20001503E+02</pdfrwt>
<totfact> 0.39088913E+06</totfact>
</mgrwt>
</event>
<event>
 5    1  0.1006949E-006  0.2000129E+02  0.7818608E-02  0.1745302E+00
          1   -1    0    0  501    0  0.00000000000E+00  0.00000000000E+00  0.63178325566E+02  0.63178325738E+02  0.46700000000E-02 0.  1.
         -1   -1    0    0    0  501 -0.00000000000E+00 -0.00000000000E+00 -0.15830226449E+01  0.15830295333E+01  0.46700000000E-02 0. -1.
       1023    2    1    2    0    0  0.00000000000E+00  0.00000000000E+00  0.61595302921E+02  0.64761355272E+02  0.20001294826E+02 0.  0.
        -11    1    3    3    0    0 -0.48523858135E+01  0.87441844170E+01  0.31059482167E+02  0.32629707966E+02  0.51100000000E-03 0.  1.
         11    1    3    3    0    0  0.48523858135E+01 -0.87441844170E+01  0.30535820754E+02  0.32131647305E+02  0.51100000000E-03 0. -1.
<mgrwt>
<rscale>  0 0.20001295E+02</rscale>
<asrwt>0</asrwt>
<pdfrwt beam="1">  1        1 0.97197414E-02 0.20001295E+02</pdfrwt>
<pdfrwt beam="2">  1       -1 0.24354253E-03 0.20001295E+02</pdfrwt>
<totfact> 0.42456956E+06</totfact>
</mgrwt>
</event>
<event>
 5    1  0.9597572E-007  0.2000044E+02  0.7818608E-02  0.1745319E+00
          1   -1    0    0  501    0  0.00000000000E+00  0.00000000000E+00  0.88474617524E+02  0.88474617647E+02  0.46700000000E-02 0. -1.
         -1   -1    0    0    0  501 -0.00000000000E+00 -0.00000000000E+00 -0.11303121181E+01  0.11303217653E+01  0.46700000000E-02 0.  1.
       1023    2    1    2    0    0  0.00000000000E+00  0.00000000000E+00  0.87344305406E+02  0.89604939413E+02  0.20000437002E+02 0.  0.
        -11    1    3    3    0    0  0.62573636489E+01  0.78003717577E+01  0.43954452522E+02  0.45077647411E+02  0.51100000000E-03 0.  1.
         11    1    3    3    0    0 -0.62573636489E+01 -0.78003717577E+01  0.43389852884E+02  0.44527292001E+02  0.51100000000E-03 0. -1.
<mgrwt>
<rscale>  0 0.20000437E+02</rscale>
<asrwt>0</asrwt>
<pdfrwt beam="1">  1        1 0.13611479E-01 0.20000437E+02</pdfrwt>
<pdfrwt beam="2">  1       -1 0.17389494E-03 0.20000437E+02</pdfrwt>
<totfact> 0.43789161E+06</totfact>
</mgrwt>
</event>
<event>
 5    1  0.9583198E-007  0.2000035E+02  0.7818608E-02  0.1745321E+00
          1   -1    0    0  501    0  0.00000000000E+00  0.00000000000E+00  0.76111911757E+02  0.76111911900E+02  0.46700000000E-02 0. -1.
         -1   -1    0    0    0  501 -0.00000000000E+00 -0.00000000000E+00 -0.13138958328E+01  0.13139041321E+01  0.46700000000E-02 0.  1.
       1023    2    1    2    0    0  0.00000000000E+00  0.00000000000E+00  0.74798015924E+02  0.77425816032E+02  0.20000345049E+02 0.  0.
        -11    1    3    3    0    0 -0.71978807520E+01  0.69420671846E+01  0.37240990745E+02  0.38560253838E+02  0.51100000000E-03 0. -1.
         11    1    3    3    0    0  0.71978807520E+01 -0.69420671846E+01  0.37557025180E+02  0.38865562195E+02  0.51100000000E-03 0.  1.
<mgrwt>
<rscale>  0 0.20000345E+02</rscale>
<asrwt>0</asrwt>
<pdfrwt beam="1">  1        1 0.11709525E-01 0.20000345E+02</pdfrwt>
<pdfrwt beam="2">  1       -1 0.20213849E-03 0.20000345E+02</pdfrwt>
<totfact> 0.43155751E+06</totfact>
</mgrwt>
</event>
<event>
 4    1  0.9583198E-007  0.2018731E+02  0.7818608E-02  0.1741629E+00
          1   -1    0    0  501    0  0.00000000000E+00  0.00000000000E+00  0.38137650214E+01  0.38137678806E+01  0.46700000000E-02 0. -1.
         -1   -1    0    0    0  501 -0.00000000000E+00 -0.00000000000E+00 -0.26714230081E+02  0.26714230489E+02  0.46700000000E-02 0.  1.
        -11    1    1    2    0    0 -0.88953634101E+01 -0.47682672021E+01 -0.11247437288E+02  0.15111873085E+02  0.51100000000E-03 0.  1.
         11    1    1    2    0    0  0.88953634101E+01  0.47682672021E+01 -0.11653027771E+02  0.15416125285E+02  0.51100000000E-03 0. -1.
<mgrwt>
<rscale>  0 0.20187308E+02</rscale>
<asrwt>0</asrwt>
<pdfrwt beam="1">  1        1 0.58673335E-03 0.20187308E+02</pdfrwt>
<pdfrwt beam="2">  1       -1 0.41098817E-02 0.20187308E+02</pdfrwt>
<totfact> 0.36029557E+06</totfact>
</mgrwt>
</event>
<event>
 5    1  0.9939502E-007  0.2000115E+02  0.7818608E-02  0.1745305E+00
         -1   -1    0    0    0  501 -0.00000000000E+00  0.00000000000E+00  0.54624619469E+01  0.54624639431E+01  0.46700000000E-02 0.  1.
          1   -1    0    0  501    0  0.00000000000E+00 -0.00000000000E+00 -0.18308857803E+02  0.18308858399E+02  0.46700000000E-02 0. -1.
       1023    2    1    2    0    0  0.00000000000E+00  0.00000000000E+00 -0.12846395856E+02  0.23771322342E+02  0.20001146952E+02 0.  0.
        -11    1    3    3    0    0 -0.23698784835E+01 -0.97156907452E+01 -0.64497443047E+01  0.11900007250E+02  0.51100000000E-03 0.  1.
         11    1    3    3    0    0  0.23698784835E+01  0.97156907452E+01 -0.63966515513E+01  0.11871315092E+02  0.51100000000E-03 0. -1.
<mgrwt>
<rscale>  0 0.20001147E+02</rscale>
<asrwt>0</asrwt>
<pdfrwt beam="2">  1        1 0.28167475E-02 0.20001147E+02</pdfrwt>
<pdfrwt beam="1">  1       -1 0.84037897E-03 0.20001147E+02</pdfrwt>
<totfact> 0.39554986E+06</totfact>
</mgrwt>
</event>
<event>
 5    1  0.9938518E-007  0.2000088E+02  0.7818608E-02  0.1745311E+00
         -1   -1    0    0    0  501 -0.00000000000E+00  0.00000000000E+00  0.43147542039E+01  0.43147567311E+01  0.46700000000E-02 0.  1.
          1   -1    0    0  501    0  0.00000000000E+00 -0.00000000000E+00 -0.23178315063E+02  0.23178315534E+02  0.46700000000E-02 0. -1.
       1023    2    1    2    0    0  0.00000000000E+00  0.00000000000E+00 -0.18863560859E+02  0.27493072265E+02  0.20000877337E+02 0.  0.
        -11    1    3    3    0    0  0.66812841764E+01 -0.74407903762E+01 -0.93464488985E+01  0.13687988418E+02  0.51100000000E-03 0.  1.
         11    1    3    3    0    0 -0.66812841764E+01  0.74407903762E+01 -0.95171119608E+01  0.13805083846E+02  0.51100000000E-03 0. -1.
<mgrwt>
<rscale>  0 0.20000877E+02</rscale>
<asrwt>0</asrwt>
<pdfrwt beam="2">  1        1 0.35658948E-02 0.20000877E+02</pdfrwt>
<pdfrwt beam="1">  1       -1 0.66380858E-03 0.20000877E+02</pdfrwt>
<totfact> 0.39957256E+06</totfact>
</mgrwt>
</event>
<event>
 5    1  0.9583198E-007  0.2000428E+02  0.7818608E-02  0.1745243E+00
          1   -1    0    0  501    0  0.00000000000E+00  0.00000000000E+00  0.30817801544E+01  0.30817836928E+01  0.46700000000E-02 0. -1.
         -1   -1    0    0    0  501 -0.00000000000E+00 -0.00000000000E+00 -0.32462631984E+02  0.32462632320E+02  0.46700000000E-02 0.  1.
       1023    2    1    2    0    0  0.00000000000E+00  0.00000000000E+00 -0.29380851830E+02  0.35544416013E+02  0.20004275929E+02 0.  0.
        -11    1    3    3    0    0  0.99719640251E+01  0.75885439032E+00 -0.14399343259E+02  0.17531600413E+02  0.51100000000E-03 0.  1.
         11    1    3    3    0    0 -0.99719640251E+01 -0.75885439032E+00 -0.14981508571E+02  0.18012815600E+02  0.51100000000E-03 0. -1.
<mgrwt>
<rscale>  0 0.20004276E+02</rscale>
<asrwt>0</asrwt>
<pdfrwt beam="1">  1        1 0.47412034E-03 0.20004276E+02</pdfrwt>
<pdfrwt beam="2">  1       -1 0.49942511E-02 0.20004276E+02</pdfrwt>
<totfact> 0.36260082E+06</totfact>
</mgrwt>
</event>
<event>
 5    1  0.9583198E-007  0.2000048E+02  0.7818608E-02  0.1745318E+00
         -1   -1    0    0    0  501 -0.00000000000E+00  0.00000000000E+00  0.24336118087E+02  0.24336118535E+02  0.46700000000E-02 0.  1.
          1   -1    0    0  501    0  0.00000000000E+00 -0.00000000000E+00 -0.41093159045E+01  0.41093185581E+01  0.46700000000E-02 0. -1.
       1023    2    1    2    0    0  0.00000000000E+00  0.00000000000E+00  0.20226802182E+02  0.28445437093E+02  0.20000484116E+02 0.  0.
        -11    1    3    3    0    0 -0.57121713881E+01 -0.82082437789E+01  0.10150298785E+02  0.14248955526E+02  0.51100000000E-03 0. -1.
         11    1    3    3    0    0  0.57121713881E+01  0.82082437789E+01  0.10076503397E+02  0.14196481567E+02  0.51100000000E-03 0.  1.
<mgrwt>
<rscale>  0 0.20000484E+02</rscale>
<asrwt>0</asrwt>
<pdfrwt beam="2">  1        1 0.63220268E-03 0.20000484E+02</pdfrwt>
<pdfrwt beam="1">  1       -1 0.37440184E-02 0.20000484E+02</pdfrwt>
<totfact> 0.36992540E+06</totfact>
</mgrwt>
</event>
<event>
 5    1  0.9583198E-007  0.2000040E+02  0.7818608E-02  0.1745320E+00
          1   -1    0    0  501    0  0.00000000000E+00  0.00000000000E+00  0.15599512154E+02  0.15599512853E+02  0.46700000000E-02 0.  1.
         -1   -1    0    0    0  501 -0.00000000000E+00 -0.00000000000E+00 -0.64107089285E+01  0.64107106295E+01  0.46700000000E-02 0. -1.
       1023    2    1    2    0    0  0.00000000000E+00  0.00000000000E+00  0.91888032253E+01  0.22010223482E+02  0.20000395822E+02 0.  0.
        -11    1    3    3    0    0  0.11091079200E+01 -0.99383789694E+01  0.45398071543E+01  0.10982319708E+02  0.51100000000E-03 0.  1.
         11    1    3    3    0    0 -0.11091079200E+01  0.99383789694E+01  0.46489960710E+01  0.11027903774E+02  0.51100000000E-03 0. -1.
<mgrwt>
<rscale>  0 0.20000396E+02</rscale>
<asrwt>0</asrwt>
<pdfrwt beam="1">  1        1 0.23999251E-02 0.20000396E+02</pdfrwt>
<pdfrwt beam="2">  1       -1 0.98626311E-03 0.20000396E+02</pdfrwt>
<totfact> 0.39303748E+06</totfact>
</mgrwt>
</event>
<event>
 4    1  0.9583198E-007  0.2004507E+02  0.7818608E-02  0.1744433E+00
         -1   -1    0    0    0  501 -0.00000000000E+00  0.00000000000E+00  0.19598414954E+02  0.19598415510E+02  0.46700000000E-02 0.  1.
          1   -1    0    0  501    0  0.00000000000E+00 -0.00000000000E+00 -0.51254751664E+01  0.51254772939E+01  0.46700000000E-02 0. -1.
        -11    1    1    2    0    0 -0.37824238963E+01 -0.92811503689E+01  0.73213819281E+01  0.12411652440E+02  0.51100000000E-03 0.  1.
         11    1    1    2    0    0  0.37824238963E+01  0.92811503689E+01  0.71515578595E+01  0.12312240364E+02  0.51100000000E-03 0. -1.
<mgrwt>
<rscale>  0 0.20045071E+02</rscale>
<asrwt>0</asrwt>
<pdfrwt beam="2">  1        1 0.78853486E-03 0.20045071E+02</pdfrwt>
<pdfrwt beam="1">  1       -1 0.30151409E-02 0.20045071E+02</pdfrwt>
<totfact> 0.37273022E+06</totfact>
</mgrwt>
</event>
<event>
 5    1  0.9821523E-007  0.2000192E+02  0.7818608E-02  0.1745290E+00
          1   -1    0    0  501    0  0.00000000000E+00  0.00000000000E+00  0.23896761049E+02  0.23896761505E+02  0.46700000000E-02 0.  1.
         -1   -1    0    0    0  501 -0.00000000000E+00 -0.00000000000E+00 -0.41854703559E+01  0.41854729612E+01  0.46700000000E-02 0. -1.
       1023    2    1    2    0    0  0.00000000000E+00  0.00000000000E+00  0.19711290693E+02  0.28082234467E+02  0.20001922704E+02 0.  0.
        -11    1    3    3    0    0 -0.90178597837E+01 -0.43218344717E+01  0.10050081791E+02  0.14177594738E+02  0.51100000000E-03 0.  1.
         11    1    3    3    0    0  0.90178597837E+01  0.43218344717E+01  0.96612089017E+01  0.13904639729E+02  0.51100000000E-03 0. -1.
<mgrwt>
<rscale>  0 0.20001923E+02</rscale>
<asrwt>0</asrwt>
<pdfrwt beam="1">  1        1 0.36764250E-02 0.20001923E+02</pdfrwt>
<pdfrwt beam="2">  1       -1 0.64391876E-03 0.20001923E+02</pdfrwt>
<totfact> 0.40007665E+06</totfact>
</mgrwt>
</event>
<event>
 5    1  0.9918443E-007  0.2000081E+02  0.7818608E-02  0.1745312E+00
          1   -1    0    0  501    0  0.00000000000E+00  0.00000000000E+00  0.23284082161E+02  0.23284082629E+02  0.46700000000E-02 0.  1.
         -1   -1    0    0    0  501 -0.00000000000E+00 -0.00000000000E+00 -0.42951274117E+01  0.42951299505E+01  0.46700000000E-02 0. -1.
       1023    2    1    2    0    0  0.00000000000E+00  0.00000000000E+00  0.18988954749E+02  0.27579212579E+02  0.20000814085E+02 0.  0.
        -11    1    3    3    0    0  0.47590391443E+01 -0.87952003602E+01  0.95831763972E+01  0.13850677712E+02  0.51100000000E-03 0. -1.
         11    1    3    3    0    0 -0.47590391443E+01  0.87952003602E+01  0.94057783518E+01  0.13728534868E+02  0.51100000000E-03 0.  1.
<mgrwt>
<rscale>  0 0.20000814E+02</rscale>
<asrwt>0</asrwt>
<pdfrwt beam="1">  1        1 0.35821667E-02 0.20000814E+02</pdfrwt>
<pdfrwt beam="2">  1       -1 0.66078906E-03 0.20000814E+02</pdfrwt>
<totfact> 0.39965699E+06</totfact>
</mgrwt>
</event>
<event>
 4    1  0.9753676E-007  0.2013392E+02  0.7818608E-02  0.1742678E+00
         -1   -1    0    0    0  501 -0.00000000000E+00  0.00000000000E+00  0.31069723305E+01  0.31069758402E+01  0.46700000000E-02 0.  1.
          1   -1    0    0  501    0  0.00000000000E+00 -0.00000000000E+00 -0.32618111034E+02  0.32618111368E+02  0.46700000000E-02 0. -1.
        -11    1    1    2    0    0  0.43321533687E+01  0.90290534590E+01 -0.16575732171E+02  0.19366111030E+02  0.51100000000E-03 0. -1.
         11    1    1    2    0    0 -0.43321533687E+01 -0.90290534590E+01 -0.12935406533E+02  0.16358976179E+02  0.51100000000E-03 0.  1.
<mgrwt>
<rscale>  0 0.20133915E+02</rscale>
<asrwt>0</asrwt>
<pdfrwt beam="2">  1        1 0.50181710E-02 0.20133915E+02</pdfrwt>
<pdfrwt beam="1">  1       -1 0.47799606E-03 0.20133915E+02</pdfrwt>
<totfact> 0.40033226E+06</totfact>
</mgrwt>
</event>
<event>
 5    1  0.1011600E-006  0.2000140E+02  0.7818608E-02  0.1745300E+00
          1   -1    0    0  501    0  0.00000000000E+00  0.00000000000E+00  0.68563292516E+02  0.68563292675E+02  0.46700000000E-02 0. -1.
         -1   -1    0    0    0  501 -0.00000000000E+00 -0.00000000000E+00 -0.14587060586E+01  0.14587135340E+01  0.46700000000E-02 0.  1.
       1023    2    1    2    0    0  0.00000000000E+00  0.00000000000E+00  0.67104586458E+02  0.70022006209E+02  0.20001395700E+02 0.  0.
        -11    1    3    3    0    0  0.63982036359E+01 -0.76860592341E+01  0.33685183086E+02  0.35138356196E+02  0.51100000000E-03 0. -1.
         11    1    3    3    0    0 -0.63982036359E+01  0.76860592341E+01  0.33419403371E+02  0.34883650014E+02  0.51100000000E-03 0.  1.
<mgrwt>
<rscale>  0 0.20001396E+02</rscale>
<asrwt>0</asrwt>
<pdfrwt beam="1">  1        1 0.10548200E-01 0.20001396E+02</pdfrwt>
<pdfrwt beam="2">  1       -1 0.22441690E-03 0.20001396E+02</pdfrwt>
<totfact> 0.42750020E+06</totfact>
</mgrwt>
</event>
<event>
 5    1  0.9583198E-007  0.2000520E+02  0.7818608E-02  0.1745225E+00
         -1   -1    0    0    0  501 -0.00000000000E+00  0.00000000000E+00  0.14416347667E+01  0.14416423306E+01  0.46700000000E-02 0. -1.
          1   -1    0    0  501    0  0.00000000000E+00 -0.00000000000E+00 -0.69401614033E+02  0.69401614190E+02  0.46700000000E-02 0.  1.
       1023    2    1    2    0    0  0.00000000000E+00  0.00000000000E+00 -0.67959979266E+02  0.70843256521E+02  0.20005204637E+02 0.  0.
        -11    1    3    3    0    0 -0.47086410373E+01 -0.88249136692E+01 -0.33836091526E+02  0.35283586719E+02  0.51100000000E-03 0.  1.
         11    1    3    3    0    0  0.47086410373E+01  0.88249136692E+01 -0.34123887740E+02  0.35559669802E+02  0.51100000000E-03 0. -1.
<mgrwt>
<rscale>  0 0.20005205E+02</rscale>
<asrwt>0</asrwt>
<pdfrwt beam="2">  1        1 0.10677169E-01 0.20005205E+02</pdfrwt>
<pdfrwt beam="1">  1       -1 0.22179061E-03 0.20005205E+02</pdfrwt>
<totfact> 0.42777098E+06</totfact>
</mgrwt>
</event>
<event>
 5    1  0.9583198E-007  0.2000004E+02  0.7818608E-02  0.1745327E+00
         -1   -1    0    0    0  501 -0.00000000000E+00  0.00000000000E+00  0.17949962151E+02  0.17949962758E+02  0.46700000000E-02 0.  1.
          1   -1    0    0  501    0  0.00000000000E+00 -0.00000000000E+00 -0.55710621414E+01  0.55710640987E+01  0.46700000000E-02 0. -1.
       1023    2    1    2    0    0  0.00000000000E+00  0.00000000000E+00  0.12378900010E+02  0.23521026857E+02  0.20000038474E+02 0.  0.
        -11    1    3    3    0    0  0.84378747548E+01 -0.53668093059E+01  0.61935201955E+01  0.11762655532E+02  0.51100000000E-03 0. -1.
         11    1    3    3    0    0 -0.84378747548E+01  0.53668093059E+01  0.61853798141E+01  0.11758371325E+02  0.51100000000E-03 0.  1.
<mgrwt>
<rscale>  0 0.20000038E+02</rscale>
<asrwt>0</asrwt>
<pdfrwt beam="2">  1        1 0.85708669E-03 0.20000038E+02</pdfrwt>
<pdfrwt beam="1">  1       -1 0.27615328E-02 0.20000038E+02</pdfrwt>
<totfact> 0.37630208E+06</totfact>
</mgrwt>
</event>
<event>
 5    1  0.9706580E-007  0.2000197E+02  0.7818608E-02  0.1745289E+00
          1   -1    0    0  501    0  0.00000000000E+00  0.00000000000E+00  0.47933137394E+02  0.47933137622E+02  0.46700000000E-02 0. -1.
         -1   -1    0    0    0  501 -0.00000000000E+00 -0.00000000000E+00 -0.20866481970E+01  0.20866534228E+01  0.46700000000E-02 0.  1.
       1023    2    1    2    0    0  0.00000000000E+00  0.00000000000E+00  0.45846489197E+02  0.50019791045E+02  0.20001973014E+02 0.  0.
        -11    1    3    3    0    0  0.94869425490E+01  0.31624852713E+01  0.22603591077E+02  0.24716911657E+02  0.51100000000E-03 0.  1.
         11    1    3    3    0    0 -0.94869425490E+01 -0.31624852713E+01  0.23242898120E+02  0.25302879387E+02  0.51100000000E-03 0. -1.
<mgrwt>
<rscale>  0 0.20001973E+02</rscale>
<asrwt>0</asrwt>
<pdfrwt beam="1">  1        1 0.73743291E-02 0.20001973E+02</pdfrwt>
<pdfrwt beam="2">  1       -1 0.32102323E-03 0.20001973E+02</pdfrwt>
<totfact> 0.41583832E+06</totfact>
</mgrwt>
</event>
<event>
 4    1  0.9583198E-007  0.2008039E+02  0.7818608E-02  0.1743734E+00
          1   -1    0    0  501    0  0.00000000000E+00  0.00000000000E+00  0.81837802393E+01  0.81837815718E+01  0.46700000000E-02 0.  1.
         -1   -1    0    0    0  501 -0.00000000000E+00 -0.00000000000E+00 -0.12317720471E+02  0.12317721357E+02  0.46700000000E-02 0. -1.
        -11    1    1    2    0    0  0.62964695911E+01 -0.78204412263E+01 -0.20397736683E+01  0.10245267550E+02  0.51100000000E-03 0.  1.
         11    1    1    2    0    0 -0.62964695911E+01  0.78204412263E+01 -0.20941665638E+01  0.10256235379E+02  0.51100000000E-03 0. -1.
<mgrwt>
<rscale>  0 0.20080392E+02</rscale>
<asrwt>0</asrwt>
<pdfrwt beam="1">  1        1 0.12590433E-02 0.20080392E+02</pdfrwt>
<pdfrwt beam="2">  1       -1 0.18950341E-02 0.20080392E+02</pdfrwt>
<totfact> 0.37958252E+06</totfact>
</mgrwt>
</event>
<event>
 5    1  0.9583198E-007  0.2000074E+02  0.7818608E-02  0.1745313E+00
         -1   -1    0    0    0  501 -0.00000000000E+00  0.00000000000E+00  0.41658800741E+02  0.41658801003E+02  0.46700000000E-02 0.  1.
          1   -1    0    0  501    0  0.00000000000E+00 -0.00000000000E+00 -0.24006286772E+01  0.24006332196E+01  0.46700000000E-02 0. -1.
       1023    2    1    2    0    0  0.00000000000E+00  0.00000000000E+00  0.39258172064E+02  0.44059434223E+02  0.20000741741E+02 0.  0.
        -11    1    3    3    0    0  0.94127922989E+01  0.33765469581E+01  0.19795241012E+02  0.22177765785E+02  0.51100000000E-03 0.  1.
         11    1    3    3    0    0 -0.94127922989E+01 -0.33765469581E+01  0.19462931052E+02  0.21881668438E+02  0.51100000000E-03 0. -1.
<mgrwt>
<rscale>  0 0.20000742E+02</rscale>
<asrwt>0</asrwt>
<pdfrwt beam="2">  1        1 0.36932786E-03 0.20000742E+02</pdfrwt>
<pdfrwt beam="1">  1       -1 0.64090466E-02 0.20000742E+02</pdfrwt>
<totfact> 0.35540764E+06</totfact>
</mgrwt>
</event>
<event>
 5    1  0.9583198E-007  0.2000035E+02  0.7818608E-02  0.1745321E+00
         -1   -1    0    0    0  501 -0.00000000000E+00  0.00000000000E+00  0.19628395936E+01  0.19628451491E+01  0.46700000000E-02 0.  1.
          1   -1    0    0  501    0  0.00000000000E+00 -0.00000000000E+00 -0.50948291794E+02  0.50948292008E+02  0.46700000000E-02 0. -1.
       1023    2    1    2    0    0  0.00000000000E+00  0.00000000000E+00 -0.48985452200E+02  0.52911137157E+02  0.20000347696E+02 0.  0.
        -11    1    3    3    0    0  0.91658748255E-01 -0.99995996681E+01 -0.24345861269E+02  0.26319600226E+02  0.51100000000E-03 0.  1.
         11    1    3    3    0    0 -0.91658748255E-01  0.99995996681E+01 -0.24639590931E+02  0.26591536931E+02  0.51100000000E-03 0. -1.
<mgrwt>
<rscale>  0 0.20000348E+02</rscale>
<asrwt>0</asrwt>
<pdfrwt beam="2">  1        1 0.78381982E-02 0.20000348E+02</pdfrwt>
<pdfrwt beam="1">  1       -1 0.30197580E-03 0.20000348E+02</pdfrwt>
<totfact> 0.41768669E+06</totfact>
</mgrwt>
</event>
<event>
 5    1  0.9583198E-007  0.2000052E+02  0.7818608E-02  0.1745318E+00
         -1   -1    0    0    0  501 -0.00000000000E+00  0.00000000000E+00  0.22207929853E+02  0.22207930344E+02  0.46700000000E-02 0. -1.
          1   -1    0    0  501    0  0.00000000000E+00 -0.00000000000E+00 -0.45031265671E+01  0.45031289886E+01  0.46700000000E-02 0.  1.
       1023    2    1    2    0    0  0.00000000000E+00  0.00000000000E+00  0.17704803286E+02  0.26711059333E+02  0.20000515775E+02 0.  0.
        -11    1    3    3    0    0 -0.37810894420E+01 -0.92578125049E+01  0.89028661175E+01  0.13388978867E+02  0.51100000000E-03 0.  1.
         11    1    3    3    0    0  0.37810894420E+01  0.92578125049E+01  0.88019371684E+01  0.13322080465E+02  0.51100000000E-03 0. -1.
<mgrwt>
<rscale>  0 0.20000516E+02</rscale>
<asrwt>0</asrwt>
<pdfrwt beam="2">  1        1 0.69278894E-03 0.20000516E+02</pdfrwt>
<pdfrwt beam="1">  1       -1 0.34166048E-02 0.20000516E+02</pdfrwt>
<totfact> 0.37195211E+06</totfact>
</mgrwt>
</event>
<event>
 5    1  0.9994854E-007  0.2000162E+02  0.7818608E-02  0.1745296E+00
         -1   -1    0    0    0  501 -0.00000000000E+00  0.00000000000E+00  0.40539760581E+01  0.40539787479E+01  0.46700000000E-02 0. -1.
          1   -1    0    0  501    0  0.00000000000E+00 -0.00000000000E+00 -0.24671129132E+02  0.24671129574E+02  0.46700000000E-02 0.  1.
       1023    2    1    2    0    0  0.00000000000E+00  0.00000000000E+00 -0.20617153074E+02  0.28725108322E+02  0.20001621115E+02 0.  0.
        -11    1    3    3    0    0 -0.94467945468E+01  0.32814899178E+01 -0.10196334606E+02  0.14281993661E+02  0.51100000000E-03 0. -1.
         11    1    3    3    0    0  0.94467945468E+01 -0.32814899178E+01 -0.10420818468E+02  0.14443114661E+02  0.51100000000E-03 0.  1.
<mgrwt>
<rscale>  0 0.20001621E+02</rscale>
<asrwt>0</asrwt>
<pdfrwt beam="2">  1        1 0.37955585E-02 0.20001621E+02</pdfrwt>
<pdfrwt beam="1">  1       -1 0.62368888E-03 0.20001621E+02</pdfrwt>
<totfact> 0.40067495E+06</totfact>
</mgrwt>
</event>
<event>
 5    1  0.9974170E-007  0.2000180E+02  0.7818608E-02  0.1745292E+00
          1   -1    0    0  501    0  0.00000000000E+00  0.00000000000E+00  0.72616445075E+02  0.72616445225E+02  0.46700000000E-02 0. -1.
         -1   -1    0    0    0  501 -0.00000000000E+00 -0.00000000000E+00 -0.13773417083E+01  0.13773496253E+01  0.46700000000E-02 0.  1.
       1023    2    1    2    0    0  0.00000000000E+00  0.00000000000E+00  0.71239103366E+02  0.73993794850E+02  0.20001795616E+02 0.  0.
        -11    1    3    3    0    0  0.22109186407E+01 -0.97534381553E+01  0.35562286654E+02  0.36941764298E+02  0.51100000000E-03 0. -1.
         11    1    3    3    0    0 -0.22109186407E+01  0.97534381553E+01  0.35676816712E+02  0.37052030552E+02  0.51100000000E-03 0.  1.
<mgrwt>
<rscale>  0 0.20001796E+02</rscale>
<asrwt>0</asrwt>
<pdfrwt beam="1">  1        1 0.11171759E-01 0.20001796E+02</pdfrwt>
<pdfrwt beam="2">  1       -1 0.21189938E-03 0.20001796E+02</pdfrwt>
<totfact> 0.42964816E+06</totfact>
</mgrwt>
</event>
<event>
 5    1  0.9583198E-007  0.2000013E+02  0.7818608E-02  0.1745326E+00
         -1   -1    0    0    0  501 -0.00000000000E+00  0.00000000000E+00  0.27853754334E+01  0.27853793483E+01  0.46700000000E-02 0.  1.
          1   -1    0    0  501    0  0.00000000000E+00 -0.00000000000E+00 -0.35902235400E+02  0.35902235704E+02  0.46700000000E-02 0. -1.
       1023    2    1    2    0    0  0.00000000000E+00  0.00000000000E+00 -0.33116859967E+02  0.38687615052E+02  0.20000128609E+02 0.  0.
        -11    1    3    3    0    0 -0.61626204445E+01  0.78754881795E+01 -0.16575841501E+02  0.19358711903E+02  0.51100000000E-03 0.  1.
         11    1    3    3    0    0  0.61626204445E+01 -0.78754881795E+01 -0.16541018465E+02  0.19328903149E+02  0.51100000000E-03 0. -1.
<mgrwt>
<rscale>  0 0.20000129E+02</rscale>
<asrwt>0</asrwt>
<pdfrwt beam="2">  1        1 0.55234208E-02 0.20000129E+02</pdfrwt>
<pdfrwt beam="1">  1       -1 0.42851965E-03 0.20000129E+02</pdfrwt>
<totfact> 0.40849340E+06</totfact>
</mgrwt>
</event>
<event>
 5    1  0.9602533E-007  0.2000076E+02  0.7818608E-02  0.1745313E+00
          1   -1    0    0  501    0  0.00000000000E+00  0.00000000000E+00  0.11242388784E+02  0.11242389754E+02  0.46700000000E-02 0. -1.
         -1   -1    0    0    0  501 -0.00000000000E+00 -0.00000000000E+00 -0.88955773694E+01  0.88955785952E+01  0.46700000000E-02 0.  1.
       1023    2    1    2    0    0  0.00000000000E+00  0.00000000000E+00  0.23468114150E+01  0.20137968349E+02  0.20000756121E+02 0.  0.
        -11    1    3    3    0    0 -0.65751815733E+01  0.75346969937E+01  0.12275293746E+01  0.10075291566E+02  0.51100000000E-03 0. -1.
         11    1    3    3    0    0  0.65751815733E+01 -0.75346969937E+01  0.11192820404E+01  0.10062676784E+02  0.51100000000E-03 0.  1.
<mgrwt>
<rscale>  0 0.20000756E+02</rscale>
<asrwt>0</asrwt>
<pdfrwt beam="1">  1        1 0.17295985E-02 0.20000756E+02</pdfrwt>
<pdfrwt beam="2">  1       -1 0.13685505E-02 0.20000756E+02</pdfrwt>
<totfact> 0.38800710E+06</totfact>
</mgrwt>
</event>
<event>
 5    1  0.9783762E-007  0.2000082E+02  0.7818608E-02  0.1745312E+00
          1   -1    0    0  501    0  0.00000000000E+00  0.00000000000E+00  0.30080659573E+02  0.30080659936E+02  0.46700000000E-02 0.  1.
         -1   -1    0    0    0  501 -0.00000000000E+00 -0.00000000000E+00 -0.33246663310E+01  0.33246696108E+01  0.46700000000E-02 0. -1.
       1023    2    1    2    0    0  0.00000000000E+00  0.00000000000E+00  0.26755993242E+02  0.33405329547E+02  0.20000821677E+02 0.  0.
        -11    1    3    3    0    0  0.47517786332E+01 -0.87992461257E+01  0.13454244668E+02  0.16763735634E+02  0.51100000000E-03 0.  1.
         11    1    3    3    0    0 -0.47517786332E+01  0.87992461257E+01  0.13301748574E+02  0.16641593913E+02  0.51100000000E-03 0. -1.
<mgrwt>
<rscale>  0 0.20000822E+02</rscale>
<asrwt>0</asrwt>
<pdfrwt beam="1">  1        1 0.46277938E-02 0.20000822E+02</pdfrwt>
<pdfrwt beam="2">  1       -1 0.51148743E-03 0.20000822E+02</pdfrwt>
<totfact> 0.40458525E+06</totfact>
</mgrwt>
</event>
<event>
 5    1  0.9583198E-007  0.2000806E+02  0.7818608E-02  0.1745168E+00
          1   -1    0    0  501    0  0.00000000000E+00  0.00000000000E+00  0.65342614341E+01  0.65342631029E+01  0.46700000000E-02 0. -1.
         -1   -1    0    0    0  501 -0.00000000000E+00 -0.00000000000E+00 -0.15316289534E+02  0.15316290246E+02  0.46700000000E-02 0.  1.
       1023    2    1    2    0    0  0.00000000000E+00  0.00000000000E+00 -0.87820280996E+01  0.21850553348E+02  0.20008064976E+02 0.  0.
        -11    1    3    3    0    0 -0.96141604719E+01  0.27621941416E+01 -0.42410051905E+01  0.10864986118E+02  0.51100000000E-03 0. -1.
         11    1    3    3    0    0  0.96141604719E+01 -0.27621941416E+01 -0.45410229091E+01  0.10985567231E+02  0.51100000000E-03 0.  1.
<mgrwt>
<rscale>  0 0.20008065E+02</rscale>
<asrwt>0</asrwt>
<pdfrwt beam="1">  1        1 0.10052712E-02 0.20008065E+02</pdfrwt>
<pdfrwt beam="2">  1       -1 0.23563524E-02 0.20008065E+02</pdfrwt>
<totfact> 0.37889427E+06</totfact>
</mgrwt>
</event>
<event>
 5    1  0.9583198E-007  0.2000959E+02  0.7818608E-02  0.1745137E+00
          1   -1    0    0  501    0  0.00000000000E+00  0.00000000000E+00  0.38922146709E+01  0.38922174725E+01  0.46700000000E-02 0. -1.
         -1   -1    0    0    0  501 -0.00000000000E+00 -0.00000000000E+00 -0.25716951092E+02  0.25716951516E+02  0.46700000000E-02 0.  1.
       1023    2    1    2    0    0  0.00000000000E+00  0.00000000000E+00 -0.21824736421E+02  0.29609168989E+02  0.20009591909E+02 0.  0.
        -11    1    3    3    0    0  0.31086956742E+00 -0.99975943020E+01 -0.11234566678E+02  0.15042075004E+02  0.51100000000E-03 0. -1.
         11    1    3    3    0    0 -0.31086956742E+00  0.99975943020E+01 -0.10590169743E+02  0.14567093985E+02  0.51100000000E-03 0.  1.
<mgrwt>
<rscale>  0 0.20009592E+02</rscale>
<asrwt>0</asrwt>
<pdfrwt beam="1">  1        1 0.59880252E-03 0.20009592E+02</pdfrwt>
<pdfrwt beam="2">  1       -1 0.39564542E-02 0.20009592E+02</pdfrwt>
<totfact> 0.36827973E+06</totfact>
</mgrwt>
</event>
<event>
 5    1  0.9583198E-007  0.2000034E+02  0.7818608E-02  0.1745321E+00
          1   -1    0    0  501    0  0.00000000000E+00  0.00000000000E+00  0.13806504118E+01  0.13806583098E+01  0.46700000000E-02 0. -1.
         -1   -1    0    0    0  501 -0.00000000000E+00 -0.00000000000E+00 -0.72431895153E+02  0.72431895304E+02  0.46700000000E-02 0.  1.
       1023    2    1    2    0    0  0.00000000000E+00  0.00000000000E+00 -0.71051244741E+02  0.73812553614E+02  0.20000342289E+02 0.  0.
        -11    1    3    3    0    0  0.85010069478E+01  0.52664666524E+01 -0.35432804343E+02  0.36816931078E+02  0.51100000000E-03 0.  1.
         11    1    3    3    0    0 -0.85010069478E+01 -0.52664666524E+01 -0.35618440398E+02  0.36995622535E+02  0.51100000000E-03 0. -1.
<mgrwt>
<rscale>  0 0.20000342E+02</rscale>
<asrwt>0</asrwt>
<pdfrwt beam="1">  1        1 0.21240843E-03 0.20000342E+02</pdfrwt>
<pdfrwt beam="2">  1       -1 0.11143366E-01 0.20000342E+02</pdfrwt>
<totfact> 0.33448519E+06</totfact>
</mgrwt>
</event>
<event>
 5    1  0.9583198E-007  0.2000350E+02  0.7818608E-02  0.1745258E+00
         -1   -1    0    0    0  501 -0.00000000000E+00  0.00000000000E+00  0.10846419631E+01  0.10846520165E+01  0.46700000000E-02 0.  1.
          1   -1    0    0  501    0  0.00000000000E+00 -0.00000000000E+00 -0.92228187608E+02  0.92228187726E+02  0.46700000000E-02 0. -1.
       1023    2    1    2    0    0  0.00000000000E+00  0.00000000000E+00 -0.91143545645E+02  0.93312839743E+02  0.20003503397E+02 0.  0.
        -11    1    3    3    0    0  0.71224074119E+01 -0.70214722050E+01 -0.45232889884E+02  0.46325415128E+02  0.51100000000E-03 0. -1.
         11    1    3    3    0    0 -0.71224074119E+01  0.70214722050E+01 -0.45910655761E+02  0.46987424615E+02  0.51100000000E-03 0.  1.
<mgrwt>
<rscale>  0 0.20003503E+02</rscale>
<asrwt>0</asrwt>
<pdfrwt beam="2">  1        1 0.14188947E-01 0.20003503E+02</pdfrwt>
<pdfrwt beam="1">  1       -1 0.16686885E-03 0.20003503E+02</pdfrwt>
<totfact> 0.43962017E+06</totfact>
</mgrwt>
</event>
<event>
 5    1  0.9583198E-007  0.2000949E+02  0.7818608E-02  0.1745139E+00
         -1   -1    0    0    0  501 -0.00000000000E+00  0.00000000000E+00  0.92268406293E+01  0.92268418111E+01  0.46700000000E-02 0. -1.
          1   -1    0    0  501    0  0.00000000000E+00 -0.00000000000E+00 -0.10848229016E+02  0.10848230021E+02  0.46700000000E-02 0.  1.
       1023    2    1    2    0    0  0.00000000000E+00  0.00000000000E+00 -0.16213883865E+01  0.20075071832E+02  0.20009487969E+02 0.  0.
        -11    1    3    3    0    0 -0.97137331671E+01  0.23811887454E+01 -0.54862922629E+00  0.10016369910E+02  0.51100000000E-03 0. -1.
         11    1    3    3    0    0  0.97137331671E+01 -0.23811887454E+01 -0.10727591602E+01  0.10058701922E+02  0.51100000000E-03 0.  1.
<mgrwt>
<rscale>  0 0.20009488E+02</rscale>
<asrwt>0</asrwt>
<pdfrwt beam="2">  1        1 0.16689585E-02 0.20009488E+02</pdfrwt>
<pdfrwt beam="1">  1       -1 0.14195141E-02 0.20009488E+02</pdfrwt>
<totfact> 0.38707853E+06</totfact>
</mgrwt>
</event>
<event>
 5    1  0.9830545E-007  0.2000093E+02  0.7818608E-02  0.1745310E+00
         -1   -1    0    0    0  501 -0.00000000000E+00  0.00000000000E+00  0.26997210456E+01  0.26997250847E+01  0.46700000000E-02 0.  1.
          1   -1    0    0  501    0  0.00000000000E+00 -0.00000000000E+00 -0.37044279755E+02  0.37044280049E+02  0.46700000000E-02 0. -1.
       1023    2    1    2    0    0  0.00000000000E+00  0.00000000000E+00 -0.34344558709E+02  0.39744005134E+02  0.20000930757E+02 0.  0.
        -11    1    3    3    0    0  0.43024117762E+01  0.90275837672E+01 -0.17100860588E+02  0.19810286441E+02  0.51100000000E-03 0. -1.
         11    1    3    3    0    0 -0.43024117762E+01 -0.90275837672E+01 -0.17243698121E+02  0.19933718692E+02  0.51100000000E-03 0.  1.
<mgrwt>
<rscale>  0 0.20000931E+02</rscale>
<asrwt>0</asrwt>
<pdfrwt beam="2">  1        1 0.56991199E-02 0.20000931E+02</pdfrwt>
<pdfrwt beam="1">  1       -1 0.41534206E-03 0.20000931E+02</pdfrwt>
<totfact> 0.40919177E+06</totfact>
</mgrwt>
</event>
<event>
 5    1  0.9583198E-007  0.2000058E+02  0.7818608E-02  0.1745317E+00
          1   -1    0    0  501    0  0.00000000000E+00  0.00000000000E+00  0.37112012509E+02  0.37112012802E+02  0.46700000000E-02 0. -1.
         -1   -1    0    0    0  501 -0.00000000000E+00 -0.00000000000E+00 -0.26946992995E+01  0.26947033462E+01  0.46700000000E-02 0.  1.
       1023    2    1    2    0    0  0.00000000000E+00  0.00000000000E+00  0.34417313209E+02  0.39806716148E+02  0.20000580042E+02 0.  0.
        -11    1    3    3    0    0  0.97832152853E+01 -0.20723139628E+01  0.17216039608E+02  0.19909741498E+02  0.51100000000E-03 0. -1.
         11    1    3    3    0    0 -0.97832152853E+01  0.20723139628E+01  0.17201273601E+02  0.19896974650E+02  0.51100000000E-03 0.  1.
<mgrwt>
<rscale>  0 0.20000580E+02</rscale>
<asrwt>0</asrwt>
<pdfrwt beam="1">  1        1 0.57095404E-02 0.20000580E+02</pdfrwt>
<pdfrwt beam="2">  1       -1 0.41456948E-03 0.20000580E+02</pdfrwt>
<totfact> 0.40925111E+06</totfact>
</mgrwt>
</event>
<event>
 5    1  0.9583198E-007  0.2000063E+02  0.7818608E-02  0.1745315E+00
         -1   -1    0    0    0  501 -0.00000000000E+00  0.00000000000E+00  0.32640575723E+02  0.32640576057E+02  0.46700000000E-02 0.  1.
          1   -1    0    0  501    0  0.00000000000E+00 -0.00000000000E+00 -0.30638632163E+01  0.30638667754E+01  0.46700000000E-02 0. -1.
       1023    2    1    2    0    0  0.00000000000E+00  0.00000000000E+00  0.29576712507E+02  0.35704442833E+02  0.20000632872E+02 0.  0.
        -11    1    3    3    0    0  0.65038579839E+01 -0.75964413037E+01  0.14760735013E+02  0.17829340637E+02  0.51100000000E-03 0. -1.
         11    1    3    3    0    0 -0.65038579839E+01  0.75964413037E+01  0.14815977494E+02  0.17875102196E+02  0.51100000000E-03 0.  1.
<mgrwt>
<rscale>  0 0.20000633E+02</rscale>
<asrwt>0</asrwt>
<pdfrwt beam="2">  1        1 0.47136390E-03 0.20000633E+02</pdfrwt>
<pdfrwt beam="1">  1       -1 0.50216270E-02 0.20000633E+02</pdfrwt>
<totfact> 0.36259724E+06</totfact>
</mgrwt>
</event>
<event>
 5    1  0.9868523E-007  0.2000075E+02  0.7818608E-02  0.1745313E+00
          1   -1    0    0  501    0  0.00000000000E+00  0.00000000000E+00  0.97661531812E+02  0.97661531923E+02  0.46700000000E-02 0.  1.
         -1   -1    0    0    0  501 -0.00000000000E+00 -0.00000000000E+00 -0.10240158609E+01  0.10240265095E+01  0.46700000000E-02 0. -1.
       1023    2    1    2    0    0  0.00000000000E+00  0.00000000000E+00  0.96637515951E+02  0.98685558433E+02  0.20000748837E+02 0.  0.
        -11    1    3    3    0    0  0.89288586619E+01  0.45035421439E+01  0.48156651692E+02  0.49184037159E+02  0.51100000000E-03 0. -1.
         11    1    3    3    0    0 -0.89288586619E+01 -0.45035421439E+01  0.48480864259E+02  0.49501521273E+02  0.51100000000E-03 0.  1.
<mgrwt>
<rscale>  0 0.20000749E+02</rscale>
<asrwt>0</asrwt>
<pdfrwt beam="1">  1        1 0.15024849E-01 0.20000749E+02</pdfrwt>
<pdfrwt beam="2">  1       -1 0.15754176E-03 0.20000749E+02</pdfrwt>
<totfact> 0.44243167E+06</totfact>
</mgrwt>
</event>
<event>
 5    1  0.9583198E-007  0.2000051E+02  0.7818608E-02  0.1745318E+00
         -1   -1    0    0    0  501 -0.00000000000E+00  0.00000000000E+00  0.11343854144E+03  0.11343854154E+03  0.46700000000E-02 0. -1.
          1   -1    0    0  501    0  0.00000000000E+00 -0.00000000000E+00 -0.88157360526E+00  0.88158597448E+00  0.46700000000E-02 0.  1.
       1023    2    1    2    0    0  0.00000000000E+00  0.00000000000E+00  0.11255696784E+03  0.11432012751E+03  0.20000513641E+02 0.  0.
        -11    1    3    3    0    0  0.83793292773E+01  0.54579946044E+01  0.56006036059E+02  0.56891817861E+02  0.51100000000E-03 0. -1.
         11    1    3    3    0    0 -0.83793292773E+01 -0.54579946044E+01  0.56550931779E+02  0.57428309653E+02  0.51100000000E-03 0.  1.
<mgrwt>
<rscale>  0 0.20000514E+02</rscale>
<asrwt>0</asrwt>
<pdfrwt beam="2">  1        1 0.13562776E-03 0.20000514E+02</pdfrwt>
<pdfrwt beam="1">  1       -1 0.17452072E-01 0.20000514E+02</pdfrwt>
<totfact> 0.31163926E+06</totfact>
</mgrwt>
</event>
<event>
 5    1  0.9583198E-007  0.2000055E+02  0.7818608E-02  0.1745317E+00
         -1   -1    0    0    0  501 -0.00000000000E+00  0.00000000000E+00  0.92359020269E+02  0.92359020387E+02  0.46700000000E-02 0. -1.
          1   -1    0    0  501    0  0.00000000000E+00 -0.00000000000E+00 -0.10827861791E+01  0.10827962498E+01  0.46700000000E-02 0.  1.
       1023    2    1    2    0    0  0.00000000000E+00  0.00000000000E+00  0.91276234089E+02  0.93441816637E+02  0.20000554662E+02 0.  0.
        -11    1    3    3    0    0 -0.99282762245E+01 -0.11978635757E+01  0.45641408513E+02  0.46724123504E+02  0.51100000000E-03 0.  1.
         11    1    3    3    0    0  0.99282762245E+01  0.11978635757E+01  0.45634825577E+02  0.46717693133E+02  0.51100000000E-03 0. -1.
<mgrwt>
<rscale>  0 0.20000555E+02</rscale>
<asrwt>0</asrwt>
<pdfrwt beam="2">  1        1 0.16658326E-03 0.20000555E+02</pdfrwt>
<pdfrwt beam="1">  1       -1 0.14209082E-01 0.20000555E+02</pdfrwt>
<totfact> 0.32283312E+06</totfact>
</mgrwt>
</event>
<event>
 5    1  0.9583198E-007  0.2000082E+02  0.7818608E-02  0.1745312E+00
         -1   -1    0    0    0  501 -0.00000000000E+00  0.00000000000E+00  0.59833118970E+02  0.59833119152E+02  0.46700000000E-02 0. -1.
          1   -1    0    0  501    0  0.00000000000E+00 -0.00000000000E+00 -0.16714492592E+01  0.16714557831E+01  0.46700000000E-02 0.  1.
       1023    2    1    2    0    0  0.00000000000E+00  0.00000000000E+00  0.58161669711E+02  0.61504574935E+02  0.20000822844E+02 0.  0.
        -11    1    3    3    0    0  0.19918901962E+01  0.97997630200E+01  0.28858095866E+02  0.30541654819E+02  0.51100000000E-03 0.  1.
         11    1    3    3    0    0 -0.19918901962E+01 -0.97997630200E+01  0.29303573844E+02  0.30962920116E+02  0.51100000000E-03 0. -1.
<mgrwt>
<rscale>  0 0.20000823E+02</rscale>
<asrwt>0</asrwt>
<pdfrwt beam="2">  1        1 0.25714659E-03 0.20000823E+02</pdfrwt>
<pdfrwt beam="1">  1       -1 0.92050944E-02 0.20000823E+02</pdfrwt>
<totfact> 0.34251171E+06</totfact>
</mgrwt>
</event>
<event>
 5    1  0.9583198E-007  0.2000037E+02  0.7818608E-02  0.1745321E+00
          1   -1    0    0  501    0  0.00000000000E+00  0.00000000000E+00  0.52025828212E+02  0.52025828422E+02  0.46700000000E-02 0.  1.
         -1   -1    0    0    0  501 -0.00000000000E+00 -0.00000000000E+00 -0.19221899534E+01  0.19221956264E+01  0.46700000000E-02 0. -1.
       1023    2    1    2    0    0  0.00000000000E+00  0.00000000000E+00  0.50103638259E+02  0.53948024048E+02  0.20000368295E+02 0.  0.
        -11    1    3    3    0    0  0.91006822656E+01 -0.41449805584E+01  0.24997791670E+02  0.26923834611E+02  0.51100000000E-03 0. -1.
         11    1    3    3    0    0 -0.91006822656E+01  0.41449805584E+01  0.25105846589E+02  0.27024189437E+02  0.51100000000E-03 0.  1.
<mgrwt>
<rscale>  0 0.20000368E+02</rscale>
<asrwt>0</asrwt>
<pdfrwt beam="1">  1        1 0.80039749E-02 0.20000368E+02</pdfrwt>
<pdfrwt beam="2">  1       -1 0.29572195E-03 0.20000368E+02</pdfrwt>
<totfact> 0.41831241E+06</totfact>
</mgrwt>
</event>
<event>
 5    1  0.9583198E-007  0.2000283E+02  0.7818608E-02  0.1745272E+00
         -1   -1    0    0    0  501 -0.00000000000E+00  0.00000000000E+00  0.50762163253E+02  0.50762163468E+02  0.46700000000E-02 0.  1.
          1   -1    0    0  501    0  0.00000000000E+00 -0.00000000000E+00 -0.19705262023E+01  0.19705317361E+01  0.46700000000E-02 0. -1.
       1023    2    1    2    0    0  0.00000000000E+00  0.00000000000E+00  0.48791637051E+02  0.52732695204E+02  0.20002832234E+02 0.  0.
        -11    1    3    3    0    0 -0.98605662624E+01  0.16660566812E+01  0.24785166806E+02  0.26726597347E+02  0.51100000000E-03 0. -1.
         11    1    3    3    0    0  0.98605662624E+01 -0.16660566812E+01  0.24006470245E+02  0.26006097857E+02  0.51100000000E-03 0.  1.
<mgrwt>
<rscale>  0 0.20002832E+02</rscale>
<asrwt>0</asrwt>
<pdfrwt beam="2">  1        1 0.30315829E-03 0.20002832E+02</pdfrwt>
<pdfrwt beam="1">  1       -1 0.78095648E-02 0.20002832E+02</pdfrwt>
<totfact> 0.34864672E+06</totfact>
</mgrwt>
</event>
<event>
 5    1  0.1019974E-006  0.2000133E+02  0.7818608E-02  0.1745302E+00
         -1   -1    0    0    0  501 -0.00000000000E+00  0.00000000000E+00  0.50856970319E+01  0.50856991760E+01  0.46700000000E-02 0.  1.
          1   -1    0    0  501    0  0.00000000000E+00 -0.00000000000E+00 -0.19665587793E+02  0.19665588347E+02  0.46700000000E-02 0. -1.
       1023    2    1    2    0    0  0.00000000000E+00  0.00000000000E+00 -0.14579890761E+02  0.24751287523E+02  0.20001325443E+02 0.  0.
        -11    1    3    3    0    0 -0.81076399367E+01  0.58546430138E+01 -0.73528557848E+01  0.12412701504E+02  0.51100000000E-03 0. -1.
         11    1    3    3    0    0  0.81076399367E+01 -0.58546430138E+01 -0.72270349762E+01  0.12338586020E+02  0.51100000000E-03 0.  1.
<mgrwt>
<rscale>  0 0.20001325E+02</rscale>
<asrwt>0</asrwt>
<pdfrwt beam="2">  1        1 0.30254752E-02 0.20001325E+02</pdfrwt>
<pdfrwt beam="1">  1       -1 0.78241514E-03 0.20001325E+02</pdfrwt>
<totfact> 0.39671825E+06</totfact>
</mgrwt>
</event>
<event>
 5    1  0.9583198E-007  0.2000177E+02  0.7818608E-02  0.1745293E+00
         -1   -1    0    0    0  501 -0.00000000000E+00  0.00000000000E+00  0.41911497486E+02  0.41911497746E+02  0.46700000000E-02 0. -1.
          1   -1    0    0  501    0  0.00000000000E+00 -0.00000000000E+00 -0.23863996859E+01  0.23864042553E+01  0.46700000000E-02 0.  1.
       1023    2    1    2    0    0  0.00000000000E+00  0.00000000000E+00  0.39525097800E+02  0.44297902001E+02  0.20001769062E+02 0.  0.
        -11    1    3    3    0    0 -0.64993151409E+01 -0.76008487368E+01  0.19897123966E+02  0.22269026499E+02  0.51100000000E-03 0. -1.
         11    1    3    3    0    0  0.64993151409E+01  0.76008487368E+01  0.19627973834E+02  0.22028875503E+02  0.51100000000E-03 0.  1.
<mgrwt>
<rscale>  0 0.20001769E+02</rscale>
<asrwt>0</asrwt>
<pdfrwt beam="2">  1        1 0.36713879E-03 0.20001769E+02</pdfrwt>
<pdfrwt beam="1">  1       -1 0.64479230E-02 0.20001769E+02</pdfrwt>
<totfact> 0.35517501E+06</totfact>
</mgrwt>
</event>
<event>
 4    1  0.9583198E-007  0.2028445E+02  0.7818608E-02  0.1739730E+00
          1   -1    0    0  501    0  0.00000000000E+00  0.00000000000E+00  0.20942213992E+02  0.20942214512E+02  0.46700000000E-02 0.  1.
         -1   -1    0    0    0  501 -0.00000000000E+00 -0.00000000000E+00 -0.49118357170E+01  0.49118379371E+01  0.46700000000E-02 0. -1.
        -11    1    1    2    0    0  0.67198818421E+01  0.75906325378E+01  0.76323166341E+01  0.12689632452E+02  0.51100000000E-03 0. -1.
         11    1    1    2    0    0 -0.67198818421E+01 -0.75906325378E+01  0.83980616404E+01  0.13164419998E+02  0.51100000000E-03 0.  1.
<mgrwt>
<rscale>  0 0.20284452E+02</rscale>
<asrwt>0</asrwt>
<pdfrwt beam="1">  1        1 0.32218793E-02 0.20284452E+02</pdfrwt>
<pdfrwt beam="2">  1       -1 0.75566724E-03 0.20284452E+02</pdfrwt>
<totfact> 0.38542299E+06</totfact>
</mgrwt>
</event>
<event>
 5    1  0.1002693E-006  0.2000208E+02  0.7818608E-02  0.1745287E+00
         -1   -1    0    0    0  501 -0.00000000000E+00  0.00000000000E+00  0.12401356344E+01  0.12401444273E+01  0.46700000000E-02 0.  1.
          1   -1    0    0  501    0  0.00000000000E+00 -0.00000000000E+00 -0.80652805485E+02  0.80652805620E+02  0.46700000000E-02 0. -1.
       1023    2    1    2    0    0  0.00000000000E+00  0.00000000000E+00 -0.79412669850E+02  0.81892950047E+02  0.20002078259E+02 0.  0.
        -11    1    3    3    0    0 -0.21874467887E+01 -0.97588104158E+01 -0.39548868460E+02  0.40793777723E+02  0.51100000000E-03 0. -1.
         11    1    3    3    0    0  0.21874467887E+01  0.97588104158E+01 -0.39863801390E+02  0.41099172324E+02  0.51100000000E-03 0.  1.
<mgrwt>
<rscale>  0 0.20002078E+02</rscale>
<asrwt>0</asrwt>
<pdfrwt beam="2">  1        1 0.12408121E-01 0.20002078E+02</pdfrwt>
<pdfrwt beam="1">  1       -1 0.19079085E-03 0.20002078E+02</pdfrwt>
<totfact> 0.43383090E+06</totfact>
</mgrwt>
</event>
<event>
 5    1  0.9583198E-007  0.2000297E+02  0.7818608E-02  0.1745269E+00
          1   -1    0    0  501    0  0.00000000000E+00  0.00000000000E+00  0.88741161310E+02  0.88741161433E+02  0.46700000000E-02 0.  1.
         -1   -1    0    0    0  501 -0.00000000000E+00 -0.00000000000E+00 -0.11272027937E+01  0.11272124676E+01  0.46700000000E-02 0. -1.
       1023    2    1    2    0    0  0.00000000000E+00  0.00000000000E+00  0.87613958517E+02  0.89868373901E+02  0.20002972295E+02 0.  0.
        -11    1    3    3    0    0 -0.16743844563E+01  0.98602719818E+01  0.43962484993E+02  0.45085791708E+02  0.51100000000E-03 0. -1.
         11    1    3    3    0    0  0.16743844563E+01 -0.98602719818E+01  0.43651473524E+02  0.44782582193E+02  0.51100000000E-03 0.  1.
<mgrwt>
<rscale>  0 0.20002972E+02</rscale>
<asrwt>0</asrwt>
<pdfrwt beam="1">  1        1 0.13652491E-01 0.20002972E+02</pdfrwt>
<pdfrwt beam="2">  1       -1 0.17341652E-03 0.20002972E+02</pdfrwt>
<totfact> 0.43790307E+06</totfact>
</mgrwt>
</event>
<event>
 5    1  0.9583198E-007  0.2000065E+02  0.7818608E-02  0.1745315E+00
          1   -1    0    0  501    0  0.00000000000E+00  0.00000000000E+00  0.65569999935E+01  0.65570016565E+01  0.46700000000E-02 0. -1.
         -1   -1    0    0    0  501 -0.00000000000E+00 -0.00000000000E+00 -0.15251868176E+02  0.15251868891E+02  0.46700000000E-02 0.  1.
       1023    2    1    2    0    0  0.00000000000E+00  0.00000000000E+00 -0.86948681829E+01  0.21808870548E+02  0.20000652536E+02 0.  0.
        -11    1    3    3    0    0  0.46564307201E+01 -0.88500909791E+01 -0.43384547924E+01  0.10900855363E+02  0.51100000000E-03 0. -1.
         11    1    3    3    0    0 -0.46564307201E+01  0.88500909791E+01 -0.43564133905E+01  0.10908015185E+02  0.51100000000E-03 0.  1.
<mgrwt>
<rscale>  0 0.20000653E+02</rscale>
<asrwt>0</asrwt>
<pdfrwt beam="1">  1        1 0.10087694E-02 0.20000653E+02</pdfrwt>
<pdfrwt beam="2">  1       -1 0.23464414E-02 0.20000653E+02</pdfrwt>
<totfact> 0.37927724E+06</totfact>
</mgrwt>
</event>
<event>
 5    1  0.9626170E-007  0.2000053E+02  0.7818608E-02  0.1745318E+00
         -1   -1    0    0    0  501 -0.00000000000E+00  0.00000000000E+00  0.15811077009E+01  0.15811145976E+01  0.46700000000E-02 0.  1.
          1   -1    0    0  501    0  0.00000000000E+00 -0.00000000000E+00 -0.63249991803E+02  0.63249991975E+02  0.46700000000E-02 0. -1.
       1023    2    1    2    0    0  0.00000000000E+00  0.00000000000E+00 -0.61668884102E+02  0.64831106573E+02  0.20000527820E+02 0.  0.
        -11    1    3    3    0    0 -0.96752699373E+01 -0.25286788529E+01 -0.30787144343E+02  0.32370562587E+02  0.51100000000E-03 0. -1.
         11    1    3    3    0    0  0.96752699373E+01  0.25286788529E+01 -0.30881739758E+02  0.32460543986E+02  0.51100000000E-03 0.  1.
<mgrwt>
<rscale>  0 0.20000528E+02</rscale>
<asrwt>0</asrwt>
<pdfrwt beam="2">  1        1 0.97307665E-02 0.20000528E+02</pdfrwt>
<pdfrwt beam="1">  1       -1 0.24324793E-03 0.20000528E+02</pdfrwt>
<totfact> 0.42464516E+06</totfact>
</mgrwt>
</event>
<event>
 5    1  0.9583198E-007  0.2000972E+02  0.7818608E-02  0.1745135E+00
         -1   -1    0    0    0  501 -0.00000000000E+00  0.00000000000E+00  0.54797768200E+02  0.54797768399E+02  0.46700000000E-02 0.  1.
          1   -1    0    0  501    0  0.00000000000E+00 -0.00000000000E+00 -0.18266632032E+01  0.18266691728E+01  0.46700000000E-02 0. -1.
       1023    2    1    2    0    0  0.00000000000E+00  0.00000000000E+00  0.52971104997E+02  0.56624437572E+02  0.20009721781E+02 0.  0.
        -11    1    3    3    0    0  0.52887994527E+01 -0.84926529685E+01  0.26411375921E+02  0.28242827982E+02  0.51100000000E-03 0.  1.
         11    1    3    3    0    0 -0.52887994527E+01  0.84926529685E+01  0.26559729076E+02  0.28381609590E+02  0.51100000000E-03 0. -1.
<mgrwt>
<rscale>  0 0.20009722E+02</rscale>
<asrwt>0</asrwt>
<pdfrwt beam="2">  1        1 0.28102562E-03 0.20009722E+02</pdfrwt>
<pdfrwt beam="1">  1       -1 0.84304252E-02 0.20009722E+02</pdfrwt>
<totfact> 0.34557308E+06</totfact>
</mgrwt>
</event>
<event>
 5    1  0.9583198E-007  0.2000125E+02  0.7818608E-02  0.1745303E+00
         -1   -1    0    0    0  501 -0.00000000000E+00  0.00000000000E+00  0.35902366578E+02  0.35902366881E+02  0.46700000000E-02 0. -1.
          1   -1    0    0  501    0  0.00000000000E+00 -0.00000000000E+00 -0.27856770851E+01  0.27856809996E+01  0.46700000000E-02 0.  1.
       1023    2    1    2    0    0  0.00000000000E+00  0.00000000000E+00  0.33116689493E+02  0.38688047881E+02  0.20001248108E+02 0.  0.
        -11    1    3    3    0    0  0.99736297429E+01 -0.73346136583E+00  0.16626055372E+02  0.19401983747E+02  0.51100000000E-03 0.  1.
         11    1    3    3    0    0 -0.99736297429E+01  0.73346136583E+00  0.16490634121E+02  0.19286064134E+02  0.51100000000E-03 0. -1.
<mgrwt>
<rscale>  0 0.20001248E+02</rscale>
<asrwt>0</asrwt>
<pdfrwt beam="2">  1        1 0.42856606E-03 0.20001248E+02</pdfrwt>
<pdfrwt beam="1">  1       -1 0.55234410E-02 0.20001248E+02</pdfrwt>
<totfact> 0.35989684E+06</totfact>
</mgrwt>
</event>
<event>
 5    1  0.1000535E-006  0.2000117E+02  0.7818608E-02  0.1745305E+00
          1   -1    0    0  501    0  0.00000000000E+00  0.00000000000E+00  0.26690092318E+02  0.26690092726E+02  0.46700000000E-02 0.  1.
         -1   -1    0    0    0  501 -0.00000000000E+00 -0.00000000000E+00 -0.37471439933E+01  0.37471469034E+01  0.46700000000E-02 0. -1.
       1023    2    1    2    0    0  0.00000000000E+00  0.00000000000E+00  0.22942948325E+02  0.30437239630E+02  0.20001166927E+02 0.  0.
        -11    1    3    3    0    0 -0.55349901716E+01  0.83290689929E+01  0.11400701639E+02  0.15165272982E+02  0.51100000000E-03 0. -1.
         11    1    3    3    0    0  0.55349901716E+01 -0.83290689929E+01  0.11542246685E+02  0.15271966648E+02  0.51100000000E-03 0.  1.
<mgrwt>
<rscale>  0 0.20001167E+02</rscale>
<asrwt>0</asrwt>
<pdfrwt beam="1">  1        1 0.41061681E-02 0.20001167E+02</pdfrwt>
<pdfrwt beam="2">  1       -1 0.57648397E-03 0.20001167E+02</pdfrwt>
<totfact> 0.40218100E+06</totfact>
</mgrwt>
</event>
<event>
 5    1  0.9822216E-007  0.2000192E+02  0.7818608E-02  0.1745290E+00
          1   -1    0    0  501    0  0.00000000000E+00  0.00000000000E+00  0.77814169591E+02  0.77814169731E+02  0.46700000000E-02 0.  1.
         -1   -1    0    0    0  501 -0.00000000000E+00 -0.00000000000E+00 -0.12853550050E+01  0.12853634886E+01  0.46700000000E-02 0. -1.
       1023    2    1    2    0    0  0.00000000000E+00  0.00000000000E+00  0.76528814586E+02  0.79099533220E+02  0.20001917249E+02 0.  0.
        -11    1    3    3    0    0 -0.49483472415E+01 -0.86907012825E+01  0.38536785410E+02  0.39813292494E+02  0.51100000000E-03 0. -1.
         11    1    3    3    0    0  0.49483472415E+01  0.86907012825E+01  0.37992029176E+02  0.39286240726E+02  0.51100000000E-03 0.  1.
<mgrwt>
<rscale>  0 0.20001917E+02</rscale>
<asrwt>0</asrwt>
<pdfrwt beam="1">  1        1 0.11971413E-01 0.20001917E+02</pdfrwt>
<pdfrwt beam="2">  1       -1 0.19774757E-03 0.20001917E+02</pdfrwt>
<totfact> 0.43237015E+06</totfact>
</mgrwt>
</event>
<event>
 5    1  0.9583198E-007  0.2000035E+02  0.7818608E-02  0.1745321E+00
          1   -1    0    0  501    0  0.00000000000E+00  0.00000000000E+00  0.84773363490E+00  0.84774649786E+00  0.46700000000E-02 0.  1.
         -1   -1    0    0    0  501 -0.00000000000E+00 -0.00000000000E+00 -0.11796480813E+03  0.11796480822E+03  0.46700000000E-02 0. -1.
       1023    2    1    2    0    0  0.00000000000E+00  0.00000000000E+00 -0.11711707449E+03  0.11881255472E+03  0.20000350519E+02 0.  0.
        -11    1    3    3    0    0 -0.81826600351E+01  0.57485243035E+01 -0.58827377198E+02  0.59671280907E+02  0.51100000000E-03 0. -1.
         11    1    3    3    0    0  0.81826600351E+01 -0.57485243035E+01 -0.58289697297E+02  0.59141273813E+02  0.51100000000E-03 0.  1.
<mgrwt>
<rscale>  0 0.20000351E+02</rscale>
<asrwt>0</asrwt>
<pdfrwt beam="1">  1        1 0.13042165E-03 0.20000351E+02</pdfrwt>
<pdfrwt beam="2">  1       -1 0.18148420E-01 0.20000351E+02</pdfrwt>
<totfact> 0.30936522E+06</totfact>
</mgrwt>
</event>
<event>
 5    1  0.9991352E-007  0.2000066E+02  0.7818608E-02  0.1745315E+00
          1   -1    0    0  501    0  0.00000000000E+00  0.00000000000E+00  0.25652818538E+02  0.25652818963E+02  0.46700000000E-02 0. -1.
         -1   -1    0    0    0  501 -0.00000000000E+00 -0.00000000000E+00 -0.38984613422E+01  0.38984641394E+01  0.46700000000E-02 0.  1.
       1023    2    1    2    0    0  0.00000000000E+00  0.00000000000E+00  0.21754357196E+02  0.29551283103E+02  0.20000656889E+02 0.  0.
        -11    1    3    3    0    0 -0.79285523071E+01 -0.60944937450E+01  0.10939393181E+02  0.14821441196E+02  0.51100000000E-03 0.  1.
         11    1    3    3    0    0  0.79285523071E+01  0.60944937450E+01  0.10814964015E+02  0.14729841907E+02  0.51100000000E-03 0. -1.
<mgrwt>
<rscale>  0 0.20000657E+02</rscale>
<asrwt>0</asrwt>
<pdfrwt beam="1">  1        1 0.39465877E-02 0.20000657E+02</pdfrwt>
<pdfrwt beam="2">  1       -1 0.59976353E-03 0.20000657E+02</pdfrwt>
<totfact> 0.40144724E+06</totfact>
</mgrwt>
</event>
<event>
 5    1  0.9583198E-007  0.2000006E+02  0.7818608E-02  0.1745327E+00
         -1   -1    0    0    0  501 -0.00000000000E+00  0.00000000000E+00  0.13469039727E+01  0.13469120686E+01  0.46700000000E-02 0.  1.
          1   -1    0    0  501    0  0.00000000000E+00 -0.00000000000E+00 -0.74244523149E+02  0.74244523296E+02  0.46700000000E-02 0. -1.
       1023    2    1    2    0    0  0.00000000000E+00  0.00000000000E+00 -0.72897619176E+02  0.75591435364E+02  0.20000055472E+02 0.  0.
        -11    1    3    3    0    0  0.99610103195E+01 -0.88227015103E+00 -0.36370685539E+02  0.37720377703E+02  0.51100000000E-03 0.  1.
         11    1    3    3    0    0 -0.99610103195E+01  0.88227015103E+00 -0.36526933637E+02  0.37871057661E+02  0.51100000000E-03 0. -1.
<mgrwt>
<rscale>  0 0.20000055E+02</rscale>
<asrwt>0</asrwt>
<pdfrwt beam="2">  1        1 0.11422232E-01 0.20000055E+02</pdfrwt>
<pdfrwt beam="1">  1       -1 0.20721669E-03 0.20000055E+02</pdfrwt>
<totfact> 0.43059106E+06</totfact>
</mgrwt>
</event>
<event>
 5    1  0.9583198E-007  0.2000033E+02  0.7818608E-02  0.1745321E+00
         -1   -1    0    0    0  501 -0.00000000000E+00  0.00000000000E+00  0.32631104358E+02  0.32631104692E+02  0.46700000000E-02 0.  1.
          1   -1    0    0  501    0  0.00000000000E+00 -0.00000000000E+00 -0.30646600644E+01  0.30646636225E+01  0.46700000000E-02 0. -1.
       1023    2    1    2    0    0  0.00000000000E+00  0.00000000000E+00  0.29566444293E+02  0.35695768314E+02  0.20000331182E+02 0.  0.
        -11    1    3    3    0    0  0.47566348449E+01  0.87964102021E+01  0.14836886690E+02  0.17892333957E+02  0.51100000000E-03 0. -1.
         11    1    3    3    0    0 -0.47566348449E+01 -0.87964102021E+01  0.14729557603E+02  0.17803434358E+02  0.51100000000E-03 0.  1.
<mgrwt>
<rscale>  0 0.20000331E+02</rscale>
<asrwt>0</asrwt>
<pdfrwt beam="2">  1        1 0.47148649E-03 0.20000331E+02</pdfrwt>
<pdfrwt beam="1">  1       -1 0.50201700E-02 0.20000331E+02</pdfrwt>
<totfact> 0.36261718E+06</totfact>
</mgrwt>
</event>
<event>
 5    1  0.9583198E-007  0.2000037E+02  0.7818608E-02  0.1745321E+00
         -1   -1    0    0    0  501 -0.00000000000E+00  0.00000000000E+00  0.34867870169E+01  0.34867901442E+01  0.46700000000E-02 0. -1.
          1   -1    0    0  501    0  0.00000000000E+00 -0.00000000000E+00 -0.28680736436E+02  0.28680736816E+02  0.46700000000E-02 0.  1.
       1023    2    1    2    0    0  0.00000000000E+00  0.00000000000E+00 -0.25193949419E+02  0.32167526961E+02  0.20000367582E+02 0.  0.
        -11    1    3    3    0    0  0.62996769331E+00  0.99802631332E+01 -0.12651849546E+02  0.16126742036E+02  0.51100000000E-03 0.  1.
         11    1    3    3    0    0 -0.62996769331E+00 -0.99802631332E+01 -0.12542099874E+02  0.16040784925E+02  0.51100000000E-03 0. -1.
<mgrwt>
<rscale>  0 0.20000368E+02</rscale>
<asrwt>0</asrwt>
<pdfrwt beam="2">  1        1 0.44124211E-02 0.20000368E+02</pdfrwt>
<pdfrwt beam="1">  1       -1 0.53642906E-03 0.20000368E+02</pdfrwt>
<totfact> 0.40363370E+06</totfact>
</mgrwt>
</event>
<event>
 5    1  0.1017029E-006  0.2000164E+02  0.7818608E-02  0.1745295E+00
         -1   -1    0    0    0  501 -0.00000000000E+00  0.00000000000E+00  0.12867614201E+01  0.12867698944E+01  0.46700000000E-02 0.  1.
          1   -1    0    0  501    0  0.00000000000E+00 -0.00000000000E+00 -0.77726958847E+02  0.77726958988E+02  0.46700000000E-02 0. -1.
       1023    2    1    2    0    0  0.00000000000E+00  0.00000000000E+00 -0.76440197427E+02  0.79013728882E+02  0.20001639161E+02 0.  0.
        -11    1    3    3    0    0  0.16896698557E+01  0.98570326753E+01 -0.38150027289E+02  0.39439075291E+02  0.51100000000E-03 0.  1.
         11    1    3    3    0    0 -0.16896698557E+01 -0.98570326753E+01 -0.38290170138E+02  0.39574653591E+02  0.51100000000E-03 0. -1.
<mgrwt>
<rscale>  0 0.20001639E+02</rscale>
<asrwt>0</asrwt>
<pdfrwt beam="2">  1        1 0.11957991E-01 0.20001639E+02</pdfrwt>
<pdfrwt beam="1">  1       -1 0.19796402E-03 0.20001639E+02</pdfrwt>
<totfact> 0.43233808E+06</totfact>
</mgrwt>
</event>
<event>
 5    1  0.9583198E-007  0.2000323E+02  0.7818608E-02  0.1745264E+00
          1   -1    0    0  501    0  0.00000000000E+00  0.00000000000E+00  0.18089505451E+02  0.18089506054E+02  0.46700000000E-02 0. -1.
         -1   -1    0    0    0  501 -0.00000000000E+00 -0.00000000000E+00 -0.55298527128E+01  0.55298546847E+01  0.46700000000E-02 0.  1.
       1023    2    1    2    0    0  0.00000000000E+00  0.00000000000E+00  0.12559652738E+02  0.23619360739E+02  0.20003232859E+02 0.  0.
        -11    1    3    3    0    0  0.86267717240E+01  0.50607448003E+01  0.62779130508E+01  0.11808662958E+02  0.51100000000E-03 0. -1.
         11    1    3    3    0    0 -0.86267717240E+01 -0.50607448003E+01  0.62817396875E+01  0.11810697781E+02  0.51100000000E-03 0.  1.
<mgrwt>
<rscale>  0 0.20003233E+02</rscale>
<asrwt>0</asrwt>
<pdfrwt beam="1">  1        1 0.27830010E-02 0.20003233E+02</pdfrwt>
<pdfrwt beam="2">  1       -1 0.85074678E-03 0.20003233E+02</pdfrwt>
<totfact> 0.39526161E+06</totfact>
</mgrwt>
</event>
<event>
 5    1  0.9583198E-007  0.2000028E+02  0.7818608E-02  0.1745323E+00
         -1   -1    0    0    0  501 -0.00000000000E+00  0.00000000000E+00  0.59766222465E+01  0.59766240710E+01  0.46700000000E-02 0. -1.
          1   -1    0    0  501    0  0.00000000000E+00 -0.00000000000E+00 -0.16732315523E+02  0.16732316174E+02  0.46700000000E-02 0.  1.
       1023    2    1    2    0    0  0.00000000000E+00  0.00000000000E+00 -0.10755693276E+02  0.22708940245E+02  0.20000275729E+02 0.  0.
        -11    1    3    3    0    0  0.70096249987E+01  0.71321714470E+01 -0.53702407004E+01  0.11350867703E+02  0.51100000000E-03 0.  1.
         11    1    3    3    0    0 -0.70096249987E+01 -0.71321714470E+01 -0.53854525758E+01  0.11358072542E+02  0.51100000000E-03 0. -1.
<mgrwt>
<rscale>  0 0.20000276E+02</rscale>
<asrwt>0</asrwt>
<pdfrwt beam="2">  1        1 0.25742026E-02 0.20000276E+02</pdfrwt>
<pdfrwt beam="1">  1       -1 0.91948054E-03 0.20000276E+02</pdfrwt>
<totfact> 0.39414383E+06</totfact>
</mgrwt>
</event>
<event>
 5    1  0.9982392E-007  0.2000244E+02  0.7818608E-02  0.1745280E+00
          1   -1    0    0  501    0  0.00000000000E+00  0.00000000000E+00  0.95972503973E+02  0.95972504087E+02  0.46700000000E-02 0. -1.
         -1   -1    0    0    0  501 -0.00000000000E+00 -0.00000000000E+00 -0.10422136539E+01  0.10422241167E+01  0.46700000000E-02 0.  1.
       1023    2    1    2    0    0  0.00000000000E+00  0.00000000000E+00  0.94930290320E+02  0.97014728204E+02  0.20002436559E+02 0.  0.
        -11    1    3    3    0    0  0.58359592245E+01  0.81214530861E+01  0.47897502737E+02  0.48930432135E+02  0.51100000000E-03 0. -1.
         11    1    3    3    0    0 -0.58359592245E+01 -0.81214530861E+01  0.47032787583E+02  0.48084296068E+02  0.51100000000E-03 0.  1.
<mgrwt>
<rscale>  0 0.20002437E+02</rscale>
<asrwt>0</asrwt>
<pdfrwt beam="1">  1        1 0.14765004E-01 0.20002437E+02</pdfrwt>
<pdfrwt beam="2">  1       -1 0.16034134E-03 0.20002437E+02</pdfrwt>
<totfact> 0.44152197E+06</totfact>
</mgrwt>
</event>
<event>
 5    1  0.9583198E-007  0.2000080E+02  0.7818608E-02  0.1745312E+00
          1   -1    0    0  501    0  0.00000000000E+00  0.00000000000E+00  0.37017000077E+01  0.37017029535E+01  0.46700000000E-02 0. -1.
         -1   -1    0    0    0  501 -0.00000000000E+00 -0.00000000000E+00 -0.27016762740E+02  0.27016763144E+02  0.46700000000E-02 0.  1.
       1023    2    1    2    0    0  0.00000000000E+00  0.00000000000E+00 -0.23315062732E+02  0.30718466097E+02  0.20000800213E+02 0.  0.
        -11    1    3    3    0    0  0.76782130544E+01 -0.64071946409E+01 -0.11611374974E+02  0.15324200727E+02  0.51100000000E-03 0. -1.
         11    1    3    3    0    0 -0.76782130544E+01  0.64071946409E+01 -0.11703687758E+02  0.15394265370E+02  0.51100000000E-03 0.  1.
<mgrwt>
<rscale>  0 0.20000800E+02</rscale>
<asrwt>0</asrwt>
<pdfrwt beam="1">  1        1 0.56949258E-03 0.20000800E+02</pdfrwt>
<pdfrwt beam="2">  1       -1 0.41564252E-02 0.20000800E+02</pdfrwt>
<totfact> 0.36745889E+06</totfact>
</mgrwt>
</event>
<event>
 5    1  0.9583198E-007  0.2000146E+02  0.7818608E-02  0.1745299E+00
          1   -1    0    0  501    0  0.00000000000E+00  0.00000000000E+00  0.63199682836E+01  0.63199700089E+01  0.46700000000E-02 0. -1.
         -1   -1    0    0    0  501 -0.00000000000E+00 -0.00000000000E+00 -0.15825174881E+02  0.15825175570E+02  0.46700000000E-02 0.  1.
       1023    2    1    2    0    0  0.00000000000E+00  0.00000000000E+00 -0.95052065977E+01  0.22145145579E+02  0.20001462953E+02 0.  0.
        -11    1    3    3    0    0 -0.58380779442E+01  0.81198048815E+01 -0.47352941852E+01  0.11065143319E+02  0.51100000000E-03 0. -1.
         11    1    3    3    0    0  0.58380779442E+01 -0.81198048815E+01 -0.47699124125E+01  0.11080002260E+02  0.51100000000E-03 0.  1.
<mgrwt>
<rscale>  0 0.20001463E+02</rscale>
<asrwt>0</asrwt>
<pdfrwt beam="1">  1        1 0.97230300E-03 0.20001463E+02</pdfrwt>
<pdfrwt beam="2">  1       -1 0.24346425E-02 0.20001463E+02</pdfrwt>
<totfact> 0.37858411E+06</totfact>
</mgrwt>
</event>
<event>
 5    1  0.9583198E-007  0.2000056E+02  0.7818608E-02  0.1745317E+00
         -1   -1    0    0    0  501 -0.00000000000E+00  0.00000000000E+00  0.43259420588E+01  0.43259445795E+01  0.46700000000E-02 0. -1.
          1   -1    0    0  501    0  0.00000000000E+00 -0.00000000000E+00 -0.23117628198E+02  0.23117628669E+02  0.46700000000E-02 0.  1.
       1023    2    1    2    0    0  0.00000000000E+00  0.00000000000E+00 -0.18791686139E+02  0.27443573249E+02  0.20000556110E+02 0.  0.
        -11    1    3    3    0    0 -0.90704902899E+01  0.42108157271E+01 -0.94345980439E+01  0.13748323669E+02  0.51100000000E-03 0. -1.
         11    1    3    3    0    0  0.90704902899E+01 -0.42108157271E+01 -0.93570880948E+01  0.13695249580E+02  0.51100000000E-03 0.  1.
<mgrwt>
<rscale>  0 0.20000556E+02</rscale>
<asrwt>0</asrwt>
<pdfrwt beam="2">  1        1 0.35565584E-02 0.20000556E+02</pdfrwt>
<pdfrwt beam="1">  1       -1 0.66552979E-03 0.20000556E+02</pdfrwt>
<totfact> 0.39954003E+06</totfact>
</mgrwt>
</event>
<event>
 5    1  0.9583198E-007  0.2000016E+02  0.7818608E-02  0.1745325E+00
          1   -1    0    0  501    0  0.00000000000E+00  0.00000000000E+00  0.30299773738E+01  0.30299809727E+01  0.46700000000E-02 0.  1.
         -1   -1    0    0    0  501 -0.00000000000E+00 -0.00000000000E+00 -0.33004059087E+02  0.33004059418E+02  0.46700000000E-02 0. -1.
       1023    2    1    2    0    0  0.00000000000E+00  0.00000000000E+00 -0.29974081714E+02  0.36034040391E+02  0.20000162307E+02 0.  0.
        -11    1    3    3    0    0  0.78950457267E+01  0.61374813820E+01 -0.14924678793E+02  0.17965145758E+02  0.51100000000E-03 0. -1.
         11    1    3    3    0    0 -0.78950457267E+01 -0.61374813820E+01 -0.15049402920E+02  0.18068894633E+02  0.51100000000E-03 0.  1.
<mgrwt>
<rscale>  0 0.20000162E+02</rscale>
<asrwt>0</asrwt>
<pdfrwt beam="1">  1        1 0.46615069E-03 0.20000162E+02</pdfrwt>
<pdfrwt beam="2">  1       -1 0.50775476E-02 0.20000162E+02</pdfrwt>
<totfact> 0.36231283E+06</totfact>
</mgrwt>
</event>
<event>
 5    1  0.9583198E-007  0.2000306E+02  0.7818608E-02  0.1745267E+00
          1   -1    0    0  501    0  0.00000000000E+00  0.00000000000E+00  0.80389980059E+01  0.80389993624E+01  0.46700000000E-02 0. -1.
         -1   -1    0    0    0  501 -0.00000000000E+00 -0.00000000000E+00 -0.12443168931E+02  0.12443169807E+02  0.46700000000E-02 0.  1.
       1023    2    1    2    0    0  0.00000000000E+00  0.00000000000E+00 -0.44041709246E+01  0.20482169169E+02  0.20003063074E+02 0.  0.
        -11    1    3    3    0    0 -0.99126512214E+01  0.13233543132E+01 -0.20620174485E+01  0.10210966511E+02  0.51100000000E-03 0.  1.
         11    1    3    3    0    0  0.99126512214E+01 -0.13233543132E+01 -0.23421534761E+01  0.10271202658E+02  0.51100000000E-03 0. -1.
<mgrwt>
<rscale>  0 0.20003063E+02</rscale>
<asrwt>0</asrwt>
<pdfrwt beam="1">  1        1 0.12367691E-02 0.20003063E+02</pdfrwt>
<pdfrwt beam="2">  1       -1 0.19143339E-02 0.20003063E+02</pdfrwt>
<totfact> 0.38263920E+06</totfact>
</mgrwt>
</event>
<event>
 5    1  0.9583198E-007  0.2000403E+02  0.7818608E-02  0.1745248E+00
          1   -1    0    0  501    0  0.00000000000E+00  0.00000000000E+00  0.15795394738E+02  0.15795395428E+02  0.46700000000E-02 0.  1.
         -1   -1    0    0    0  501 -0.00000000000E+00 -0.00000000000E+00 -0.63335060625E+01  0.63335077843E+01  0.46700000000E-02 0. -1.
       1023    2    1    2    0    0  0.00000000000E+00  0.00000000000E+00  0.94618886755E+01  0.22128903213E+02  0.20004025097E+02 0.  0.
        -11    1    3    3    0    0  0.45217503492E+01 -0.89197420395E+01  0.49295428295E+01  0.11149368459E+02  0.51100000000E-03 0. -1.
         11    1    3    3    0    0 -0.45217503492E+01  0.89197420395E+01  0.45323458460E+01  0.10979534753E+02  0.51100000000E-03 0.  1.
<mgrwt>
<rscale>  0 0.20004025E+02</rscale>
<asrwt>0</asrwt>
<pdfrwt beam="1">  1        1 0.24300609E-02 0.20004025E+02</pdfrwt>
<pdfrwt beam="2">  1       -1 0.97438574E-03 0.20004025E+02</pdfrwt>
<totfact> 0.39307177E+06</totfact>
</mgrwt>
</event>
<event>
 5    1  0.9583198E-007  0.2000010E+02  0.7818608E-02  0.1745326E+00
         -1   -1    0    0    0  501 -0.00000000000E+00  0.00000000000E+00  0.12188535472E+01  0.12188624936E+01  0.46700000000E-02 0.  1.
          1   -1    0    0  501    0  0.00000000000E+00 -0.00000000000E+00 -0.82044844218E+02  0.82044844351E+02  0.46700000000E-02 0. -1.
       1023    2    1    2    0    0  0.00000000000E+00  0.00000000000E+00 -0.80825990671E+02  0.83263706845E+02  0.20000102739E+02 0.  0.
        -11    1    3    3    0    0  0.97237733639E+01 -0.23343340133E+01 -0.40462851111E+02  0.41680249568E+02  0.51100000000E-03 0. -1.
         11    1    3    3    0    0 -0.97237733639E+01  0.23343340133E+01 -0.40363139560E+02  0.41583457277E+02  0.51100000000E-03 0.  1.
<mgrwt>
<rscale>  0 0.20000103E+02</rscale>
<asrwt>0</asrwt>
<pdfrwt beam="2">  1        1 0.12622280E-01 0.20000103E+02</pdfrwt>
<pdfrwt beam="1">  1       -1 0.18751669E-03 0.20000103E+02</pdfrwt>
<totfact> 0.43464069E+06</totfact>
</mgrwt>
</event>
<event>
 5    1  0.1032507E-006  0.2000222E+02  0.7818608E-02  0.1745284E+00
         -1   -1    0    0    0  501 -0.00000000000E+00  0.00000000000E+00  0.11965082755E+01  0.11965173891E+01  0.46700000000E-02 0. -1.
          1   -1    0    0  501    0  0.00000000000E+00 -0.00000000000E+00 -0.83594770178E+02  0.83594770309E+02  0.46700000000E-02 0.  1.
       1023    2    1    2    0    0  0.00000000000E+00  0.00000000000E+00 -0.82398261903E+02  0.84791287698E+02  0.20002222498E+02 0.  0.
        -11    1    3    3    0    0  0.60321027020E+00  0.99828958945E+01 -0.41146716426E+02  0.42344708595E+02  0.51100000000E-03 0.  1.
         11    1    3    3    0    0 -0.60321027020E+00 -0.99828958945E+01 -0.41251545476E+02  0.42446579103E+02  0.51100000000E-03 0. -1.
<mgrwt>
<rscale>  0 0.20002222E+02</rscale>
<asrwt>0</asrwt>
<pdfrwt beam="2">  1        1 0.12860730E-01 0.20002222E+02</pdfrwt>
<pdfrwt beam="1">  1       -1 0.18407897E-03 0.20002222E+02</pdfrwt>
<totfact> 0.43533091E+06</totfact>
</mgrwt>
</event>
<event>
 5    1  0.9816595E-007  0.2000346E+02  0.7818608E-02  0.1745259E+00
          1   -1    0    0  501    0  0.00000000000E+00  0.00000000000E+00  0.51972643496E+02  0.51972643706E+02  0.46700000000E-02 0. -1.
         -1   -1    0    0    0  501 -0.00000000000E+00 -0.00000000000E+00 -0.19247510425E+01  0.19247567079E+01  0.46700000000E-02 0.  1.
       1023    2    1    2    0    0  0.00000000000E+00  0.00000000000E+00  0.50047892454E+02  0.53897400414E+02  0.20003455509E+02 0.  0.
        -11    1    3    3    0    0  0.52884605784E+01  0.84873079438E+01  0.25508537676E+02  0.27398680735E+02  0.51100000000E-03 0. -1.
         11    1    3    3    0    0 -0.52884605784E+01 -0.84873079438E+01  0.24539354778E+02  0.26498719678E+02  0.51100000000E-03 0.  1.
<mgrwt>
<rscale>  0 0.20003456E+02</rscale>
<asrwt>0</asrwt>
<pdfrwt beam="1">  1        1 0.79957928E-02 0.20003456E+02</pdfrwt>
<pdfrwt beam="2">  1       -1 0.29611596E-03 0.20003456E+02</pdfrwt>
<totfact> 0.41813817E+06</totfact>
</mgrwt>
</event>
<event>
 5    1  0.9583198E-007  0.2000003E+02  0.7818608E-02  0.1745327E+00
          1   -1    0    0  501    0  0.00000000000E+00  0.00000000000E+00  0.10284799431E+03  0.10284799442E+03  0.46700000000E-02 0. -1.
         -1   -1    0    0    0  501 -0.00000000000E+00 -0.00000000000E+00 -0.97230622711E+00  0.97231744208E+00  0.46700000000E-02 0.  1.
       1023    2    1    2    0    0  0.00000000000E+00  0.00000000000E+00  0.10187568809E+03  0.10382031186E+03  0.20000033299E+02 0.  0.
        -11    1    3    3    0    0  0.16204258604E+01  0.98678509133E+01  0.50981619143E+02  0.51953111094E+02  0.51100000000E-03 0. -1.
         11    1    3    3    0    0 -0.16204258604E+01 -0.98678509133E+01  0.50894068943E+02  0.51867200767E+02  0.51100000000E-03 0.  1.
<mgrwt>
<rscale>  0 0.20000033E+02</rscale>
<asrwt>0</asrwt>
<pdfrwt beam="1">  1        1 0.15822763E-01 0.20000033E+02</pdfrwt>
<pdfrwt beam="2">  1       -1 0.14958650E-03 0.20000033E+02</pdfrwt>
<totfact> 0.44498047E+06</totfact>
</mgrwt>
</event>
<event>
 4    1  0.9583198E-007  0.2002117E+02  0.7818608E-02  0.1744907E+00
         -1   -1    0    0    0  501 -0.00000000000E+00  0.00000000000E+00  0.57910215682E+01  0.57910234512E+01  0.46700000000E-02 0. -1.
          1   -1    0    0  501    0  0.00000000000E+00 -0.00000000000E+00 -0.17304681632E+02  0.17304682262E+02  0.46700000000E-02 0.  1.
        -11    1    1    2    0    0  0.24151033697E+01 -0.97115528746E+01 -0.54631130066E+01  0.11401429187E+02  0.51100000000E-03 0.  1.
         11    1    1    2    0    0 -0.24151033697E+01  0.97115528746E+01 -0.60505470570E+01  0.11694276526E+02  0.51100000000E-03 0. -1.
<mgrwt>
<rscale>  0 0.20021170E+02</rscale>
<asrwt>0</asrwt>
<pdfrwt beam="2">  1        1 0.26622589E-02 0.20021170E+02</pdfrwt>
<pdfrwt beam="1">  1       -1 0.89092660E-03 0.20021170E+02</pdfrwt>
<totfact> 0.39375422E+06</totfact>
</mgrwt>
</event>
<event>
 5    1  0.9995682E-007  0.2000100E+02  0.7818608E-02  0.1745308E+00
         -1   -1    0    0    0  501 -0.00000000000E+00  0.00000000000E+00  0.17114000956E+01  0.17114064672E+01  0.46700000000E-02 0. -1.
          1   -1    0    0  501    0  0.00000000000E+00 -0.00000000000E+00 -0.58437398647E+02  0.58437398834E+02  0.46700000000E-02 0.  1.
       1023    2    1    2    0    0  0.00000000000E+00  0.00000000000E+00 -0.56725998552E+02  0.60148805301E+02  0.20000996662E+02 0.  0.
        -11    1    3    3    0    0 -0.10468846118E+01 -0.99454777551E+01 -0.28478356825E+02  0.30183195704E+02  0.51100000000E-03 0.  1.
         11    1    3    3    0    0  0.10468846118E+01  0.99454777551E+01 -0.28247641727E+02  0.29965609597E+02  0.51100000000E-03 0. -1.
<mgrwt>
<rscale>  0 0.20000997E+02</rscale>
<asrwt>0</asrwt>
<pdfrwt beam="2">  1        1 0.89903680E-02 0.20000997E+02</pdfrwt>
<pdfrwt beam="1">  1       -1 0.26329287E-03 0.20000997E+02</pdfrwt>
<totfact> 0.42194301E+06</totfact>
</mgrwt>
</event>
<event>
 5    1  0.9583198E-007  0.2000288E+02  0.7818608E-02  0.1745271E+00
          1   -1    0    0  501    0  0.00000000000E+00  0.00000000000E+00  0.55461920603E+02  0.55461920799E+02  0.46700000000E-02 0. -1.
         -1   -1    0    0    0  501 -0.00000000000E+00 -0.00000000000E+00 -0.18035547249E+01  0.18035607710E+01  0.46700000000E-02 0.  1.
       1023    2    1    2    0    0  0.00000000000E+00  0.00000000000E+00  0.53658365878E+02  0.57265481570E+02  0.20002878563E+02 0.  0.
        -11    1    3    3    0    0  0.76306019363E+01 -0.64653367074E+01  0.26961085695E+02  0.28756335072E+02  0.51100000000E-03 0. -1.
         11    1    3    3    0    0 -0.76306019363E+01  0.64653367074E+01  0.26697280183E+02  0.28509146498E+02  0.51100000000E-03 0.  1.
<mgrwt>
<rscale>  0 0.20002879E+02</rscale>
<asrwt>0</asrwt>
<pdfrwt beam="1">  1        1 0.85326048E-02 0.20002879E+02</pdfrwt>
<pdfrwt beam="2">  1       -1 0.27747040E-03 0.20002879E+02</pdfrwt>
<totfact> 0.42017071E+06</totfact>
</mgrwt>
</event>
<event>
 5    1  0.9583198E-007  0.2000040E+02  0.7818608E-02  0.1745320E+00
         -1   -1    0    0    0  501 -0.00000000000E+00  0.00000000000E+00  0.14666920094E+02  0.14666920837E+02  0.46700000000E-02 0. -1.
          1   -1    0    0  501    0  0.00000000000E+00 -0.00000000000E+00 -0.68183358791E+01  0.68183374784E+01  0.46700000000E-02 0.  1.
       1023    2    1    2    0    0  0.00000000000E+00  0.00000000000E+00  0.78485842148E+01  0.21485258316E+02  0.20000401264E+02 0.  0.
        -11    1    3    3    0    0  0.26266435434E+01 -0.96490798571E+01  0.39283153014E+01  0.10744098834E+02  0.51100000000E-03 0.  1.
         11    1    3    3    0    0 -0.26266435434E+01  0.96490798571E+01  0.39202689135E+01  0.10741159482E+02  0.51100000000E-03 0. -1.
<mgrwt>
<rscale>  0 0.20000401E+02</rscale>
<asrwt>0</asrwt>
<pdfrwt beam="2">  1        1 0.10489749E-02 0.20000401E+02</pdfrwt>
<pdfrwt beam="1">  1       -1 0.22564494E-02 0.20000401E+02</pdfrwt>
<totfact> 0.37997514E+06</totfact>
</mgrwt>
</event>
<event>
 5    1  0.9870235E-007  0.2000226E+02  0.7818608E-02  0.1745283E+00
         -1   -1    0    0    0  501 -0.00000000000E+00  0.00000000000E+00  0.62851104138E+01  0.62851121487E+01  0.46700000000E-02 0.  1.
          1   -1    0    0  501    0  0.00000000000E+00 -0.00000000000E+00 -0.15914218315E+02  0.15914219000E+02  0.46700000000E-02 0. -1.
       1023    2    1    2    0    0  0.00000000000E+00  0.00000000000E+00 -0.96291079015E+01  0.22199331149E+02  0.20002264484E+02 0.  0.
        -11    1    3    3    0    0 -0.71313084003E+01 -0.70112254012E+01 -0.49244491388E+01  0.11147333345E+02  0.51100000000E-03 0. -1.
         11    1    3    3    0    0  0.71313084003E+01  0.70112254012E+01 -0.47046587627E+01  0.11051997804E+02  0.51100000000E-03 0.  1.
<mgrwt>
<rscale>  0 0.20002264E+02</rscale>
<asrwt>0</asrwt>
<pdfrwt beam="2">  1        1 0.24483414E-02 0.20002264E+02</pdfrwt>
<pdfrwt beam="1">  1       -1 0.96694026E-03 0.20002264E+02</pdfrwt>
<totfact> 0.39326679E+06</totfact>
</mgrwt>
</event>
<event>
 5    1  0.9583198E-007  0.2000137E+02  0.7818608E-02  0.1745301E+00
          1   -1    0    0  501    0  0.00000000000E+00  0.00000000000E+00  0.39992831369E+01  0.39992858635E+01  0.46700000000E-02 0.  1.
         -1   -1    0    0    0  501 -0.00000000000E+00 -0.00000000000E+00 -0.25007899728E+02  0.25007900164E+02  0.46700000000E-02 0. -1.
       1023    2    1    2    0    0  0.00000000000E+00  0.00000000000E+00 -0.21008616591E+02  0.29007186027E+02  0.20001371707E+02 0.  0.
        -11    1    3    3    0    0 -0.82577934431E+01  0.56405509439E+01 -0.10623457345E+02  0.14589887379E+02  0.51100000000E-03 0.  1.
         11    1    3    3    0    0  0.82577934431E+01 -0.56405509439E+01 -0.10385159245E+02  0.14417298648E+02  0.51100000000E-03 0. -1.
<mgrwt>
<rscale>  0 0.20001372E+02</rscale>
<asrwt>0</asrwt>
<pdfrwt beam="1">  1        1 0.61527459E-03 0.20001372E+02</pdfrwt>
<pdfrwt beam="2">  1       -1 0.38473693E-02 0.20001372E+02</pdfrwt>
<totfact> 0.36926465E+06</totfact>
</mgrwt>
</event>
<event>
 5    1  0.9583198E-007  0.2000126E+02  0.7818608E-02  0.1745303E+00
         -1   -1    0    0    0  501 -0.00000000000E+00  0.00000000000E+00  0.46529780590E+02  0.46529780824E+02  0.46700000000E-02 0. -1.
          1   -1    0    0  501    0  0.00000000000E+00 -0.00000000000E+00 -0.21494295877E+01  0.21494346609E+01  0.46700000000E-02 0.  1.
       1023    2    1    2    0    0  0.00000000000E+00  0.00000000000E+00  0.44380351002E+02  0.48679215485E+02  0.20001261590E+02 0.  0.
        -11    1    3    3    0    0  0.20498314186E+01  0.97882899338E+01  0.22223489263E+02  0.24369979565E+02  0.51100000000E-03 0.  1.
         11    1    3    3    0    0 -0.20498314186E+01 -0.97882899338E+01  0.22156861739E+02  0.24309235920E+02  0.51100000000E-03 0. -1.
<mgrwt>
<rscale>  0 0.20001262E+02</rscale>
<asrwt>0</asrwt>
<pdfrwt beam="2">  1        1 0.33068192E-03 0.20001262E+02</pdfrwt>
<pdfrwt beam="1">  1       -1 0.71584273E-02 0.20001262E+02</pdfrwt>
<totfact> 0.35175061E+06</totfact>
</mgrwt>
</event>
<event>
 5    1  0.9583198E-007  0.2000574E+02  0.7818608E-02  0.1745214E+00
         -1   -1    0    0    0  501 -0.00000000000E+00  0.00000000000E+00  0.23876148366E+02  0.23876148823E+02  0.46700000000E-02 0.  1.
          1   -1    0    0  501    0  0.00000000000E+00 -0.00000000000E+00 -0.41906828108E+01  0.41906854129E+01  0.46700000000E-02 0. -1.
       1023    2    1    2    0    0  0.00000000000E+00  0.00000000000E+00  0.19685465555E+02  0.28066834236E+02  0.20005739924E+02 0.  0.
        -11    1    3    3    0    0 -0.80789718132E+01  0.58969484799E+01  0.10006464114E+02  0.14148254707E+02  0.51100000000E-03 0.  1.
         11    1    3    3    0    0  0.80789718132E+01 -0.58969484799E+01  0.96790014415E+01  0.13918579529E+02  0.51100000000E-03 0. -1.
<mgrwt>
<rscale>  0 0.20005740E+02</rscale>
<asrwt>0</asrwt>
<pdfrwt beam="2">  1        1 0.64472068E-03 0.20005740E+02</pdfrwt>
<pdfrwt beam="1">  1       -1 0.36732538E-02 0.20005740E+02</pdfrwt>
<totfact> 0.37014333E+06</totfact>
</mgrwt>
</event>
<event>
 5    1  0.9583198E-007  0.2000057E+02  0.7818608E-02  0.1745317E+00
         -1   -1    0    0    0  501 -0.00000000000E+00  0.00000000000E+00  0.39816094235E+02  0.39816094509E+02  0.46700000000E-02 0.  1.
          1   -1    0    0  501    0  0.00000000000E+00 -0.00000000000E+00 -0.25116868249E+01  0.25116911663E+01  0.46700000000E-02 0. -1.
       1023    2    1    2    0    0  0.00000000000E+00  0.00000000000E+00  0.37304407410E+02  0.42327785675E+02  0.20000565691E+02 0.  0.
        -11    1    3    3    0    0 -0.28211147974E+01 -0.95940822340E+01  0.18702021191E+02  0.21207798083E+02  0.51100000000E-03 0.  1.
         11    1    3    3    0    0  0.28211147974E+01  0.95940822340E+01  0.18602386219E+02  0.21119987593E+02  0.51100000000E-03 0. -1.
<mgrwt>
<rscale>  0 0.20000566E+02</rscale>
<asrwt>0</asrwt>
<pdfrwt beam="2">  1        1 0.38641372E-03 0.20000566E+02</pdfrwt>
<pdfrwt beam="1">  1       -1 0.61255531E-02 0.20000566E+02</pdfrwt>
<totfact> 0.35683183E+06</totfact>
</mgrwt>
</event>
<event>
 5    1  0.9803864E-007  0.2000227E+02  0.7818608E-02  0.1745283E+00
          1   -1    0    0  501    0  0.00000000000E+00  0.00000000000E+00  0.73166847428E+02  0.73166847577E+02  0.46700000000E-02 0.  1.
         -1   -1    0    0    0  501 -0.00000000000E+00 -0.00000000000E+00 -0.13670449050E+01  0.13670528816E+01  0.46700000000E-02 0. -1.
       1023    2    1    2    0    0  0.00000000000E+00  0.00000000000E+00  0.71799802523E+02  0.74533900459E+02  0.20002266753E+02 0.  0.
        -11    1    3    3    0    0 -0.83673802370E+01  0.54780726837E+01  0.35968224432E+02  0.37332767128E+02  0.51100000000E-03 0.  1.
         11    1    3    3    0    0  0.83673802370E+01 -0.54780726837E+01  0.35831578091E+02  0.37201133331E+02  0.51100000000E-03 0. -1.
<mgrwt>
<rscale>  0 0.20002267E+02</rscale>
<asrwt>0</asrwt>
<pdfrwt beam="1">  1        1 0.11256440E-01 0.20002267E+02</pdfrwt>
<pdfrwt beam="2">  1       -1 0.21031521E-03 0.20002267E+02</pdfrwt>
<totfact> 0.42991709E+06</totfact>
</mgrwt>
</event>
<event>
 5    1  0.9583198E-007  0.2000050E+02  0.7818608E-02  0.1745318E+00
         -1   -1    0    0    0  501 -0.00000000000E+00  0.00000000000E+00  0.17777498173E+02  0.17777498786E+02  0.46700000000E-02 0. -1.
          1   -1    0    0  501    0  0.00000000000E+00 -0.00000000000E+00 -0.56253669908E+01  0.56253689293E+01  0.46700000000E-02 0.  1.
       1023    2    1    2    0    0  0.00000000000E+00  0.00000000000E+00  0.12152131182E+02  0.23402867715E+02  0.20000498120E+02 0.  0.
        -11    1    3    3    0    0 -0.95033942183E+01  0.31128611870E+01  0.60480179374E+01  0.11686869883E+02  0.51100000000E-03 0.  1.
         11    1    3    3    0    0  0.95033942183E+01 -0.31128611870E+01  0.61041132444E+01  0.11715997832E+02  0.51100000000E-03 0. -1.
<mgrwt>
<rscale>  0 0.20000498E+02</rscale>
<asrwt>0</asrwt>
<pdfrwt beam="2">  1        1 0.86544128E-03 0.20000498E+02</pdfrwt>
<pdfrwt beam="1">  1       -1 0.27349999E-02 0.20000498E+02</pdfrwt>
<totfact> 0.37646767E+06</totfact>
</mgrwt>
</event>
<event>
 4    1  0.1369117E-006  0.2039453E+02  0.7818608E-02  0.1737594E+00
          1   -1    0    0  501    0  0.00000000000E+00  0.00000000000E+00  0.57682778248E+01  0.57682797152E+01  0.46700000000E-02 0.  1.
         -1   -1    0    0    0  501 -0.00000000000E+00 -0.00000000000E+00 -0.18026894304E+02  0.18026894908E+02  0.46700000000E-02 0. -1.
        -11    1    1    2    0    0  0.85904378450E+01  0.52550217246E+01 -0.42576802634E+01  0.10933376294E+02  0.51100000000E-03 0.  1.
         11    1    1    2    0    0 -0.85904378450E+01 -0.52550217246E+01 -0.80009362154E+01  0.12861798330E+02  0.51100000000E-03 0. -1.
<mgrwt>
<rscale>  0 0.20394525E+02</rscale>
<asrwt>0</asrwt>
<pdfrwt beam="1">  1        1 0.88742756E-03 0.20394525E+02</pdfrwt>
<pdfrwt beam="2">  1       -1 0.27733685E-02 0.20394525E+02</pdfrwt>
<totfact> 0.36038697E+06</totfact>
</mgrwt>
</event>
<event>
 5    1  0.9825684E-007  0.2000105E+02  0.7818608E-02  0.1745307E+00
         -1   -1    0    0    0  501 -0.00000000000E+00  0.00000000000E+00  0.30944074500E+01  0.30944109740E+01  0.46700000000E-02 0. -1.
          1   -1    0    0  501    0  0.00000000000E+00 -0.00000000000E+00 -0.32319740772E+02  0.32319741109E+02  0.46700000000E-02 0.  1.
       1023    2    1    2    0    0  0.00000000000E+00  0.00000000000E+00 -0.29225333322E+02  0.35414152083E+02  0.20001051472E+02 0.  0.
        -11    1    3    3    0    0  0.99996331623E+01 -0.13044776485E+00 -0.14663823020E+02  0.17749292545E+02  0.51100000000E-03 0.  1.
         11    1    3    3    0    0 -0.99996331623E+01  0.13044776485E+00 -0.14561510302E+02  0.17664859539E+02  0.51100000000E-03 0. -1.
<mgrwt>
<rscale>  0 0.20001051E+02</rscale>
<asrwt>0</asrwt>
<pdfrwt beam="2">  1        1 0.49722679E-02 0.20001051E+02</pdfrwt>
<pdfrwt beam="1">  1       -1 0.47606300E-03 0.20001051E+02</pdfrwt>
<totfact> 0.40609442E+06</totfact>
</mgrwt>
</event>
<event>
 5    1  0.9583198E-007  0.2000202E+02  0.7818608E-02  0.1745288E+00
          1   -1    0    0  501    0  0.00000000000E+00  0.00000000000E+00  0.52576352442E+02  0.52576352649E+02  0.46700000000E-02 0.  1.
         -1   -1    0    0    0  501 -0.00000000000E+00 -0.00000000000E+00 -0.19023768457E+01  0.19023825777E+01  0.46700000000E-02 0. -1.
       1023    2    1    2    0    0  0.00000000000E+00  0.00000000000E+00  0.50673975596E+02  0.54478735227E+02  0.20002019628E+02 0.  0.
        -11    1    3    3    0    0  0.93870561216E+01  0.34485296675E+01  0.25051100001E+02  0.26973446035E+02  0.51100000000E-03 0. -1.
         11    1    3    3    0    0 -0.93870561216E+01 -0.34485296675E+01  0.25622875596E+02  0.27505289192E+02  0.51100000000E-03 0.  1.
<mgrwt>
<rscale>  0 0.20002020E+02</rscale>
<asrwt>0</asrwt>
<pdfrwt beam="1">  1        1 0.80886696E-02 0.20002020E+02</pdfrwt>
<pdfrwt beam="2">  1       -1 0.29267383E-03 0.20002020E+02</pdfrwt>
<totfact> 0.41855444E+06</totfact>
</mgrwt>
</event>
<event>
 5    1  0.9610778E-007  0.2000072E+02  0.7818608E-02  0.1745314E+00
         -1   -1    0    0    0  501 -0.00000000000E+00  0.00000000000E+00  0.11840958416E+02  0.11840959336E+02  0.46700000000E-02 0.  1.
          1   -1    0    0  501    0  0.00000000000E+00 -0.00000000000E+00 -0.84458689796E+01  0.84458702707E+01  0.46700000000E-02 0. -1.
       1023    2    1    2    0    0  0.00000000000E+00  0.00000000000E+00  0.33950894359E+01  0.20286829607E+02  0.20000720568E+02 0.  0.
        -11    1    3    3    0    0  0.19522460226E+00  0.99983656566E+01  0.16547860414E+01  0.10136258953E+02  0.51100000000E-03 0.  1.
         11    1    3    3    0    0 -0.19522460226E+00 -0.99983656566E+01  0.17403033945E+01  0.10150570655E+02  0.51100000000E-03 0. -1.
<mgrwt>
<rscale>  0 0.20000721E+02</rscale>
<asrwt>0</asrwt>
<pdfrwt beam="2">  1        1 0.12993646E-02 0.20000721E+02</pdfrwt>
<pdfrwt beam="1">  1       -1 0.18216861E-02 0.20000721E+02</pdfrwt>
<totfact> 0.38354318E+06</totfact>
</mgrwt>
</event>
<event>
 5    1  0.9583198E-007  0.2000216E+02  0.7818608E-02  0.1745285E+00
         -1   -1    0    0    0  501 -0.00000000000E+00  0.00000000000E+00  0.10349608124E+02  0.10349609177E+02  0.46700000000E-02 0.  1.
          1   -1    0    0  501    0  0.00000000000E+00 -0.00000000000E+00 -0.96642855678E+01  0.96642866961E+01  0.46700000000E-02 0. -1.
       1023    2    1    2    0    0  0.00000000000E+00  0.00000000000E+00  0.68532255574E+00  0.20013895873E+02  0.20002158909E+02 0.  0.
        -11    1    3    3    0    0  0.63783796642E+01 -0.77029901706E+01  0.38517485538E+00  0.10008403701E+02  0.51100000000E-03 0.  1.
         11    1    3    3    0    0 -0.63783796642E+01  0.77029901706E+01  0.30014770036E+00  0.10005492172E+02  0.51100000000E-03 0. -1.
<mgrwt>
<rscale>  0 0.20002159E+02</rscale>
<asrwt>0</asrwt>
<pdfrwt beam="2">  1        1 0.14868133E-02 0.20002159E+02</pdfrwt>
<pdfrwt beam="1">  1       -1 0.15922476E-02 0.20002159E+02</pdfrwt>
<totfact> 0.38561451E+06</totfact>
</mgrwt>
</event>
<event>
 5    1  0.9583198E-007  0.2000017E+02  0.7818608E-02  0.1745325E+00
         -1   -1    0    0    0  501 -0.00000000000E+00  0.00000000000E+00  0.61589791764E+01  0.61589809469E+01  0.46700000000E-02 0.  1.
          1   -1    0    0  501    0  0.00000000000E+00 -0.00000000000E+00 -0.16236729051E+02  0.16236729723E+02  0.46700000000E-02 0. -1.
       1023    2    1    2    0    0  0.00000000000E+00  0.00000000000E+00 -0.10077749875E+02  0.22395710670E+02  0.20000170346E+02 0.  0.
        -11    1    3    3    0    0  0.48721105637E+01  0.87329316269E+01 -0.50524543500E+01  0.11203965877E+02  0.51100000000E-03 0.  1.
         11    1    3    3    0    0 -0.48721105637E+01 -0.87329316269E+01 -0.50252955251E+01  0.11191744793E+02  0.51100000000E-03 0. -1.
<mgrwt>
<rscale>  0 0.20000170E+02</rscale>
<asrwt>0</asrwt>
<pdfrwt beam="2">  1        1 0.24979585E-02 0.20000170E+02</pdfrwt>
<pdfrwt beam="1">  1       -1 0.94753545E-03 0.20000170E+02</pdfrwt>
<totfact> 0.39367411E+06</totfact>
</mgrwt>
</event>
<event>
 5    1  0.9788483E-007  0.2000084E+02  0.7818608E-02  0.1745311E+00
          1   -1    0    0  501    0  0.00000000000E+00  0.00000000000E+00  0.16398011174E+02  0.16398011839E+02  0.46700000000E-02 0.  1.
         -1   -1    0    0    0  501 -0.00000000000E+00 -0.00000000000E+00 -0.60988116885E+01  0.60988134765E+01  0.46700000000E-02 0. -1.
       1023    2    1    2    0    0  0.00000000000E+00  0.00000000000E+00  0.10299199485E+02  0.22496825315E+02  0.20000840963E+02 0.  0.
        -11    1    3    3    0    0 -0.41660285521E+01  0.90913472799E+01  0.51546656803E+01  0.11250731878E+02  0.51100000000E-03 0. -1.
         11    1    3    3    0    0  0.41660285521E+01 -0.90913472799E+01  0.51445338050E+01  0.11246093437E+02  0.51100000000E-03 0.  1.
<mgrwt>
<rscale>  0 0.20000841E+02</rscale>
<asrwt>0</asrwt>
<pdfrwt beam="1">  1        1 0.25227711E-02 0.20000841E+02</pdfrwt>
<pdfrwt beam="2">  1       -1 0.93827891E-03 0.20000841E+02</pdfrwt>
<totfact> 0.39379999E+06</totfact>
</mgrwt>
</event>
<event>
 5    1  0.9583198E-007  0.2000054E+02  0.7818608E-02  0.1745317E+00
          1   -1    0    0  501    0  0.00000000000E+00  0.00000000000E+00  0.10914615177E+02  0.10914616176E+02  0.46700000000E-02 0. -1.
         -1   -1    0    0    0  501 -0.00000000000E+00 -0.00000000000E+00 -0.91625196413E+01  0.91625208314E+01  0.46700000000E-02 0.  1.
       1023    2    1    2    0    0  0.00000000000E+00  0.00000000000E+00  0.17520955357E+01  0.20077137007E+02  0.20000539784E+02 0.  0.
        -11    1    3    3    0    0  0.95594063018E+01 -0.29356652539E+01  0.80493632841E+00  0.10032362737E+02  0.51100000000E-03 0. -1.
         11    1    3    3    0    0 -0.95594063018E+01  0.29356652539E+01  0.94715920729E+00  0.10044774271E+02  0.51100000000E-03 0.  1.
<mgrwt>
<rscale>  0 0.20000540E+02</rscale>
<asrwt>0</asrwt>
<pdfrwt beam="1">  1        1 0.16791717E-02 0.20000540E+02</pdfrwt>
<pdfrwt beam="2">  1       -1 0.14096186E-02 0.20000540E+02</pdfrwt>
<totfact> 0.38756396E+06</totfact>
</mgrwt>
</event>
<event>
 5    1  0.9583198E-007  0.2000030E+02  0.7818608E-02  0.1745322E+00
          1   -1    0    0  501    0  0.00000000000E+00  0.00000000000E+00  0.38025868557E+02  0.38025868844E+02  0.46700000000E-02 0. -1.
         -1   -1    0    0    0  501 -0.00000000000E+00 -0.00000000000E+00 -0.26298664234E+01  0.26298705698E+01  0.46700000000E-02 0.  1.
       1023    2    1    2    0    0  0.00000000000E+00  0.00000000000E+00  0.35396002134E+02  0.40655739414E+02  0.20000304503E+02 0.  0.
        -11    1    3    3    0    0 -0.83764167856E+01  0.54623834090E+01  0.17763999013E+02  0.20385329330E+02  0.51100000000E-03 0.  1.
         11    1    3    3    0    0  0.83764167856E+01 -0.54623834090E+01  0.17632003121E+02  0.20270410084E+02  0.51100000000E-03 0. -1.
<mgrwt>
<rscale>  0 0.20000305E+02</rscale>
<asrwt>0</asrwt>
<pdfrwt beam="1">  1        1 0.58501339E-02 0.20000305E+02</pdfrwt>
<pdfrwt beam="2">  1       -1 0.40459518E-03 0.20000305E+02</pdfrwt>
<totfact> 0.40984621E+06</totfact>
</mgrwt>
</event>
<event>
 5    1  0.9583198E-007  0.2000506E+02  0.7818608E-02  0.1745227E+00
          1   -1    0    0  501    0  0.00000000000E+00  0.00000000000E+00  0.17243937602E+02  0.17243938234E+02  0.46700000000E-02 0. -1.
         -1   -1    0    0    0  501 -0.00000000000E+00 -0.00000000000E+00 -0.58020737751E+01  0.58020756545E+01  0.46700000000E-02 0.  1.
       1023    2    1    2    0    0  0.00000000000E+00  0.00000000000E+00  0.11441863826E+02  0.23046013888E+02  0.20005062067E+02 0.  0.
        -11    1    3    3    0    0  0.18948484145E+01  0.98205319001E+01  0.58725842116E+01  0.11598299138E+02  0.51100000000E-03 0. -1.
         11    1    3    3    0    0 -0.18948484145E+01 -0.98205319001E+01  0.55692796148E+01  0.11447714750E+02  0.51100000000E-03 0.  1.
<mgrwt>
<rscale>  0 0.20005062E+02</rscale>
<asrwt>0</asrwt>
<pdfrwt beam="1">  1        1 0.26529137E-02 0.20005062E+02</pdfrwt>
<pdfrwt beam="2">  1       -1 0.89262693E-03 0.20005062E+02</pdfrwt>
<totfact> 0.39441074E+06</totfact>
</mgrwt>
</event>
<event>
 5    1  0.9689151E-007  0.2000062E+02  0.7818608E-02  0.1745316E+00
         -1   -1    0    0    0  501 -0.00000000000E+00  0.00000000000E+00  0.27946432714E+01  0.27946471733E+01  0.46700000000E-02 0.  1.
          1   -1    0    0  501    0  0.00000000000E+00 -0.00000000000E+00 -0.35784941088E+02  0.35784941393E+02  0.46700000000E-02 0. -1.
       1023    2    1    2    0    0  0.00000000000E+00  0.00000000000E+00 -0.32990297817E+02  0.38579588566E+02  0.20000622588E+02 0.  0.
        -11    1    3    3    0    0 -0.61985524323E+01 -0.78474560279E+01 -0.16417815186E+02  0.19223664429E+02  0.51100000000E-03 0. -1.
         11    1    3    3    0    0  0.61985524323E+01  0.78474560279E+01 -0.16572482631E+02  0.19355924137E+02  0.51100000000E-03 0.  1.
<mgrwt>
<rscale>  0 0.20000623E+02</rscale>
<asrwt>0</asrwt>
<pdfrwt beam="2">  1        1 0.55053756E-02 0.20000623E+02</pdfrwt>
<pdfrwt beam="1">  1       -1 0.42994547E-03 0.20000623E+02</pdfrwt>
<totfact> 0.40839500E+06</totfact>
</mgrwt>
</event>
<event>
 5    1  0.9583198E-007  0.2000525E+02  0.7818608E-02  0.1745224E+00
          1   -1    0    0  501    0  0.00000000000E+00  0.00000000000E+00  0.31577684690E+01  0.31577719222E+01  0.46700000000E-02 0. -1.
         -1   -1    0    0    0  501 -0.00000000000E+00 -0.00000000000E+00 -0.31684539254E+02  0.31684539598E+02  0.46700000000E-02 0.  1.
       1023    2    1    2    0    0  0.00000000000E+00  0.00000000000E+00 -0.28526770785E+02  0.34842311521E+02  0.20005249828E+02 0.  0.
        -11    1    3    3    0    0 -0.99983721530E+01  0.19498005163E+00 -0.14641136508E+02  0.17730435455E+02  0.51100000000E-03 0.  1.
         11    1    3    3    0    0  0.99983721530E+01 -0.19498005163E+00 -0.13885634277E+02  0.17111876065E+02  0.51100000000E-03 0. -1.
<mgrwt>
<rscale>  0 0.20005250E+02</rscale>
<asrwt>0</asrwt>
<pdfrwt beam="1">  1        1 0.48581085E-03 0.20005250E+02</pdfrwt>
<pdfrwt beam="2">  1       -1 0.48745446E-02 0.20005250E+02</pdfrwt>
<totfact> 0.36321635E+06</totfact>
</mgrwt>
</event>
<event>
 5    1  0.9583198E-007  0.2000019E+02  0.7818608E-02  0.1745324E+00
         -1   -1    0    0    0  501 -0.00000000000E+00  0.00000000000E+00  0.34184976060E+02  0.34184976379E+02  0.46700000000E-02 0. -1.
          1   -1    0    0  501    0  0.00000000000E+00 -0.00000000000E+00 -0.29253164828E+01  0.29253202104E+01  0.46700000000E-02 0.  1.
       1023    2    1    2    0    0  0.00000000000E+00  0.00000000000E+00  0.31259659577E+02  0.37110296589E+02  0.20000194901E+02 0.  0.
        -11    1    3    3    0    0 -0.93786851984E+01  0.34700995827E+01  0.15676090454E+02  0.18594115718E+02  0.51100000000E-03 0.  1.
         11    1    3    3    0    0  0.93786851984E+01 -0.34700995827E+01  0.15583569123E+02  0.18516180871E+02  0.51100000000E-03 0. -1.
<mgrwt>
<rscale>  0 0.20000195E+02</rscale>
<asrwt>0</asrwt>
<pdfrwt beam="2">  1        1 0.45004900E-03 0.20000195E+02</pdfrwt>
<pdfrwt beam="1">  1       -1 0.52592274E-02 0.20000195E+02</pdfrwt>
<totfact> 0.36133531E+06</totfact>
</mgrwt>
</event>
<event>
 5    1  0.9583198E-007  0.2000872E+02  0.7818608E-02  0.1745155E+00
         -1   -1    0    0    0  501 -0.00000000000E+00  0.00000000000E+00  0.22109643120E+01  0.22109692439E+01  0.46700000000E-02 0. -1.
          1   -1    0    0  501    0  0.00000000000E+00 -0.00000000000E+00 -0.45268535413E+02  0.45268535654E+02  0.46700000000E-02 0.  1.
       1023    2    1    2    0    0  0.00000000000E+00  0.00000000000E+00 -0.43057571101E+02  0.47479504898E+02  0.20008722004E+02 0.  0.
        -11    1    3    3    0    0  0.84766728972E+01 -0.53064970090E+01 -0.22175797602E+02  0.24326505985E+02  0.51100000000E-03 0.  1.
         11    1    3    3    0    0 -0.84766728972E+01  0.53064970090E+01 -0.20881773499E+02  0.23152998913E+02  0.51100000000E-03 0. -1.
<mgrwt>
<rscale>  0 0.20008722E+02</rscale>
<asrwt>0</asrwt>
<pdfrwt beam="2">  1        1 0.69643898E-02 0.20008722E+02</pdfrwt>
<pdfrwt beam="1">  1       -1 0.34014879E-03 0.20008722E+02</pdfrwt>
<totfact> 0.41393469E+06</totfact>
</mgrwt>
</event>
<event>
 5    1  0.9583198E-007  0.2000044E+02  0.7818608E-02  0.1745319E+00
         -1   -1    0    0    0  501 -0.00000000000E+00  0.00000000000E+00  0.15945596031E+01  0.15945664417E+01  0.46700000000E-02 0.  1.
          1   -1    0    0  501    0  0.00000000000E+00 -0.00000000000E+00 -0.62715886757E+02  0.62715886931E+02  0.46700000000E-02 0. -1.
       1023    2    1    2    0    0  0.00000000000E+00  0.00000000000E+00 -0.61121327154E+02  0.64310453373E+02  0.20000444493E+02 0.  0.
        -11    1    3    3    0    0  0.50685624777E+01 -0.86204523796E+01 -0.30701554051E+02  0.32289130465E+02  0.51100000000E-03 0.  1.
         11    1    3    3    0    0 -0.50685624777E+01  0.86204523796E+01 -0.30419773103E+02  0.32021322907E+02  0.51100000000E-03 0. -1.
<mgrwt>
<rscale>  0 0.20000444E+02</rscale>
<asrwt>0</asrwt>
<pdfrwt beam="2">  1        1 0.96485966E-02 0.20000444E+02</pdfrwt>
<pdfrwt beam="1">  1       -1 0.24531745E-03 0.20000444E+02</pdfrwt>
<totfact> 0.42435439E+06</totfact>
</mgrwt>
</event>
<event>
 5    1  0.9583198E-007  0.2001223E+02  0.7818608E-02  0.1745085E+00
         -1   -1    0    0    0  501 -0.00000000000E+00  0.00000000000E+00  0.22583597767E+02  0.22583598250E+02  0.46700000000E-02 0.  1.
          1   -1    0    0  501    0  0.00000000000E+00 -0.00000000000E+00 -0.44334060901E+01  0.44334085497E+01  0.46700000000E-02 0. -1.
       1023    2    1    2    0    0  0.00000000000E+00  0.00000000000E+00  0.18150191677E+02  0.27017006800E+02  0.20012226226E+02 0.  0.
        -11    1    3    3    0    0  0.96000878223E+01 -0.28163992701E+01  0.93030395664E+01  0.13661637401E+02  0.51100000000E-03 0.  1.
         11    1    3    3    0    0 -0.96000878223E+01  0.28163992701E+01  0.88471521108E+01  0.13355369399E+02  0.51100000000E-03 0. -1.
<mgrwt>
<rscale>  0 0.20012226E+02</rscale>
<asrwt>0</asrwt>
<pdfrwt beam="2">  1        1 0.68206274E-03 0.20012226E+02</pdfrwt>
<pdfrwt beam="1">  1       -1 0.34743997E-02 0.20012226E+02</pdfrwt>
<totfact> 0.37111050E+06</totfact>
</mgrwt>
</event>
<event>
 5    1  0.9583198E-007  0.2000373E+02  0.7818608E-02  0.1745254E+00
         -1   -1    0    0    0  501 -0.00000000000E+00  0.00000000000E+00  0.68817454626E+01  0.68817470471E+01  0.46700000000E-02 0.  1.
          1   -1    0    0  501    0  0.00000000000E+00 -0.00000000000E+00 -0.14536607868E+02  0.14536608618E+02  0.46700000000E-02 0. -1.
       1023    2    1    2    0    0  0.00000000000E+00  0.00000000000E+00 -0.76548624051E+01  0.21418355665E+02  0.20003725677E+02 0.  0.
        -11    1    3    3    0    0  0.10001678436E+02 -0.25130688168E-01 -0.38866302979E+01  0.10730335429E+02  0.51100000000E-03 0. -1.
         11    1    3    3    0    0 -0.10001678436E+02  0.25130688168E-01 -0.37682321072E+01  0.10688020236E+02  0.51100000000E-03 0.  1.
<mgrwt>
<rscale>  0 0.20003726E+02</rscale>
<asrwt>0</asrwt>
<pdfrwt beam="2">  1        1 0.22364014E-02 0.20003726E+02</pdfrwt>
<pdfrwt beam="1">  1       -1 0.10587303E-02 0.20003726E+02</pdfrwt>
<totfact> 0.39179800E+06</totfact>
</mgrwt>
</event>
<event>
 5    1  0.9583198E-007  0.2000595E+02  0.7818608E-02  0.1745210E+00
         -1   -1    0    0    0  501 -0.00000000000E+00  0.00000000000E+00  0.31430844771E+02  0.31430845118E+02  0.46700000000E-02 0.  1.
          1   -1    0    0  501    0  0.00000000000E+00 -0.00000000000E+00 -0.31834801437E+01  0.31834835690E+01  0.46700000000E-02 0. -1.
       1023    2    1    2    0    0  0.00000000000E+00  0.00000000000E+00  0.28247364627E+02  0.34614328687E+02  0.20005952665E+02 0.  0.
        -11    1    3    3    0    0 -0.77669559016E+01 -0.63027906879E+01  0.13961736755E+02  0.17175007071E+02  0.51100000000E-03 0. -1.
         11    1    3    3    0    0  0.77669559016E+01  0.63027906879E+01  0.14285627872E+02  0.17439321615E+02  0.51100000000E-03 0.  1.
<mgrwt>
<rscale>  0 0.20005953E+02</rscale>
<asrwt>0</asrwt>
<pdfrwt beam="2">  1        1 0.48976647E-03 0.20005953E+02</pdfrwt>
<pdfrwt beam="1">  1       -1 0.48355148E-02 0.20005953E+02</pdfrwt>
<totfact> 0.36340294E+06</totfact>
</mgrwt>
</event>
<event>
 5    1  0.9656509E-007  0.2000139E+02  0.7818608E-02  0.1745300E+00
          1   -1    0    0  501    0  0.00000000000E+00  0.00000000000E+00  0.69625248615E+01  0.69625264277E+01  0.46700000000E-02 0. -1.
         -1   -1    0    0    0  501 -0.00000000000E+00 -0.00000000000E+00 -0.14364597663E+02  0.14364598422E+02  0.46700000000E-02 0.  1.
       1023    2    1    2    0    0  0.00000000000E+00  0.00000000000E+00 -0.74020728013E+01  0.21327124850E+02  0.20001389267E+02 0.  0.
        -11    1    3    3    0    0 -0.41693497428E+01 -0.90901272914E+01 -0.36997586697E+01  0.10663118959E+02  0.51100000000E-03 0. -1.
         11    1    3    3    0    0  0.41693497428E+01  0.90901272914E+01 -0.37023141317E+01  0.10664005891E+02  0.51100000000E-03 0.  1.
<mgrwt>
<rscale>  0 0.20001389E+02</rscale>
<asrwt>0</asrwt>
<pdfrwt beam="1">  1        1 0.10711579E-02 0.20001389E+02</pdfrwt>
<pdfrwt beam="2">  1       -1 0.22099383E-02 0.20001389E+02</pdfrwt>
<totfact> 0.38029549E+06</totfact>
</mgrwt>
</event>
<event>
 5    1  0.9583198E-007  0.2000045E+02  0.7818608E-02  0.1745319E+00
         -1   -1    0    0    0  501 -0.00000000000E+00  0.00000000000E+00  0.23706177874E+01  0.23706223872E+01  0.46700000000E-02 0.  1.
          1   -1    0    0  501    0  0.00000000000E+00 -0.00000000000E+00 -0.42184953895E+02  0.42184954153E+02  0.46700000000E-02 0. -1.
       1023    2    1    2    0    0  0.00000000000E+00  0.00000000000E+00 -0.39814336107E+02  0.44555576541E+02  0.20000451025E+02 0.  0.
        -11    1    3    3    0    0  0.94028419156E+01 -0.34039856413E+01 -0.20047279604E+02  0.22402990294E+02  0.51100000000E-03 0.  1.
         11    1    3    3    0    0 -0.94028419156E+01  0.34039856413E+01 -0.19767056503E+02  0.22152586246E+02  0.51100000000E-03 0. -1.
<mgrwt>
<rscale>  0 0.20000451E+02</rscale>
<asrwt>0</asrwt>
<pdfrwt beam="2">  1        1 0.64899927E-02 0.20000451E+02</pdfrwt>
<pdfrwt beam="1">  1       -1 0.36471083E-03 0.20000451E+02</pdfrwt>
<totfact> 0.41243807E+06</totfact>
</mgrwt>
</event>
<event>
 5    1  0.9661235E-007  0.2000172E+02  0.7818608E-02  0.1745294E+00
         -1   -1    0    0    0  501 -0.00000000000E+00  0.00000000000E+00  0.67842514242E+01  0.67842530315E+01  0.46700000000E-02 0.  1.
          1   -1    0    0  501    0  0.00000000000E+00 -0.00000000000E+00 -0.14742554698E+02  0.14742555438E+02  0.46700000000E-02 0. -1.
       1023    2    1    2    0    0  0.00000000000E+00  0.00000000000E+00 -0.79583032738E+01  0.21526808469E+02  0.20001722223E+02 0.  0.
        -11    1    3    3    0    0 -0.99796649010E+01 -0.64881563726E+00 -0.39248097831E+01  0.10743314450E+02  0.51100000000E-03 0.  1.
         11    1    3    3    0    0  0.99796649010E+01  0.64881563726E+00 -0.40334934906E+01  0.10783494019E+02  0.51100000000E-03 0. -1.
<mgrwt>
<rscale>  0 0.20001722E+02</rscale>
<asrwt>0</asrwt>
<pdfrwt beam="2">  1        1 0.22680855E-02 0.20001722E+02</pdfrwt>
<pdfrwt beam="1">  1       -1 0.10437312E-02 0.20001722E+02</pdfrwt>
<totfact> 0.39210310E+06</totfact>
</mgrwt>
</event>
<event>
 5    1  0.9583198E-007  0.2000338E+02  0.7818608E-02  0.1745261E+00
         -1   -1    0    0    0  501 -0.00000000000E+00  0.00000000000E+00  0.22017804241E+02  0.22017804737E+02  0.46700000000E-02 0.  1.
          1   -1    0    0  501    0  0.00000000000E+00 -0.00000000000E+00 -0.45433132462E+01  0.45433156463E+01  0.46700000000E-02 0. -1.
       1023    2    1    2    0    0  0.00000000000E+00  0.00000000000E+00  0.17474490995E+02  0.26561120383E+02  0.20003381726E+02 0.  0.
        -11    1    3    3    0    0 -0.27917291008E+01 -0.96041616998E+01  0.87211724551E+01  0.13269985779E+02  0.51100000000E-03 0.  1.
         11    1    3    3    0    0  0.27917291008E+01  0.96041616998E+01  0.87533185402E+01  0.13291134604E+02  0.51100000000E-03 0. -1.
<mgrwt>
<rscale>  0 0.20003382E+02</rscale>
<asrwt>0</asrwt>
<pdfrwt beam="2">  1        1 0.69897150E-03 0.20003382E+02</pdfrwt>
<pdfrwt beam="1">  1       -1 0.33873547E-02 0.20003382E+02</pdfrwt>
<totfact> 0.37202002E+06</totfact>
</mgrwt>
</event>
<event>
 5    1  0.9583198E-007  0.2000138E+02  0.7818608E-02  0.1745301E+00
          1   -1    0    0  501    0  0.00000000000E+00  0.00000000000E+00  0.21646853996E+01  0.21646904370E+01  0.46700000000E-02 0.  1.
         -1   -1    0    0    0  501 -0.00000000000E+00 -0.00000000000E+00 -0.46202422154E+02  0.46202422390E+02  0.46700000000E-02 0. -1.
       1023    2    1    2    0    0  0.00000000000E+00  0.00000000000E+00 -0.44037736755E+02  0.48367112827E+02  0.20001383572E+02 0.  0.
        -11    1    3    3    0    0  0.94072034436E+01 -0.33938551124E+01 -0.21993880162E+02  0.24160804912E+02  0.51100000000E-03 0. -1.
         11    1    3    3    0    0 -0.94072034436E+01  0.33938551124E+01 -0.22043856593E+02  0.24206307915E+02  0.51100000000E-03 0.  1.
<mgrwt>
<rscale>  0 0.20001384E+02</rscale>
<asrwt>0</asrwt>
<pdfrwt beam="1">  1        1 0.33302896E-03 0.20001384E+02</pdfrwt>
<pdfrwt beam="2">  1       -1 0.71080646E-02 0.20001384E+02</pdfrwt>
<totfact> 0.35198561E+06</totfact>
</mgrwt>
</event>
<event>
 5    1  0.9583198E-007  0.2000013E+02  0.7818608E-02  0.1745326E+00
         -1   -1    0    0    0  501 -0.00000000000E+00  0.00000000000E+00  0.50694309963E+02  0.50694310178E+02  0.46700000000E-02 0.  1.
          1   -1    0    0  501    0  0.00000000000E+00 -0.00000000000E+00 -0.19726302349E+01  0.19726357628E+01  0.46700000000E-02 0. -1.
       1023    2    1    2    0    0  0.00000000000E+00  0.00000000000E+00  0.48721679728E+02  0.52666945941E+02  0.20000127980E+02 0.  0.
        -11    1    3    3    0    0  0.83675916559E+01 -0.54758088195E+01  0.24322935172E+02  0.26298407708E+02  0.51100000000E-03 0. -1.
         11    1    3    3    0    0 -0.83675916559E+01  0.54758088195E+01  0.24398744556E+02  0.26368538233E+02  0.51100000000E-03 0.  1.
<mgrwt>
<rscale>  0 0.20000128E+02</rscale>
<asrwt>0</asrwt>
<pdfrwt beam="2">  1        1 0.30348199E-03 0.20000128E+02</pdfrwt>
<pdfrwt beam="1">  1       -1 0.77991257E-02 0.20000128E+02</pdfrwt>
<totfact> 0.34879837E+06</totfact>
</mgrwt>
</event>
<event>
 5    1  0.1019799E-006  0.2000128E+02  0.7818608E-02  0.1745303E+00
         -1   -1    0    0    0  501 -0.00000000000E+00  0.00000000000E+00  0.26202780283E+01  0.26202821899E+01  0.46700000000E-02 0.  1.
          1   -1    0    0  501    0  0.00000000000E+00 -0.00000000000E+00 -0.38168733333E+02  0.38168733619E+02  0.46700000000E-02 0. -1.
       1023    2    1    2    0    0  0.00000000000E+00  0.00000000000E+00 -0.35548455305E+02  0.40789015809E+02  0.20001278361E+02 0.  0.
        -11    1    3    3    0    0 -0.80278055999E+01  0.59638070402E+01 -0.17797173192E+02  0.20414505408E+02  0.51100000000E-03 0. -1.
         11    1    3    3    0    0  0.80278055999E+01 -0.59638070402E+01 -0.17751282113E+02  0.20374510401E+02  0.51100000000E-03 0.  1.
<mgrwt>
<rscale>  0 0.20001278E+02</rscale>
<asrwt>0</asrwt>
<pdfrwt beam="2">  1        1 0.58721128E-02 0.20001278E+02</pdfrwt>
<pdfrwt beam="1">  1       -1 0.40312007E-03 0.20001278E+02</pdfrwt>
<totfact> 0.40989240E+06</totfact>
</mgrwt>
</event>
<event>
 5    1  0.9583198E-007  0.2000073E+02  0.7818608E-02  0.1745314E+00
          1   -1    0    0  501    0  0.00000000000E+00  0.00000000000E+00  0.54863418046E+01  0.54863437921E+01  0.46700000000E-02 0. -1.
         -1   -1    0    0    0  501 -0.00000000000E+00 -0.00000000000E+00 -0.18228400935E+02  0.18228401533E+02  0.46700000000E-02 0.  1.
       1023    2    1    2    0    0  0.00000000000E+00  0.00000000000E+00 -0.12742059130E+02  0.23714745325E+02  0.20000726861E+02 0.  0.
        -11    1    3    3    0    0 -0.84745532298E+01  0.53091569533E+01 -0.64249555451E+01  0.11886347379E+02  0.51100000000E-03 0.  1.
         11    1    3    3    0    0  0.84745532298E+01 -0.53091569533E+01 -0.63171035849E+01  0.11828397946E+02  0.51100000000E-03 0. -1.
<mgrwt>
<rscale>  0 0.20000727E+02</rscale>
<asrwt>0</asrwt>
<pdfrwt beam="1">  1        1 0.84405279E-03 0.20000727E+02</pdfrwt>
<pdfrwt beam="2">  1       -1 0.28043696E-02 0.20000727E+02</pdfrwt>
<totfact> 0.37597745E+06</totfact>
</mgrwt>
</event>
<event>
 5    1  0.9703118E-007  0.2000103E+02  0.7818608E-02  0.1745308E+00
         -1   -1    0    0    0  501 -0.00000000000E+00  0.00000000000E+00  0.80053343932E+01  0.80053357554E+01  0.46700000000E-02 0. -1.
          1   -1    0    0  501    0  0.00000000000E+00 -0.00000000000E+00 -0.12492959248E+02  0.12492960121E+02  0.46700000000E-02 0.  1.
       1023    2    1    2    0    0  0.00000000000E+00  0.00000000000E+00 -0.44876248547E+01  0.20498295876E+02  0.20001033898E+02 0.  0.
        -11    1    3    3    0    0 -0.49585181210E+01 -0.86842312500E+01 -0.23329496386E+01  0.10268662456E+02  0.51100000000E-03 0. -1.
         11    1    3    3    0    0  0.49585181210E+01  0.86842312500E+01 -0.21546752161E+01  0.10229633420E+02  0.51100000000E-03 0.  1.
<mgrwt>
<rscale>  0 0.20001034E+02</rscale>
<asrwt>0</asrwt>
<pdfrwt beam="2">  1        1 0.19219939E-02 0.20001034E+02</pdfrwt>
<pdfrwt beam="1">  1       -1 0.12315901E-02 0.20001034E+02</pdfrwt>
<totfact> 0.38960202E+06</totfact>
</mgrwt>
</event>
<event>
 5    1  0.9583198E-007  0.2001041E+02  0.7818608E-02  0.1745121E+00
         -1   -1    0    0    0  501 -0.00000000000E+00  0.00000000000E+00  0.12427806502E+02  0.12427807379E+02  0.46700000000E-02 0.  1.
          1   -1    0    0  501    0  0.00000000000E+00 -0.00000000000E+00 -0.80548458142E+01  0.80548471679E+01  0.46700000000E-02 0. -1.
       1023    2    1    2    0    0  0.00000000000E+00  0.00000000000E+00  0.43729606874E+01  0.20482654547E+02  0.20010406096E+02 0.  0.
        -11    1    3    3    0    0 -0.67941045739E+01  0.73446341806E+01  0.22111225519E+01  0.10246588281E+02  0.51100000000E-03 0.  1.
         11    1    3    3    0    0  0.67941045739E+01 -0.73446341806E+01  0.21618381356E+01  0.10236066266E+02  0.51100000000E-03 0. -1.
<mgrwt>
<rscale>  0 0.20010406E+02</rscale>
<asrwt>0</asrwt>
<pdfrwt beam="2">  1        1 0.12392072E-02 0.20010406E+02</pdfrwt>
<pdfrwt beam="1">  1       -1 0.19119704E-02 0.20010406E+02</pdfrwt>
<totfact> 0.38235188E+06</totfact>
</mgrwt>
</event>
<event>
 5    1  0.9583198E-007  0.2000443E+02  0.7818608E-02  0.1745240E+00
          1   -1    0    0  501    0  0.00000000000E+00  0.00000000000E+00  0.89116622841E+02  0.89116622964E+02  0.46700000000E-02 0. -1.
         -1   -1    0    0    0  501 -0.00000000000E+00 -0.00000000000E+00 -0.11226167564E+01  0.11226264698E+01  0.46700000000E-02 0.  1.
       1023    2    1    2    0    0  0.00000000000E+00  0.00000000000E+00  0.87994006085E+02  0.90239249433E+02  0.20004425296E+02 0.  0.
        -11    1    3    3    0    0  0.50336139266E+01 -0.86429609931E+01  0.43641416958E+02  0.44772885972E+02  0.51100000000E-03 0.  1.
         11    1    3    3    0    0 -0.50336139266E+01  0.86429609931E+01  0.44352589127E+02  0.45466363462E+02  0.51100000000E-03 0. -1.
<mgrwt>
<rscale>  0 0.20004425E+02</rscale>
<asrwt>0</asrwt>
<pdfrwt beam="1">  1        1 0.13710253E-01 0.20004425E+02</pdfrwt>
<pdfrwt beam="2">  1       -1 0.17271099E-03 0.20004425E+02</pdfrwt>
<totfact> 0.43802140E+06</totfact>
</mgrwt>
</event>
<event>
 5    1  0.1008044E-006  0.2000338E+02  0.7818608E-02  0.1745261E+00
         -1   -1    0    0    0  501 -0.00000000000E+00  0.00000000000E+00  0.11235042105E+01  0.11235139162E+01  0.46700000000E-02 0. -1.
          1   -1    0    0  501    0  0.00000000000E+00 -0.00000000000E+00 -0.89036892144E+02  0.89036892267E+02  0.46700000000E-02 0.  1.
       1023    2    1    2    0    0  0.00000000000E+00  0.00000000000E+00 -0.87913387934E+02  0.90160406183E+02  0.20003376342E+02 0.  0.
        -11    1    3    3    0    0 -0.84332059696E+01  0.53746654096E+01 -0.44707863843E+02  0.45812651973E+02  0.51100000000E-03 0.  1.
         11    1    3    3    0    0  0.84332059696E+01 -0.53746654096E+01 -0.43205524091E+02  0.44347754210E+02  0.51100000000E-03 0. -1.
<mgrwt>
<rscale>  0 0.20003376E+02</rscale>
<asrwt>0</asrwt>
<pdfrwt beam="2">  1        1 0.13697979E-01 0.20003376E+02</pdfrwt>
<pdfrwt beam="1">  1       -1 0.17284763E-03 0.20003376E+02</pdfrwt>
<totfact> 0.43803208E+06</totfact>
</mgrwt>
</event>
<event>
 5    1  0.9583198E-007  0.2000060E+02  0.7818608E-02  0.1745316E+00
          1   -1    0    0  501    0  0.00000000000E+00  0.00000000000E+00  0.35968797388E+02  0.35968797692E+02  0.46700000000E-02 0. -1.
         -1   -1    0    0    0  501 -0.00000000000E+00 -0.00000000000E+00 -0.27803531337E+01  0.27803570557E+01  0.46700000000E-02 0.  1.
       1023    2    1    2    0    0  0.00000000000E+00  0.00000000000E+00  0.33188444255E+02  0.38749154747E+02  0.20000604030E+02 0.  0.
        -11    1    3    3    0    0 -0.68890708265E+01 -0.72489065742E+01  0.16613279650E+02  0.19390900040E+02  0.51100000000E-03 0.  1.
         11    1    3    3    0    0  0.68890708265E+01  0.72489065742E+01  0.16575164605E+02  0.19358254707E+02  0.51100000000E-03 0. -1.
<mgrwt>
<rscale>  0 0.20000604E+02</rscale>
<asrwt>0</asrwt>
<pdfrwt beam="1">  1        1 0.55336614E-02 0.20000604E+02</pdfrwt>
<pdfrwt beam="2">  1       -1 0.42774696E-03 0.20000604E+02</pdfrwt>
<totfact> 0.40851479E+06</totfact>
</mgrwt>
</event>
<event>
 5    1  0.9937075E-007  0.2000124E+02  0.7818608E-02  0.1745303E+00
         -1   -1    0    0    0  501 -0.00000000000E+00  0.00000000000E+00  0.41049308365E+01  0.41049334929E+01  0.46700000000E-02 0. -1.
          1   -1    0    0  501    0  0.00000000000E+00 -0.00000000000E+00 -0.24363948199E+02  0.24363948646E+02  0.46700000000E-02 0.  1.
       1023    2    1    2    0    0  0.00000000000E+00  0.00000000000E+00 -0.20259017362E+02  0.28468882139E+02  0.20001236606E+02 0.  0.
        -11    1    3    3    0    0 -0.15800711907E+01 -0.98744754157E+01 -0.99838215371E+01  0.14130767228E+02  0.51100000000E-03 0.  1.
         11    1    3    3    0    0  0.15800711907E+01  0.98744754157E+01 -0.10275195825E+02  0.14338114911E+02  0.51100000000E-03 0. -1.
<mgrwt>
<rscale>  0 0.20001237E+02</rscale>
<asrwt>0</asrwt>
<pdfrwt beam="2">  1        1 0.37482999E-02 0.20001237E+02</pdfrwt>
<pdfrwt beam="1">  1       -1 0.63152808E-03 0.20001237E+02</pdfrwt>
<totfact> 0.40046127E+06</totfact>
</mgrwt>
</event>
<event>
 5    1  0.9583198E-007  0.2000069E+02  0.7818608E-02  0.1745314E+00
          1   -1    0    0  501    0  0.00000000000E+00  0.00000000000E+00  0.67137871874E+01  0.67137888116E+01  0.46700000000E-02 0. -1.
         -1   -1    0    0    0  501 -0.00000000000E+00 -0.00000000000E+00 -0.14895746399E+02  0.14895747131E+02  0.46700000000E-02 0.  1.
       1023    2    1    2    0    0  0.00000000000E+00  0.00000000000E+00 -0.81819592112E+01  0.21609535942E+02  0.20000689666E+02 0.  0.
        -11    1    3    3    0    0  0.99990235453E+01  0.15129430659E+00 -0.41552152396E+01  0.10829089333E+02  0.51100000000E-03 0.  1.
         11    1    3    3    0    0 -0.99990235453E+01 -0.15129430659E+00 -0.40267439715E+01  0.10780446609E+02  0.51100000000E-03 0. -1.
<mgrwt>
<rscale>  0 0.20000690E+02</rscale>
<asrwt>0</asrwt>
<pdfrwt beam="1">  1        1 0.10328905E-02 0.20000690E+02</pdfrwt>
<pdfrwt beam="2">  1       -1 0.22916535E-02 0.20000690E+02</pdfrwt>
<totfact> 0.37969237E+06</totfact>
</mgrwt>
</event>
<event>
 5    1  0.9583198E-007  0.2000785E+02  0.7818608E-02  0.1745172E+00
          1   -1    0    0  501    0  0.00000000000E+00  0.00000000000E+00  0.74021673281E+01  0.74021688012E+01  0.46700000000E-02 0.  1.
         -1   -1    0    0    0  501 -0.00000000000E+00 -0.00000000000E+00 -0.13520166514E+02  0.13520167321E+02  0.46700000000E-02 0. -1.
       1023    2    1    2    0    0  0.00000000000E+00  0.00000000000E+00 -0.61179991859E+01  0.20922336122E+02  0.20007854327E+02 0.  0.
        -11    1    3    3    0    0  0.45899924742E+01  0.88878077476E+01 -0.29210576921E+01  0.10420831818E+02  0.51100000000E-03 0. -1.
         11    1    3    3    0    0 -0.45899924742E+01 -0.88878077476E+01 -0.31969414938E+01  0.10501504304E+02  0.51100000000E-03 0.  1.
<mgrwt>
<rscale>  0 0.20007854E+02</rscale>
<asrwt>0</asrwt>
<pdfrwt beam="1">  1        1 0.11387951E-02 0.20007854E+02</pdfrwt>
<pdfrwt beam="2">  1       -1 0.20800258E-02 0.20007854E+02</pdfrwt>
<totfact> 0.38106014E+06</totfact>
</mgrwt>
</event>
<event>
 5    1  0.9602695E-007  0.2000094E+02  0.7818608E-02  0.1745309E+00
          1   -1    0    0  501    0  0.00000000000E+00  0.00000000000E+00  0.44542969551E+02  0.44542969795E+02  0.46700000000E-02 0. -1.
         -1   -1    0    0    0  501 -0.00000000000E+00 -0.00000000000E+00 -0.22452305670E+01  0.22452354238E+01  0.46700000000E-02 0.  1.
       1023    2    1    2    0    0  0.00000000000E+00  0.00000000000E+00  0.42297738984E+02  0.46788205219E+02  0.20000935591E+02 0.  0.
        -11    1    3    3    0    0  0.86644580789E+01 -0.49935293261E+01  0.21229462909E+02  0.23466961128E+02  0.51100000000E-03 0.  1.
         11    1    3    3    0    0 -0.86644580789E+01  0.49935293261E+01  0.21068276075E+02  0.23321244091E+02  0.51100000000E-03 0. -1.
<mgrwt>
<rscale>  0 0.20000936E+02</rscale>
<asrwt>0</asrwt>
<pdfrwt beam="1">  1        1 0.68527642E-02 0.20000936E+02</pdfrwt>
<pdfrwt beam="2">  1       -1 0.34542051E-03 0.20000936E+02</pdfrwt>
<totfact> 0.41385491E+06</totfact>
</mgrwt>
</event>
<event>
 5    1  0.1023956E-006  0.2000051E+02  0.7818608E-02  0.1745318E+00
          1   -1    0    0  501    0  0.00000000000E+00  0.00000000000E+00  0.10715967682E+03  0.10715967692E+03  0.46700000000E-02 0.  1.
         -1   -1    0    0    0  501 -0.00000000000E+00 -0.00000000000E+00 -0.93322817139E+00  0.93323985598E+00  0.46700000000E-02 0. -1.
       1023    2    1    2    0    0  0.00000000000E+00  0.00000000000E+00  0.10622644865E+03  0.10809291678E+03  0.20000506619E+02 0.  0.
        -11    1    3    3    0    0  0.66603250112E+00  0.99780213783E+01  0.53240669382E+02  0.54171702820E+02  0.51100000000E-03 0.  1.
         11    1    3    3    0    0 -0.66603250112E+00 -0.99780213783E+01  0.52985779265E+02  0.53921213956E+02  0.51100000000E-03 0. -1.
<mgrwt>
<rscale>  0 0.20000507E+02</rscale>
<asrwt>0</asrwt>
<pdfrwt beam="1">  1        1 0.16486105E-01 0.20000507E+02</pdfrwt>
<pdfrwt beam="2">  1       -1 0.14357447E-03 0.20000507E+02</pdfrwt>
<totfact> 0.44701248E+06</totfact>
</mgrwt>
</event>
<event>
 5    1  0.9583198E-007  0.2000091E+02  0.7818608E-02  0.1745310E+00
          1   -1    0    0  501    0  0.00000000000E+00  0.00000000000E+00  0.21329372689E+01  0.21329423813E+01  0.46700000000E-02 0.  1.
         -1   -1    0    0    0  501 -0.00000000000E+00 -0.00000000000E+00 -0.46887910366E+02  0.46887910599E+02  0.46700000000E-02 0. -1.
       1023    2    1    2    0    0  0.00000000000E+00  0.00000000000E+00 -0.44754973097E+02  0.49020852980E+02  0.20000910228E+02 0.  0.
        -11    1    3    3    0    0 -0.90305167602E+01  0.42956869473E+01 -0.22566429687E+02  0.24682927468E+02  0.51100000000E-03 0.  1.
         11    1    3    3    0    0  0.90305167602E+01 -0.42956869473E+01 -0.22188543411E+02  0.24337925513E+02  0.51100000000E-03 0. -1.
<mgrwt>
<rscale>  0 0.20000910E+02</rscale>
<asrwt>0</asrwt>
<pdfrwt beam="1">  1        1 0.32814464E-03 0.20000910E+02</pdfrwt>
<pdfrwt beam="2">  1       -1 0.72135243E-02 0.20000910E+02</pdfrwt>
<totfact> 0.35150265E+06</totfact>
</mgrwt>
</event>
<event>
 5    1  0.9684190E-007  0.2000131E+02  0.7818608E-02  0.1745302E+00
         -1   -1    0    0    0  501 -0.00000000000E+00  0.00000000000E+00  0.81878022127E+01  0.81878035445E+01  0.46700000000E-02 0. -1.
          1   -1    0    0  501    0  0.00000000000E+00 -0.00000000000E+00 -0.12214887146E+02  0.12214888039E+02  0.46700000000E-02 0.  1.
       1023    2    1    2    0    0  0.00000000000E+00  0.00000000000E+00 -0.40270849335E+01  0.20402691583E+02  0.20001310227E+02 0.  0.
        -11    1    3    3    0    0  0.38904291809E+01  0.92123276402E+01 -0.19081113019E+01  0.10180535780E+02  0.51100000000E-03 0.  1.
         11    1    3    3    0    0 -0.38904291809E+01 -0.92123276402E+01 -0.21189736315E+01  0.10222155804E+02  0.51100000000E-03 0. -1.
<mgrwt>
<rscale>  0 0.20001310E+02</rscale>
<asrwt>0</asrwt>
<pdfrwt beam="2">  1        1 0.18792136E-02 0.20001310E+02</pdfrwt>
<pdfrwt beam="1">  1       -1 0.12596620E-02 0.20001310E+02</pdfrwt>
<totfact> 0.38924712E+06</totfact>
</mgrwt>
</event>
<event>
 5    1  0.9583198E-007  0.2000049E+02  0.7818608E-02  0.1745318E+00
          1   -1    0    0  501    0  0.00000000000E+00  0.00000000000E+00  0.57344733060E+02  0.57344733251E+02  0.46700000000E-02 0.  1.
         -1   -1    0    0    0  501 -0.00000000000E+00 -0.00000000000E+00 -0.17439211613E+01  0.17439274141E+01  0.46700000000E-02 0. -1.
       1023    2    1    2    0    0  0.00000000000E+00  0.00000000000E+00  0.55600811899E+02  0.59088660665E+02  0.20000488377E+02 0.  0.
        -11    1    3    3    0    0 -0.62969278665E+01 -0.77687533349E+01  0.27822242349E+02  0.29564877786E+02  0.51100000000E-03 0. -1.
         11    1    3    3    0    0  0.62969278665E+01  0.77687533349E+01  0.27778569551E+02  0.29523782879E+02  0.51100000000E-03 0.  1.
<mgrwt>
<rscale>  0 0.20000488E+02</rscale>
<asrwt>0</asrwt>
<pdfrwt beam="1">  1        1 0.88222671E-02 0.20000488E+02</pdfrwt>
<pdfrwt beam="2">  1       -1 0.26829606E-03 0.20000488E+02</pdfrwt>
<totfact> 0.42135061E+06</totfact>
</mgrwt>
</event>
<event>
 5    1  0.9583198E-007  0.2000320E+02  0.7818608E-02  0.1745265E+00
         -1   -1    0    0    0  501 -0.00000000000E+00  0.00000000000E+00  0.24635362792E+01  0.24635407056E+01  0.46700000000E-02 0.  1.
          1   -1    0    0  501    0  0.00000000000E+00 -0.00000000000E+00 -0.40604989213E+02  0.40604989482E+02  0.46700000000E-02 0. -1.
       1023    2    1    2    0    0  0.00000000000E+00  0.00000000000E+00 -0.38141452934E+02  0.43068530187E+02  0.20003196259E+02 0.  0.
        -11    1    3    3    0    0 -0.93265537274E+01 -0.36117221809E+01 -0.19185130772E+02  0.21635581447E+02  0.51100000000E-03 0.  1.
         11    1    3    3    0    0  0.93265537274E+01  0.36117221809E+01 -0.18956322162E+02  0.21432948740E+02  0.51100000000E-03 0. -1.
<mgrwt>
<rscale>  0 0.20003196E+02</rscale>
<asrwt>0</asrwt>
<pdfrwt beam="2">  1        1 0.62469213E-02 0.20003196E+02</pdfrwt>
<pdfrwt beam="1">  1       -1 0.37900597E-03 0.20003196E+02</pdfrwt>
<totfact> 0.41133476E+06</totfact>
</mgrwt>
</event>
<event>
 5    1  0.9583198E-007  0.2000836E+02  0.7818608E-02  0.1745162E+00
          1   -1    0    0  501    0  0.00000000000E+00  0.00000000000E+00  0.23126399258E+02  0.23126399730E+02  0.46700000000E-02 0.  1.
         -1   -1    0    0    0  501 -0.00000000000E+00 -0.00000000000E+00 -0.43276749267E+01  0.43276774464E+01  0.46700000000E-02 0. -1.
       1023    2    1    2    0    0  0.00000000000E+00  0.00000000000E+00  0.18798724332E+02  0.27454077176E+02  0.20008356182E+02 0.  0.
        -11    1    3    3    0    0  0.91413188490E+01  0.40643516270E+01  0.93578664107E+01  0.13698625058E+02  0.51100000000E-03 0.  1.
         11    1    3    3    0    0 -0.91413188490E+01 -0.40643516270E+01  0.94408579210E+01  0.13755452119E+02  0.51100000000E-03 0. -1.
<mgrwt>
<rscale>  0 0.20008356E+02</rscale>
<asrwt>0</asrwt>
<pdfrwt beam="1">  1        1 0.35579078E-02 0.20008356E+02</pdfrwt>
<pdfrwt beam="2">  1       -1 0.66579638E-03 0.20008356E+02</pdfrwt>
<totfact> 0.39919813E+06</totfact>
</mgrwt>
</event>
<event>
 5    1  0.9583198E-007  0.2000559E+02  0.7818608E-02  0.1745217E+00
          1   -1    0    0  501    0  0.00000000000E+00  0.00000000000E+00  0.13097626028E+01  0.13097709283E+01  0.46700000000E-02 0. -1.
         -1   -1    0    0    0  501 -0.00000000000E+00 -0.00000000000E+00 -0.76392154254E+02  0.76392154397E+02  0.46700000000E-02 0.  1.
       1023    2    1    2    0    0  0.00000000000E+00  0.00000000000E+00 -0.75082391651E+02  0.77701925325E+02  0.20005590798E+02 0.  0.
        -11    1    3    3    0    0 -0.66496970461E+01 -0.74707993629E+01 -0.38150398949E+02  0.39439627967E+02  0.51100000000E-03 0.  1.
         11    1    3    3    0    0  0.66496970461E+01  0.74707993629E+01 -0.36931992702E+02  0.38262297358E+02  0.51100000000E-03 0. -1.
<mgrwt>
<rscale>  0 0.20005591E+02</rscale>
<asrwt>0</asrwt>
<pdfrwt beam="1">  1        1 0.20150265E-03 0.20005591E+02</pdfrwt>
<pdfrwt beam="2">  1       -1 0.11752636E-01 0.20005591E+02</pdfrwt>
<totfact> 0.33188273E+06</totfact>
</mgrwt>
</event>
<event>
 5    1  0.9583198E-007  0.2000041E+02  0.7818608E-02  0.1745320E+00
         -1   -1    0    0    0  501 -0.00000000000E+00  0.00000000000E+00  0.20559770105E+02  0.20559770635E+02  0.46700000000E-02 0.  1.
          1   -1    0    0  501    0  0.00000000000E+00 -0.00000000000E+00 -0.48640655880E+01  0.48640678298E+01  0.46700000000E-02 0. -1.
       1023    2    1    2    0    0  0.00000000000E+00  0.00000000000E+00  0.15695704517E+02  0.25423838465E+02  0.20000410546E+02 0.  0.
        -11    1    3    3    0    0  0.98068233594E+01 -0.19571107862E+01  0.78399946488E+01  0.12707068245E+02  0.51100000000E-03 0. -1.
         11    1    3    3    0    0 -0.98068233594E+01  0.19571107862E+01  0.78557098681E+01  0.12716770220E+02  0.51100000000E-03 0.  1.
<mgrwt>
<rscale>  0 0.20000411E+02</rscale>
<asrwt>0</asrwt>
<pdfrwt beam="2">  1        1 0.74831798E-03 0.20000411E+02</pdfrwt>
<pdfrwt beam="1">  1       -1 0.31630418E-02 0.20000411E+02</pdfrwt>
<totfact> 0.37358487E+06</totfact>
</mgrwt>
</event>
<event>
 5    1  0.9583198E-007  0.2000341E+02  0.7818608E-02  0.1745260E+00
          1   -1    0    0  501    0  0.00000000000E+00  0.00000000000E+00  0.78454223407E+02  0.78454223546E+02  0.46700000000E-02 0. -1.
         -1   -1    0    0    0  501 -0.00000000000E+00 -0.00000000000E+00 -0.12750583672E+01  0.12750669193E+01  0.46700000000E-02 0.  1.
       1023    2    1    2    0    0  0.00000000000E+00  0.00000000000E+00  0.77179165039E+02  0.79729290465E+02  0.20003405757E+02 0.  0.
        -11    1    3    3    0    0  0.89089273316E+01 -0.45450919990E+01  0.38251078579E+02  0.39536968272E+02  0.51100000000E-03 0. -1.
         11    1    3    3    0    0 -0.89089273316E+01  0.45450919990E+01  0.38928086461E+02  0.40192322192E+02  0.51100000000E-03 0.  1.
<mgrwt>
<rscale>  0 0.20003406E+02</rscale>
<asrwt>0</asrwt>
<pdfrwt beam="1">  1        1 0.12069881E-01 0.20003406E+02</pdfrwt>
<pdfrwt beam="2">  1       -1 0.19616350E-03 0.20003406E+02</pdfrwt>
<totfact> 0.43263132E+06</totfact>
</mgrwt>
</event>
<event>
 5    1  0.9583198E-007  0.2000023E+02  0.7818608E-02  0.1745323E+00
          1   -1    0    0  501    0  0.00000000000E+00  0.00000000000E+00  0.31738631362E+02  0.31738631706E+02  0.46700000000E-02 0.  1.
         -1   -1    0    0    0  501 -0.00000000000E+00 -0.00000000000E+00 -0.31508054647E+01  0.31508089256E+01  0.46700000000E-02 0. -1.
       1023    2    1    2    0    0  0.00000000000E+00  0.00000000000E+00  0.28587825898E+02  0.34889440632E+02  0.20000231949E+02 0.  0.
        -11    1    3    3    0    0  0.45367194728E+01 -0.89118043089E+01  0.14320917147E+02  0.17466847105E+02  0.51100000000E-03 0. -1.
         11    1    3    3    0    0 -0.45367194728E+01  0.89118043089E+01  0.14266908751E+02  0.17422593526E+02  0.51100000000E-03 0.  1.
<mgrwt>
<rscale>  0 0.20000232E+02</rscale>
<asrwt>0</asrwt>
<pdfrwt beam="1">  1        1 0.48828667E-02 0.20000232E+02</pdfrwt>
<pdfrwt beam="2">  1       -1 0.48473959E-03 0.20000232E+02</pdfrwt>
<totfact> 0.40574099E+06</totfact>
</mgrwt>
</event>
<event>
 5    1  0.9583198E-007  0.2000284E+02  0.7818608E-02  0.1745272E+00
          1   -1    0    0  501    0  0.00000000000E+00  0.00000000000E+00  0.97845568358E+00  0.97846682807E+00  0.46700000000E-02 0. -1.
         -1   -1    0    0    0  501 -0.00000000000E+00 -0.00000000000E+00 -0.10223033409E+03  0.10223033420E+03  0.46700000000E-02 0.  1.
       1023    2    1    2    0    0  0.00000000000E+00  0.00000000000E+00 -0.10125187841E+03  0.10320880103E+03  0.20002843002E+02 0.  0.
        -11    1    3    3    0    0 -0.58524685949E+01  0.81102912903E+01 -0.50702175062E+02  0.51679190877E+02  0.51100000000E-03 0.  1.
         11    1    3    3    0    0  0.58524685949E+01 -0.81102912903E+01 -0.50549703348E+02  0.51529610151E+02  0.51100000000E-03 0. -1.
<mgrwt>
<rscale>  0 0.20002843E+02</rscale>
<asrwt>0</asrwt>
<pdfrwt beam="1">  1        1 0.15053259E-03 0.20002843E+02</pdfrwt>
<pdfrwt beam="2">  1       -1 0.15727736E-01 0.20002843E+02</pdfrwt>
<totfact> 0.31738734E+06</totfact>
</mgrwt>
</event>
<event>
 5    1  0.9583198E-007  0.2000118E+02  0.7818608E-02  0.1745305E+00
          1   -1    0    0  501    0  0.00000000000E+00  0.00000000000E+00  0.17383007672E+01  0.17383070403E+01  0.46700000000E-02 0.  1.
         -1   -1    0    0    0  501 -0.00000000000E+00 -0.00000000000E+00 -0.57534100493E+02  0.57534100683E+02  0.46700000000E-02 0. -1.
       1023    2    1    2    0    0  0.00000000000E+00  0.00000000000E+00 -0.55795799726E+02  0.59272407723E+02  0.20001176221E+02 0.  0.
        -11    1    3    3    0    0 -0.98534505383E+01 -0.17089440422E+01 -0.27980931590E+02  0.29714365383E+02  0.51100000000E-03 0.  1.
         11    1    3    3    0    0  0.98534505383E+01  0.17089440422E+01 -0.27814868137E+02  0.29558042340E+02  0.51100000000E-03 0. -1.
<mgrwt>
<rscale>  0 0.20001176E+02</rscale>
<asrwt>0</asrwt>
<pdfrwt beam="1">  1        1 0.26743143E-03 0.20001176E+02</pdfrwt>
<pdfrwt beam="2">  1       -1 0.88513991E-02 0.20001176E+02</pdfrwt>
<totfact> 0.34403621E+06</totfact>
</mgrwt>
</event>
<event>
 5    1  0.9583198E-007  0.2000290E+02  0.7818608E-02  0.1745270E+00
         -1   -1    0    0    0  501 -0.00000000000E+00  0.00000000000E+00  0.15363502501E+01  0.15363573477E+01  0.46700000000E-02 0.  1.
          1   -1    0    0  501    0  0.00000000000E+00 -0.00000000000E+00 -0.65108059727E+02  0.65108059894E+02  0.46700000000E-02 0. -1.
       1023    2    1    2    0    0  0.00000000000E+00  0.00000000000E+00 -0.63571709477E+02  0.66644417242E+02  0.20002902383E+02 0.  0.
        -11    1    3    3    0    0  0.62517642213E+01  0.78048924777E+01 -0.32344586254E+02  0.33855179259E+02  0.51100000000E-03 0.  1.
         11    1    3    3    0    0 -0.62517642213E+01 -0.78048924777E+01 -0.31227123222E+02  0.32789237983E+02  0.51100000000E-03 0. -1.
<mgrwt>
<rscale>  0 0.20002902E+02</rscale>
<asrwt>0</asrwt>
<pdfrwt beam="2">  1        1 0.10016623E-01 0.20002902E+02</pdfrwt>
<pdfrwt beam="1">  1       -1 0.23636219E-03 0.20002902E+02</pdfrwt>
<totfact> 0.42555318E+06</totfact>
</mgrwt>
</event>
<event>
 5    1  0.9583198E-007  0.2000030E+02  0.7818608E-02  0.1745322E+00
          1   -1    0    0  501    0  0.00000000000E+00  0.00000000000E+00  0.93225913245E+00  0.93227082918E+00  0.46700000000E-02 0. -1.
         -1   -1    0    0    0  501 -0.00000000000E+00 -0.00000000000E+00 -0.10726888365E+03  0.10726888375E+03  0.46700000000E-02 0.  1.
       1023    2    1    2    0    0  0.00000000000E+00  0.00000000000E+00 -0.10633662452E+03  0.10820115458E+03  0.20000303469E+02 0.  0.
        -11    1    3    3    0    0 -0.75543568947E+01 -0.65523861743E+01 -0.53336089624E+02  0.54265463504E+02  0.51100000000E-03 0.  1.
         11    1    3    3    0    0  0.75543568947E+01  0.65523861743E+01 -0.53000534896E+02  0.53935691079E+02  0.51100000000E-03 0. -1.
<mgrwt>
<rscale>  0 0.20000303E+02</rscale>
<asrwt>0</asrwt>
<pdfrwt beam="1">  1        1 0.14342547E-03 0.20000303E+02</pdfrwt>
<pdfrwt beam="2">  1       -1 0.16502896E-01 0.20000303E+02</pdfrwt>
<totfact> 0.31482186E+06</totfact>
</mgrwt>
</event>
<event>
 4    1  0.9583198E-007  0.2004495E+02  0.7818608E-02  0.1744436E+00
          1   -1    0    0  501    0  0.00000000000E+00  0.00000000000E+00  0.18645152372E+01  0.18645210856E+01  0.46700000000E-02 0.  1.
         -1   -1    0    0    0  501 -0.00000000000E+00 -0.00000000000E+00 -0.53874488890E+02  0.53874489092E+02  0.46700000000E-02 0. -1.
        -11    1    1    2    0    0  0.61800117277E+01 -0.78796779201E+01 -0.24864883276E+02  0.26805676445E+02  0.51100000000E-03 0.  1.
         11    1    1    2    0    0 -0.61800117277E+01  0.78796779201E+01 -0.27145090376E+02  0.28933333732E+02  0.51100000000E-03 0. -1.
<mgrwt>
<rscale>  0 0.20044947E+02</rscale>
<asrwt>0</asrwt>
<pdfrwt beam="1">  1        1 0.28684900E-03 0.20044947E+02</pdfrwt>
<pdfrwt beam="2">  1       -1 0.82883822E-02 0.20044947E+02</pdfrwt>
<totfact> 0.34487286E+06</totfact>
</mgrwt>
</event>
<event>
 5    1  0.9583198E-007  0.2000176E+02  0.7818608E-02  0.1745293E+00
         -1   -1    0    0    0  501 -0.00000000000E+00  0.00000000000E+00  0.64567030033E+02  0.64567030202E+02  0.46700000000E-02 0.  1.
          1   -1    0    0  501    0  0.00000000000E+00 -0.00000000000E+00 -0.15490467547E+01  0.15490537941E+01  0.46700000000E-02 0. -1.
       1023    2    1    2    0    0  0.00000000000E+00  0.00000000000E+00  0.63017983278E+02  0.66116083996E+02  0.20001758585E+02 0.  0.
        -11    1    3    3    0    0 -0.44385094745E+01  0.89616779667E+01  0.31262780182E+02  0.32823367642E+02  0.51100000000E-03 0.  1.
         11    1    3    3    0    0  0.44385094745E+01 -0.89616779667E+01  0.31755203096E+02  0.33292716355E+02  0.51100000000E-03 0. -1.
<mgrwt>
<rscale>  0 0.20001759E+02</rscale>
<asrwt>0</asrwt>
<pdfrwt beam="2">  1        1 0.23831542E-03 0.20001759E+02</pdfrwt>
<pdfrwt beam="1">  1       -1 0.99333908E-02 0.20001759E+02</pdfrwt>
<totfact> 0.33938171E+06</totfact>
</mgrwt>
</event>
<event>
 5    1  0.9583198E-007  0.2000251E+02  0.7818608E-02  0.1745278E+00
         -1   -1    0    0    0  501 -0.00000000000E+00  0.00000000000E+00  0.11159166956E+02  0.11159167933E+02  0.46700000000E-02 0.  1.
          1   -1    0    0  501    0  0.00000000000E+00 -0.00000000000E+00 -0.89634924823E+01  0.89634936989E+01  0.46700000000E-02 0. -1.
       1023    2    1    2    0    0  0.00000000000E+00  0.00000000000E+00  0.21956744737E+01  0.20122661632E+02  0.20002512961E+02 0.  0.
        -11    1    3    3    0    0 -0.75609805989E+00  0.99726190616E+01  0.10799623954E+01  0.10059380411E+02  0.51100000000E-03 0.  1.
         11    1    3    3    0    0  0.75609805989E+00 -0.99726190616E+01  0.11157120783E+01  0.10063281221E+02  0.51100000000E-03 0. -1.
<mgrwt>
<rscale>  0 0.20002513E+02</rscale>
<asrwt>0</asrwt>
<pdfrwt beam="2">  1        1 0.13789990E-02 0.20002513E+02</pdfrwt>
<pdfrwt beam="1">  1       -1 0.17167951E-02 0.20002513E+02</pdfrwt>
<totfact> 0.38441635E+06</totfact>
</mgrwt>
</event>
<event>
 5    1  0.9583198E-007  0.2000032E+02  0.7818608E-02  0.1745322E+00
         -1   -1    0    0    0  501 -0.00000000000E+00  0.00000000000E+00  0.10119055192E+03  0.10119055203E+03  0.46700000000E-02 0. -1.
          1   -1    0    0  501    0  0.00000000000E+00 -0.00000000000E+00 -0.98826050534E+00  0.98827153926E+00  0.46700000000E-02 0.  1.
       1023    2    1    2    0    0  0.00000000000E+00  0.00000000000E+00  0.10020229142E+03  0.10217882357E+03  0.20000319517E+02 0.  0.
        -11    1    3    3    0    0  0.58574975415E+01  0.81051161707E+01  0.50116766662E+02  0.51104730569E+02  0.51100000000E-03 0.  1.
         11    1    3    3    0    0 -0.58574975415E+01 -0.81051161707E+01  0.50085524753E+02  0.51074092999E+02  0.51100000000E-03 0. -1.
<mgrwt>
<rscale>  0 0.20000320E+02</rscale>
<asrwt>0</asrwt>
<pdfrwt beam="2">  1        1 0.15204095E-03 0.20000320E+02</pdfrwt>
<pdfrwt beam="1">  1       -1 0.15567776E-01 0.20000320E+02</pdfrwt>
<totfact> 0.31802923E+06</totfact>
</mgrwt>
</event>
<event>
 5    1  0.9583198E-007  0.2000071E+02  0.7818608E-02  0.1745314E+00
          1   -1    0    0  501    0  0.00000000000E+00  0.00000000000E+00  0.23982041008E+01  0.23982086477E+01  0.46700000000E-02 0. -1.
         -1   -1    0    0    0  501 -0.00000000000E+00 -0.00000000000E+00 -0.41700799706E+02  0.41700799967E+02  0.46700000000E-02 0.  1.
       1023    2    1    2    0    0  0.00000000000E+00  0.00000000000E+00 -0.39302595605E+02  0.44099008615E+02  0.20000713476E+02 0.  0.
        -11    1    3    3    0    0  0.22054810167E+01 -0.97540610460E+01 -0.19730219289E+02  0.22119841926E+02  0.51100000000E-03 0. -1.
         11    1    3    3    0    0 -0.22054810167E+01  0.97540610460E+01 -0.19572376316E+02  0.21979166688E+02  0.51100000000E-03 0.  1.
<mgrwt>
<rscale>  0 0.20000713E+02</rscale>
<asrwt>0</asrwt>
<pdfrwt beam="1">  1        1 0.36895488E-03 0.20000713E+02</pdfrwt>
<pdfrwt beam="2">  1       -1 0.64155075E-02 0.20000713E+02</pdfrwt>
<totfact> 0.35537672E+06</totfact>
</mgrwt>
</event>
<event>
 5    1  0.9583198E-007  0.2000038E+02  0.7818608E-02  0.1745320E+00
          1   -1    0    0  501    0  0.00000000000E+00  0.00000000000E+00  0.24087312680E+02  0.24087313133E+02  0.46700000000E-02 0. -1.
         -1   -1    0    0    0  501 -0.00000000000E+00 -0.00000000000E+00 -0.41517203857E+01  0.41517230122E+01  0.46700000000E-02 0.  1.
       1023    2    1    2    0    0  0.00000000000E+00  0.00000000000E+00  0.19935592295E+02  0.28239036145E+02  0.20000383053E+02 0.  0.
        -11    1    3    3    0    0 -0.36787335998E+01  0.92989268339E+01  0.99301968527E+01  0.14092974525E+02  0.51100000000E-03 0.  1.
         11    1    3    3    0    0  0.36787335998E+01 -0.92989268339E+01  0.10005395442E+02  0.14146061620E+02  0.51100000000E-03 0. -1.
<mgrwt>
<rscale>  0 0.20000383E+02</rscale>
<asrwt>0</asrwt>
<pdfrwt beam="1">  1        1 0.37057406E-02 0.20000383E+02</pdfrwt>
<pdfrwt beam="2">  1       -1 0.63872646E-03 0.20000383E+02</pdfrwt>
<totfact> 0.40029035E+06</totfact>
</mgrwt>
</event>
<event>
 5    1  0.9708940E-007  0.2000221E+02  0.7818608E-02  0.1745284E+00
          1   -1    0    0  501    0  0.00000000000E+00  0.00000000000E+00  0.29608883908E+02  0.29608884276E+02  0.46700000000E-02 0.  1.
         -1   -1    0    0    0  501 -0.00000000000E+00 -0.00000000000E+00 -0.33781094324E+01  0.33781126604E+01  0.46700000000E-02 0. -1.
       1023    2    1    2    0    0  0.00000000000E+00  0.00000000000E+00  0.26230774476E+02  0.32986996937E+02  0.20002210811E+02 0.  0.
        -11    1    3    3    0    0  0.99439404385E+01  0.10677796996E+01  0.13112033641E+02  0.16490831738E+02  0.51100000000E-03 0. -1.
         11    1    3    3    0    0 -0.99439404385E+01 -0.10677796996E+01  0.13118740834E+02  0.16496165199E+02  0.51100000000E-03 0.  1.
<mgrwt>
<rscale>  0 0.20002211E+02</rscale>
<asrwt>0</asrwt>
<pdfrwt beam="1">  1        1 0.45552129E-02 0.20002211E+02</pdfrwt>
<pdfrwt beam="2">  1       -1 0.51970945E-03 0.20002211E+02</pdfrwt>
<totfact> 0.40419700E+06</totfact>
</mgrwt>
</event>
<event>
 5    1  0.9583198E-007  0.2000042E+02  0.7818608E-02  0.1745320E+00
         -1   -1    0    0    0  501 -0.00000000000E+00  0.00000000000E+00  0.11404016880E+01  0.11404112499E+01  0.46700000000E-02 0. -1.
          1   -1    0    0  501    0  0.00000000000E+00 -0.00000000000E+00 -0.87691741827E+02  0.87691741952E+02  0.46700000000E-02 0.  1.
       1023    2    1    2    0    0  0.00000000000E+00  0.00000000000E+00 -0.86551340139E+02  0.88832153202E+02  0.20000424059E+02 0.  0.
        -11    1    3    3    0    0 -0.82220576278E+01 -0.56922275874E+01 -0.43380194772E+02  0.44517917576E+02  0.51100000000E-03 0. -1.
         11    1    3    3    0    0  0.82220576278E+01  0.56922275874E+01 -0.43171145367E+02  0.44314235626E+02  0.51100000000E-03 0.  1.
<mgrwt>
<rscale>  0 0.20000424E+02</rscale>
<asrwt>0</asrwt>
<pdfrwt beam="2">  1        1 0.13491033E-01 0.20000424E+02</pdfrwt>
<pdfrwt beam="1">  1       -1 0.17544723E-03 0.20000424E+02</pdfrwt>
<totfact> 0.43749777E+06</totfact>
</mgrwt>
</event>
<event>
 4    1  0.9583198E-007  0.2002873E+02  0.7818608E-02  0.1744757E+00
         -1   -1    0    0    0  501 -0.00000000000E+00  0.00000000000E+00  0.10112935202E+03  0.10112935213E+03  0.46700000000E-02 0. -1.
          1   -1    0    0  501    0  0.00000000000E+00 -0.00000000000E+00 -0.99167005224E+00  0.99168104823E+00  0.46700000000E-02 0.  1.
        -11    1    1    2    0    0 -0.34615688905E+01 -0.93970249616E+01  0.50228390754E+02  0.51216967651E+02  0.51100000000E-03 0. -1.
         11    1    1    2    0    0  0.34615688905E+01  0.93970249616E+01  0.49909291214E+02  0.50904065526E+02  0.51100000000E-03 0.  1.
<mgrwt>
<rscale>  0 0.20028731E+02</rscale>
<asrwt>0</asrwt>
<pdfrwt beam="2">  1        1 0.15256553E-03 0.20028731E+02</pdfrwt>
<pdfrwt beam="1">  1       -1 0.15558357E-01 0.20028731E+02</pdfrwt>
<totfact> 0.31707442E+06</totfact>
</mgrwt>
</event>
<event>
 5    1  0.9583198E-007  0.2000089E+02  0.7818608E-02  0.1745310E+00
          1   -1    0    0  501    0  0.00000000000E+00  0.00000000000E+00  0.35905096401E+01  0.35905126771E+01  0.46700000000E-02 0.  1.
         -1   -1    0    0    0  501 -0.00000000000E+00 -0.00000000000E+00 -0.27853660407E+02  0.27853660799E+02  0.46700000000E-02 0. -1.
       1023    2    1    2    0    0  0.00000000000E+00  0.00000000000E+00 -0.24263150767E+02  0.31444173476E+02  0.20000888991E+02 0.  0.
        -11    1    3    3    0    0 -0.54576247372E+01  0.83798645947E+01 -0.12183514233E+02  0.15762164119E+02  0.51100000000E-03 0. -1.
         11    1    3    3    0    0  0.54576247372E+01 -0.83798645947E+01 -0.12079636535E+02  0.15682009357E+02  0.51100000000E-03 0.  1.
<mgrwt>
<rscale>  0 0.20000889E+02</rscale>
<asrwt>0</asrwt>
<pdfrwt beam="1">  1        1 0.55238638E-03 0.20000889E+02</pdfrwt>
<pdfrwt beam="2">  1       -1 0.42851786E-02 0.20000889E+02</pdfrwt>
<totfact> 0.36670851E+06</totfact>
</mgrwt>
</event>
<event>
 5    1  0.9583198E-007  0.2000115E+02  0.7818608E-02  0.1745305E+00
         -1   -1    0    0    0  501 -0.00000000000E+00  0.00000000000E+00  0.46809511022E+02  0.46809511255E+02  0.46700000000E-02 0. -1.
          1   -1    0    0  501    0  0.00000000000E+00 -0.00000000000E+00 -0.21365606095E+01  0.21365657132E+01  0.46700000000E-02 0.  1.
       1023    2    1    2    0    0  0.00000000000E+00  0.00000000000E+00  0.44672950412E+02  0.48946076968E+02  0.20001148767E+02 0.  0.
        -11    1    3    3    0    0 -0.70128814080E+00  0.99754080534E+01  0.22080786423E+02  0.24239672031E+02  0.51100000000E-03 0. -1.
         11    1    3    3    0    0  0.70128814080E+00 -0.99754080534E+01  0.22592163989E+02  0.24706404936E+02  0.51100000000E-03 0.  1.
<mgrwt>
<rscale>  0 0.20001149E+02</rscale>
<asrwt>0</asrwt>
<pdfrwt beam="2">  1        1 0.32870205E-03 0.20001149E+02</pdfrwt>
<pdfrwt beam="1">  1       -1 0.72014635E-02 0.20001149E+02</pdfrwt>
<totfact> 0.35155062E+06</totfact>
</mgrwt>
</event>
<event>
 5    1  0.9762155E-007  0.2000078E+02  0.7818608E-02  0.1745313E+00
          1   -1    0    0  501    0  0.00000000000E+00  0.00000000000E+00  0.71432257902E+02  0.71432258055E+02  0.46700000000E-02 0. -1.
         -1   -1    0    0    0  501 -0.00000000000E+00 -0.00000000000E+00 -0.14000332367E+01  0.14000410254E+01  0.46700000000E-02 0.  1.
       1023    2    1    2    0    0  0.00000000000E+00  0.00000000000E+00  0.70032224666E+02  0.72832299080E+02  0.20000782428E+02 0.  0.
        -11    1    3    3    0    0  0.91291806920E+01 -0.40821651882E+01  0.35171097083E+02  0.36565175823E+02  0.51100000000E-03 0.  1.
         11    1    3    3    0    0 -0.91291806920E+01  0.40821651882E+01  0.34861127583E+02  0.36267123257E+02  0.51100000000E-03 0. -1.
<mgrwt>
<rscale>  0 0.20000782E+02</rscale>
<asrwt>0</asrwt>
<pdfrwt beam="1">  1        1 0.10989580E-01 0.20000782E+02</pdfrwt>
<pdfrwt beam="2">  1       -1 0.21539031E-03 0.20000782E+02</pdfrwt>
<totfact> 0.42906744E+06</totfact>
</mgrwt>
</event>
<event>
 4    1  0.9583198E-007  0.2001476E+02  0.7818608E-02  0.1745035E+00
         -1   -1    0    0    0  501 -0.00000000000E+00  0.00000000000E+00  0.61702767822E+01  0.61702785495E+01  0.46700000000E-02 0.  1.
          1   -1    0    0  501    0  0.00000000000E+00 -0.00000000000E+00 -0.16230650207E+02  0.16230650879E+02  0.46700000000E-02 0. -1.
        -11    1    1    2    0    0  0.26309386138E+01  0.96491474481E+01 -0.46428866917E+01  0.11026526269E+02  0.51100000000E-03 0. -1.
         11    1    1    2    0    0 -0.26309386138E+01 -0.96491474481E+01 -0.54174867327E+01  0.11374403159E+02  0.51100000000E-03 0.  1.
<mgrwt>
<rscale>  0 0.20014758E+02</rscale>
<asrwt>0</asrwt>
<pdfrwt beam="2">  1        1 0.24970233E-02 0.20014758E+02</pdfrwt>
<pdfrwt beam="1">  1       -1 0.94927354E-03 0.20014758E+02</pdfrwt>
<totfact> 0.39302339E+06</totfact>
</mgrwt>
</event>
<event>
 5    1  0.9621299E-007  0.2000098E+02  0.7818608E-02  0.1745309E+00
         -1   -1    0    0    0  501 -0.00000000000E+00  0.00000000000E+00  0.25200098557E+02  0.25200098990E+02  0.46700000000E-02 0. -1.
          1   -1    0    0  501    0  0.00000000000E+00 -0.00000000000E+00 -0.39686239621E+01  0.39686267097E+01  0.46700000000E-02 0.  1.
       1023    2    1    2    0    0  0.00000000000E+00  0.00000000000E+00  0.21231474595E+02  0.29168725699E+02  0.20000976112E+02 0.  0.
        -11    1    3    3    0    0 -0.59240587716E+01 -0.80569164523E+01  0.10561442746E+02  0.14544842666E+02  0.51100000000E-03 0.  1.
         11    1    3    3    0    0  0.59240587716E+01  0.80569164523E+01  0.10670031849E+02  0.14623883033E+02  0.51100000000E-03 0. -1.
<mgrwt>
<rscale>  0 0.20000976E+02</rscale>
<asrwt>0</asrwt>
<pdfrwt beam="2">  1        1 0.61055777E-03 0.20000976E+02</pdfrwt>
<pdfrwt beam="1">  1       -1 0.38769385E-02 0.20000976E+02</pdfrwt>
<totfact> 0.36910324E+06</totfact>
</mgrwt>
</event>
<event>
 5    1  0.9583198E-007  0.2000050E+02  0.7818608E-02  0.1745318E+00
          1   -1    0    0  501    0  0.00000000000E+00  0.00000000000E+00  0.16544639848E+02  0.16544640507E+02  0.46700000000E-02 0. -1.
         -1   -1    0    0    0  501 -0.00000000000E+00 -0.00000000000E+00 -0.60445515257E+01  0.60445533297E+01  0.46700000000E-02 0.  1.
       1023    2    1    2    0    0  0.00000000000E+00  0.00000000000E+00  0.10500088322E+02  0.22589193837E+02  0.20000495579E+02 0.  0.
        -11    1    3    3    0    0 -0.86128963833E+01 -0.50815155414E+01  0.52886979295E+01  0.11312564270E+02  0.51100000000E-03 0. -1.
         11    1    3    3    0    0  0.86128963833E+01  0.50815155414E+01  0.52113903929E+01  0.11276629567E+02  0.51100000000E-03 0.  1.
<mgrwt>
<rscale>  0 0.20000496E+02</rscale>
<asrwt>0</asrwt>
<pdfrwt beam="1">  1        1 0.25453293E-02 0.20000496E+02</pdfrwt>
<pdfrwt beam="2">  1       -1 0.92993122E-03 0.20000496E+02</pdfrwt>
<totfact> 0.39395570E+06</totfact>
</mgrwt>
</event>
<event>
 5    1  0.9934714E-007  0.2000098E+02  0.7818608E-02  0.1745309E+00
         -1   -1    0    0    0  501 -0.00000000000E+00  0.00000000000E+00  0.21098040648E+01  0.21098092332E+01  0.46700000000E-02 0. -1.
          1   -1    0    0  501    0  0.00000000000E+00 -0.00000000000E+00 -0.47402369416E+02  0.47402369646E+02  0.46700000000E-02 0.  1.
       1023    2    1    2    0    0  0.00000000000E+00  0.00000000000E+00 -0.45292565351E+02  0.49512178879E+02  0.20000984508E+02 0.  0.
        -11    1    3    3    0    0  0.99981176731E+01  0.21671927917E+00 -0.22589789030E+02  0.24704410394E+02  0.51100000000E-03 0.  1.
         11    1    3    3    0    0 -0.99981176731E+01 -0.21671927917E+00 -0.22702776321E+02  0.24807768485E+02  0.51100000000E-03 0. -1.
<mgrwt>
<rscale>  0 0.20000985E+02</rscale>
<asrwt>0</asrwt>
<pdfrwt beam="2">  1        1 0.72926718E-02 0.20000985E+02</pdfrwt>
<pdfrwt beam="1">  1       -1 0.32458569E-03 0.20000985E+02</pdfrwt>
<totfact> 0.41556873E+06</totfact>
</mgrwt>
</event>
<event>
 5    1  0.9583198E-007  0.2000051E+02  0.7818608E-02  0.1745318E+00
          1   -1    0    0  501    0  0.00000000000E+00  0.00000000000E+00  0.17026853647E+02  0.17026854288E+02  0.46700000000E-02 0.  1.
         -1   -1    0    0    0  501 -0.00000000000E+00 -0.00000000000E+00 -0.58733757280E+01  0.58733775846E+01  0.46700000000E-02 0. -1.
       1023    2    1    2    0    0  0.00000000000E+00  0.00000000000E+00  0.11153477920E+02  0.22900231873E+02  0.20000513746E+02 0.  0.
        -11    1    3    3    0    0  0.99824481662E+01 -0.59459746648E+00  0.56318853984E+01  0.11476974817E+02  0.51100000000E-03 0.  1.
         11    1    3    3    0    0 -0.99824481662E+01  0.59459746648E+00  0.55215925211E+01  0.11423257056E+02  0.51100000000E-03 0. -1.
<mgrwt>
<rscale>  0 0.20000514E+02</rscale>
<asrwt>0</asrwt>
<pdfrwt beam="1">  1        1 0.26195161E-02 0.20000514E+02</pdfrwt>
<pdfrwt beam="2">  1       -1 0.90359646E-03 0.20000514E+02</pdfrwt>
<totfact> 0.39441031E+06</totfact>
</mgrwt>
</event>
<event>
 5    1  0.9583198E-007  0.2000044E+02  0.7818608E-02  0.1745319E+00
          1   -1    0    0  501    0  0.00000000000E+00  0.00000000000E+00  0.70645228452E+01  0.70645243887E+01  0.46700000000E-02 0. -1.
         -1   -1    0    0    0  501 -0.00000000000E+00 -0.00000000000E+00 -0.14155850693E+02  0.14155851463E+02  0.46700000000E-02 0.  1.
       1023    2    1    2    0    0  0.00000000000E+00  0.00000000000E+00 -0.70913278480E+01  0.21220375852E+02  0.20000435512E+02 0.  0.
        -11    1    3    3    0    0  0.17678206102E+01 -0.98427032977E+01 -0.35657105142E+01  0.10616887004E+02  0.51100000000E-03 0.  1.
         11    1    3    3    0    0 -0.17678206102E+01  0.98427032977E+01 -0.35256173338E+01  0.10603488849E+02  0.51100000000E-03 0. -1.
<mgrwt>
<rscale>  0 0.20000436E+02</rscale>
<asrwt>0</asrwt>
<pdfrwt beam="1">  1        1 0.10868499E-02 0.20000436E+02</pdfrwt>
<pdfrwt beam="2">  1       -1 0.21778234E-02 0.20000436E+02</pdfrwt>
<totfact> 0.38058755E+06</totfact>
</mgrwt>
</event>
<event>
 5    1  0.9583198E-007  0.2000045E+02  0.7818608E-02  0.1745319E+00
         -1   -1    0    0    0  501 -0.00000000000E+00  0.00000000000E+00  0.82984186024E+02  0.82984186156E+02  0.46700000000E-02 0.  1.
          1   -1    0    0  501    0  0.00000000000E+00 -0.00000000000E+00 -0.12050985926E+01  0.12051076412E+01  0.46700000000E-02 0. -1.
       1023    2    1    2    0    0  0.00000000000E+00  0.00000000000E+00  0.81779087432E+02  0.84189293797E+02  0.20000451216E+02 0.  0.
        -11    1    3    3    0    0 -0.84908707608E+01 -0.52829550493E+01  0.40875192643E+02  0.42080706674E+02  0.51100000000E-03 0. -1.
         11    1    3    3    0    0  0.84908707608E+01  0.52829550493E+01  0.40903894788E+02  0.42108587123E+02  0.51100000000E-03 0.  1.
<mgrwt>
<rscale>  0 0.20000451E+02</rscale>
<asrwt>0</asrwt>
<pdfrwt beam="2">  1        1 0.18540047E-03 0.20000451E+02</pdfrwt>
<pdfrwt beam="1">  1       -1 0.12766800E-01 0.20000451E+02</pdfrwt>
<totfact> 0.32816837E+06</totfact>
</mgrwt>
</event>
<event>
 5    1  0.9583198E-007  0.2000145E+02  0.7818608E-02  0.1745299E+00
         -1   -1    0    0    0  501 -0.00000000000E+00  0.00000000000E+00  0.77306666282E+02  0.77306666423E+02  0.46700000000E-02 0.  1.
          1   -1    0    0  501    0  0.00000000000E+00 -0.00000000000E+00 -0.12937320875E+01  0.12937405162E+01  0.46700000000E-02 0. -1.
       1023    2    1    2    0    0  0.00000000000E+00  0.00000000000E+00  0.76012934194E+02  0.78600406939E+02  0.20001445102E+02 0.  0.
        -11    1    3    3    0    0  0.34414256191E+01 -0.93898661215E+01  0.37856558704E+02  0.39155229960E+02  0.51100000000E-03 0. -1.
         11    1    3    3    0    0 -0.34414256191E+01  0.93898661215E+01  0.38156375491E+02  0.39445176979E+02  0.51100000000E-03 0.  1.
<mgrwt>
<rscale>  0 0.20001445E+02</rscale>
<asrwt>0</asrwt>
<pdfrwt beam="2">  1        1 0.19903630E-03 0.20001445E+02</pdfrwt>
<pdfrwt beam="1">  1       -1 0.11893338E-01 0.20001445E+02</pdfrwt>
<totfact> 0.33148425E+06</totfact>
</mgrwt>
</event>
<event>
 5    1  0.9583198E-007  0.2000045E+02  0.7818608E-02  0.1745319E+00
         -1   -1    0    0    0  501 -0.00000000000E+00  0.00000000000E+00  0.63378131886E+01  0.63378149092E+01  0.46700000000E-02 0. -1.
          1   -1    0    0  501    0  0.00000000000E+00 -0.00000000000E+00 -0.15779015516E+02  0.15779016208E+02  0.46700000000E-02 0.  1.
       1023    2    1    2    0    0  0.00000000000E+00  0.00000000000E+00 -0.94412023279E+01  0.22116831117E+02  0.20000447926E+02 0.  0.
        -11    1    3    3    0    0 -0.98145859173E+01 -0.19168944483E+01 -0.46515606540E+01  0.11028943641E+02  0.51100000000E-03 0.  1.
         11    1    3    3    0    0  0.98145859173E+01  0.19168944483E+01 -0.47896416738E+01  0.11087887476E+02  0.51100000000E-03 0. -1.
<mgrwt>
<rscale>  0 0.20000448E+02</rscale>
<asrwt>0</asrwt>
<pdfrwt beam="2">  1        1 0.24275410E-02 0.20000448E+02</pdfrwt>
<pdfrwt beam="1">  1       -1 0.97504838E-03 0.20000448E+02</pdfrwt>
<totfact> 0.39321370E+06</totfact>
</mgrwt>
</event>
<event>
 5    1  0.9667583E-007  0.2000144E+02  0.7818608E-02  0.1745300E+00
          1   -1    0    0  501    0  0.00000000000E+00  0.00000000000E+00  0.52542805928E+02  0.52542806135E+02  0.46700000000E-02 0.  1.
         -1   -1    0    0    0  501 -0.00000000000E+00 -0.00000000000E+00 -0.19034802737E+01  0.19034860024E+01  0.46700000000E-02 0. -1.
       1023    2    1    2    0    0  0.00000000000E+00  0.00000000000E+00  0.50639325654E+02  0.54446292138E+02  0.20001435570E+02 0.  0.
        -11    1    3    3    0    0  0.79984511630E+01 -0.60031471561E+01  0.25219306798E+02  0.27129807084E+02  0.51100000000E-03 0.  1.
         11    1    3    3    0    0 -0.79984511630E+01  0.60031471561E+01  0.25420018856E+02  0.27316485054E+02  0.51100000000E-03 0. -1.
<mgrwt>
<rscale>  0 0.20001436E+02</rscale>
<asrwt>0</asrwt>
<pdfrwt beam="1">  1        1 0.80835081E-02 0.20001436E+02</pdfrwt>
<pdfrwt beam="2">  1       -1 0.29284361E-03 0.20001436E+02</pdfrwt>
<totfact> 0.41856219E+06</totfact>
</mgrwt>
</event>
<event>
 5    1  0.9660698E-007  0.2000083E+02  0.7818608E-02  0.1745312E+00
         -1   -1    0    0    0  501 -0.00000000000E+00  0.00000000000E+00  0.10771346445E+02  0.10771347457E+02  0.46700000000E-02 0.  1.
          1   -1    0    0  501    0  0.00000000000E+00 -0.00000000000E+00 -0.92846593113E+01  0.92846604857E+01  0.46700000000E-02 0. -1.
       1023    2    1    2    0    0  0.00000000000E+00  0.00000000000E+00  0.14866871335E+01  0.20056007943E+02  0.20000830382E+02 0.  0.
        -11    1    3    3    0    0  0.10229295227E+01 -0.99479514821E+01  0.72988148219E+00  0.10027006071E+02  0.51100000000E-03 0.  1.
         11    1    3    3    0    0 -0.10229295227E+01  0.99479514821E+01  0.75680565127E+00  0.10029001872E+02  0.51100000000E-03 0. -1.
<mgrwt>
<rscale>  0 0.20000830E+02</rscale>
<asrwt>0</asrwt>
<pdfrwt beam="2">  1        1 0.14284093E-02 0.20000830E+02</pdfrwt>
<pdfrwt beam="1">  1       -1 0.16571304E-02 0.20000830E+02</pdfrwt>
<totfact> 0.38504540E+06</totfact>
</mgrwt>
</event>
<event>
 5    1  0.9583198E-007  0.2000037E+02  0.7818608E-02  0.1745321E+00
          1   -1    0    0  501    0  0.00000000000E+00  0.00000000000E+00  0.18316858921E+01  0.18316918454E+01  0.46700000000E-02 0.  1.
         -1   -1    0    0    0  501 -0.00000000000E+00 -0.00000000000E+00 -0.54596444024E+02  0.54596444224E+02  0.46700000000E-02 0. -1.
       1023    2    1    2    0    0  0.00000000000E+00  0.00000000000E+00 -0.52764758132E+02  0.56428136069E+02  0.20000370985E+02 0.  0.
        -11    1    3    3    0    0 -0.72548157228E+01 -0.68825254813E+01 -0.26514755762E+02  0.28337850687E+02  0.51100000000E-03 0.  1.
         11    1    3    3    0    0  0.72548157228E+01  0.68825254813E+01 -0.26250002369E+02  0.28090285382E+02  0.51100000000E-03 0. -1.
<mgrwt>
<rscale>  0 0.20000371E+02</rscale>
<asrwt>0</asrwt>
<pdfrwt beam="1">  1        1 0.28179834E-03 0.20000371E+02</pdfrwt>
<pdfrwt beam="2">  1       -1 0.83994522E-02 0.20000371E+02</pdfrwt>
<totfact> 0.34606658E+06</totfact>
</mgrwt>
</event>
<event>
 5    1  0.9583198E-007  0.2000044E+02  0.7818608E-02  0.1745319E+00
         -1   -1    0    0    0  501 -0.00000000000E+00  0.00000000000E+00  0.63017204648E+02  0.63017204821E+02  0.46700000000E-02 0. -1.
          1   -1    0    0  501    0  0.00000000000E+00 -0.00000000000E+00 -0.15869341787E+01  0.15869410501E+01  0.46700000000E-02 0.  1.
       1023    2    1    2    0    0  0.00000000000E+00  0.00000000000E+00  0.61430270469E+02  0.64604145871E+02  0.20000438341E+02 0.  0.
        -11    1    3    3    0    0  0.84611904399E+01  0.53301651342E+01  0.30571433196E+02  0.32165430697E+02  0.51100000000E-03 0.  1.
         11    1    3    3    0    0 -0.84611904399E+01 -0.53301651342E+01  0.30858837274E+02  0.32438715174E+02  0.51100000000E-03 0. -1.
<mgrwt>
<rscale>  0 0.20000438E+02</rscale>
<asrwt>0</asrwt>
<pdfrwt beam="2">  1        1 0.24414429E-03 0.20000438E+02</pdfrwt>
<pdfrwt beam="1">  1       -1 0.96949541E-02 0.20000438E+02</pdfrwt>
<totfact> 0.34043402E+06</totfact>
</mgrwt>
</event>
<event>
 5    1  0.9583198E-007  0.2000195E+02  0.7818608E-02  0.1745289E+00
         -1   -1    0    0    0  501 -0.00000000000E+00  0.00000000000E+00  0.12699264601E+02  0.12699265460E+02  0.46700000000E-02 0.  1.
          1   -1    0    0  501    0  0.00000000000E+00 -0.00000000000E+00 -0.78760064103E+01  0.78760077949E+01  0.46700000000E-02 0. -1.
       1023    2    1    2    0    0  0.00000000000E+00  0.00000000000E+00  0.48232581909E+01  0.20575273255E+02  0.20001951153E+02 0.  0.
        -11    1    3    3    0    0 -0.94529050984E+01 -0.32652853487E+01  0.24085408122E+01  0.10286912672E+02  0.51100000000E-03 0. -1.
         11    1    3    3    0    0  0.94529050984E+01  0.32652853487E+01  0.24147173787E+01  0.10288360583E+02  0.51100000000E-03 0.  1.
<mgrwt>
<rscale>  0 0.20001951E+02</rscale>
<asrwt>0</asrwt>
<pdfrwt beam="2">  1        1 0.12116935E-02 0.20001951E+02</pdfrwt>
<pdfrwt beam="1">  1       -1 0.19537332E-02 0.20001951E+02</pdfrwt>
<totfact> 0.38235126E+06</totfact>
</mgrwt>
</event>
<event>
 5    1  0.9583198E-007  0.2000038E+02  0.7818608E-02  0.1745321E+00
         -1   -1    0    0    0  501 -0.00000000000E+00  0.00000000000E+00  0.97695356417E+01  0.97695367579E+01  0.46700000000E-02 0. -1.
          1   -1    0    0  501    0  0.00000000000E+00 -0.00000000000E+00 -0.10236285334E+02  0.10236286399E+02  0.46700000000E-02 0.  1.
       1023    2    1    2    0    0  0.00000000000E+00  0.00000000000E+00 -0.46674969179E+00  0.20005823157E+02  0.20000377619E+02 0.  0.
        -11    1    3    3    0    0 -0.72491625581E+01 -0.68885206065E+01 -0.19210800457E+00  0.10001948794E+02  0.51100000000E-03 0.  1.
         11    1    3    3    0    0  0.72491625581E+01  0.68885206065E+01 -0.27464168722E+00  0.10003874362E+02  0.51100000000E-03 0. -1.
<mgrwt>
<rscale>  0 0.20000378E+02</rscale>
<asrwt>0</asrwt>
<pdfrwt beam="2">  1        1 0.15748133E-02 0.20000378E+02</pdfrwt>
<pdfrwt beam="1">  1       -1 0.15030056E-02 0.20000378E+02</pdfrwt>
<totfact> 0.38658432E+06</totfact>
</mgrwt>
</event>
<event>
 4    1  0.9583198E-007  0.2012243E+02  0.7818608E-02  0.1742904E+00
         -1   -1    0    0    0  501 -0.00000000000E+00  0.00000000000E+00  0.56275801115E+02  0.56275801309E+02  0.46700000000E-02 0. -1.
          1   -1    0    0  501    0  0.00000000000E+00 -0.00000000000E+00 -0.17987813366E+01  0.17987873988E+01  0.46700000000E-02 0.  1.
        -11    1    1    2    0    0 -0.32632257655E+01 -0.95135867339E+01  0.28007888903E+02  0.29759012349E+02  0.51100000000E-03 0.  1.
         11    1    1    2    0    0  0.32632257655E+01  0.95135867339E+01  0.26469130875E+02  0.28315576358E+02  0.51100000000E-03 0. -1.
<mgrwt>
<rscale>  0 0.20122430E+02</rscale>
<asrwt>0</asrwt>
<pdfrwt beam="2">  1        1 0.27673602E-03 0.20122430E+02</pdfrwt>
<pdfrwt beam="1">  1       -1 0.86578176E-02 0.20122430E+02</pdfrwt>
<totfact> 0.34033605E+06</totfact>
</mgrwt>
</event>
<event>
 5    1  0.9583198E-007  0.2000892E+02  0.7818608E-02  0.1745151E+00
         -1   -1    0    0    0  501 -0.00000000000E+00  0.00000000000E+00  0.75116990578E+02  0.75116990724E+02  0.46700000000E-02 0. -1.
          1   -1    0    0  501    0  0.00000000000E+00 -0.00000000000E+00 -0.13324396249E+01  0.13324478087E+01  0.46700000000E-02 0.  1.
       1023    2    1    2    0    0  0.00000000000E+00  0.00000000000E+00  0.73784550954E+02  0.76449438532E+02  0.20008915325E+02 0.  0.
        -11    1    3    3    0    0 -0.99636520863E+01 -0.86035786433E+00  0.35848748694E+02  0.37217567918E+02  0.51100000000E-03 0. -1.
         11    1    3    3    0    0  0.99636520863E+01  0.86035786433E+00  0.37935802260E+02  0.39231870615E+02  0.51100000000E-03 0.  1.
<mgrwt>
<rscale>  0 0.20008915E+02</rscale>
<asrwt>0</asrwt>
<pdfrwt beam="2">  1        1 0.20499138E-03 0.20008915E+02</pdfrwt>
<pdfrwt beam="1">  1       -1 0.11556459E-01 0.20008915E+02</pdfrwt>
<totfact> 0.33253171E+06</totfact>
</mgrwt>
</event>
<event>
 5    1  0.9583198E-007  0.2000725E+02  0.7818608E-02  0.1745184E+00
          1   -1    0    0  501    0  0.00000000000E+00  0.00000000000E+00  0.16743692164E+01  0.16743757289E+01  0.46700000000E-02 0. -1.
         -1   -1    0    0    0  501 -0.00000000000E+00 -0.00000000000E+00 -0.59767197372E+02  0.59767197554E+02  0.46700000000E-02 0.  1.
       1023    2    1    2    0    0  0.00000000000E+00  0.00000000000E+00 -0.58092828156E+02  0.61441573283E+02  0.20007254795E+02 0.  0.
        -11    1    3    3    0    0 -0.51224957850E+01  0.85903545854E+01 -0.28444584343E+02  0.30151758384E+02  0.51100000000E-03 0.  1.
         11    1    3    3    0    0  0.51224957850E+01 -0.85903545854E+01 -0.29648243813E+02  0.31289814899E+02  0.51100000000E-03 0. -1.
<mgrwt>
<rscale>  0 0.20007255E+02</rscale>
<asrwt>0</asrwt>
<pdfrwt beam="1">  1        1 0.25759582E-03 0.20007255E+02</pdfrwt>
<pdfrwt beam="2">  1       -1 0.91949523E-02 0.20007255E+02</pdfrwt>
<totfact> 0.34231363E+06</totfact>
</mgrwt>
</event>
<event>
 5    1  0.9583198E-007  0.2000195E+02  0.7818608E-02  0.1745289E+00
          1   -1    0    0  501    0  0.00000000000E+00  0.00000000000E+00  0.17042441638E+01  0.17042505622E+01  0.46700000000E-02 0.  1.
         -1   -1    0    0    0  501 -0.00000000000E+00 -0.00000000000E+00 -0.58688388843E+02  0.58688389029E+02  0.46700000000E-02 0. -1.
       1023    2    1    2    0    0  0.00000000000E+00  0.00000000000E+00 -0.56984144680E+02  0.60392639592E+02  0.20001954204E+02 0.  0.
        -11    1    3    3    0    0 -0.17864252449E+01 -0.98400375802E+01 -0.28360879010E+02  0.30072530875E+02  0.51100000000E-03 0. -1.
         11    1    3    3    0    0  0.17864252449E+01  0.98400375802E+01 -0.28623265670E+02  0.30320108717E+02  0.51100000000E-03 0.  1.
<mgrwt>
<rscale>  0 0.20001954E+02</rscale>
<asrwt>0</asrwt>
<pdfrwt beam="1">  1        1 0.26219196E-03 0.20001954E+02</pdfrwt>
<pdfrwt beam="2">  1       -1 0.90289818E-02 0.20001954E+02</pdfrwt>
<totfact> 0.34323187E+06</totfact>
</mgrwt>
</event>
<event>
 4    1  0.1116716E-006  0.2020119E+02  0.7818608E-02  0.1741357E+00
         -1   -1    0    0    0  501 -0.00000000000E+00  0.00000000000E+00  0.92156909667E+01  0.92156921500E+01  0.46700000000E-02 0.  1.
          1   -1    0    0  501    0  0.00000000000E+00 -0.00000000000E+00 -0.11070464385E+02  0.11070465370E+02  0.46700000000E-02 0. -1.
        -11    1    1    2    0    0  0.47582984807E+01  0.88119670093E+01  0.39337665473E+00  0.10022320712E+02  0.51100000000E-03 0. -1.
         11    1    1    2    0    0 -0.47582984807E+01 -0.88119670093E+01 -0.22481500731E+01  0.10263836808E+02  0.51100000000E-03 0.  1.
<mgrwt>
<rscale>  0 0.20201188E+02</rscale>
<asrwt>0</asrwt>
<pdfrwt beam="2">  1        1 0.17031485E-02 0.20201188E+02</pdfrwt>
<pdfrwt beam="1">  1       -1 0.14177988E-02 0.20201188E+02</pdfrwt>
<totfact> 0.37911756E+06</totfact>
</mgrwt>
</event>
<event>
 4    1  0.9583198E-007  0.2004260E+02  0.7818608E-02  0.1744482E+00
          1   -1    0    0  501    0  0.00000000000E+00  0.00000000000E+00  0.51152555643E+01  0.51152576960E+01  0.46700000000E-02 0. -1.
         -1   -1    0    0    0  501 -0.00000000000E+00 -0.00000000000E+00 -0.19632721322E+02  0.19632721877E+02  0.46700000000E-02 0.  1.
        -11    1    1    2    0    0 -0.94290903782E+01 -0.33929735391E+01 -0.73575543454E+01  0.12431959661E+02  0.51100000000E-03 0.  1.
         11    1    1    2    0    0  0.94290903782E+01  0.33929735391E+01 -0.71599114124E+01  0.12316019913E+02  0.51100000000E-03 0. -1.
<mgrwt>
<rscale>  0 0.20042597E+02</rscale>
<asrwt>0</asrwt>
<pdfrwt beam="1">  1        1 0.78696261E-03 0.20042597E+02</pdfrwt>
<pdfrwt beam="2">  1       -1 0.30204188E-02 0.20042597E+02</pdfrwt>
<totfact> 0.37279630E+06</totfact>
</mgrwt>
</event>
<event>
 5    1  0.9583198E-007  0.2000101E+02  0.7818608E-02  0.1745308E+00
         -1   -1    0    0    0  501 -0.00000000000E+00  0.00000000000E+00  0.89646110471E+02  0.89646110592E+02  0.46700000000E-02 0.  1.
          1   -1    0    0  501    0  0.00000000000E+00 -0.00000000000E+00 -0.11156052285E+01  0.11156150029E+01  0.46700000000E-02 0. -1.
       1023    2    1    2    0    0  0.00000000000E+00  0.00000000000E+00  0.88530505242E+02  0.90761725595E+02  0.20001011839E+02 0.  0.
        -11    1    3    3    0    0 -0.82932790415E+01  0.55883637408E+01  0.44459472053E+02  0.45570307680E+02  0.51100000000E-03 0.  1.
         11    1    3    3    0    0  0.82932790415E+01 -0.55883637408E+01  0.44071033190E+02  0.45191417916E+02  0.51100000000E-03 0. -1.
<mgrwt>
<rscale>  0 0.20001012E+02</rscale>
<asrwt>0</asrwt>
<pdfrwt beam="2">  1        1 0.17163234E-03 0.20001012E+02</pdfrwt>
<pdfrwt beam="1">  1       -1 0.13791710E-01 0.20001012E+02</pdfrwt>
<totfact> 0.32433491E+06</totfact>
</mgrwt>
</event>
<event>
 5    1  0.9630612E-007  0.2000120E+02  0.7818608E-02  0.1745304E+00
         -1   -1    0    0    0  501 -0.00000000000E+00  0.00000000000E+00  0.46534982723E+01  0.46535006155E+01  0.46700000000E-02 0.  1.
          1   -1    0    0  501    0  0.00000000000E+00 -0.00000000000E+00 -0.21491780376E+02  0.21491780884E+02  0.46700000000E-02 0. -1.
       1023    2    1    2    0    0  0.00000000000E+00  0.00000000000E+00 -0.16838282104E+02  0.26145281499E+02  0.20001199976E+02 0.  0.
        -11    1    3    3    0    0  0.89703096793E+01  0.44207995224E+01 -0.83595859531E+01  0.13034285624E+02  0.51100000000E-03 0.  1.
         11    1    3    3    0    0 -0.89703096793E+01 -0.44207995224E+01 -0.84786961511E+01  0.13110995875E+02  0.51100000000E-03 0. -1.
<mgrwt>
<rscale>  0 0.20001200E+02</rscale>
<asrwt>0</asrwt>
<pdfrwt beam="2">  1        1 0.33064279E-02 0.20001200E+02</pdfrwt>
<pdfrwt beam="1">  1       -1 0.71592304E-03 0.20001200E+02</pdfrwt>
<totfact> 0.39822973E+06</totfact>
</mgrwt>
</event>
<event>
 5    1  0.9583198E-007  0.2000020E+02  0.7818608E-02  0.1745324E+00
          1   -1    0    0  501    0  0.00000000000E+00  0.00000000000E+00  0.99510834218E+02  0.99510834328E+02  0.46700000000E-02 0. -1.
         -1   -1    0    0    0  501 -0.00000000000E+00 -0.00000000000E+00 -0.10049297668E+01  0.10049406177E+01  0.46700000000E-02 0.  1.
       1023    2    1    2    0    0  0.00000000000E+00  0.00000000000E+00  0.98505904452E+02  0.10051577495E+03  0.20000195027E+02 0.  0.
        -11    1    3    3    0    0  0.38060542897E+01 -0.92474290199E+01  0.49097455941E+02  0.50105500425E+02  0.51100000000E-03 0. -1.
         11    1    3    3    0    0 -0.38060542897E+01  0.92474290199E+01  0.49408448511E+02  0.50410274520E+02  0.51100000000E-03 0.  1.
<mgrwt>
<rscale>  0 0.20000195E+02</rscale>
<asrwt>0</asrwt>
<pdfrwt beam="1">  1        1 0.15309361E-01 0.20000195E+02</pdfrwt>
<pdfrwt beam="2">  1       -1 0.15460541E-03 0.20000195E+02</pdfrwt>
<totfact> 0.44335974E+06</totfact>
</mgrwt>
</event>
<event>
 5    1  0.9662443E-007  0.2000094E+02  0.7818608E-02  0.1745309E+00
         -1   -1    0    0    0  501 -0.00000000000E+00  0.00000000000E+00  0.11565135096E+02  0.11565136039E+02  0.46700000000E-02 0. -1.
          1   -1    0    0  501    0  0.00000000000E+00 -0.00000000000E+00 -0.86474929760E+01  0.86474942370E+01  0.46700000000E-02 0.  1.
       1023    2    1    2    0    0  0.00000000000E+00  0.00000000000E+00  0.29176421198E+01  0.20212630276E+02  0.20000944656E+02 0.  0.
        -11    1    3    3    0    0 -0.74090705171E+01 -0.67166567579E+01  0.14997788733E+01  0.10112227295E+02  0.51100000000E-03 0.  1.
         11    1    3    3    0    0  0.74090705171E+01  0.67166567579E+01  0.14178632465E+01  0.10100402981E+02  0.51100000000E-03 0. -1.
<mgrwt>
<rscale>  0 0.20000945E+02</rscale>
<asrwt>0</asrwt>
<pdfrwt beam="2">  1        1 0.13303837E-02 0.20000945E+02</pdfrwt>
<pdfrwt beam="1">  1       -1 0.17792517E-02 0.20000945E+02</pdfrwt>
<totfact> 0.38391256E+06</totfact>
</mgrwt>
</event>
<event>
 5    1  0.9583198E-007  0.2000414E+02  0.7818608E-02  0.1745246E+00
          1   -1    0    0  501    0  0.00000000000E+00  0.00000000000E+00  0.84871034414E+02  0.84871034543E+02  0.46700000000E-02 0. -1.
         -1   -1    0    0    0  501 -0.00000000000E+00 -0.00000000000E+00 -0.11787410899E+01  0.11787503408E+01  0.46700000000E-02 0.  1.
       1023    2    1    2    0    0  0.00000000000E+00  0.00000000000E+00  0.83692293325E+02  0.86049784884E+02  0.20004137487E+02 0.  0.
        -11    1    3    3    0    0 -0.47508804578E+01  0.88015974460E+01  0.41635580617E+02  0.42820095240E+02  0.51100000000E-03 0. -1.
         11    1    3    3    0    0  0.47508804578E+01 -0.88015974460E+01  0.42056712707E+02  0.43229689644E+02  0.51100000000E-03 0.  1.
<mgrwt>
<rscale>  0 0.20004137E+02</rscale>
<asrwt>0</asrwt>
<pdfrwt beam="1">  1        1 0.13057083E-01 0.20004137E+02</pdfrwt>
<pdfrwt beam="2">  1       -1 0.18134551E-03 0.20004137E+02</pdfrwt>
<totfact> 0.43588926E+06</totfact>
</mgrwt>
</event>
<event>
 5    1  0.9583198E-007  0.2000027E+02  0.7818608E-02  0.1745323E+00
          1   -1    0    0  501    0  0.00000000000E+00  0.00000000000E+00  0.22483549635E+01  0.22483598135E+01  0.46700000000E-02 0.  1.
         -1   -1    0    0    0  501 -0.00000000000E+00 -0.00000000000E+00 -0.44478122498E+02  0.44478122743E+02  0.46700000000E-02 0. -1.
       1023    2    1    2    0    0  0.00000000000E+00  0.00000000000E+00 -0.42229767535E+02  0.46726482557E+02  0.20000272651E+02 0.  0.
        -11    1    3    3    0    0  0.87051268773E+01 -0.49216309137E+01 -0.21190279863E+02  0.23431381644E+02  0.51100000000E-03 0. -1.
         11    1    3    3    0    0 -0.87051268773E+01  0.49216309137E+01 -0.21039487672E+02  0.23295100913E+02  0.51100000000E-03 0.  1.
<mgrwt>
<rscale>  0 0.20000273E+02</rscale>
<asrwt>0</asrwt>
<pdfrwt beam="1">  1        1 0.34590119E-03 0.20000273E+02</pdfrwt>
<pdfrwt beam="2">  1       -1 0.68427878E-02 0.20000273E+02</pdfrwt>
<totfact> 0.35330230E+06</totfact>
</mgrwt>
</event>
<event>
 5    1  0.9583198E-007  0.2000107E+02  0.7818608E-02  0.1745307E+00
          1   -1    0    0  501    0  0.00000000000E+00  0.00000000000E+00  0.23563065022E+01  0.23563111299E+01  0.46700000000E-02 0.  1.
         -1   -1    0    0    0  501 -0.00000000000E+00 -0.00000000000E+00 -0.42443776084E+02  0.42443776341E+02  0.46700000000E-02 0. -1.
       1023    2    1    2    0    0  0.00000000000E+00  0.00000000000E+00 -0.40087469582E+02  0.44800087471E+02  0.20001065470E+02 0.  0.
        -11    1    3    3    0    0 -0.73882657762E+01  0.67396920275E+01 -0.20104456498E+02  0.22454377995E+02  0.51100000000E-03 0.  1.
         11    1    3    3    0    0  0.73882657762E+01 -0.67396920275E+01 -0.19983013084E+02  0.22345709476E+02  0.51100000000E-03 0. -1.
<mgrwt>
<rscale>  0 0.20001065E+02</rscale>
<asrwt>0</asrwt>
<pdfrwt beam="1">  1        1 0.36250910E-03 0.20001065E+02</pdfrwt>
<pdfrwt beam="2">  1       -1 0.65298115E-02 0.20001065E+02</pdfrwt>
<totfact> 0.35479844E+06</totfact>
</mgrwt>
</event>
<event>
 5    1  0.9583198E-007  0.2000170E+02  0.7818608E-02  0.1745294E+00
          1   -1    0    0  501    0  0.00000000000E+00  0.00000000000E+00  0.10540407970E+01  0.10540511423E+01  0.46700000000E-02 0. -1.
         -1   -1    0    0    0  501 -0.00000000000E+00 -0.00000000000E+00 -0.94888648999E+02  0.94888649114E+02  0.46700000000E-02 0.  1.
       1023    2    1    2    0    0  0.00000000000E+00  0.00000000000E+00 -0.93834608202E+02  0.95942700256E+02  0.20001700828E+02 0.  0.
        -11    1    3    3    0    0 -0.24149501095E+01 -0.97048565007E+01 -0.46782908980E+02  0.47839907991E+02  0.51100000000E-03 0.  1.
         11    1    3    3    0    0  0.24149501095E+01  0.97048565007E+01 -0.47051699222E+02  0.48102792265E+02  0.51100000000E-03 0. -1.
<mgrwt>
<rscale>  0 0.20001701E+02</rscale>
<asrwt>0</asrwt>
<pdfrwt beam="1">  1        1 0.16216100E-03 0.20001701E+02</pdfrwt>
<pdfrwt beam="2">  1       -1 0.14598248E-01 0.20001701E+02</pdfrwt>
<totfact> 0.32139464E+06</totfact>
</mgrwt>
</event>
<event>
 5    1  0.9583198E-007  0.2000228E+02  0.7818608E-02  0.1745283E+00
         -1   -1    0    0    0  501 -0.00000000000E+00  0.00000000000E+00  0.12337503770E+02  0.12337504654E+02  0.46700000000E-02 0. -1.
          1   -1    0    0  501    0  0.00000000000E+00 -0.00000000000E+00 -0.81072117621E+01  0.81072131071E+01  0.46700000000E-02 0.  1.
       1023    2    1    2    0    0  0.00000000000E+00  0.00000000000E+00  0.42302920076E+01  0.20444717761E+02  0.20002277716E+02 0.  0.
        -11    1    3    3    0    0 -0.58665246272E+01  0.80997927358E+01  0.21202191022E+01  0.10223408574E+02  0.51100000000E-03 0.  1.
         11    1    3    3    0    0  0.58665246272E+01 -0.80997927358E+01  0.21100729054E+01  0.10221309187E+02  0.51100000000E-03 0. -1.
<mgrwt>
<rscale>  0 0.20002278E+02</rscale>
<asrwt>0</asrwt>
<pdfrwt beam="2">  1        1 0.12472635E-02 0.20002278E+02</pdfrwt>
<pdfrwt beam="1">  1       -1 0.18980777E-02 0.20002278E+02</pdfrwt>
<totfact> 0.38281149E+06</totfact>
</mgrwt>
</event>
<event>
 5    1  0.9794932E-007  0.2000187E+02  0.7818608E-02  0.1745291E+00
         -1   -1    0    0    0  501 -0.00000000000E+00  0.00000000000E+00  0.15653540266E+01  0.15653609927E+01  0.46700000000E-02 0.  1.
          1   -1    0    0  501    0  0.00000000000E+00 -0.00000000000E+00 -0.63895122442E+02  0.63895122612E+02  0.46700000000E-02 0. -1.
       1023    2    1    2    0    0  0.00000000000E+00  0.00000000000E+00 -0.62329768415E+02  0.65460483605E+02  0.20001871991E+02 0.  0.
        -11    1    3    3    0    0 -0.96743687948E+01 -0.25347570853E+01 -0.31223011966E+02  0.32785589541E+02  0.51100000000E-03 0. -1.
         11    1    3    3    0    0  0.96743687948E+01  0.25347570853E+01 -0.31106756449E+02  0.32674894064E+02  0.51100000000E-03 0.  1.
<mgrwt>
<rscale>  0 0.20001872E+02</rscale>
<asrwt>0</asrwt>
<pdfrwt beam="2">  1        1 0.98300173E-02 0.20001872E+02</pdfrwt>
<pdfrwt beam="1">  1       -1 0.24082430E-03 0.20001872E+02</pdfrwt>
<totfact> 0.42493690E+06</totfact>
</mgrwt>
</event>
<event>
 5    1  0.9737701E-007  0.2000063E+02  0.7818608E-02  0.1745316E+00
         -1   -1    0    0    0  501 -0.00000000000E+00  0.00000000000E+00  0.94849546839E+00  0.94850696490E+00  0.46700000000E-02 0.  1.
          1   -1    0    0  501    0  0.00000000000E+00 -0.00000000000E+00 -0.10543612102E+03  0.10543612113E+03  0.46700000000E-02 0. -1.
       1023    2    1    2    0    0  0.00000000000E+00  0.00000000000E+00 -0.10448762556E+03  0.10638462809E+03  0.20000629992E+02 0.  0.
        -11    1    3    3    0    0  0.84788793236E+01  0.53017915906E+01 -0.52652762227E+02  0.53593971294E+02  0.51100000000E-03 0. -1.
         11    1    3    3    0    0 -0.84788793236E+01 -0.53017915906E+01 -0.51834863329E+02  0.52790656799E+02  0.51100000000E-03 0.  1.
<mgrwt>
<rscale>  0 0.20000630E+02</rscale>
<asrwt>0</asrwt>
<pdfrwt beam="2">  1        1 0.16220933E-01 0.20000630E+02</pdfrwt>
<pdfrwt beam="1">  1       -1 0.14592336E-03 0.20000630E+02</pdfrwt>
<totfact> 0.44618840E+06</totfact>
</mgrwt>
</event>
<event>
 5    1  0.9583198E-007  0.2000262E+02  0.7818608E-02  0.1745276E+00
         -1   -1    0    0    0  501 -0.00000000000E+00  0.00000000000E+00  0.15071684397E+02  0.15071685120E+02  0.46700000000E-02 0. -1.
          1   -1    0    0  501    0  0.00000000000E+00 -0.00000000000E+00 -0.66366959666E+01  0.66366976096E+01  0.46700000000E-02 0.  1.
       1023    2    1    2    0    0  0.00000000000E+00  0.00000000000E+00  0.84349884301E+01  0.21708382730E+02  0.20002621101E+02 0.  0.
        -11    1    3    3    0    0  0.99914609309E+01  0.42858737075E+00  0.40926458453E+01  0.10805680402E+02  0.51100000000E-03 0. -1.
         11    1    3    3    0    0 -0.99914609309E+01 -0.42858737075E+00  0.43423425847E+01  0.10902702328E+02  0.51100000000E-03 0.  1.
<mgrwt>
<rscale>  0 0.20002621E+02</rscale>
<asrwt>0</asrwt>
<pdfrwt beam="2">  1        1 0.10210303E-02 0.20002621E+02</pdfrwt>
<pdfrwt beam="1">  1       -1 0.23187208E-02 0.20002621E+02</pdfrwt>
<totfact> 0.37940543E+06</totfact>
</mgrwt>
</event>
<event>
 5    1  0.9583198E-007  0.2000037E+02  0.7818608E-02  0.1745321E+00
          1   -1    0    0  501    0  0.00000000000E+00  0.00000000000E+00  0.37231334345E+01  0.37231363634E+01  0.46700000000E-02 0. -1.
         -1   -1    0    0    0  501 -0.00000000000E+00 -0.00000000000E+00 -0.26860069517E+02  0.26860069923E+02  0.46700000000E-02 0.  1.
       1023    2    1    2    0    0  0.00000000000E+00  0.00000000000E+00 -0.23136936083E+02  0.30583206287E+02  0.20000367384E+02 0.  0.
        -11    1    3    3    0    0  0.76761808967E+01  0.64091829780E+01 -0.11495229100E+02  0.15236196111E+02  0.51100000000E-03 0.  1.
         11    1    3    3    0    0 -0.76761808967E+01 -0.64091829780E+01 -0.11641706983E+02  0.15347010176E+02  0.51100000000E-03 0. -1.
<mgrwt>
<rscale>  0 0.20000367E+02</rscale>
<asrwt>0</asrwt>
<pdfrwt beam="1">  1        1 0.57279003E-03 0.20000367E+02</pdfrwt>
<pdfrwt beam="2">  1       -1 0.41323185E-02 0.20000367E+02</pdfrwt>
<totfact> 0.36761707E+06</totfact>
</mgrwt>
</event>
<event>
 5    1  0.9583198E-007  0.2000021E+02  0.7818608E-02  0.1745324E+00
          1   -1    0    0  501    0  0.00000000000E+00  0.00000000000E+00  0.21907607198E+02  0.21907607696E+02  0.46700000000E-02 0.  1.
         -1   -1    0    0    0  501 -0.00000000000E+00 -0.00000000000E+00 -0.45647179836E+01  0.45647203725E+01  0.46700000000E-02 0. -1.
       1023    2    1    2    0    0  0.00000000000E+00  0.00000000000E+00  0.17342889214E+02  0.26472328068E+02  0.20000208675E+02 0.  0.
        -11    1    3    3    0    0 -0.98830895557E+01  0.15247967872E+01  0.86181362258E+01  0.13201239967E+02  0.51100000000E-03 0.  1.
         11    1    3    3    0    0  0.98830895557E+01 -0.15247967872E+01  0.87247529886E+01  0.13271088101E+02  0.51100000000E-03 0. -1.
<mgrwt>
<rscale>  0 0.20000209E+02</rscale>
<asrwt>0</asrwt>
<pdfrwt beam="1">  1        1 0.33704013E-02 0.20000209E+02</pdfrwt>
<pdfrwt beam="2">  1       -1 0.70226453E-03 0.20000209E+02</pdfrwt>
<totfact> 0.39860655E+06</totfact>
</mgrwt>
</event>
<event>
 5    1  0.9583198E-007  0.2000042E+02  0.7818608E-02  0.1745320E+00
         -1   -1    0    0    0  501 -0.00000000000E+00  0.00000000000E+00  0.15765449429E+02  0.15765450121E+02  0.46700000000E-02 0.  1.
          1   -1    0    0  501    0  0.00000000000E+00 -0.00000000000E+00 -0.63432501275E+01  0.63432518465E+01  0.46700000000E-02 0. -1.
       1023    2    1    2    0    0  0.00000000000E+00  0.00000000000E+00  0.94221993015E+01  0.22108701967E+02  0.20000421570E+02 0.  0.
        -11    1    3    3    0    0  0.43777989575E+01 -0.89910263715E+01  0.46854940813E+01  0.11043438503E+02  0.51100000000E-03 0.  1.
         11    1    3    3    0    0 -0.43777989575E+01  0.89910263715E+01  0.47367052201E+01  0.11065263464E+02  0.51100000000E-03 0. -1.
<mgrwt>
<rscale>  0 0.20000422E+02</rscale>
<asrwt>0</asrwt>
<pdfrwt beam="2">  1        1 0.97588483E-03 0.20000422E+02</pdfrwt>
<pdfrwt beam="1">  1       -1 0.24254539E-02 0.20000422E+02</pdfrwt>
<totfact> 0.37869545E+06</totfact>
</mgrwt>
</event>
<event>
 5    1  0.1000981E-006  0.2000067E+02  0.7818608E-02  0.1745315E+00
          1   -1    0    0  501    0  0.00000000000E+00  0.00000000000E+00  0.65257665756E+02  0.65257665923E+02  0.46700000000E-02 0.  1.
         -1   -1    0    0    0  501 -0.00000000000E+00 -0.00000000000E+00 -0.15324854265E+01  0.15324925420E+01  0.46700000000E-02 0. -1.
       1023    2    1    2    0    0  0.00000000000E+00  0.00000000000E+00  0.63725180330E+02  0.66790158465E+02  0.20000666483E+02 0.  0.
        -11    1    3    3    0    0 -0.87812257819E+01  0.47845387273E+01  0.32097005691E+02  0.33618737508E+02  0.51100000000E-03 0.  1.
         11    1    3    3    0    0  0.87812257819E+01 -0.47845387273E+01  0.31628174639E+02  0.33171420957E+02  0.51100000000E-03 0. -1.
<mgrwt>
<rscale>  0 0.20000666E+02</rscale>
<asrwt>0</asrwt>
<pdfrwt beam="1">  1        1 0.10039643E-01 0.20000666E+02</pdfrwt>
<pdfrwt beam="2">  1       -1 0.23576752E-03 0.20000666E+02</pdfrwt>
<totfact> 0.42574041E+06</totfact>
</mgrwt>
</event>
<event>
 5    1  0.1007324E-006  0.2000072E+02  0.7818608E-02  0.1745314E+00
         -1   -1    0    0    0  501 -0.00000000000E+00  0.00000000000E+00  0.10492710000E+01  0.10492813923E+01  0.46700000000E-02 0. -1.
          1   -1    0    0  501    0  0.00000000000E+00 -0.00000000000E+00 -0.95310596750E+02  0.95310596865E+02  0.46700000000E-02 0.  1.
       1023    2    1    2    0    0  0.00000000000E+00  0.00000000000E+00 -0.94261325750E+02  0.96359878257E+02  0.20000715125E+02 0.  0.
        -11    1    3    3    0    0  0.24837302900E+01  0.96867380593E+01 -0.47482750739E+02  0.48524359124E+02  0.51100000000E-03 0. -1.
         11    1    3    3    0    0 -0.24837302900E+01 -0.96867380593E+01 -0.46778575011E+02  0.47835519133E+02  0.51100000000E-03 0.  1.
<mgrwt>
<rscale>  0 0.20000715E+02</rscale>
<asrwt>0</asrwt>
<pdfrwt beam="2">  1        1 0.14663163E-01 0.20000715E+02</pdfrwt>
<pdfrwt beam="1">  1       -1 0.16142719E-03 0.20000715E+02</pdfrwt>
<totfact> 0.44128033E+06</totfact>
</mgrwt>
</event>
<event>
 5    1  0.9583198E-007  0.2000023E+02  0.7818608E-02  0.1745323E+00
          1   -1    0    0  501    0  0.00000000000E+00  0.00000000000E+00  0.34097383976E+01  0.34097415956E+01  0.46700000000E-02 0.  1.
         -1   -1    0    0    0  501 -0.00000000000E+00 -0.00000000000E+00 -0.29328434657E+02  0.29328435029E+02  0.46700000000E-02 0. -1.
       1023    2    1    2    0    0  0.00000000000E+00  0.00000000000E+00 -0.25918696260E+02  0.32738176625E+02  0.20000234821E+02 0.  0.
        -11    1    3    3    0    0  0.77033943035E+01  0.63763916025E+01 -0.12891970623E+02  0.16315745783E+02  0.51100000000E-03 0. -1.
         11    1    3    3    0    0 -0.77033943035E+01 -0.63763916025E+01 -0.13026725637E+02  0.16422430842E+02  0.51100000000E-03 0.  1.
<mgrwt>
<rscale>  0 0.20000235E+02</rscale>
<asrwt>0</asrwt>
<pdfrwt beam="1">  1        1 0.52457543E-03 0.20000235E+02</pdfrwt>
<pdfrwt beam="2">  1       -1 0.45120670E-02 0.20000235E+02</pdfrwt>
<totfact> 0.36543788E+06</totfact>
</mgrwt>
</event>
<event>
 5    1  0.9583198E-007  0.2001121E+02  0.7818608E-02  0.1745105E+00
          1   -1    0    0  501    0  0.00000000000E+00  0.00000000000E+00  0.11464311555E+02  0.11464312506E+02  0.46700000000E-02 0. -1.
         -1   -1    0    0    0  501 -0.00000000000E+00 -0.00000000000E+00 -0.87325023140E+01  0.87325035627E+01  0.46700000000E-02 0.  1.
       1023    2    1    2    0    0  0.00000000000E+00  0.00000000000E+00  0.27318092408E+01  0.20196816069E+02  0.20011211797E+02 0.  0.
        -11    1    3    3    0    0  0.91324171421E-01  0.10005017357E+02  0.13067373365E+01  0.10090405103E+02  0.51100000000E-03 0.  1.
         11    1    3    3    0    0 -0.91324171421E-01 -0.10005017357E+02  0.14250719043E+01  0.10106410966E+02  0.51100000000E-03 0. -1.
<mgrwt>
<rscale>  0 0.20011212E+02</rscale>
<asrwt>0</asrwt>
<pdfrwt beam="1">  1        1 0.17637404E-02 0.20011212E+02</pdfrwt>
<pdfrwt beam="2">  1       -1 0.13434621E-02 0.20011212E+02</pdfrwt>
<totfact> 0.38784697E+06</totfact>
</mgrwt>
</event>
<event>
 5    1  0.9583198E-007  0.2000142E+02  0.7818608E-02  0.1745300E+00
          1   -1    0    0  501    0  0.00000000000E+00  0.00000000000E+00  0.15929854541E+01  0.15929922994E+01  0.46700000000E-02 0. -1.
         -1   -1    0    0    0  501 -0.00000000000E+00 -0.00000000000E+00 -0.62784004152E+02  0.62784004325E+02  0.46700000000E-02 0.  1.
       1023    2    1    2    0    0  0.00000000000E+00  0.00000000000E+00 -0.61191018697E+02  0.64376996625E+02  0.20001423079E+02 0.  0.
        -11    1    3    3    0    0  0.33801250466E+01  0.94118797603E+01 -0.30356699806E+02  0.31961507307E+02  0.51100000000E-03 0. -1.
         11    1    3    3    0    0 -0.33801250466E+01 -0.94118797603E+01 -0.30834318891E+02  0.32415489317E+02  0.51100000000E-03 0.  1.
<mgrwt>
<rscale>  0 0.20001423E+02</rscale>
<asrwt>0</asrwt>
<pdfrwt beam="1">  1        1 0.24507527E-03 0.20001423E+02</pdfrwt>
<pdfrwt beam="2">  1       -1 0.96590762E-02 0.20001423E+02</pdfrwt>
<totfact> 0.34054899E+06</totfact>
</mgrwt>
</event>
<event>
 5    1  0.9583198E-007  0.2000036E+02  0.7818608E-02  0.1745321E+00
          1   -1    0    0  501    0  0.00000000000E+00  0.00000000000E+00  0.94692811189E+00  0.94693962743E+00  0.46700000000E-02 0.  1.
         -1   -1    0    0    0  501 -0.00000000000E+00 -0.00000000000E+00 -0.10560781007E+03  0.10560781018E+03  0.46700000000E-02 0. -1.
       1023    2    1    2    0    0  0.00000000000E+00  0.00000000000E+00 -0.10466088196E+03  0.10655474980E+03  0.20000362318E+02 0.  0.
        -11    1    3    3    0    0 -0.53481255990E+01  0.84499021957E+01 -0.52426989254E+02  0.53372207159E+02  0.51100000000E-03 0.  1.
         11    1    3    3    0    0  0.53481255990E+01 -0.84499021957E+01 -0.52233892708E+02  0.53182542645E+02  0.51100000000E-03 0. -1.
<mgrwt>
<rscale>  0 0.20000362E+02</rscale>
<asrwt>0</asrwt>
<pdfrwt beam="1">  1        1 0.14568223E-03 0.20000362E+02</pdfrwt>
<pdfrwt beam="2">  1       -1 0.16247347E-01 0.20000362E+02</pdfrwt>
<totfact> 0.31568878E+06</totfact>
</mgrwt>
</event>
<event>
 5    1  0.9583198E-007  0.2000009E+02  0.7818608E-02  0.1745326E+00
         -1   -1    0    0    0  501 -0.00000000000E+00  0.00000000000E+00  0.85143778727E+02  0.85143778855E+02  0.46700000000E-02 0.  1.
          1   -1    0    0  501    0  0.00000000000E+00 -0.00000000000E+00 -0.11744894154E+01  0.11744986997E+01  0.46700000000E-02 0. -1.
       1023    2    1    2    0    0  0.00000000000E+00  0.00000000000E+00  0.83969289312E+02  0.86318277555E+02  0.20000087313E+02 0.  0.
        -11    1    3    3    0    0 -0.62851262911E+01 -0.77780380077E+01  0.41925921990E+02  0.43102014138E+02  0.51100000000E-03 0.  1.
         11    1    3    3    0    0  0.62851262911E+01  0.77780380077E+01  0.42043367322E+02  0.43216263417E+02  0.51100000000E-03 0. -1.
<mgrwt>
<rscale>  0 0.20000087E+02</rscale>
<asrwt>0</asrwt>
<pdfrwt beam="2">  1        1 0.18069133E-03 0.20000087E+02</pdfrwt>
<pdfrwt beam="1">  1       -1 0.13099049E-01 0.20000087E+02</pdfrwt>
<totfact> 0.32693153E+06</totfact>
</mgrwt>
</event>
<event>
 5    1  0.9583198E-007  0.2000057E+02  0.7818608E-02  0.1745317E+00
         -1   -1    0    0    0  501 -0.00000000000E+00  0.00000000000E+00  0.49060747201E+01  0.49060769428E+01  0.46700000000E-02 0.  1.
          1   -1    0    0  501    0  0.00000000000E+00 -0.00000000000E+00 -0.20384047412E+02  0.20384047946E+02  0.46700000000E-02 0. -1.
       1023    2    1    2    0    0  0.00000000000E+00  0.00000000000E+00 -0.15477972691E+02  0.25290124889E+02  0.20000569449E+02 0.  0.
        -11    1    3    3    0    0  0.93032584369E+01  0.36681161152E+01 -0.77402059873E+01  0.12645808885E+02  0.51100000000E-03 0.  1.
         11    1    3    3    0    0 -0.93032584369E+01 -0.36681161152E+01 -0.77377667041E+01  0.12644316004E+02  0.51100000000E-03 0. -1.
<mgrwt>
<rscale>  0 0.20000569E+02</rscale>
<asrwt>0</asrwt>
<pdfrwt beam="2">  1        1 0.31360075E-02 0.20000569E+02</pdfrwt>
<pdfrwt beam="1">  1       -1 0.75478095E-03 0.20000569E+02</pdfrwt>
<totfact> 0.39735379E+06</totfact>
</mgrwt>
</event>
<event>
 5    1  0.9583198E-007  0.2000036E+02  0.7818608E-02  0.1745321E+00
          1   -1    0    0  501    0  0.00000000000E+00  0.00000000000E+00  0.77730647512E+01  0.77730661540E+01  0.46700000000E-02 0. -1.
         -1   -1    0    0    0  501 -0.00000000000E+00 -0.00000000000E+00 -0.12865392728E+02  0.12865393575E+02  0.46700000000E-02 0.  1.
       1023    2    1    2    0    0  0.00000000000E+00  0.00000000000E+00 -0.50923279766E+01  0.20638459729E+02  0.20000355391E+02 0.  0.
        -11    1    3    3    0    0 -0.91062162380E+01  0.41325936230E+01 -0.24994487025E+01  0.10307703348E+02  0.51100000000E-03 0. -1.
         11    1    3    3    0    0  0.91062162380E+01 -0.41325936230E+01 -0.25928792741E+01  0.10330756382E+02  0.51100000000E-03 0.  1.
<mgrwt>
<rscale>  0 0.20000355E+02</rscale>
<asrwt>0</asrwt>
<pdfrwt beam="1">  1        1 0.11958563E-02 0.20000355E+02</pdfrwt>
<pdfrwt beam="2">  1       -1 0.19792914E-02 0.20000355E+02</pdfrwt>
<totfact> 0.38220347E+06</totfact>
</mgrwt>
</event>
<event>
 5    1  0.9583198E-007  0.2000055E+02  0.7818608E-02  0.1745317E+00
          1   -1    0    0  501    0  0.00000000000E+00  0.00000000000E+00  0.72672259626E+01  0.72672274631E+01  0.46700000000E-02 0.  1.
         -1   -1    0    0    0  501 -0.00000000000E+00 -0.00000000000E+00 -0.13761166493E+02  0.13761167285E+02  0.46700000000E-02 0. -1.
       1023    2    1    2    0    0  0.00000000000E+00  0.00000000000E+00 -0.64939405303E+01  0.21028394748E+02  0.20000553044E+02 0.  0.
        -11    1    3    3    0    0 -0.95447137646E+01 -0.29833479519E+01 -0.31838481997E+01  0.10494704163E+02  0.51100000000E-03 0. -1.
         11    1    3    3    0    0  0.95447137646E+01  0.29833479519E+01 -0.33100923306E+01  0.10533690585E+02  0.51100000000E-03 0.  1.
<mgrwt>
<rscale>  0 0.20000553E+02</rscale>
<asrwt>0</asrwt>
<pdfrwt beam="1">  1        1 0.11180349E-02 0.20000553E+02</pdfrwt>
<pdfrwt beam="2">  1       -1 0.21171027E-02 0.20000553E+02</pdfrwt>
<totfact> 0.38106587E+06</totfact>
</mgrwt>
</event>
<event>
 4    1  0.9583198E-007  0.2002439E+02  0.7818608E-02  0.1744843E+00
          1   -1    0    0  501    0  0.00000000000E+00  0.00000000000E+00  0.44580949266E+02  0.44580949511E+02  0.46700000000E-02 0. -1.
         -1   -1    0    0    0  501 -0.00000000000E+00 -0.00000000000E+00 -0.22485826650E+01  0.22485875144E+01  0.46700000000E-02 0.  1.
        -11    1    1    2    0    0  0.46894640646E+01  0.88452583646E+01  0.21446817990E+02  0.23668453073E+02  0.51100000000E-03 0.  1.
         11    1    1    2    0    0 -0.46894640646E+01 -0.88452583646E+01  0.20885548612E+02  0.23161083952E+02  0.51100000000E-03 0. -1.
<mgrwt>
<rscale>  0 0.20024392E+02</rscale>
<asrwt>0</asrwt>
<pdfrwt beam="1">  1        1 0.68586073E-02 0.20024392E+02</pdfrwt>
<pdfrwt beam="2">  1       -1 0.34593622E-03 0.20024392E+02</pdfrwt>
<totfact> 0.41279996E+06</totfact>
</mgrwt>
</event>
<event>
 5    1  0.1003078E-006  0.2000233E+02  0.7818608E-02  0.1745282E+00
          1   -1    0    0  501    0  0.00000000000E+00  0.00000000000E+00  0.98743882929E+02  0.98743883039E+02  0.46700000000E-02 0.  1.
         -1   -1    0    0    0  501 -0.00000000000E+00 -0.00000000000E+00 -0.10129514170E+01  0.10129621820E+01  0.46700000000E-02 0. -1.
       1023    2    1    2    0    0  0.00000000000E+00  0.00000000000E+00  0.97730931512E+02  0.99756845221E+02  0.20002329723E+02 0.  0.
        -11    1    3    3    0    0  0.63294640156E+01  0.77427253693E+01  0.49397666401E+02  0.50399815049E+02  0.51100000000E-03 0.  1.
         11    1    3    3    0    0 -0.63294640156E+01 -0.77427253693E+01  0.48333265111E+02  0.49357030172E+02  0.51100000000E-03 0. -1.
<mgrwt>
<rscale>  0 0.20002330E+02</rscale>
<asrwt>0</asrwt>
<pdfrwt beam="1">  1        1 0.15191376E-01 0.20002330E+02</pdfrwt>
<pdfrwt beam="2">  1       -1 0.15583943E-03 0.20002330E+02</pdfrwt>
<totfact> 0.44288241E+06</totfact>
</mgrwt>
</event>
<event>
 5    1  0.9583198E-007  0.2000072E+02  0.7818608E-02  0.1745314E+00
         -1   -1    0    0    0  501 -0.00000000000E+00  0.00000000000E+00  0.28452494628E+02  0.28452495011E+02  0.46700000000E-02 0.  1.
          1   -1    0    0  501    0  0.00000000000E+00 -0.00000000000E+00 -0.35148819453E+01  0.35148850477E+01  0.46700000000E-02 0. -1.
       1023    2    1    2    0    0  0.00000000000E+00  0.00000000000E+00  0.24937612683E+02  0.31967380059E+02  0.20000721525E+02 0.  0.
        -11    1    3    3    0    0  0.55691900907E+01  0.83057693697E+01  0.12587684925E+02  0.16076426690E+02  0.51100000000E-03 0. -1.
         11    1    3    3    0    0 -0.55691900907E+01 -0.83057693697E+01  0.12349927757E+02  0.15890953369E+02  0.51100000000E-03 0.  1.
<mgrwt>
<rscale>  0 0.20000722E+02</rscale>
<asrwt>0</asrwt>
<pdfrwt beam="2">  1        1 0.54075133E-03 0.20000722E+02</pdfrwt>
<pdfrwt beam="1">  1       -1 0.43773072E-02 0.20000722E+02</pdfrwt>
<totfact> 0.36618551E+06</totfact>
</mgrwt>
</event>
<event>
 5    1  0.9649976E-007  0.2000128E+02  0.7818608E-02  0.1745303E+00
         -1   -1    0    0    0  501 -0.00000000000E+00  0.00000000000E+00  0.24574149843E+02  0.24574150287E+02  0.46700000000E-02 0. -1.
          1   -1    0    0  501    0  0.00000000000E+00 -0.00000000000E+00 -0.40698369897E+01  0.40698396690E+01  0.46700000000E-02 0.  1.
       1023    2    1    2    0    0  0.00000000000E+00  0.00000000000E+00  0.20504312854E+02  0.28643989956E+02  0.20001282834E+02 0.  0.
        -11    1    3    3    0    0 -0.95762814395E+01  0.28821071067E+01  0.10204209518E+02  0.14287672999E+02  0.51100000000E-03 0.  1.
         11    1    3    3    0    0  0.95762814395E+01 -0.28821071067E+01  0.10300103336E+02  0.14356316957E+02  0.51100000000E-03 0. -1.
<mgrwt>
<rscale>  0 0.20001283E+02</rscale>
<asrwt>0</asrwt>
<pdfrwt beam="2">  1        1 0.62612903E-03 0.20001283E+02</pdfrwt>
<pdfrwt beam="1">  1       -1 0.37806386E-02 0.20001283E+02</pdfrwt>
<totfact> 0.36967079E+06</totfact>
</mgrwt>
</event>
<event>
 5    1  0.9583198E-007  0.2000077E+02  0.7818608E-02  0.1745313E+00
          1   -1    0    0  501    0  0.00000000000E+00  0.00000000000E+00  0.30926997953E+01  0.30927033212E+01  0.46700000000E-02 0.  1.
         -1   -1    0    0    0  501 -0.00000000000E+00 -0.00000000000E+00 -0.32336684165E+02  0.32336684503E+02  0.46700000000E-02 0. -1.
       1023    2    1    2    0    0  0.00000000000E+00  0.00000000000E+00 -0.29243984370E+02  0.35429387824E+02  0.20000772478E+02 0.  0.
        -11    1    3    3    0    0  0.99934551171E+01 -0.37084093126E+00 -0.14679569439E+02  0.17762219100E+02  0.51100000000E-03 0.  1.
         11    1    3    3    0    0 -0.99934551171E+01  0.37084093126E+00 -0.14564414931E+02  0.17667168724E+02  0.51100000000E-03 0. -1.
<mgrwt>
<rscale>  0 0.20000772E+02</rscale>
<asrwt>0</asrwt>
<pdfrwt beam="1">  1        1 0.47580029E-03 0.20000772E+02</pdfrwt>
<pdfrwt beam="2">  1       -1 0.49748746E-02 0.20000772E+02</pdfrwt>
<totfact> 0.36284610E+06</totfact>
</mgrwt>
</event>
<event>
 5    1  0.9583198E-007  0.2000062E+02  0.7818608E-02  0.1745316E+00
         -1   -1    0    0    0  501 -0.00000000000E+00  0.00000000000E+00  0.65983199979E+02  0.65983200144E+02  0.46700000000E-02 0. -1.
          1   -1    0    0  501    0  0.00000000000E+00 -0.00000000000E+00 -0.15156280557E+01  0.15156352504E+01  0.46700000000E-02 0.  1.
       1023    2    1    2    0    0  0.00000000000E+00  0.00000000000E+00  0.64467571923E+02  0.67498835394E+02  0.20000623739E+02 0.  0.
        -11    1    3    3    0    0 -0.96312265234E+01  0.26917015669E+01  0.32161754489E+02  0.33680621041E+02  0.51100000000E-03 0. -1.
         11    1    3    3    0    0  0.96312265234E+01 -0.26917015669E+01  0.32305817434E+02  0.33818214353E+02  0.51100000000E-03 0.  1.
<mgrwt>
<rscale>  0 0.20000624E+02</rscale>
<asrwt>0</asrwt>
<pdfrwt beam="2">  1        1 0.23317419E-03 0.20000624E+02</pdfrwt>
<pdfrwt beam="1">  1       -1 0.10151259E-01 0.20000624E+02</pdfrwt>
<totfact> 0.33851579E+06</totfact>
</mgrwt>
</event>
<event>
 5    1  0.9583198E-007  0.2000056E+02  0.7818608E-02  0.1745317E+00
         -1   -1    0    0    0  501 -0.00000000000E+00  0.00000000000E+00  0.52242996455E+01  0.52243017328E+01  0.46700000000E-02 0. -1.
          1   -1    0    0  501    0  0.00000000000E+00 -0.00000000000E+00 -0.19142380434E+02  0.19142381003E+02  0.46700000000E-02 0.  1.
       1023    2    1    2    0    0  0.00000000000E+00  0.00000000000E+00 -0.13918080788E+02  0.24366682736E+02  0.20000556361E+02 0.  0.
        -11    1    3    3    0    0  0.94367539908E+01  0.33094037112E+01 -0.69189174858E+01  0.12160423440E+02  0.51100000000E-03 0. -1.
         11    1    3    3    0    0 -0.94367539908E+01 -0.33094037112E+01 -0.69991633023E+01  0.12206259296E+02  0.51100000000E-03 0.  1.
<mgrwt>
<rscale>  0 0.20000556E+02</rscale>
<asrwt>0</asrwt>
<pdfrwt beam="2">  1        1 0.29449818E-02 0.20000556E+02</pdfrwt>
<pdfrwt beam="1">  1       -1 0.80373862E-03 0.20000556E+02</pdfrwt>
<totfact> 0.39630556E+06</totfact>
</mgrwt>
</event>
<event>
 5    1  0.9583198E-007  0.2000792E+02  0.7818608E-02  0.1745171E+00
         -1   -1    0    0    0  501 -0.00000000000E+00  0.00000000000E+00  0.27490930002E+02  0.27490930399E+02  0.46700000000E-02 0. -1.
          1   -1    0    0  501    0  0.00000000000E+00 -0.00000000000E+00 -0.36404426326E+01  0.36404456279E+01  0.46700000000E-02 0.  1.
       1023    2    1    2    0    0  0.00000000000E+00  0.00000000000E+00  0.23850487369E+02  0.31131376027E+02  0.20007919071E+02 0.  0.
        -11    1    3    3    0    0 -0.34498995867E+01  0.93887118270E+01  0.12192438409E+02  0.15770392244E+02  0.51100000000E-03 0.  1.
         11    1    3    3    0    0  0.34498995867E+01 -0.93887118270E+01  0.11658048960E+02  0.15360983782E+02  0.51100000000E-03 0. -1.
<mgrwt>
<rscale>  0 0.20007919E+02</rscale>
<asrwt>0</asrwt>
<pdfrwt beam="2">  1        1 0.56006835E-03 0.20007919E+02</pdfrwt>
<pdfrwt beam="1">  1       -1 0.42293742E-02 0.20007919E+02</pdfrwt>
<totfact> 0.36674796E+06</totfact>
</mgrwt>
</event>
<event>
 4    1  0.9583198E-007  0.2027426E+02  0.7818608E-02  0.1739928E+00
          1   -1    0    0  501    0  0.00000000000E+00  0.00000000000E+00  0.76255411744E+01  0.76255426044E+01  0.46700000000E-02 0. -1.
         -1   -1    0    0    0  501 -0.00000000000E+00 -0.00000000000E+00 -0.13475946674E+02  0.13475947483E+02  0.46700000000E-02 0.  1.
        -11    1    1    2    0    0 -0.60711363062E+00 -0.10113264149E+02 -0.25726935856E+01  0.10453011588E+02  0.51100000000E-03 0.  1.
         11    1    1    2    0    0  0.60711363062E+00  0.10113264149E+02 -0.32777119140E+01  0.10648478500E+02  0.51100000000E-03 0. -1.
<mgrwt>
<rscale>  0 0.20274261E+02</rscale>
<asrwt>0</asrwt>
<pdfrwt beam="1">  1        1 0.11731604E-02 0.20274261E+02</pdfrwt>
<pdfrwt beam="2">  1       -1 0.20732227E-02 0.20274261E+02</pdfrwt>
<totfact> 0.37021043E+06</totfact>
</mgrwt>
</event>
<event>
 5    1  0.9583198E-007  0.2000030E+02  0.7818608E-02  0.1745322E+00
         -1   -1    0    0    0  501 -0.00000000000E+00  0.00000000000E+00  0.44638624025E+01  0.44638648453E+01  0.46700000000E-02 0. -1.
          1   -1    0    0  501    0  0.00000000000E+00 -0.00000000000E+00 -0.22402788468E+02  0.22402788955E+02  0.46700000000E-02 0.  1.
       1023    2    1    2    0    0  0.00000000000E+00  0.00000000000E+00 -0.17938926065E+02  0.26866653800E+02  0.20000300448E+02 0.  0.
        -11    1    3    3    0    0 -0.11123917932E+01 -0.99380331850E+01 -0.90137140776E+01  0.13462873424E+02  0.51100000000E-03 0.  1.
         11    1    3    3    0    0  0.11123917932E+01  0.99380331850E+01 -0.89252119878E+01  0.13403780376E+02  0.51100000000E-03 0. -1.
<mgrwt>
<rscale>  0 0.20000300E+02</rscale>
<asrwt>0</asrwt>
<pdfrwt beam="2">  1        1 0.34465830E-02 0.20000300E+02</pdfrwt>
<pdfrwt beam="1">  1       -1 0.68674830E-03 0.20000300E+02</pdfrwt>
<totfact> 0.39899408E+06</totfact>
</mgrwt>
</event>
<event>
 5    1  0.9583198E-007  0.2000035E+02  0.7818608E-02  0.1745321E+00
          1   -1    0    0  501    0  0.00000000000E+00  0.00000000000E+00  0.15798177525E+02  0.15798178215E+02  0.46700000000E-02 0.  1.
         -1   -1    0    0    0  501 -0.00000000000E+00 -0.00000000000E+00 -0.63300661314E+01  0.63300678541E+01  0.46700000000E-02 0. -1.
       1023    2    1    2    0    0  0.00000000000E+00  0.00000000000E+00  0.94681113932E+01  0.22128246069E+02  0.20000353515E+02 0.  0.
        -11    1    3    3    0    0  0.45476340863E+01  0.89061567561E+01  0.46741572818E+01  0.11038494032E+02  0.51100000000E-03 0.  1.
         11    1    3    3    0    0 -0.45476340863E+01 -0.89061567561E+01  0.47939541114E+01  0.11089752036E+02  0.51100000000E-03 0. -1.
<mgrwt>
<rscale>  0 0.20000354E+02</rscale>
<asrwt>0</asrwt>
<pdfrwt beam="1">  1        1 0.24304890E-02 0.20000354E+02</pdfrwt>
<pdfrwt beam="2">  1       -1 0.97385653E-03 0.20000354E+02</pdfrwt>
<totfact> 0.39323684E+06</totfact>
</mgrwt>
</event>
<event>
 5    1  0.9583198E-007  0.2000004E+02  0.7818608E-02  0.1745327E+00
         -1   -1    0    0    0  501 -0.00000000000E+00  0.00000000000E+00  0.17396884516E+01  0.17396947196E+01  0.46700000000E-02 0.  1.
          1   -1    0    0  501    0  0.00000000000E+00 -0.00000000000E+00 -0.57481690698E+02  0.57481690888E+02  0.46700000000E-02 0. -1.
       1023    2    1    2    0    0  0.00000000000E+00  0.00000000000E+00 -0.55742002247E+02  0.59221385608E+02  0.20000042470E+02 0.  0.
        -11    1    3    3    0    0  0.67508685319E+01 -0.73774067823E+01 -0.27846641774E+02  0.29587764618E+02  0.51100000000E-03 0. -1.
         11    1    3    3    0    0 -0.67508685319E+01  0.73774067823E+01 -0.27895360473E+02  0.29633620990E+02  0.51100000000E-03 0.  1.
<mgrwt>
<rscale>  0 0.20000042E+02</rscale>
<asrwt>0</asrwt>
<pdfrwt beam="2">  1        1 0.88433361E-02 0.20000042E+02</pdfrwt>
<pdfrwt beam="1">  1       -1 0.26764492E-03 0.20000042E+02</pdfrwt>
<totfact> 0.42144880E+06</totfact>
</mgrwt>
</event>
<event>
 5    1  0.9583198E-007  0.2000796E+02  0.7818608E-02  0.1745170E+00
          1   -1    0    0  501    0  0.00000000000E+00  0.00000000000E+00  0.61824666883E+02  0.61824667059E+02  0.46700000000E-02 0. -1.
         -1   -1    0    0    0  501 -0.00000000000E+00 -0.00000000000E+00 -0.16187622141E+01  0.16187689504E+01  0.46700000000E-02 0.  1.
       1023    2    1    2    0    0  0.00000000000E+00  0.00000000000E+00  0.60205904669E+02  0.63443436010E+02  0.20007963808E+02 0.  0.
        -11    1    3    3    0    0 -0.48089862926E+01 -0.87707823509E+01  0.29585001396E+02  0.31230198207E+02  0.51100000000E-03 0. -1.
         11    1    3    3    0    0  0.48089862926E+01  0.87707823509E+01  0.30620903273E+02  0.32213237802E+02  0.51100000000E-03 0.  1.
<mgrwt>
<rscale>  0 0.20007964E+02</rscale>
<asrwt>0</asrwt>
<pdfrwt beam="1">  1        1 0.95114886E-02 0.20007964E+02</pdfrwt>
<pdfrwt beam="2">  1       -1 0.24904085E-03 0.20007964E+02</pdfrwt>
<totfact> 0.42350801E+06</totfact>
</mgrwt>
</event>
<event>
 5    1  0.9583198E-007  0.2000052E+02  0.7818608E-02  0.1745318E+00
         -1   -1    0    0    0  501 -0.00000000000E+00  0.00000000000E+00  0.44026622362E+01  0.44026647130E+01  0.46700000000E-02 0.  1.
          1   -1    0    0  501    0  0.00000000000E+00 -0.00000000000E+00 -0.22714699207E+02  0.22714699687E+02  0.46700000000E-02 0. -1.
       1023    2    1    2    0    0  0.00000000000E+00  0.00000000000E+00 -0.18312036970E+02  0.27117364400E+02  0.20000518843E+02 0.  0.
        -11    1    3    3    0    0  0.38537395785E+01 -0.92278449910E+01 -0.91187314003E+01  0.13533502670E+02  0.51100000000E-03 0. -1.
         11    1    3    3    0    0 -0.38537395785E+01  0.92278449910E+01 -0.91933055702E+01  0.13583861729E+02  0.51100000000E-03 0.  1.
<mgrwt>
<rscale>  0 0.20000519E+02</rscale>
<asrwt>0</asrwt>
<pdfrwt beam="2">  1        1 0.34945693E-02 0.20000519E+02</pdfrwt>
<pdfrwt beam="1">  1       -1 0.67733289E-03 0.20000519E+02</pdfrwt>
<totfact> 0.39922864E+06</totfact>
</mgrwt>
</event>
<event>
 5    1  0.9583198E-007  0.2000678E+02  0.7818608E-02  0.1745193E+00
         -1   -1    0    0    0  501 -0.00000000000E+00  0.00000000000E+00  0.10333127152E+03  0.10333127162E+03  0.46700000000E-02 0.  1.
          1   -1    0    0  501    0  0.00000000000E+00 -0.00000000000E+00 -0.96841135160E+00  0.96842261168E+00  0.46700000000E-02 0. -1.
       1023    2    1    2    0    0  0.00000000000E+00  0.00000000000E+00  0.10236286017E+03  0.10429969423E+03  0.20006775755E+02 0.  0.
        -11    1    3    3    0    0 -0.95004026522E+00  0.99551924359E+01  0.52451315173E+02  0.53396150578E+02  0.51100000000E-03 0.  1.
         11    1    3    3    0    0  0.95004026522E+00 -0.99551924359E+01  0.49911544993E+02  0.50903543656E+02  0.51100000000E-03 0. -1.
<mgrwt>
<rscale>  0 0.20006776E+02</rscale>
<asrwt>0</asrwt>
<pdfrwt beam="2">  1        1 0.14898718E-03 0.20006776E+02</pdfrwt>
<pdfrwt beam="1">  1       -1 0.15897125E-01 0.20006776E+02</pdfrwt>
<totfact> 0.31666701E+06</totfact>
</mgrwt>
</event>
<event>
 5    1  0.9583198E-007  0.2000011E+02  0.7818608E-02  0.1745326E+00
         -1   -1    0    0    0  501 -0.00000000000E+00  0.00000000000E+00  0.11736667728E+01  0.11736760637E+01  0.46700000000E-02 0. -1.
          1   -1    0    0  501    0  0.00000000000E+00 -0.00000000000E+00 -0.85203658097E+02  0.85203658225E+02  0.46700000000E-02 0.  1.
       1023    2    1    2    0    0  0.00000000000E+00  0.00000000000E+00 -0.84029991325E+02  0.86377334289E+02  0.20000110921E+02 0.  0.
        -11    1    3    3    0    0 -0.66352771525E+01 -0.74815510460E+01 -0.42120786255E+02  0.43291582830E+02  0.51100000000E-03 0. -1.
         11    1    3    3    0    0  0.66352771525E+01  0.74815510460E+01 -0.41909205070E+02  0.43085751459E+02  0.51100000000E-03 0.  1.
<mgrwt>
<rscale>  0 0.20000111E+02</rscale>
<asrwt>0</asrwt>
<pdfrwt beam="2">  1        1 0.13108251E-01 0.20000111E+02</pdfrwt>
<pdfrwt beam="1">  1       -1 0.18056491E-03 0.20000111E+02</pdfrwt>
<totfact> 0.43625249E+06</totfact>
</mgrwt>
</event>
<event>
 5    1  0.9583198E-007  0.2000094E+02  0.7818608E-02  0.1745309E+00
          1   -1    0    0  501    0  0.00000000000E+00  0.00000000000E+00  0.11544733764E+01  0.11544828218E+01  0.46700000000E-02 0. -1.
         -1   -1    0    0    0  501 -0.00000000000E+00 -0.00000000000E+00 -0.86627363086E+02  0.86627363212E+02  0.46700000000E-02 0.  1.
       1023    2    1    2    0    0  0.00000000000E+00  0.00000000000E+00 -0.85472889710E+02  0.87781846034E+02  0.20000940422E+02 0.  0.
        -11    1    3    3    0    0 -0.89273912806E+01  0.45061016979E+01 -0.42392635333E+02  0.43556156836E+02  0.51100000000E-03 0. -1.
         11    1    3    3    0    0  0.89273912806E+01 -0.45061016979E+01 -0.43080254377E+02  0.44225689198E+02  0.51100000000E-03 0.  1.
<mgrwt>
<rscale>  0 0.20000940E+02</rscale>
<asrwt>0</asrwt>
<pdfrwt beam="1">  1        1 0.17761209E-03 0.20000940E+02</pdfrwt>
<pdfrwt beam="2">  1       -1 0.13327282E-01 0.20000940E+02</pdfrwt>
<totfact> 0.32605001E+06</totfact>
</mgrwt>
</event>
<event>
 5    1  0.9583198E-007  0.2000117E+02  0.7818608E-02  0.1745305E+00
         -1   -1    0    0    0  501 -0.00000000000E+00  0.00000000000E+00  0.11130385037E+02  0.11130386017E+02  0.46700000000E-02 0. -1.
          1   -1    0    0  501    0  0.00000000000E+00 -0.00000000000E+00 -0.89854623005E+01  0.89854635140E+01  0.46700000000E-02 0.  1.
       1023    2    1    2    0    0  0.00000000000E+00  0.00000000000E+00  0.21449227369E+01  0.20115849531E+02  0.20001167686E+02 0.  0.
        -11    1    3    3    0    0 -0.41977780949E+01 -0.90765341619E+01  0.98913940027E+00  0.10049040270E+02  0.51100000000E-03 0. -1.
         11    1    3    3    0    0  0.41977780949E+01  0.90765341619E+01  0.11557833366E+01  0.10066809262E+02  0.51100000000E-03 0.  1.
<mgrwt>
<rscale>  0 0.20001168E+02</rscale>
<asrwt>0</asrwt>
<pdfrwt beam="2">  1        1 0.13823790E-02 0.20001168E+02</pdfrwt>
<pdfrwt beam="1">  1       -1 0.17123671E-02 0.20001168E+02</pdfrwt>
<totfact> 0.38451390E+06</totfact>
</mgrwt>
</event>
<event>
 5    1  0.9583198E-007  0.2000040E+02  0.7818608E-02  0.1745320E+00
          1   -1    0    0  501    0  0.00000000000E+00  0.00000000000E+00  0.51277566244E+02  0.51277566457E+02  0.46700000000E-02 0.  1.
         -1   -1    0    0    0  501 -0.00000000000E+00 -0.00000000000E+00 -0.19502463486E+01  0.19502519399E+01  0.46700000000E-02 0. -1.
       1023    2    1    2    0    0  0.00000000000E+00  0.00000000000E+00  0.49327319895E+02  0.53227818397E+02  0.20000404076E+02 0.  0.
        -11    1    3    3    0    0  0.70776014048E+01  0.70646566959E+01  0.24789185454E+02  0.26730236281E+02  0.51100000000E-03 0. -1.
         11    1    3    3    0    0 -0.70776014048E+01 -0.70646566959E+01  0.24538134441E+02  0.26497582116E+02  0.51100000000E-03 0.  1.
<mgrwt>
<rscale>  0 0.20000404E+02</rscale>
<asrwt>0</asrwt>
<pdfrwt beam="1">  1        1 0.78888576E-02 0.20000404E+02</pdfrwt>
<pdfrwt beam="2">  1       -1 0.30003831E-03 0.20000404E+02</pdfrwt>
<totfact> 0.41787596E+06</totfact>
</mgrwt>
</event>
<event>
 5    1  0.9583198E-007  0.2000344E+02  0.7818608E-02  0.1745260E+00
          1   -1    0    0  501    0  0.00000000000E+00  0.00000000000E+00  0.41716680083E+02  0.41716680345E+02  0.46700000000E-02 0.  1.
         -1   -1    0    0    0  501 -0.00000000000E+00 -0.00000000000E+00 -0.23979437480E+01  0.23979482954E+01  0.46700000000E-02 0. -1.
       1023    2    1    2    0    0  0.00000000000E+00  0.00000000000E+00  0.39318736335E+02  0.44114628640E+02  0.20003435531E+02 0.  0.
        -11    1    3    3    0    0  0.82353668617E+01  0.56747071887E+01  0.19888438124E+02  0.22261481089E+02  0.51100000000E-03 0.  1.
         11    1    3    3    0    0 -0.82353668617E+01 -0.56747071887E+01  0.19430298211E+02  0.21853147551E+02  0.51100000000E-03 0. -1.
<mgrwt>
<rscale>  0 0.20003436E+02</rscale>
<asrwt>0</asrwt>
<pdfrwt beam="1">  1        1 0.64179507E-02 0.20003436E+02</pdfrwt>
<pdfrwt beam="2">  1       -1 0.36891482E-03 0.20003436E+02</pdfrwt>
<totfact> 0.41201260E+06</totfact>
</mgrwt>
</event>
<event>
 5    1  0.9583198E-007  0.2000015E+02  0.7818608E-02  0.1745325E+00
          1   -1    0    0  501    0  0.00000000000E+00  0.00000000000E+00  0.26124320199E+02  0.26124320616E+02  0.46700000000E-02 0. -1.
         -1   -1    0    0    0  501 -0.00000000000E+00 -0.00000000000E+00 -0.38279049017E+01  0.38279077504E+01  0.46700000000E-02 0.  1.
       1023    2    1    2    0    0  0.00000000000E+00  0.00000000000E+00  0.22296415297E+02  0.29952228367E+02  0.20000146225E+02 0.  0.
        -11    1    3    3    0    0 -0.98613624049E+01 -0.16598129261E+01  0.11142491972E+02  0.14971859439E+02  0.51100000000E-03 0. -1.
         11    1    3    3    0    0  0.98613624049E+01  0.16598129261E+01  0.11153923325E+02  0.14980368928E+02  0.51100000000E-03 0.  1.
<mgrwt>
<rscale>  0 0.20000146E+02</rscale>
<asrwt>0</asrwt>
<pdfrwt beam="1">  1        1 0.40191264E-02 0.20000146E+02</pdfrwt>
<pdfrwt beam="2">  1       -1 0.58890870E-03 0.20000146E+02</pdfrwt>
<totfact> 0.40181580E+06</totfact>
</mgrwt>
</event>
<event>
 5    1  0.9707643E-007  0.2000076E+02  0.7818608E-02  0.1745313E+00
         -1   -1    0    0    0  501 -0.00000000000E+00  0.00000000000E+00  0.31110936871E+01  0.31110971921E+01  0.46700000000E-02 0.  1.
          1   -1    0    0  501    0  0.00000000000E+00 -0.00000000000E+00 -0.32145446666E+02  0.32145447005E+02  0.46700000000E-02 0. -1.
       1023    2    1    2    0    0  0.00000000000E+00  0.00000000000E+00 -0.29034352979E+02  0.35256544198E+02  0.20000756382E+02 0.  0.
        -11    1    3    3    0    0  0.94211589776E+01 -0.33539429291E+01 -0.14482184670E+02  0.17599455751E+02  0.51100000000E-03 0. -1.
         11    1    3    3    0    0 -0.94211589776E+01  0.33539429291E+01 -0.14552168309E+02  0.17657088447E+02  0.51100000000E-03 0.  1.
<mgrwt>
<rscale>  0 0.20000756E+02</rscale>
<asrwt>0</asrwt>
<pdfrwt beam="2">  1        1 0.49454534E-02 0.20000756E+02</pdfrwt>
<pdfrwt beam="1">  1       -1 0.47863012E-03 0.20000756E+02</pdfrwt>
<totfact> 0.40599092E+06</totfact>
</mgrwt>
</event>
<event>
 5    1  0.9583198E-007  0.2000041E+02  0.7818608E-02  0.1745320E+00
         -1   -1    0    0    0  501 -0.00000000000E+00  0.00000000000E+00  0.15915767072E+02  0.15915767757E+02  0.46700000000E-02 0.  1.
          1   -1    0    0  501    0  0.00000000000E+00 -0.00000000000E+00 -0.62833349873E+01  0.62833367228E+01  0.46700000000E-02 0. -1.
       1023    2    1    2    0    0  0.00000000000E+00  0.00000000000E+00  0.96324320844E+01  0.22199104480E+02  0.20000412292E+02 0.  0.
        -11    1    3    3    0    0  0.94844020471E+01 -0.31702015608E+01  0.48249958705E+01  0.11103361902E+02  0.51100000000E-03 0.  1.
         11    1    3    3    0    0 -0.94844020471E+01  0.31702015608E+01  0.48074362139E+01  0.11095742577E+02  0.51100000000E-03 0. -1.
<mgrwt>
<rscale>  0 0.20000412E+02</rscale>
<asrwt>0</asrwt>
<pdfrwt beam="2">  1        1 0.96666711E-03 0.20000412E+02</pdfrwt>
<pdfrwt beam="1">  1       -1 0.24485797E-02 0.20000412E+02</pdfrwt>
<totfact> 0.37852476E+06</totfact>
</mgrwt>
</event>
<event>
 5    1  0.9583198E-007  0.2000420E+02  0.7818608E-02  0.1745244E+00
          1   -1    0    0  501    0  0.00000000000E+00  0.00000000000E+00  0.38436820851E+01  0.38436849221E+01  0.46700000000E-02 0.  1.
         -1   -1    0    0    0  501 -0.00000000000E+00 -0.00000000000E+00 -0.26027647774E+02  0.26027648193E+02  0.46700000000E-02 0. -1.
       1023    2    1    2    0    0  0.00000000000E+00  0.00000000000E+00 -0.22183965689E+02  0.29871333115E+02  0.20004204768E+02 0.  0.
        -11    1    3    3    0    0 -0.31752677304E+01  0.94842225614E+01 -0.11235592155E+02  0.15042318109E+02  0.51100000000E-03 0. -1.
         11    1    3    3    0    0  0.31752677304E+01 -0.94842225614E+01 -0.10948373533E+02  0.14829015006E+02  0.51100000000E-03 0.  1.
<mgrwt>
<rscale>  0 0.20004205E+02</rscale>
<asrwt>0</asrwt>
<pdfrwt beam="1">  1        1 0.59133597E-03 0.20004205E+02</pdfrwt>
<pdfrwt beam="2">  1       -1 0.40042536E-02 0.20004205E+02</pdfrwt>
<totfact> 0.36821455E+06</totfact>
</mgrwt>
</event>
<event>
 5    1  0.1023107E-006  0.2000129E+02  0.7818608E-02  0.1745302E+00
          1   -1    0    0  501    0  0.00000000000E+00  0.00000000000E+00  0.38686433876E+02  0.38686434158E+02  0.46700000000E-02 0. -1.
         -1   -1    0    0    0  501 -0.00000000000E+00 -0.00000000000E+00 -0.25852167314E+01  0.25852209494E+01  0.46700000000E-02 0.  1.
       1023    2    1    2    0    0  0.00000000000E+00  0.00000000000E+00  0.36101217145E+02  0.41271655107E+02  0.20001290858E+02 0.  0.
        -11    1    3    3    0    0 -0.14031327825E+01 -0.99012838091E+01  0.17858075788E+02  0.20467414926E+02  0.51100000000E-03 0. -1.
         11    1    3    3    0    0  0.14031327825E+01  0.99012838091E+01  0.18243141357E+02  0.20804240181E+02  0.51100000000E-03 0.  1.
<mgrwt>
<rscale>  0 0.20001291E+02</rscale>
<asrwt>0</asrwt>
<pdfrwt beam="1">  1        1 0.59517586E-02 0.20001291E+02</pdfrwt>
<pdfrwt beam="2">  1       -1 0.39772605E-03 0.20001291E+02</pdfrwt>
<totfact> 0.41021946E+06</totfact>
</mgrwt>
</event>
<event>
 5    1  0.9863607E-007  0.2000112E+02  0.7818608E-02  0.1745306E+00
          1   -1    0    0  501    0  0.00000000000E+00  0.00000000000E+00  0.25625622166E+02  0.25625622592E+02  0.46700000000E-02 0.  1.
         -1   -1    0    0    0  501 -0.00000000000E+00 -0.00000000000E+00 -0.39027779066E+01  0.39027807006E+01  0.46700000000E-02 0. -1.
       1023    2    1    2    0    0  0.00000000000E+00  0.00000000000E+00  0.21722844259E+02  0.29528403292E+02  0.20001115925E+02 0.  0.
        -11    1    3    3    0    0 -0.38384428051E+01  0.92345821698E+01  0.10857172578E+02  0.14761075424E+02  0.51100000000E-03 0. -1.
         11    1    3    3    0    0  0.38384428051E+01 -0.92345821698E+01  0.10865671681E+02  0.14767327868E+02  0.51100000000E-03 0.  1.
<mgrwt>
<rscale>  0 0.20001116E+02</rscale>
<asrwt>0</asrwt>
<pdfrwt beam="1">  1        1 0.39424036E-02 0.20001116E+02</pdfrwt>
<pdfrwt beam="2">  1       -1 0.60042763E-03 0.20001116E+02</pdfrwt>
<totfact> 0.40140661E+06</totfact>
</mgrwt>
</event>
<event>
 5    1  0.9583198E-007  0.2001157E+02  0.7818608E-02  0.1745098E+00
         -1   -1    0    0    0  501 -0.00000000000E+00  0.00000000000E+00  0.33147948775E+01  0.33147981672E+01  0.46700000000E-02 0.  1.
          1   -1    0    0  501    0  0.00000000000E+00 -0.00000000000E+00 -0.30202682000E+02  0.30202682361E+02  0.46700000000E-02 0. -1.
       1023    2    1    2    0    0  0.00000000000E+00  0.00000000000E+00 -0.26887887122E+02  0.33517480528E+02  0.20011572328E+02 0.  0.
        -11    1    3    3    0    0 -0.96586761203E+01 -0.26122477350E+01 -0.13371053939E+02  0.16700267852E+02  0.51100000000E-03 0.  1.
         11    1    3    3    0    0  0.96586761203E+01  0.26122477350E+01 -0.13516833183E+02  0.16817212676E+02  0.51100000000E-03 0. -1.
<mgrwt>
<rscale>  0 0.20011572E+02</rscale>
<asrwt>0</asrwt>
<pdfrwt beam="2">  1        1 0.46465665E-02 0.20011572E+02</pdfrwt>
<pdfrwt beam="1">  1       -1 0.50996875E-03 0.20011572E+02</pdfrwt>
<totfact> 0.40418381E+06</totfact>
</mgrwt>
</event>
<event>
 5    1  0.1011583E-006  0.2000183E+02  0.7818608E-02  0.1745292E+00
          1   -1    0    0  501    0  0.00000000000E+00  0.00000000000E+00  0.21363077912E+02  0.21363078423E+02  0.46700000000E-02 0.  1.
         -1   -1    0    0    0  501 -0.00000000000E+00 -0.00000000000E+00 -0.46818287784E+01  0.46818311075E+01  0.46700000000E-02 0. -1.
       1023    2    1    2    0    0  0.00000000000E+00  0.00000000000E+00  0.16681249134E+02  0.26044909530E+02  0.20001830911E+02 0.  0.
        -11    1    3    3    0    0  0.36537425036E+00 -0.99937852296E+01  0.82166273764E+01  0.12943037018E+02  0.51100000000E-03 0.  1.
         11    1    3    3    0    0 -0.36537425036E+00  0.99937852296E+01  0.84646217576E+01  0.13101872512E+02  0.51100000000E-03 0. -1.
<mgrwt>
<rscale>  0 0.20001831E+02</rscale>
<asrwt>0</asrwt>
<pdfrwt beam="1">  1        1 0.32866275E-02 0.20001831E+02</pdfrwt>
<pdfrwt beam="2">  1       -1 0.72028158E-03 0.20001831E+02</pdfrwt>
<totfact> 0.39809794E+06</totfact>
</mgrwt>
</event>
<event>
 5    1  0.9870850E-007  0.2000147E+02  0.7818608E-02  0.1745299E+00
          1   -1    0    0  501    0  0.00000000000E+00  0.00000000000E+00  0.25362835724E+02  0.25362836154E+02  0.46700000000E-02 0. -1.
         -1   -1    0    0    0  501 -0.00000000000E+00 -0.00000000000E+00 -0.39433554243E+01  0.39433581895E+01  0.46700000000E-02 0.  1.
       1023    2    1    2    0    0  0.00000000000E+00  0.00000000000E+00  0.21419480300E+02  0.29306194344E+02  0.20001472211E+02 0.  0.
        -11    1    3    3    0    0 -0.91296178395E+01 -0.40822345621E+01  0.10728358631E+02  0.14666705155E+02  0.51100000000E-03 0. -1.
         11    1    3    3    0    0  0.91296178395E+01  0.40822345621E+01  0.10691121669E+02  0.14639489189E+02  0.51100000000E-03 0.  1.
<mgrwt>
<rscale>  0 0.20001472E+02</rscale>
<asrwt>0</asrwt>
<pdfrwt beam="1">  1        1 0.39019749E-02 0.20001472E+02</pdfrwt>
<pdfrwt beam="2">  1       -1 0.60667033E-03 0.20001472E+02</pdfrwt>
<totfact> 0.40119666E+06</totfact>
</mgrwt>
</event>
<event>
 5    1  0.9583198E-007  0.2000238E+02  0.7818608E-02  0.1745281E+00
         -1   -1    0    0    0  501 -0.00000000000E+00  0.00000000000E+00  0.32494884534E+01  0.32494918092E+01  0.46700000000E-02 0.  1.
          1   -1    0    0  501    0  0.00000000000E+00 -0.00000000000E+00 -0.30781366411E+02  0.30781366765E+02  0.46700000000E-02 0. -1.
       1023    2    1    2    0    0  0.00000000000E+00  0.00000000000E+00 -0.27531877958E+02  0.34030858574E+02  0.20002375645E+02 0.  0.
        -11    1    3    3    0    0 -0.12316173500E+01 -0.99248453885E+01 -0.13877766611E+02  0.17105900843E+02  0.51100000000E-03 0. -1.
         11    1    3    3    0    0  0.12316173500E+01  0.99248453885E+01 -0.13654111347E+02  0.16924957731E+02  0.51100000000E-03 0.  1.
<mgrwt>
<rscale>  0 0.20002376E+02</rscale>
<asrwt>0</asrwt>
<pdfrwt beam="2">  1        1 0.47355949E-02 0.20002376E+02</pdfrwt>
<pdfrwt beam="1">  1       -1 0.49992161E-03 0.20002376E+02</pdfrwt>
<totfact> 0.40499493E+06</totfact>
</mgrwt>
</event>
<event>
 5    1  0.1186510E-006  0.2000138E+02  0.7818608E-02  0.1745301E+00
         -1   -1    0    0    0  501 -0.00000000000E+00  0.00000000000E+00  0.77656395318E+01  0.77656409360E+01  0.46700000000E-02 0. -1.
          1   -1    0    0  501    0  0.00000000000E+00 -0.00000000000E+00 -0.12879017594E+02  0.12879018441E+02  0.46700000000E-02 0.  1.
       1023    2    1    2    0    0  0.00000000000E+00  0.00000000000E+00 -0.51133780627E+01  0.20644659377E+02  0.20001383092E+02 0.  0.
        -11    1    3    3    0    0 -0.99916669488E+01  0.42444848981E+00 -0.25735293822E+01  0.10326500795E+02  0.51100000000E-03 0. -1.
         11    1    3    3    0    0  0.99916669488E+01 -0.42444848981E+00 -0.25398486805E+01  0.10318158582E+02  0.51100000000E-03 0.  1.
<mgrwt>
<rscale>  0 0.20001383E+02</rscale>
<asrwt>0</asrwt>
<pdfrwt beam="2">  1        1 0.19813875E-02 0.20001383E+02</pdfrwt>
<pdfrwt beam="1">  1       -1 0.11947139E-02 0.20001383E+02</pdfrwt>
<totfact> 0.39005036E+06</totfact>
</mgrwt>
</event>
<event>
 5    1  0.1011972E-006  0.2000121E+02  0.7818608E-02  0.1745304E+00
          1   -1    0    0  501    0  0.00000000000E+00  0.00000000000E+00  0.27793645800E+02  0.27793646192E+02  0.46700000000E-02 0. -1.
         -1   -1    0    0    0  501 -0.00000000000E+00 -0.00000000000E+00 -0.35983792762E+01  0.35983823066E+01  0.46700000000E-02 0.  1.
       1023    2    1    2    0    0  0.00000000000E+00  0.00000000000E+00  0.24195266524E+02  0.31392028499E+02  0.20001213241E+02 0.  0.
        -11    1    3    3    0    0  0.59307898991E+01  0.80521950704E+01  0.12104336394E+02  0.15701180659E+02  0.51100000000E-03 0.  1.
         11    1    3    3    0    0 -0.59307898991E+01 -0.80521950704E+01  0.12090930130E+02  0.15690847840E+02  0.51100000000E-03 0. -1.
<mgrwt>
<rscale>  0 0.20001213E+02</rscale>
<asrwt>0</asrwt>
<pdfrwt beam="1">  1        1 0.42759459E-02 0.20001213E+02</pdfrwt>
<pdfrwt beam="2">  1       -1 0.55359705E-03 0.20001213E+02</pdfrwt>
<totfact> 0.40296977E+06</totfact>
</mgrwt>
</event>
<event>
 5    1  0.9583198E-007  0.2000015E+02  0.7818608E-02  0.1745325E+00
         -1   -1    0    0    0  501 -0.00000000000E+00  0.00000000000E+00  0.11336372632E+01  0.11336468822E+01  0.46700000000E-02 0.  1.
          1   -1    0    0  501    0  0.00000000000E+00 -0.00000000000E+00 -0.88212586670E+02  0.88212586794E+02  0.46700000000E-02 0. -1.
       1023    2    1    2    0    0  0.00000000000E+00  0.00000000000E+00 -0.87078949407E+02  0.89346233676E+02  0.20000151056E+02 0.  0.
        -11    1    3    3    0    0 -0.48399372041E+00  0.99883277542E+01 -0.43432908264E+02  0.44569254669E+02  0.51100000000E-03 0.  1.
         11    1    3    3    0    0  0.48399372041E+00 -0.99883277542E+01 -0.43646041144E+02  0.44776979007E+02  0.51100000000E-03 0. -1.
<mgrwt>
<rscale>  0 0.20000151E+02</rscale>
<asrwt>0</asrwt>
<pdfrwt beam="2">  1        1 0.13571163E-01 0.20000151E+02</pdfrwt>
<pdfrwt beam="1">  1       -1 0.17440655E-03 0.20000151E+02</pdfrwt>
<totfact> 0.43777351E+06</totfact>
</mgrwt>
</event>
<event>
 5    1  0.1003942E-006  0.2000190E+02  0.7818608E-02  0.1745290E+00
          1   -1    0    0  501    0  0.00000000000E+00  0.00000000000E+00  0.80063558921E+02  0.80063559057E+02  0.46700000000E-02 0.  1.
         -1   -1    0    0    0  501 -0.00000000000E+00 -0.00000000000E+00 -0.12492408641E+01  0.12492495929E+01  0.46700000000E-02 0. -1.
       1023    2    1    2    0    0  0.00000000000E+00  0.00000000000E+00  0.78814318057E+02  0.81312808650E+02  0.20001902904E+02 0.  0.
        -11    1    3    3    0    0  0.20654076664E+01  0.97849955468E+01  0.39746869503E+02  0.40985676550E+02  0.51100000000E-03 0. -1.
         11    1    3    3    0    0 -0.20654076664E+01 -0.97849955468E+01  0.39067448554E+02  0.40327132101E+02  0.51100000000E-03 0.  1.
<mgrwt>
<rscale>  0 0.20001903E+02</rscale>
<asrwt>0</asrwt>
<pdfrwt beam="1">  1        1 0.12317470E-01 0.20001903E+02</pdfrwt>
<pdfrwt beam="2">  1       -1 0.19219160E-03 0.20001903E+02</pdfrwt>
<totfact> 0.43353568E+06</totfact>
</mgrwt>
</event>
<event>
 5    1  0.9583198E-007  0.2000017E+02  0.7818608E-02  0.1745325E+00
          1   -1    0    0  501    0  0.00000000000E+00  0.00000000000E+00  0.84308237845E+00  0.84309531238E+00  0.46700000000E-02 0.  1.
         -1   -1    0    0    0  501 -0.00000000000E+00 -0.00000000000E+00 -0.11861347222E+03  0.11861347231E+03  0.46700000000E-02 0. -1.
       1023    2    1    2    0    0  0.00000000000E+00  0.00000000000E+00 -0.11777038984E+03  0.11945656763E+03  0.20000170628E+02 0.  0.
        -11    1    3    3    0    0 -0.33035553111E+00  0.99945940409E+01 -0.58731610924E+02  0.59576867715E+02  0.51100000000E-03 0.  1.
         11    1    3    3    0    0  0.33035553111E+00 -0.99945940409E+01 -0.59038778920E+02  0.59879699911E+02  0.51100000000E-03 0. -1.
<mgrwt>
<rscale>  0 0.20000171E+02</rscale>
<asrwt>0</asrwt>
<pdfrwt beam="1">  1        1 0.12970608E-03 0.20000171E+02</pdfrwt>
<pdfrwt beam="2">  1       -1 0.18248214E-01 0.20000171E+02</pdfrwt>
<totfact> 0.30904794E+06</totfact>
</mgrwt>
</event>
<event>
 5    1  0.9583198E-007  0.2000009E+02  0.7818608E-02  0.1745326E+00
          1   -1    0    0  501    0  0.00000000000E+00  0.00000000000E+00  0.37380875527E+02  0.37380875819E+02  0.46700000000E-02 0. -1.
         -1   -1    0    0    0  501 -0.00000000000E+00 -0.00000000000E+00 -0.26751864972E+01  0.26751905734E+01  0.46700000000E-02 0.  1.
       1023    2    1    2    0    0  0.00000000000E+00  0.00000000000E+00  0.34705689030E+02  0.40056066392E+02  0.20000090094E+02 0.  0.
        -11    1    3    3    0    0 -0.94636030852E+01  0.32312191044E+01  0.17315891651E+02  0.19996016208E+02  0.51100000000E-03 0. -1.
         11    1    3    3    0    0  0.94636030852E+01 -0.32312191044E+01  0.17389797379E+02  0.20060050184E+02  0.51100000000E-03 0.  1.
<mgrwt>
<rscale>  0 0.20000090E+02</rscale>
<asrwt>0</asrwt>
<pdfrwt beam="1">  1        1 0.57509046E-02 0.20000090E+02</pdfrwt>
<pdfrwt beam="2">  1       -1 0.41156747E-03 0.20000090E+02</pdfrwt>
<totfact> 0.40944532E+06</totfact>
</mgrwt>
</event>
<event>
 5    1  0.9583198E-007  0.2000076E+02  0.7818608E-02  0.1745313E+00
         -1   -1    0    0    0  501 -0.00000000000E+00  0.00000000000E+00  0.83652956080E+00  0.83654259604E+00  0.46700000000E-02 0. -1.
          1   -1    0    0  501    0  0.00000000000E+00 -0.00000000000E+00 -0.11954968326E+03  0.11954968335E+03  0.46700000000E-02 0.  1.
       1023    2    1    2    0    0  0.00000000000E+00  0.00000000000E+00 -0.11871315370E+03  0.12038622595E+03  0.20000763401E+02 0.  0.
        -11    1    3    3    0    0 -0.76581183517E+01 -0.64311630885E+01 -0.59546777019E+02  0.60380669828E+02  0.51100000000E-03 0.  1.
         11    1    3    3    0    0  0.76581183517E+01  0.64311630885E+01 -0.59166376679E+02  0.60005556117E+02  0.51100000000E-03 0. -1.
<mgrwt>
<rscale>  0 0.20000763E+02</rscale>
<asrwt>0</asrwt>
<pdfrwt beam="2">  1        1 0.18392246E-01 0.20000763E+02</pdfrwt>
<pdfrwt beam="1">  1       -1 0.12869796E-03 0.20000763E+02</pdfrwt>
<totfact> 0.45275948E+06</totfact>
</mgrwt>
</event>
<event>
 5    1  0.9583198E-007  0.2000053E+02  0.7818608E-02  0.1745318E+00
         -1   -1    0    0    0  501 -0.00000000000E+00  0.00000000000E+00  0.22008536636E+02  0.22008537131E+02  0.46700000000E-02 0. -1.
          1   -1    0    0  501    0  0.00000000000E+00 -0.00000000000E+00 -0.45439304950E+01  0.45439328948E+01  0.46700000000E-02 0.  1.
       1023    2    1    2    0    0  0.00000000000E+00  0.00000000000E+00  0.17464606141E+02  0.26552470026E+02  0.20000529914E+02 0.  0.
        -11    1    3    3    0    0 -0.38972210180E-01 -0.10000185355E+02  0.87436436555E+01  0.13283694163E+02  0.51100000000E-03 0. -1.
         11    1    3    3    0    0  0.38972210180E-01  0.10000185355E+02  0.87209624852E+01  0.13268775863E+02  0.51100000000E-03 0.  1.
<mgrwt>
<rscale>  0 0.20000530E+02</rscale>
<asrwt>0</asrwt>
<pdfrwt beam="2">  1        1 0.69906645E-03 0.20000530E+02</pdfrwt>
<pdfrwt beam="1">  1       -1 0.33859289E-02 0.20000530E+02</pdfrwt>
<totfact> 0.37214567E+06</totfact>
</mgrwt>
</event>
<event>
 5    1  0.1019345E-006  0.2000088E+02  0.7818608E-02  0.1745311E+00
         -1   -1    0    0    0  501 -0.00000000000E+00  0.00000000000E+00  0.11187518012E+01  0.11187615481E+01  0.46700000000E-02 0. -1.
          1   -1    0    0  501    0  0.00000000000E+00 -0.00000000000E+00 -0.89392762423E+02  0.89392762545E+02  0.46700000000E-02 0.  1.
       1023    2    1    2    0    0  0.00000000000E+00  0.00000000000E+00 -0.88274010621E+02  0.90511524093E+02  0.20000876041E+02 0.  0.
        -11    1    3    3    0    0  0.65110088789E+01 -0.75903879411E+01 -0.43959726965E+02  0.45082866155E+02  0.51100000000E-03 0.  1.
         11    1    3    3    0    0 -0.65110088789E+01  0.75903879411E+01 -0.44314283657E+02  0.45428657937E+02  0.51100000000E-03 0. -1.
<mgrwt>
<rscale>  0 0.20000876E+02</rscale>
<asrwt>0</asrwt>
<pdfrwt beam="2">  1        1 0.13752728E-01 0.20000876E+02</pdfrwt>
<pdfrwt beam="1">  1       -1 0.17211649E-03 0.20000876E+02</pdfrwt>
<totfact> 0.43833168E+06</totfact>
</mgrwt>
</event>
<event>
 5    1  0.9583198E-007  0.2000019E+02  0.7818608E-02  0.1745324E+00
          1   -1    0    0  501    0  0.00000000000E+00  0.00000000000E+00  0.94784719125E+01  0.94784730629E+01  0.46700000000E-02 0. -1.
         -1   -1    0    0    0  501 -0.00000000000E+00 -0.00000000000E+00 -0.10550422953E+02  0.10550423987E+02  0.46700000000E-02 0.  1.
       1023    2    1    2    0    0  0.00000000000E+00  0.00000000000E+00 -0.10719510408E+01  0.20028897050E+02  0.20000190949E+02 0.  0.
        -11    1    3    3    0    0 -0.96166560249E+01 -0.27423653138E+01 -0.50030668007E+00  0.10012539521E+02  0.51100000000E-03 0.  1.
         11    1    3    3    0    0  0.96166560249E+01  0.27423653138E+01 -0.57164436077E+00  0.10016357529E+02  0.51100000000E-03 0. -1.
<mgrwt>
<rscale>  0 0.20000191E+02</rscale>
<asrwt>0</asrwt>
<pdfrwt beam="1">  1        1 0.14582266E-02 0.20000191E+02</pdfrwt>
<pdfrwt beam="2">  1       -1 0.16231422E-02 0.20000191E+02</pdfrwt>
<totfact> 0.38539733E+06</totfact>
</mgrwt>
</event>
<event>
 5    1  0.9583198E-007  0.2000289E+02  0.7818608E-02  0.1745271E+00
          1   -1    0    0  501    0  0.00000000000E+00  0.00000000000E+00  0.23818371760E+01  0.23818417541E+01  0.46700000000E-02 0.  1.
         -1   -1    0    0    0  501 -0.00000000000E+00 -0.00000000000E+00 -0.41996497216E+02  0.41996497476E+02  0.46700000000E-02 0. -1.
       1023    2    1    2    0    0  0.00000000000E+00  0.00000000000E+00 -0.39614660040E+02  0.44378339230E+02  0.20002892359E+02 0.  0.
        -11    1    3    3    0    0 -0.99795978621E+01 -0.64812060346E+00 -0.19522418654E+02  0.21934841330E+02  0.51100000000E-03 0.  1.
         11    1    3    3    0    0  0.99795978621E+01  0.64812060346E+00 -0.20092241387E+02  0.22443497900E+02  0.51100000000E-03 0. -1.
<mgrwt>
<rscale>  0 0.20002892E+02</rscale>
<asrwt>0</asrwt>
<pdfrwt beam="1">  1        1 0.36643689E-03 0.20002892E+02</pdfrwt>
<pdfrwt beam="2">  1       -1 0.64609994E-02 0.20002892E+02</pdfrwt>
<totfact> 0.35506651E+06</totfact>
</mgrwt>
</event>
<event>
 5    1  0.9583198E-007  0.2000057E+02  0.7818608E-02  0.1745317E+00
          1   -1    0    0  501    0  0.00000000000E+00  0.00000000000E+00  0.13077249548E+01  0.13077332932E+01  0.46700000000E-02 0. -1.
         -1   -1    0    0    0  501 -0.00000000000E+00 -0.00000000000E+00 -0.76472799858E+02  0.76472800000E+02  0.46700000000E-02 0.  1.
       1023    2    1    2    0    0  0.00000000000E+00  0.00000000000E+00 -0.75165074903E+02  0.77780533294E+02  0.20000571848E+02 0.  0.
        -11    1    3    3    0    0 -0.92512770061E+01 -0.37970821181E+01 -0.37745661112E+02  0.39047905090E+02  0.51100000000E-03 0.  1.
         11    1    3    3    0    0  0.92512770061E+01  0.37970821181E+01 -0.37419413791E+02  0.38732628204E+02  0.51100000000E-03 0. -1.
<mgrwt>
<rscale>  0 0.20000572E+02</rscale>
<asrwt>0</asrwt>
<pdfrwt beam="1">  1        1 0.20118917E-03 0.20000572E+02</pdfrwt>
<pdfrwt beam="2">  1       -1 0.11765043E-01 0.20000572E+02</pdfrwt>
<totfact> 0.33201688E+06</totfact>
</mgrwt>
</event>
<event>
 5    1  0.9583198E-007  0.2000030E+02  0.7818608E-02  0.1745322E+00
          1   -1    0    0  501    0  0.00000000000E+00  0.00000000000E+00  0.38143372980E+02  0.38143373266E+02  0.46700000000E-02 0. -1.
         -1   -1    0    0    0  501 -0.00000000000E+00 -0.00000000000E+00 -0.26217624978E+01  0.26217666570E+01  0.46700000000E-02 0.  1.
       1023    2    1    2    0    0  0.00000000000E+00  0.00000000000E+00  0.35521610482E+02  0.40765139923E+02  0.20000295540E+02 0.  0.
        -11    1    3    3    0    0  0.78075649381E+01 -0.62485753959E+01  0.17732679349E+02  0.20358061840E+02  0.51100000000E-03 0. -1.
         11    1    3    3    0    0 -0.78075649381E+01  0.62485753959E+01  0.17788931134E+02  0.20407078083E+02  0.51100000000E-03 0.  1.
<mgrwt>
<rscale>  0 0.20000296E+02</rscale>
<asrwt>0</asrwt>
<pdfrwt beam="1">  1        1 0.58682115E-02 0.20000296E+02</pdfrwt>
<pdfrwt beam="2">  1       -1 0.40334842E-03 0.20000296E+02</pdfrwt>
<totfact> 0.40992120E+06</totfact>
</mgrwt>
</event>
<event>
 5    1  0.9583198E-007  0.2000543E+02  0.7818608E-02  0.1745220E+00
          1   -1    0    0  501    0  0.00000000000E+00  0.00000000000E+00  0.92054641314E+00  0.92055825870E+00  0.46700000000E-02 0.  1.
         -1   -1    0    0    0  501 -0.00000000000E+00 -0.00000000000E+00 -0.10868946307E+03  0.10868946317E+03  0.46700000000E-02 0. -1.
       1023    2    1    2    0    0  0.00000000000E+00  0.00000000000E+00 -0.10776891666E+03  0.10961002143E+03  0.20005434269E+02 0.  0.
        -11    1    3    3    0    0 -0.93385690761E+01 -0.35818535689E+01 -0.53195704216E+02  0.54127825512E+02  0.51100000000E-03 0.  1.
         11    1    3    3    0    0  0.93385690761E+01  0.35818535689E+01 -0.54573212440E+02  0.55482195916E+02  0.51100000000E-03 0. -1.
<mgrwt>
<rscale>  0 0.20005434E+02</rscale>
<asrwt>0</asrwt>
<pdfrwt beam="1">  1        1 0.14162353E-03 0.20005434E+02</pdfrwt>
<pdfrwt beam="2">  1       -1 0.16721447E-01 0.20005434E+02</pdfrwt>
<totfact> 0.31390720E+06</totfact>
</mgrwt>
</event>
<event>
 5    1  0.9583198E-007  0.2000355E+02  0.7818608E-02  0.1745258E+00
          1   -1    0    0  501    0  0.00000000000E+00  0.00000000000E+00  0.22597818173E+02  0.22597818656E+02  0.46700000000E-02 0. -1.
         -1   -1    0    0    0  501 -0.00000000000E+00 -0.00000000000E+00 -0.44267736934E+01  0.44267761567E+01  0.46700000000E-02 0.  1.
       1023    2    1    2    0    0  0.00000000000E+00  0.00000000000E+00  0.18171044480E+02  0.27024594812E+02  0.20003546368E+02 0.  0.
        -11    1    3    3    0    0 -0.97042489924E+01 -0.24213292379E+01  0.91037868220E+01  0.13524578313E+02  0.51100000000E-03 0. -1.
         11    1    3    3    0    0  0.97042489924E+01  0.24213292379E+01  0.90672576576E+01  0.13500016499E+02  0.51100000000E-03 0.  1.
<mgrwt>
<rscale>  0 0.20003546E+02</rscale>
<asrwt>0</asrwt>
<pdfrwt beam="1">  1        1 0.34765876E-02 0.20003546E+02</pdfrwt>
<pdfrwt beam="2">  1       -1 0.68104233E-03 0.20003546E+02</pdfrwt>
<totfact> 0.39900202E+06</totfact>
</mgrwt>
</event>
<event>
 5    1  0.9583198E-007  0.2000038E+02  0.7818608E-02  0.1745320E+00
         -1   -1    0    0    0  501 -0.00000000000E+00  0.00000000000E+00  0.63017817363E+01  0.63017834667E+01  0.46700000000E-02 0.  1.
          1   -1    0    0  501    0  0.00000000000E+00 -0.00000000000E+00 -0.15869131960E+02  0.15869132647E+02  0.46700000000E-02 0. -1.
       1023    2    1    2    0    0  0.00000000000E+00  0.00000000000E+00 -0.95673502240E+01  0.22170916114E+02  0.20000383272E+02 0.  0.
        -11    1    3    3    0    0  0.98975479223E+01 -0.14280316429E+01 -0.48454274734E+01  0.11112105872E+02  0.51100000000E-03 0.  1.
         11    1    3    3    0    0 -0.98975479223E+01  0.14280316429E+01 -0.47219227506E+01  0.11058810242E+02  0.51100000000E-03 0. -1.
<mgrwt>
<rscale>  0 0.20000383E+02</rscale>
<asrwt>0</asrwt>
<pdfrwt beam="2">  1        1 0.24414051E-02 0.20000383E+02</pdfrwt>
<pdfrwt beam="1">  1       -1 0.96950507E-03 0.20000383E+02</pdfrwt>
<totfact> 0.39330559E+06</totfact>
</mgrwt>
</event>
<event>
 5    1  0.9583198E-007  0.2000026E+02  0.7818608E-02  0.1745323E+00
         -1   -1    0    0    0  501 -0.00000000000E+00  0.00000000000E+00  0.24703233264E+02  0.24703233705E+02  0.46700000000E-02 0.  1.
          1   -1    0    0  501    0  0.00000000000E+00 -0.00000000000E+00 -0.40481568403E+01  0.40481595340E+01  0.46700000000E-02 0. -1.
       1023    2    1    2    0    0  0.00000000000E+00  0.00000000000E+00  0.20655076423E+02  0.28751393239E+02  0.20000260777E+02 0.  0.
        -11    1    3    3    0    0  0.28930433737E+01 -0.95724670274E+01  0.10287323580E+02  0.14346806323E+02  0.51100000000E-03 0.  1.
         11    1    3    3    0    0 -0.28930433737E+01  0.95724670274E+01  0.10367752843E+02  0.14404586916E+02  0.51100000000E-03 0. -1.
<mgrwt>
<rscale>  0 0.20000261E+02</rscale>
<asrwt>0</asrwt>
<pdfrwt beam="2">  1        1 0.62279360E-03 0.20000261E+02</pdfrwt>
<pdfrwt beam="1">  1       -1 0.38004977E-02 0.20000261E+02</pdfrwt>
<totfact> 0.36959222E+06</totfact>
</mgrwt>
</event>
<event>
 5    1  0.9583198E-007  0.2000024E+02  0.7818608E-02  0.1745323E+00
         -1   -1    0    0    0  501 -0.00000000000E+00  0.00000000000E+00  0.21914310330E+02  0.21914310828E+02  0.46700000000E-02 0.  1.
          1   -1    0    0  501    0  0.00000000000E+00 -0.00000000000E+00 -0.45633371779E+01  0.45633395674E+01  0.46700000000E-02 0. -1.
       1023    2    1    2    0    0  0.00000000000E+00  0.00000000000E+00  0.17350973152E+02  0.26477650395E+02  0.20000242526E+02 0.  0.
        -11    1    3    3    0    0  0.49151843103E+01  0.87086833660E+01  0.87378945574E+01  0.13279721546E+02  0.51100000000E-03 0. -1.
         11    1    3    3    0    0 -0.49151843103E+01 -0.87086833660E+01  0.86130785948E+01  0.13197928849E+02  0.51100000000E-03 0.  1.
<mgrwt>
<rscale>  0 0.20000243E+02</rscale>
<asrwt>0</asrwt>
<pdfrwt beam="2">  1        1 0.70205209E-03 0.20000243E+02</pdfrwt>
<pdfrwt beam="1">  1       -1 0.33714326E-02 0.20000243E+02</pdfrwt>
<totfact> 0.37224943E+06</totfact>
</mgrwt>
</event>
<event>
 5    1  0.1016615E-006  0.2000092E+02  0.7818608E-02  0.1745310E+00
         -1   -1    0    0    0  501 -0.00000000000E+00  0.00000000000E+00  0.13473881691E+01  0.13473962621E+01  0.46700000000E-02 0. -1.
          1   -1    0    0  501    0  0.00000000000E+00 -0.00000000000E+00 -0.74224243761E+02  0.74224243908E+02  0.46700000000E-02 0.  1.
       1023    2    1    2    0    0  0.00000000000E+00  0.00000000000E+00 -0.72876855592E+02  0.75571640170E+02  0.20000917904E+02 0.  0.
        -11    1    3    3    0    0  0.99542687183E+01 -0.95876035441E+00 -0.36627040334E+02  0.37967706950E+02  0.51100000000E-03 0.  1.
         11    1    3    3    0    0 -0.99542687183E+01  0.95876035441E+00 -0.36249815258E+02  0.37603933220E+02  0.51100000000E-03 0. -1.
<mgrwt>
<rscale>  0 0.20000918E+02</rscale>
<asrwt>0</asrwt>
<pdfrwt beam="2">  1        1 0.11419112E-01 0.20000918E+02</pdfrwt>
<pdfrwt beam="1">  1       -1 0.20729118E-03 0.20000918E+02</pdfrwt>
<totfact> 0.43053930E+06</totfact>
</mgrwt>
</event>
<event>
 5    1  0.9583198E-007  0.2000090E+02  0.7818608E-02  0.1745310E+00
          1   -1    0    0  501    0  0.00000000000E+00  0.00000000000E+00  0.27133781753E+01  0.27133821941E+01  0.46700000000E-02 0. -1.
         -1   -1    0    0    0  501 -0.00000000000E+00 -0.00000000000E+00 -0.36857728345E+02  0.36857728641E+02  0.46700000000E-02 0.  1.
       1023    2    1    2    0    0  0.00000000000E+00  0.00000000000E+00 -0.34144350170E+02  0.39571110835E+02  0.20000904085E+02 0.  0.
        -11    1    3    3    0    0  0.37859142535E+01 -0.92559803172E+01 -0.17175405219E+02  0.19874628627E+02  0.51100000000E-03 0. -1.
         11    1    3    3    0    0 -0.37859142535E+01  0.92559803172E+01 -0.16968944951E+02  0.19696482208E+02  0.51100000000E-03 0.  1.
<mgrwt>
<rscale>  0 0.20000904E+02</rscale>
<asrwt>0</asrwt>
<pdfrwt beam="1">  1        1 0.41744316E-03 0.20000904E+02</pdfrwt>
<pdfrwt beam="2">  1       -1 0.56704197E-02 0.20000904E+02</pdfrwt>
<totfact> 0.35914445E+06</totfact>
</mgrwt>
</event>
<event>
 5    1  0.9583198E-007  0.2000077E+02  0.7818608E-02  0.1745313E+00
          1   -1    0    0  501    0  0.00000000000E+00  0.00000000000E+00  0.99235880418E+00  0.99236979253E+00  0.46700000000E-02 0.  1.
         -1   -1    0    0    0  501 -0.00000000000E+00 -0.00000000000E+00 -0.10077723475E+03  0.10077723485E+03  0.46700000000E-02 0. -1.
       1023    2    1    2    0    0  0.00000000000E+00  0.00000000000E+00 -0.99784875942E+02  0.10176960465E+03  0.20000774066E+02 0.  0.
        -11    1    3    3    0    0  0.91440939743E+01 -0.40484645417E+01 -0.50181208251E+02  0.51167940955E+02  0.51100000000E-03 0. -1.
         11    1    3    3    0    0 -0.91440939743E+01  0.40484645417E+01 -0.49603667690E+02  0.50601663691E+02  0.51100000000E-03 0.  1.
<mgrwt>
<rscale>  0 0.20000774E+02</rscale>
<asrwt>0</asrwt>
<pdfrwt beam="1">  1        1 0.15267152E-03 0.20000774E+02</pdfrwt>
<pdfrwt beam="2">  1       -1 0.15504183E-01 0.20000774E+02</pdfrwt>
<totfact> 0.31823440E+06</totfact>
</mgrwt>
</event>
<event>
 5    1  0.9583198E-007  0.2000083E+02  0.7818608E-02  0.1745312E+00
          1   -1    0    0  501    0  0.00000000000E+00  0.00000000000E+00  0.10898381745E+02  0.10898382746E+02  0.46700000000E-02 0. -1.
         -1   -1    0    0    0  501 -0.00000000000E+00 -0.00000000000E+00 -0.91764370191E+01  0.91764382074E+01  0.46700000000E-02 0.  1.
       1023    2    1    2    0    0  0.00000000000E+00  0.00000000000E+00  0.17219447261E+01  0.20074820953E+02  0.20000833549E+02 0.  0.
        -11    1    3    3    0    0  0.92018645127E+01 -0.39154496089E+01  0.80349575759E+00  0.10032480344E+02  0.51100000000E-03 0. -1.
         11    1    3    3    0    0 -0.92018645127E+01  0.39154496089E+01  0.91844896852E+00  0.10042340610E+02  0.51100000000E-03 0.  1.
<mgrwt>
<rscale>  0 0.20000834E+02</rscale>
<asrwt>0</asrwt>
<pdfrwt beam="1">  1        1 0.16766743E-02 0.20000834E+02</pdfrwt>
<pdfrwt beam="2">  1       -1 0.14117597E-02 0.20000834E+02</pdfrwt>
<totfact> 0.38752827E+06</totfact>
</mgrwt>
</event>
<event>
 5    1  0.9583198E-007  0.2000161E+02  0.7818608E-02  0.1745296E+00
         -1   -1    0    0    0  501 -0.00000000000E+00  0.00000000000E+00  0.24106955110E+02  0.24106955562E+02  0.46700000000E-02 0.  1.
          1   -1    0    0  501    0  0.00000000000E+00 -0.00000000000E+00 -0.41488453382E+01  0.41488479665E+01  0.46700000000E-02 0. -1.
       1023    2    1    2    0    0  0.00000000000E+00  0.00000000000E+00  0.19958109772E+02  0.28255803529E+02  0.20001607120E+02 0.  0.
        -11    1    3    3    0    0  0.42241257739E+01  0.90649020968E+01  0.10006701908E+02  0.14147429870E+02  0.51100000000E-03 0. -1.
         11    1    3    3    0    0 -0.42241257739E+01 -0.90649020968E+01  0.99514078639E+01  0.14108373659E+02  0.51100000000E-03 0.  1.
<mgrwt>
<rscale>  0 0.20001607E+02</rscale>
<asrwt>0</asrwt>
<pdfrwt beam="2">  1        1 0.63828413E-03 0.20001607E+02</pdfrwt>
<pdfrwt beam="1">  1       -1 0.37087626E-02 0.20001607E+02</pdfrwt>
<totfact> 0.37009443E+06</totfact>
</mgrwt>
</event>
<event>
 5    1  0.1014513E-006  0.2000084E+02  0.7818608E-02  0.1745311E+00
          1   -1    0    0  501    0  0.00000000000E+00  0.00000000000E+00  0.90627394053E+02  0.90627394173E+02  0.46700000000E-02 0.  1.
         -1   -1    0    0    0  501 -0.00000000000E+00 -0.00000000000E+00 -0.11035068713E+01  0.11035167529E+01  0.46700000000E-02 0. -1.
       1023    2    1    2    0    0  0.00000000000E+00  0.00000000000E+00  0.89523887182E+02  0.91730910926E+02  0.20000841063E+02 0.  0.
        -11    1    3    3    0    0 -0.48061340163E+01  0.87697223274E+01  0.44936987392E+02  0.46036287752E+02  0.51100000000E-03 0. -1.
         11    1    3    3    0    0  0.48061340163E+01 -0.87697223274E+01  0.44586899789E+02  0.45694623174E+02  0.51100000000E-03 0.  1.
<mgrwt>
<rscale>  0 0.20000841E+02</rscale>
<asrwt>0</asrwt>
<pdfrwt beam="1">  1        1 0.13942676E-01 0.20000841E+02</pdfrwt>
<pdfrwt beam="2">  1       -1 0.16977107E-03 0.20000841E+02</pdfrwt>
<totfact> 0.43895156E+06</totfact>
</mgrwt>
</event>
<event>
 5    1  0.9583198E-007  0.2000884E+02  0.7818608E-02  0.1745152E+00
         -1   -1    0    0    0  501 -0.00000000000E+00  0.00000000000E+00  0.28252722629E+01  0.28252761225E+01  0.46700000000E-02 0.  1.
          1   -1    0    0  501    0  0.00000000000E+00 -0.00000000000E+00 -0.35426078775E+02  0.35426079083E+02  0.46700000000E-02 0. -1.
       1023    2    1    2    0    0  0.00000000000E+00  0.00000000000E+00 -0.32600806513E+02  0.38251355206E+02  0.20008837792E+02 0.  0.
        -11    1    3    3    0    0 -0.95873248646E+01 -0.28577294175E+01 -0.16165471550E+02  0.19010678214E+02  0.51100000000E-03 0.  1.
         11    1    3    3    0    0  0.95873248646E+01  0.28577294175E+01 -0.16435334963E+02  0.19240676991E+02  0.51100000000E-03 0. -1.
<mgrwt>
<rscale>  0 0.20008838E+02</rscale>
<asrwt>0</asrwt>
<pdfrwt beam="2">  1        1 0.54501659E-02 0.20008838E+02</pdfrwt>
<pdfrwt beam="1">  1       -1 0.43465762E-03 0.20008838E+02</pdfrwt>
<totfact> 0.40778866E+06</totfact>
</mgrwt>
</event>
<event>
 5    1  0.9583198E-007  0.2000040E+02  0.7818608E-02  0.1745320E+00
          1   -1    0    0  501    0  0.00000000000E+00  0.00000000000E+00  0.38762013725E+02  0.38762014007E+02  0.46700000000E-02 0.  1.
         -1   -1    0    0    0  501 -0.00000000000E+00 -0.00000000000E+00 -0.25799466656E+01  0.25799508923E+01  0.46700000000E-02 0. -1.
       1023    2    1    2    0    0  0.00000000000E+00  0.00000000000E+00  0.36182067060E+02  0.41341964899E+02  0.20000402121E+02 0.  0.
        -11    1    3    3    0    0 -0.91988941412E+01  0.39219816083E+01  0.17989183439E+02  0.20581844286E+02  0.51100000000E-03 0. -1.
         11    1    3    3    0    0  0.91988941412E+01 -0.39219816083E+01  0.18192883620E+02  0.20760120613E+02  0.51100000000E-03 0.  1.
<mgrwt>
<rscale>  0 0.20000402E+02</rscale>
<asrwt>0</asrwt>
<pdfrwt beam="1">  1        1 0.59633864E-02 0.20000402E+02</pdfrwt>
<pdfrwt beam="2">  1       -1 0.39691526E-03 0.20000402E+02</pdfrwt>
<totfact> 0.41030779E+06</totfact>
</mgrwt>
</event>
<event>
 5    1  0.9886970E-007  0.2000061E+02  0.7818608E-02  0.1745316E+00
         -1   -1    0    0    0  501 -0.00000000000E+00  0.00000000000E+00  0.13508988433E+01  0.13509069152E+01  0.46700000000E-02 0. -1.
          1   -1    0    0  501    0  0.00000000000E+00 -0.00000000000E+00 -0.74029090968E+02  0.74029091115E+02  0.46700000000E-02 0.  1.
       1023    2    1    2    0    0  0.00000000000E+00  0.00000000000E+00 -0.72678192124E+02  0.75379998030E+02  0.20000612305E+02 0.  0.
        -11    1    3    3    0    0  0.31074984345E+00 -0.99953632501E+01 -0.36159493260E+02  0.37516833622E+02  0.51100000000E-03 0. -1.
         11    1    3    3    0    0 -0.31074984345E+00  0.99953632501E+01 -0.36518698864E+02  0.37863164408E+02  0.51100000000E-03 0.  1.
<mgrwt>
<rscale>  0 0.20000612E+02</rscale>
<asrwt>0</asrwt>
<pdfrwt beam="2">  1        1 0.11389088E-01 0.20000612E+02</pdfrwt>
<pdfrwt beam="1">  1       -1 0.20783128E-03 0.20000612E+02</pdfrwt>
<totfact> 0.43045102E+06</totfact>
</mgrwt>
</event>
<event>
 5    1  0.9894040E-007  0.2000152E+02  0.7818608E-02  0.1745298E+00
          1   -1    0    0  501    0  0.00000000000E+00  0.00000000000E+00  0.36028214710E+02  0.36028215012E+02  0.46700000000E-02 0.  1.
         -1   -1    0    0    0  501 -0.00000000000E+00 -0.00000000000E+00 -0.27760208550E+01  0.27760247830E+01  0.46700000000E-02 0. -1.
       1023    2    1    2    0    0  0.00000000000E+00  0.00000000000E+00  0.33252193855E+02  0.38804239795E+02  0.20001515691E+02 0.  0.
        -11    1    3    3    0    0 -0.80569512497E+01  0.59241947541E+01  0.16494368088E+02  0.19289238601E+02  0.51100000000E-03 0.  1.
         11    1    3    3    0    0  0.80569512497E+01 -0.59241947541E+01  0.16757825767E+02  0.19515001194E+02  0.51100000000E-03 0. -1.
<mgrwt>
<rscale>  0 0.20001516E+02</rscale>
<asrwt>0</asrwt>
<pdfrwt beam="1">  1        1 0.55428020E-02 0.20001516E+02</pdfrwt>
<pdfrwt beam="2">  1       -1 0.42708050E-03 0.20001516E+02</pdfrwt>
<totfact> 0.40851168E+06</totfact>
</mgrwt>
</event>
<event>
 4    1  0.9583198E-007  0.2001802E+02  0.7818608E-02  0.1744970E+00
         -1   -1    0    0    0  501 -0.00000000000E+00  0.00000000000E+00  0.12434985593E+01  0.12435073284E+01  0.46700000000E-02 0.  1.
          1   -1    0    0  501    0  0.00000000000E+00 -0.00000000000E+00 -0.80562920600E+02  0.80562920735E+02  0.46700000000E-02 0. -1.
        -11    1    1    2    0    0 -0.82324920868E+01 -0.56896669805E+01 -0.40413287360E+02  0.41633880816E+02  0.51100000000E-03 0. -1.
         11    1    1    2    0    0  0.82324920868E+01  0.56896669805E+01 -0.38906134681E+02  0.40172547248E+02  0.51100000000E-03 0.  1.
<mgrwt>
<rscale>  0 0.20018016E+02</rscale>
<asrwt>0</asrwt>
<pdfrwt beam="2">  1        1 0.12394292E-01 0.20018016E+02</pdfrwt>
<pdfrwt beam="1">  1       -1 0.19130822E-03 0.20018016E+02</pdfrwt>
<totfact> 0.43302131E+06</totfact>
</mgrwt>
</event>
<event>
 5    1  0.9583198E-007  0.2000183E+02  0.7818608E-02  0.1745292E+00
         -1   -1    0    0    0  501 -0.00000000000E+00  0.00000000000E+00  0.30170972249E+02  0.30170972610E+02  0.46700000000E-02 0. -1.
          1   -1    0    0  501    0  0.00000000000E+00 -0.00000000000E+00 -0.33150473108E+01  0.33150506001E+01  0.46700000000E-02 0.  1.
       1023    2    1    2    0    0  0.00000000000E+00  0.00000000000E+00  0.26855924938E+02  0.33486023210E+02  0.20001826071E+02 0.  0.
        -11    1    3    3    0    0  0.99933283699E+01 -0.38639446265E+00  0.13346827729E+02  0.16677941218E+02  0.51100000000E-03 0.  1.
         11    1    3    3    0    0 -0.99933283699E+01  0.38639446265E+00  0.13509097209E+02  0.16808081992E+02  0.51100000000E-03 0. -1.
<mgrwt>
<rscale>  0 0.20001826E+02</rscale>
<asrwt>0</asrwt>
<pdfrwt beam="2">  1        1 0.51000757E-03 0.20001826E+02</pdfrwt>
<pdfrwt beam="1">  1       -1 0.46416882E-02 0.20001826E+02</pdfrwt>
<totfact> 0.36464438E+06</totfact>
</mgrwt>
</event>
<event>
 5    1  0.9583198E-007  0.2000042E+02  0.7818608E-02  0.1745320E+00
          1   -1    0    0  501    0  0.00000000000E+00  0.00000000000E+00  0.91747501601E+01  0.91747513486E+01  0.46700000000E-02 0. -1.
         -1   -1    0    0    0  501 -0.00000000000E+00 -0.00000000000E+00 -0.10899938841E+02  0.10899939842E+02  0.46700000000E-02 0.  1.
       1023    2    1    2    0    0  0.00000000000E+00  0.00000000000E+00 -0.17251886812E+01  0.20074691190E+02  0.20000423756E+02 0.  0.
        -11    1    3    3    0    0  0.66415627532E+00  0.99781149671E+01 -0.88151864561E+00  0.10038971921E+02  0.51100000000E-03 0.  1.
         11    1    3    3    0    0 -0.66415627532E+00 -0.99781149671E+01 -0.84367003556E+00  0.10035719269E+02  0.51100000000E-03 0. -1.
<mgrwt>
<rscale>  0 0.20000424E+02</rscale>
<asrwt>0</asrwt>
<pdfrwt beam="1">  1        1 0.14115002E-02 0.20000424E+02</pdfrwt>
<pdfrwt beam="2">  1       -1 0.16769138E-02 0.20000424E+02</pdfrwt>
<totfact> 0.38487575E+06</totfact>
</mgrwt>
</event>
<event>
 5    1  0.9583198E-007  0.2000029E+02  0.7818608E-02  0.1745322E+00
         -1   -1    0    0    0  501 -0.00000000000E+00  0.00000000000E+00  0.45599912218E+01  0.45599936132E+01  0.46700000000E-02 0.  1.
          1   -1    0    0  501    0  0.00000000000E+00 -0.00000000000E+00 -0.21930496089E+02  0.21930496586E+02  0.46700000000E-02 0. -1.
       1023    2    1    2    0    0  0.00000000000E+00  0.00000000000E+00 -0.17370504867E+02  0.26490490200E+02  0.20000290790E+02 0.  0.
        -11    1    3    3    0    0  0.67222483100E+01  0.74036541663E+01 -0.86669809741E+01  0.13233264027E+02  0.51100000000E-03 0.  1.
         11    1    3    3    0    0 -0.67222483100E+01 -0.74036541663E+01 -0.87035238933E+01  0.13257226172E+02  0.51100000000E-03 0. -1.
<mgrwt>
<rscale>  0 0.20000291E+02</rscale>
<asrwt>0</asrwt>
<pdfrwt beam="2">  1        1 0.33739226E-02 0.20000291E+02</pdfrwt>
<pdfrwt beam="1">  1       -1 0.70153734E-03 0.20000291E+02</pdfrwt>
<totfact> 0.39862109E+06</totfact>
</mgrwt>
</event>
<event>
 5    1  0.9583198E-007  0.2000016E+02  0.7818608E-02  0.1745325E+00
         -1   -1    0    0    0  501 -0.00000000000E+00  0.00000000000E+00  0.24908558196E+02  0.24908558634E+02  0.46700000000E-02 0. -1.
          1   -1    0    0  501    0  0.00000000000E+00 -0.00000000000E+00 -0.40147464349E+01  0.40147491510E+01  0.46700000000E-02 0.  1.
       1023    2    1    2    0    0  0.00000000000E+00  0.00000000000E+00  0.20893811761E+02  0.28923307785E+02  0.20000159082E+02 0.  0.
        -11    1    3    3    0    0 -0.94436439017E+01  0.32892520708E+01  0.10448515081E+02  0.14462816357E+02  0.51100000000E-03 0. -1.
         11    1    3    3    0    0  0.94436439017E+01 -0.32892520708E+01  0.10445296680E+02  0.14460491428E+02  0.51100000000E-03 0.  1.
<mgrwt>
<rscale>  0 0.20000159E+02</rscale>
<asrwt>0</asrwt>
<pdfrwt beam="2">  1        1 0.61765355E-03 0.20000159E+02</pdfrwt>
<pdfrwt beam="1">  1       -1 0.38320861E-02 0.20000159E+02</pdfrwt>
<totfact> 0.36940583E+06</totfact>
</mgrwt>
</event>
<event>
 5    1  0.9589478E-007  0.2000131E+02  0.7818608E-02  0.1745302E+00
          1   -1    0    0  501    0  0.00000000000E+00  0.00000000000E+00  0.25508089792E+01  0.25508132541E+01  0.46700000000E-02 0. -1.
         -1   -1    0    0    0  501 -0.00000000000E+00 -0.00000000000E+00 -0.39208357644E+02  0.39208357922E+02  0.46700000000E-02 0.  1.
       1023    2    1    2    0    0  0.00000000000E+00  0.00000000000E+00 -0.36657548665E+02  0.41759171176E+02  0.20001312537E+02 0.  0.
        -11    1    3    3    0    0 -0.68692556529E+01  0.72673331785E+01 -0.18560520574E+02  0.21083019921E+02  0.51100000000E-03 0.  1.
         11    1    3    3    0    0  0.68692556529E+01 -0.72673331785E+01 -0.18097028091E+02  0.20676151255E+02  0.51100000000E-03 0. -1.
<mgrwt>
<rscale>  0 0.20001313E+02</rscale>
<asrwt>0</asrwt>
<pdfrwt beam="1">  1        1 0.39243253E-03 0.20001313E+02</pdfrwt>
<pdfrwt beam="2">  1       -1 0.60320549E-02 0.20001313E+02</pdfrwt>
<totfact> 0.35727486E+06</totfact>
</mgrwt>
</event>
<event>
 5    1  0.9756103E-007  0.2000159E+02  0.7818608E-02  0.1745296E+00
         -1   -1    0    0    0  501 -0.00000000000E+00  0.00000000000E+00  0.10363539933E+02  0.10363540985E+02  0.46700000000E-02 0. -1.
          1   -1    0    0  501    0  0.00000000000E+00 -0.00000000000E+00 -0.96507492012E+01  0.96507503311E+01  0.46700000000E-02 0.  1.
       1023    2    1    2    0    0  0.00000000000E+00  0.00000000000E+00  0.71279073169E+00  0.20014291316E+02  0.20001594593E+02 0.  0.
        -11    1    3    3    0    0 -0.41499498870E+01  0.90986076758E+01  0.45237602744E+00  0.10010563922E+02  0.51100000000E-03 0. -1.
         11    1    3    3    0    0  0.41499498870E+01 -0.90986076758E+01  0.26041470425E+00  0.10003727394E+02  0.51100000000E-03 0.  1.
<mgrwt>
<rscale>  0 0.20001595E+02</rscale>
<asrwt>0</asrwt>
<pdfrwt beam="2">  1        1 0.14847308E-02 0.20001595E+02</pdfrwt>
<pdfrwt beam="1">  1       -1 0.15943909E-02 0.20001595E+02</pdfrwt>
<totfact> 0.38561733E+06</totfact>
</mgrwt>
</event>
<event>
 5    1  0.9583198E-007  0.2000006E+02  0.7818608E-02  0.1745327E+00
         -1   -1    0    0    0  501 -0.00000000000E+00  0.00000000000E+00  0.13521490379E+02  0.13521491186E+02  0.46700000000E-02 0.  1.
          1   -1    0    0  501    0  0.00000000000E+00 -0.00000000000E+00 -0.73956756239E+01  0.73956770983E+01  0.46700000000E-02 0. -1.
       1023    2    1    2    0    0  0.00000000000E+00  0.00000000000E+00  0.61258147555E+01  0.20917168284E+02  0.20000058065E+02 0.  0.
        -11    1    3    3    0    0 -0.66516643027E+01  0.74669901395E+01  0.30637511351E+01  0.10458831245E+02  0.51100000000E-03 0.  1.
         11    1    3    3    0    0  0.66516643027E+01 -0.74669901395E+01  0.30620636204E+01  0.10458337039E+02  0.51100000000E-03 0. -1.
<mgrwt>
<rscale>  0 0.20000058E+02</rscale>
<asrwt>0</asrwt>
<pdfrwt beam="2">  1        1 0.11377964E-02 0.20000058E+02</pdfrwt>
<pdfrwt beam="1">  1       -1 0.20802294E-02 0.20000058E+02</pdfrwt>
<totfact> 0.38138418E+06</totfact>
</mgrwt>
</event>
<event>
 5    1  0.9583198E-007  0.2000026E+02  0.7818608E-02  0.1745323E+00
         -1   -1    0    0    0  501 -0.00000000000E+00  0.00000000000E+00  0.97038684327E+00  0.97039808043E+00  0.46700000000E-02 0.  1.
          1   -1    0    0  501    0  0.00000000000E+00 -0.00000000000E+00 -0.10305374551E+03  0.10305374562E+03  0.46700000000E-02 0. -1.
       1023    2    1    2    0    0  0.00000000000E+00  0.00000000000E+00 -0.10208335867E+03  0.10402414370E+03  0.20000258875E+02 0.  0.
        -11    1    3    3    0    0 -0.17395026836E+00 -0.99986013713E+01 -0.51131830098E+02  0.52100540664E+02  0.51100000000E-03 0. -1.
         11    1    3    3    0    0  0.17395026836E+00  0.99986013713E+01 -0.50951528572E+02  0.51923603036E+02  0.51100000000E-03 0.  1.
<mgrwt>
<rscale>  0 0.20000259E+02</rscale>
<asrwt>0</asrwt>
<pdfrwt beam="2">  1        1 0.15854415E-01 0.20000259E+02</pdfrwt>
<pdfrwt beam="1">  1       -1 0.14929124E-03 0.20000259E+02</pdfrwt>
<totfact> 0.44506828E+06</totfact>
</mgrwt>
</event>
<event>
 5    1  0.1030707E-006  0.2000129E+02  0.7818608E-02  0.1745302E+00
         -1   -1    0    0    0  501 -0.00000000000E+00  0.00000000000E+00  0.95229670926E+00  0.95230815987E+00  0.46700000000E-02 0. -1.
          1   -1    0    0  501    0  0.00000000000E+00 -0.00000000000E+00 -0.10502220518E+03  0.10502220528E+03  0.46700000000E-02 0.  1.
       1023    2    1    2    0    0  0.00000000000E+00  0.00000000000E+00 -0.10406990847E+03  0.10597451344E+03  0.20001291221E+02 0.  0.
        -11    1    3    3    0    0  0.57885171172E+00 -0.99838463643E+01 -0.51899369720E+02  0.52854108971E+02  0.51100000000E-03 0. -1.
         11    1    3    3    0    0 -0.57885171172E+00  0.99838463643E+01 -0.52170538749E+02  0.53120404471E+02  0.51100000000E-03 0.  1.
<mgrwt>
<rscale>  0 0.20001291E+02</rscale>
<asrwt>0</asrwt>
<pdfrwt beam="2">  1        1 0.16157254E-01 0.20001291E+02</pdfrwt>
<pdfrwt beam="1">  1       -1 0.14650816E-03 0.20001291E+02</pdfrwt>
<totfact> 0.44595883E+06</totfact>
</mgrwt>
</event>
<event>
 5    1  0.9583198E-007  0.2000143E+02  0.7818608E-02  0.1745300E+00
         -1   -1    0    0    0  501 -0.00000000000E+00  0.00000000000E+00  0.19517380075E+02  0.19517380634E+02  0.46700000000E-02 0. -1.
          1   -1    0    0  501    0  0.00000000000E+00 -0.00000000000E+00 -0.51243700753E+01  0.51243722033E+01  0.46700000000E-02 0.  1.
       1023    2    1    2    0    0  0.00000000000E+00  0.00000000000E+00  0.14393010000E+02  0.24641752837E+02  0.20001431100E+02 0.  0.
        -11    1    3    3    0    0  0.96529369596E+01  0.26122881379E+01  0.70668814059E+01  0.12245164528E+02  0.51100000000E-03 0. -1.
         11    1    3    3    0    0 -0.96529369596E+01 -0.26122881379E+01  0.73261285942E+01  0.12396588309E+02  0.51100000000E-03 0.  1.
<mgrwt>
<rscale>  0 0.20001431E+02</rscale>
<asrwt>0</asrwt>
<pdfrwt beam="2">  1        1 0.78836484E-03 0.20001431E+02</pdfrwt>
<pdfrwt beam="1">  1       -1 0.30026740E-02 0.20001431E+02</pdfrwt>
<totfact> 0.37460295E+06</totfact>
</mgrwt>
</event>
<event>
 5    1  0.9583198E-007  0.2000261E+02  0.7818608E-02  0.1745276E+00
          1   -1    0    0  501    0  0.00000000000E+00  0.00000000000E+00  0.12013726882E+03  0.12013726891E+03  0.46700000000E-02 0.  1.
         -1   -1    0    0    0  501 -0.00000000000E+00 -0.00000000000E+00 -0.83259164894E+00  0.83260474584E+00  0.46700000000E-02 0. -1.
       1023    2    1    2    0    0  0.00000000000E+00  0.00000000000E+00  0.11930467717E+03  0.12096987366E+03  0.20002608270E+02 0.  0.
        -11    1    3    3    0    0  0.16784887604E+01 -0.98593213729E+01  0.59347442521E+02  0.60184237774E+02  0.51100000000E-03 0. -1.
         11    1    3    3    0    0 -0.16784887604E+01  0.98593213729E+01  0.59957234653E+02  0.60785635885E+02  0.51100000000E-03 0.  1.
<mgrwt>
<rscale>  0 0.20002608E+02</rscale>
<asrwt>0</asrwt>
<pdfrwt beam="1">  1        1 0.18482647E-01 0.20002608E+02</pdfrwt>
<pdfrwt beam="2">  1       -1 0.12809211E-03 0.20002608E+02</pdfrwt>
<totfact> 0.45293558E+06</totfact>
</mgrwt>
</event>
<event>
 5    1  0.9583198E-007  0.2000022E+02  0.7818608E-02  0.1745324E+00
         -1   -1    0    0    0  501 -0.00000000000E+00  0.00000000000E+00  0.15831705260E+01  0.15831774137E+01  0.46700000000E-02 0.  1.
          1   -1    0    0  501    0  0.00000000000E+00 -0.00000000000E+00 -0.63165634619E+02  0.63165634791E+02  0.46700000000E-02 0. -1.
       1023    2    1    2    0    0  0.00000000000E+00  0.00000000000E+00 -0.61582464093E+02  0.64748812205E+02  0.20000219954E+02 0.  0.
        -11    1    3    3    0    0  0.60705929546E+01 -0.79465736277E+01 -0.30938455843E+02  0.32514430357E+02  0.51100000000E-03 0.  1.
         11    1    3    3    0    0 -0.60705929546E+01  0.79465736277E+01 -0.30644008250E+02  0.32234381848E+02  0.51100000000E-03 0. -1.
<mgrwt>
<rscale>  0 0.20000220E+02</rscale>
<asrwt>0</asrwt>
<pdfrwt beam="2">  1        1 0.97177885E-02 0.20000220E+02</pdfrwt>
<pdfrwt beam="1">  1       -1 0.24356529E-03 0.20000220E+02</pdfrwt>
<totfact> 0.42461315E+06</totfact>
</mgrwt>
</event>
<event>
 5    1  0.9583198E-007  0.2000007E+02  0.7818608E-02  0.1745327E+00
          1   -1    0    0  501    0  0.00000000000E+00  0.00000000000E+00  0.10434057533E+03  0.10434057543E+03  0.46700000000E-02 0.  1.
         -1   -1    0    0    0  501 -0.00000000000E+00 -0.00000000000E+00 -0.95840085875E+00  0.95841223644E+00  0.46700000000E-02 0. -1.
       1023    2    1    2    0    0  0.00000000000E+00  0.00000000000E+00  0.10338217447E+03  0.10529898767E+03  0.20000070153E+02 0.  0.
        -11    1    3    3    0    0  0.27769412597E-01 -0.99999826477E+01  0.51603433835E+02  0.52563436036E+02  0.51100000000E-03 0.  1.
         11    1    3    3    0    0 -0.27769412597E-01  0.99999826477E+01  0.51778740636E+02  0.52735551634E+02  0.51100000000E-03 0. -1.
<mgrwt>
<rscale>  0 0.20000070E+02</rscale>
<asrwt>0</asrwt>
<pdfrwt beam="1">  1        1 0.16052409E-01 0.20000070E+02</pdfrwt>
<pdfrwt beam="2">  1       -1 0.14744706E-03 0.20000070E+02</pdfrwt>
<totfact> 0.44569383E+06</totfact>
</mgrwt>
</event>
<event>
 5    1  0.9583198E-007  0.2000288E+02  0.7818608E-02  0.1745271E+00
          1   -1    0    0  501    0  0.00000000000E+00  0.00000000000E+00  0.54591446991E+02  0.54591447191E+02  0.46700000000E-02 0.  1.
         -1   -1    0    0    0  501 -0.00000000000E+00 -0.00000000000E+00 -0.18323135980E+01  0.18323195491E+01  0.46700000000E-02 0. -1.
       1023    2    1    2    0    0  0.00000000000E+00  0.00000000000E+00  0.52759133393E+02  0.56423766740E+02  0.20002882211E+02 0.  0.
        -11    1    3    3    0    0  0.56453179983E+01  0.82552039630E+01  0.26086203369E+02  0.27937573521E+02  0.51100000000E-03 0. -1.
         11    1    3    3    0    0 -0.56453179983E+01 -0.82552039630E+01  0.26672930024E+02  0.28486193219E+02  0.51100000000E-03 0.  1.
<mgrwt>
<rscale>  0 0.20002882E+02</rscale>
<asrwt>0</asrwt>
<pdfrwt beam="1">  1        1 0.83986848E-02 0.20002882E+02</pdfrwt>
<pdfrwt beam="2">  1       -1 0.28189487E-03 0.20002882E+02</pdfrwt>
<totfact> 0.41967342E+06</totfact>
</mgrwt>
</event>
<event>
 5    1  0.9583198E-007  0.2000061E+02  0.7818608E-02  0.1745316E+00
         -1   -1    0    0    0  501 -0.00000000000E+00  0.00000000000E+00  0.16992964616E+02  0.16992965258E+02  0.46700000000E-02 0. -1.
          1   -1    0    0  501    0  0.00000000000E+00 -0.00000000000E+00 -0.58851459208E+01  0.58851477736E+01  0.46700000000E-02 0.  1.
       1023    2    1    2    0    0  0.00000000000E+00  0.00000000000E+00  0.11107818695E+02  0.22878113031E+02  0.20000610483E+02 0.  0.
        -11    1    3    3    0    0 -0.39848700114E+01  0.91720634916E+01  0.55391288712E+01  0.11431880275E+02  0.51100000000E-03 0.  1.
         11    1    3    3    0    0  0.39848700114E+01 -0.91720634916E+01  0.55686898240E+01  0.11446232757E+02  0.51100000000E-03 0. -1.
<mgrwt>
<rscale>  0 0.20000610E+02</rscale>
<asrwt>0</asrwt>
<pdfrwt beam="2">  1        1 0.90540726E-03 0.20000610E+02</pdfrwt>
<pdfrwt beam="1">  1       -1 0.26143024E-02 0.20000610E+02</pdfrwt>
<totfact> 0.37731421E+06</totfact>
</mgrwt>
</event>
<event>
 5    1  0.9583198E-007  0.2000052E+02  0.7818608E-02  0.1745318E+00
         -1   -1    0    0    0  501 -0.00000000000E+00  0.00000000000E+00  0.63502166936E+01  0.63502184108E+01  0.46700000000E-02 0. -1.
          1   -1    0    0  501    0  0.00000000000E+00 -0.00000000000E+00 -0.15748303101E+02  0.15748303793E+02  0.46700000000E-02 0.  1.
       1023    2    1    2    0    0  0.00000000000E+00  0.00000000000E+00 -0.93980864073E+01  0.22098522204E+02  0.20000516381E+02 0.  0.
        -11    1    3    3    0    0 -0.49599448541E+01 -0.86833946343E+01 -0.46409096223E+01  0.11024537982E+02  0.51100000000E-03 0.  1.
         11    1    3    3    0    0  0.49599448541E+01  0.86833946343E+01 -0.47571767850E+01  0.11073984222E+02  0.51100000000E-03 0. -1.
<mgrwt>
<rscale>  0 0.20000516E+02</rscale>
<asrwt>0</asrwt>
<pdfrwt beam="2">  1        1 0.24228160E-02 0.20000516E+02</pdfrwt>
<pdfrwt beam="1">  1       -1 0.97695660E-03 0.20000516E+02</pdfrwt>
<totfact> 0.39318024E+06</totfact>
</mgrwt>
</event>
<event>
 4    1  0.9583198E-007  0.2003156E+02  0.7818608E-02  0.1744701E+00
          1   -1    0    0  501    0  0.00000000000E+00  0.00000000000E+00  0.15357758804E+02  0.15357759515E+02  0.46700000000E-02 0. -1.
         -1   -1    0    0    0  501 -0.00000000000E+00 -0.00000000000E+00 -0.65319288108E+01  0.65319304802E+01  0.46700000000E-02 0.  1.
        -11    1    1    2    0    0  0.92509157568E+01  0.38387318736E+01  0.44375505674E+01  0.10954777955E+02  0.51100000000E-03 0.  1.
         11    1    1    2    0    0 -0.92509157568E+01 -0.38387318736E+01  0.43882794264E+01  0.10934912040E+02  0.51100000000E-03 0. -1.
<mgrwt>
<rscale>  0 0.20031556E+02</rscale>
<asrwt>0</asrwt>
<pdfrwt beam="1">  1        1 0.23627323E-02 0.20031556E+02</pdfrwt>
<pdfrwt beam="2">  1       -1 0.10049123E-02 0.20031556E+02</pdfrwt>
<totfact> 0.39142078E+06</totfact>
</mgrwt>
</event>
<event>
 5    1  0.9583198E-007  0.2000034E+02  0.7818608E-02  0.1745321E+00
         -1   -1    0    0    0  501 -0.00000000000E+00  0.00000000000E+00  0.40287567792E+02  0.40287568063E+02  0.46700000000E-02 0.  1.
          1   -1    0    0  501    0  0.00000000000E+00 -0.00000000000E+00 -0.24822380001E+01  0.24822423931E+01  0.46700000000E-02 0. -1.
       1023    2    1    2    0    0  0.00000000000E+00  0.00000000000E+00  0.37805329792E+02  0.42769810456E+02  0.20000343141E+02 0.  0.
        -11    1    3    3    0    0  0.72629988607E+01 -0.68740292915E+01  0.18902330441E+02  0.21384609595E+02  0.51100000000E-03 0.  1.
         11    1    3    3    0    0 -0.72629988607E+01  0.68740292915E+01  0.18902999351E+02  0.21385200862E+02  0.51100000000E-03 0. -1.
<mgrwt>
<rscale>  0 0.20000343E+02</rscale>
<asrwt>0</asrwt>
<pdfrwt beam="2">  1        1 0.38188315E-03 0.20000343E+02</pdfrwt>
<pdfrwt beam="1">  1       -1 0.61980873E-02 0.20000343E+02</pdfrwt>
<totfact> 0.35647565E+06</totfact>
</mgrwt>
</event>
<event>
 5    1  0.9583198E-007  0.2000095E+02  0.7818608E-02  0.1745309E+00
         -1   -1    0    0    0  501 -0.00000000000E+00  0.00000000000E+00  0.83753030454E+00  0.83754332420E+00  0.46700000000E-02 0. -1.
          1   -1    0    0  501    0  0.00000000000E+00 -0.00000000000E+00 -0.11940902052E+03  0.11940902061E+03  0.46700000000E-02 0.  1.
       1023    2    1    2    0    0  0.00000000000E+00  0.00000000000E+00 -0.11857149021E+03  0.12024656393E+03  0.20000946137E+02 0.  0.
        -11    1    3    3    0    0 -0.76265532822E+01 -0.64687794244E+01 -0.59323349917E+02  0.60160362930E+02  0.51100000000E-03 0. -1.
         11    1    3    3    0    0  0.76265532822E+01  0.64687794244E+01 -0.59248140294E+02  0.60086201001E+02  0.51100000000E-03 0.  1.
<mgrwt>
<rscale>  0 0.20000946E+02</rscale>
<asrwt>0</asrwt>
<pdfrwt beam="2">  1        1 0.18370606E-01 0.20000946E+02</pdfrwt>
<pdfrwt beam="1">  1       -1 0.12885192E-03 0.20000946E+02</pdfrwt>
<totfact> 0.45268612E+06</totfact>
</mgrwt>
</event>
<event>
 5    1  0.9583198E-007  0.2000017E+02  0.7818608E-02  0.1745325E+00
         -1   -1    0    0    0  501 -0.00000000000E+00  0.00000000000E+00  0.92094152058E+00  0.92095336105E+00  0.46700000000E-02 0. -1.
          1   -1    0    0  501    0  0.00000000000E+00 -0.00000000000E+00 -0.10858569014E+03  0.10858569024E+03  0.46700000000E-02 0.  1.
       1023    2    1    2    0    0  0.00000000000E+00  0.00000000000E+00 -0.10766474862E+03  0.10950664360E+03  0.20000172439E+02 0.  0.
        -11    1    3    3    0    0  0.89397563517E+01 -0.44812779053E+01 -0.53695072230E+02  0.54618329133E+02  0.51100000000E-03 0. -1.
         11    1    3    3    0    0 -0.89397563517E+01  0.44812779053E+01 -0.53969676390E+02  0.54888314468E+02  0.51100000000E-03 0.  1.
<mgrwt>
<rscale>  0 0.20000172E+02</rscale>
<asrwt>0</asrwt>
<pdfrwt beam="2">  1        1 0.16705482E-01 0.20000172E+02</pdfrwt>
<pdfrwt beam="1">  1       -1 0.14168432E-03 0.20000172E+02</pdfrwt>
<totfact> 0.44770251E+06</totfact>
</mgrwt>
</event>
<event>
 5    1  0.9583198E-007  0.2000131E+02  0.7818608E-02  0.1745302E+00
         -1   -1    0    0    0  501 -0.00000000000E+00  0.00000000000E+00  0.18865764706E+02  0.18865765284E+02  0.46700000000E-02 0. -1.
          1   -1    0    0  501    0  0.00000000000E+00 -0.00000000000E+00 -0.53012982543E+01  0.53013003112E+01  0.46700000000E-02 0.  1.
       1023    2    1    2    0    0  0.00000000000E+00  0.00000000000E+00  0.13564466451E+02  0.24167065595E+02  0.20001307691E+02 0.  0.
        -11    1    3    3    0    0 -0.99794145425E+01  0.64425087229E+00  0.66656909293E+01  0.12018120054E+02  0.51100000000E-03 0.  1.
         11    1    3    3    0    0  0.99794145425E+01 -0.64425087229E+00  0.68987755219E+01  0.12148945541E+02  0.51100000000E-03 0. -1.
<mgrwt>
<rscale>  0 0.20001308E+02</rscale>
<asrwt>0</asrwt>
<pdfrwt beam="2">  1        1 0.81558457E-03 0.20001308E+02</pdfrwt>
<pdfrwt beam="1">  1       -1 0.29024255E-02 0.20001308E+02</pdfrwt>
<totfact> 0.37528363E+06</totfact>
</mgrwt>
</event>
<event>
 5    1  0.9955018E-007  0.2000087E+02  0.7818608E-02  0.1745311E+00
         -1   -1    0    0    0  501 -0.00000000000E+00  0.00000000000E+00  0.29459377598E+01  0.29459414613E+01  0.46700000000E-02 0. -1.
          1   -1    0    0  501    0  0.00000000000E+00 -0.00000000000E+00 -0.33947966340E+02  0.33947966661E+02  0.46700000000E-02 0.  1.
       1023    2    1    2    0    0  0.00000000000E+00  0.00000000000E+00 -0.31002028580E+02  0.36893908122E+02  0.20000866993E+02 0.  0.
        -11    1    3    3    0    0 -0.62898980620E+01 -0.77744072274E+01 -0.15623989254E+02  0.18550290182E+02  0.51100000000E-03 0.  1.
         11    1    3    3    0    0  0.62898980620E+01  0.77744072274E+01 -0.15378039326E+02  0.18343617940E+02  0.51100000000E-03 0. -1.
<mgrwt>
<rscale>  0 0.20000867E+02</rscale>
<asrwt>0</asrwt>
<pdfrwt beam="2">  1        1 0.52227641E-02 0.20000867E+02</pdfrwt>
<pdfrwt beam="1">  1       -1 0.45322153E-03 0.20000867E+02</pdfrwt>
<totfact> 0.40718405E+06</totfact>
</mgrwt>
</event>
<event>
 5    1  0.9751338E-007  0.2000187E+02  0.7818608E-02  0.1745291E+00
          1   -1    0    0  501    0  0.00000000000E+00  0.00000000000E+00  0.59550245700E+02  0.59550245883E+02  0.46700000000E-02 0. -1.
         -1   -1    0    0    0  501 -0.00000000000E+00 -0.00000000000E+00 -0.16795641823E+01  0.16795706748E+01  0.46700000000E-02 0.  1.
       1023    2    1    2    0    0  0.00000000000E+00  0.00000000000E+00  0.57870681517E+02  0.61229816558E+02  0.20001866323E+02 0.  0.
        -11    1    3    3    0    0 -0.62452599106E+01  0.78109973951E+01  0.28748828713E+02  0.30438628489E+02  0.51100000000E-03 0. -1.
         11    1    3    3    0    0  0.62452599106E+01 -0.78109973951E+01  0.29121852804E+02  0.30791188068E+02  0.51100000000E-03 0.  1.
<mgrwt>
<rscale>  0 0.20001866E+02</rscale>
<asrwt>0</asrwt>
<pdfrwt beam="1">  1        1 0.91615760E-02 0.20001866E+02</pdfrwt>
<pdfrwt beam="2">  1       -1 0.25839503E-03 0.20001866E+02</pdfrwt>
<totfact> 0.42252707E+06</totfact>
</mgrwt>
</event>
<event>
 4    1  0.9583198E-007  0.2002281E+02  0.7818608E-02  0.1744875E+00
          1   -1    0    0  501    0  0.00000000000E+00  0.00000000000E+00  0.10712926434E+01  0.10713028221E+01  0.46700000000E-02 0. -1.
         -1   -1    0    0    0  501 -0.00000000000E+00 -0.00000000000E+00 -0.93557773363E+02  0.93557773480E+02  0.46700000000E-02 0.  1.
        -11    1    1    2    0    0  0.50973548889E+01 -0.86080969713E+01 -0.48048329720E+02  0.49078756601E+02  0.51100000000E-03 0.  1.
         11    1    1    2    0    0 -0.50973548889E+01  0.86080969713E+01 -0.44438151000E+02  0.45550319701E+02  0.51100000000E-03 0. -1.
<mgrwt>
<rscale>  0 0.20022811E+02</rscale>
<asrwt>0</asrwt>
<pdfrwt beam="1">  1        1 0.16481512E-03 0.20022811E+02</pdfrwt>
<pdfrwt beam="2">  1       -1 0.14393498E-01 0.20022811E+02</pdfrwt>
<totfact> 0.32138430E+06</totfact>
</mgrwt>
</event>
<event>
 5    1  0.9583198E-007  0.2000134E+02  0.7818608E-02  0.1745302E+00
          1   -1    0    0  501    0  0.00000000000E+00  0.00000000000E+00  0.16219767227E+01  0.16219834456E+01  0.46700000000E-02 0. -1.
         -1   -1    0    0    0  501 -0.00000000000E+00 -0.00000000000E+00 -0.61661271375E+02  0.61661271552E+02  0.46700000000E-02 0.  1.
       1023    2    1    2    0    0  0.00000000000E+00  0.00000000000E+00 -0.60039294653E+02  0.63283254998E+02  0.20001336473E+02 0.  0.
        -11    1    3    3    0    0  0.73203704070E+01  0.68132915547E+01 -0.29805052679E+02  0.31438033179E+02  0.51100000000E-03 0.  1.
         11    1    3    3    0    0 -0.73203704070E+01 -0.68132915547E+01 -0.30234241974E+02  0.31845221819E+02  0.51100000000E-03 0. -1.
<mgrwt>
<rscale>  0 0.20001336E+02</rscale>
<asrwt>0</asrwt>
<pdfrwt beam="1">  1        1 0.24953546E-03 0.20001336E+02</pdfrwt>
<pdfrwt beam="2">  1       -1 0.94863482E-02 0.20001336E+02</pdfrwt>
<totfact> 0.34128606E+06</totfact>
</mgrwt>
</event>
<event>
 4    1  0.9583198E-007  0.2001878E+02  0.7818608E-02  0.1744955E+00
         -1   -1    0    0    0  501 -0.00000000000E+00  0.00000000000E+00  0.97761076600E+00  0.97762192012E+00  0.46700000000E-02 0. -1.
          1   -1    0    0  501    0  0.00000000000E+00 -0.00000000000E+00 -0.10248179735E+03  0.10248179746E+03  0.46700000000E-02 0.  1.
        -11    1    1    2    0    0  0.84402447598E+01 -0.53797841920E+01 -0.51216680875E+02  0.52185517240E+02  0.51100000000E-03 0. -1.
         11    1    1    2    0    0 -0.84402447598E+01  0.53797841920E+01 -0.50287505713E+02  0.51273902140E+02  0.51100000000E-03 0.  1.
<mgrwt>
<rscale>  0 0.20018780E+02</rscale>
<asrwt>0</asrwt>
<pdfrwt beam="2">  1        1 0.15766423E-01 0.20018780E+02</pdfrwt>
<pdfrwt beam="1">  1       -1 0.15040260E-03 0.20018780E+02</pdfrwt>
<totfact> 0.44388594E+06</totfact>
</mgrwt>
</event>
<event>
 5    1  0.9583198E-007  0.2000077E+02  0.7818608E-02  0.1745313E+00
          1   -1    0    0  501    0  0.00000000000E+00  0.00000000000E+00  0.44706008746E+01  0.44706033138E+01  0.46700000000E-02 0. -1.
         -1   -1    0    0    0  501 -0.00000000000E+00 -0.00000000000E+00 -0.22370080569E+02  0.22370081056E+02  0.46700000000E-02 0.  1.
       1023    2    1    2    0    0  0.00000000000E+00  0.00000000000E+00 -0.17899479694E+02  0.26840684370E+02  0.20000774088E+02 0.  0.
        -11    1    3    3    0    0  0.99782741224E+01 -0.66420229491E+00 -0.89162811540E+01  0.13398029296E+02  0.51100000000E-03 0.  1.
         11    1    3    3    0    0 -0.99782741224E+01  0.66420229491E+00 -0.89831985399E+01  0.13442655073E+02  0.51100000000E-03 0. -1.
<mgrwt>
<rscale>  0 0.20000774E+02</rscale>
<asrwt>0</asrwt>
<pdfrwt beam="1">  1        1 0.68778499E-03 0.20000774E+02</pdfrwt>
<pdfrwt beam="2">  1       -1 0.34415510E-02 0.20000774E+02</pdfrwt>
<totfact> 0.37178423E+06</totfact>
</mgrwt>
</event>
<event>
 4    1  0.9583198E-007  0.2002677E+02  0.7818608E-02  0.1744796E+00
          1   -1    0    0  501    0  0.00000000000E+00  0.00000000000E+00  0.18132670724E+02  0.18132671325E+02  0.46700000000E-02 0.  1.
         -1   -1    0    0    0  501 -0.00000000000E+00 -0.00000000000E+00 -0.55296809357E+01  0.55296829077E+01  0.46700000000E-02 0. -1.
        -11    1    1    2    0    0 -0.56282901399E+01  0.82702641912E+01  0.57824331849E+01  0.11554715639E+02  0.51100000000E-03 0. -1.
         11    1    1    2    0    0  0.56282901399E+01 -0.82702641912E+01  0.68205566031E+01  0.12107638594E+02  0.51100000000E-03 0.  1.
<mgrwt>
<rscale>  0 0.20026773E+02</rscale>
<asrwt>0</asrwt>
<pdfrwt beam="1">  1        1 0.27896418E-02 0.20026773E+02</pdfrwt>
<pdfrwt beam="2">  1       -1 0.85072036E-03 0.20026773E+02</pdfrwt>
<totfact> 0.39425762E+06</totfact>
</mgrwt>
</event>
<event>
 5    1  0.9583198E-007  0.2000018E+02  0.7818608E-02  0.1745325E+00
          1   -1    0    0  501    0  0.00000000000E+00  0.00000000000E+00  0.23402826306E+02  0.23402826772E+02  0.46700000000E-02 0. -1.
         -1   -1    0    0    0  501 -0.00000000000E+00 -0.00000000000E+00 -0.42730622788E+01  0.42730648307E+01  0.46700000000E-02 0.  1.
       1023    2    1    2    0    0  0.00000000000E+00  0.00000000000E+00  0.19129764028E+02  0.27675891603E+02  0.20000177606E+02 0.  0.
        -11    1    3    3    0    0 -0.83990463548E+01  0.54274239246E+01  0.95241677961E+01  0.13809803858E+02  0.51100000000E-03 0.  1.
         11    1    3    3    0    0  0.83990463548E+01 -0.54274239246E+01  0.96055962316E+01  0.13866087745E+02  0.51100000000E-03 0. -1.
<mgrwt>
<rscale>  0 0.20000178E+02</rscale>
<asrwt>0</asrwt>
<pdfrwt beam="1">  1        1 0.36004351E-02 0.20000178E+02</pdfrwt>
<pdfrwt beam="2">  1       -1 0.65739443E-03 0.20000178E+02</pdfrwt>
<totfact> 0.39977687E+06</totfact>
</mgrwt>
</event>
<event>
 4    1  0.1286365E-006  0.2013865E+02  0.7818608E-02  0.1742585E+00
          1   -1    0    0  501    0  0.00000000000E+00  0.00000000000E+00  0.10684042555E+01  0.10684144618E+01  0.46700000000E-02 0. -1.
         -1   -1    0    0    0  501 -0.00000000000E+00 -0.00000000000E+00 -0.94899317870E+02  0.94899317985E+02  0.46700000000E-02 0.  1.
        -11    1    1    2    0    0  0.48460841972E+01 -0.87564064550E+01 -0.52205090022E+02  0.53155720394E+02  0.51100000000E-03 0. -1.
         11    1    1    2    0    0 -0.48460841972E+01  0.87564064550E+01 -0.41625823592E+02  0.42812012053E+02  0.51100000000E-03 0.  1.
<mgrwt>
<rscale>  0 0.20138652E+02</rscale>
<asrwt>0</asrwt>
<pdfrwt beam="1">  1        1 0.16437075E-03 0.20138652E+02</pdfrwt>
<pdfrwt beam="2">  1       -1 0.14599889E-01 0.20138652E+02</pdfrwt>
<totfact> 0.31661672E+06</totfact>
</mgrwt>
</event>
<event>
 5    1  0.1006974E-006  0.2000153E+02  0.7818608E-02  0.1745298E+00
          1   -1    0    0  501    0  0.00000000000E+00  0.00000000000E+00  0.45181452731E+02  0.45181452972E+02  0.46700000000E-02 0.  1.
         -1   -1    0    0    0  501 -0.00000000000E+00 -0.00000000000E+00 -0.22136344324E+01  0.22136393584E+01  0.46700000000E-02 0. -1.
       1023    2    1    2    0    0  0.00000000000E+00  0.00000000000E+00  0.42967818299E+02  0.47395092331E+02  0.20001534134E+02 0.  0.
        -11    1    3    3    0    0 -0.70420338113E+01 -0.71006475566E+01  0.21666008031E+02  0.23862634812E+02  0.51100000000E-03 0.  1.
         11    1    3    3    0    0  0.70420338113E+01  0.71006475566E+01  0.21301810268E+02  0.23532457518E+02  0.51100000000E-03 0. -1.
<mgrwt>
<rscale>  0 0.20001534E+02</rscale>
<asrwt>0</asrwt>
<pdfrwt beam="1">  1        1 0.69509927E-02 0.20001534E+02</pdfrwt>
<pdfrwt beam="2">  1       -1 0.34055956E-03 0.20001534E+02</pdfrwt>
<totfact> 0.41421318E+06</totfact>
</mgrwt>
</event>
<event>
 5    1  0.9745521E-007  0.2000102E+02  0.7818608E-02  0.1745308E+00
          1   -1    0    0  501    0  0.00000000000E+00  0.00000000000E+00  0.30243972939E+02  0.30243973299E+02  0.46700000000E-02 0. -1.
         -1   -1    0    0    0  501 -0.00000000000E+00 -0.00000000000E+00 -0.33067795065E+01  0.33067828041E+01  0.46700000000E-02 0.  1.
       1023    2    1    2    0    0  0.00000000000E+00  0.00000000000E+00  0.26937193432E+02  0.33550756103E+02  0.20001021101E+02 0.  0.
        -11    1    3    3    0    0  0.75359879537E+01  0.65735664379E+01  0.13612122921E+02  0.16890612210E+02  0.51100000000E-03 0.  1.
         11    1    3    3    0    0 -0.75359879537E+01 -0.65735664379E+01  0.13325070511E+02  0.16660143893E+02  0.51100000000E-03 0. -1.
<mgrwt>
<rscale>  0 0.20001021E+02</rscale>
<asrwt>0</asrwt>
<pdfrwt beam="1">  1        1 0.46529193E-02 0.20001021E+02</pdfrwt>
<pdfrwt beam="2">  1       -1 0.50873557E-03 0.20001021E+02</pdfrwt>
<totfact> 0.40468848E+06</totfact>
</mgrwt>
</event>
<event>
 5    1  0.9583198E-007  0.2000051E+02  0.7818608E-02  0.1745318E+00
         -1   -1    0    0    0  501 -0.00000000000E+00  0.00000000000E+00  0.98999576740E+00  0.99000678198E+00  0.46700000000E-02 0.  1.
          1   -1    0    0  501    0  0.00000000000E+00 -0.00000000000E+00 -0.10101506691E+03  0.10101506701E+03  0.46700000000E-02 0. -1.
       1023    2    1    2    0    0  0.00000000000E+00  0.00000000000E+00 -0.10002507114E+03  0.10200507380E+03  0.20000505589E+02 0.  0.
        -11    1    3    3    0    0 -0.98482416807E+01  0.17369673643E+01 -0.49953086920E+02  0.50944242196E+02  0.51100000000E-03 0. -1.
         11    1    3    3    0    0  0.98482416807E+01 -0.17369673643E+01 -0.50071984218E+02  0.51060831600E+02  0.51100000000E-03 0.  1.
<mgrwt>
<rscale>  0 0.20000506E+02</rscale>
<asrwt>0</asrwt>
<pdfrwt beam="2">  1        1 0.15540772E-01 0.20000506E+02</pdfrwt>
<pdfrwt beam="1">  1       -1 0.15230798E-03 0.20000506E+02</pdfrwt>
<totfact> 0.44407355E+06</totfact>
</mgrwt>
</event>
<event>
 5    1  0.9583198E-007  0.2000062E+02  0.7818608E-02  0.1745316E+00
          1   -1    0    0  501    0  0.00000000000E+00  0.00000000000E+00  0.27604219613E+01  0.27604259116E+01  0.46700000000E-02 0. -1.
         -1   -1    0    0    0  501 -0.00000000000E+00 -0.00000000000E+00 -0.36228560014E+02  0.36228560314E+02  0.46700000000E-02 0.  1.
       1023    2    1    2    0    0  0.00000000000E+00  0.00000000000E+00 -0.33468138052E+02  0.38988986226E+02  0.20000619547E+02 0.  0.
        -11    1    3    3    0    0  0.93159748527E+01  0.36349277542E+01 -0.16581716245E+02  0.19363713516E+02  0.51100000000E-03 0.  1.
         11    1    3    3    0    0 -0.93159748527E+01 -0.36349277542E+01 -0.16886421807E+02  0.19625272710E+02  0.51100000000E-03 0. -1.
<mgrwt>
<rscale>  0 0.20000620E+02</rscale>
<asrwt>0</asrwt>
<pdfrwt beam="1">  1        1 0.42468066E-03 0.20000620E+02</pdfrwt>
<pdfrwt beam="2">  1       -1 0.55736246E-02 0.20000620E+02</pdfrwt>
<totfact> 0.35965931E+06</totfact>
</mgrwt>
</event>
<event>
 5    1  0.9583198E-007  0.2000134E+02  0.7818608E-02  0.1745301E+00
          1   -1    0    0  501    0  0.00000000000E+00  0.00000000000E+00  0.98404104663E+00  0.98405212787E+00  0.46700000000E-02 0.  1.
         -1   -1    0    0    0  501 -0.00000000000E+00 -0.00000000000E+00 -0.10163485076E+03  0.10163485086E+03  0.46700000000E-02 0. -1.
       1023    2    1    2    0    0  0.00000000000E+00  0.00000000000E+00 -0.10065080971E+03  0.10261890299E+03  0.20001343854E+02 0.  0.
        -11    1    3    3    0    0 -0.37712828538E+01 -0.92622980493E+01 -0.50189738608E+02  0.51176387146E+02  0.51100000000E-03 0.  1.
         11    1    3    3    0    0  0.37712828538E+01  0.92622980493E+01 -0.50461071100E+02  0.51442515844E+02  0.51100000000E-03 0. -1.
<mgrwt>
<rscale>  0 0.20001344E+02</rscale>
<asrwt>0</asrwt>
<pdfrwt beam="1">  1        1 0.15139187E-03 0.20001344E+02</pdfrwt>
<pdfrwt beam="2">  1       -1 0.15636123E-01 0.20001344E+02</pdfrwt>
<totfact> 0.31775649E+06</totfact>
</mgrwt>
</event>
<event>
 5    1  0.9583198E-007  0.2000022E+02  0.7818608E-02  0.1745324E+00
          1   -1    0    0  501    0  0.00000000000E+00  0.00000000000E+00  0.70441268408E+01  0.70441283888E+01  0.46700000000E-02 0.  1.
         -1   -1    0    0    0  501 -0.00000000000E+00 -0.00000000000E+00 -0.14196538110E+02  0.14196538878E+02  0.46700000000E-02 0. -1.
       1023    2    1    2    0    0  0.00000000000E+00  0.00000000000E+00 -0.71524112694E+01  0.21240667267E+02  0.20000223973E+02 0.  0.
        -11    1    3    3    0    0  0.53190013346E+01  0.84681271300E+01 -0.36143083462E+01  0.10633164034E+02  0.51100000000E-03 0.  1.
         11    1    3    3    0    0 -0.53190013346E+01 -0.84681271300E+01 -0.35381029231E+01  0.10607503233E+02  0.51100000000E-03 0. -1.
<mgrwt>
<rscale>  0 0.20000224E+02</rscale>
<asrwt>0</asrwt>
<pdfrwt beam="1">  1        1 0.10837120E-02 0.20000224E+02</pdfrwt>
<pdfrwt beam="2">  1       -1 0.21840830E-02 0.20000224E+02</pdfrwt>
<totfact> 0.38054702E+06</totfact>
</mgrwt>
</event>
<event>
 5    1  0.9583198E-007  0.2000702E+02  0.7818608E-02  0.1745188E+00
          1   -1    0    0  501    0  0.00000000000E+00  0.00000000000E+00  0.28738027272E+02  0.28738027652E+02  0.46700000000E-02 0.  1.
         -1   -1    0    0    0  501 -0.00000000000E+00 -0.00000000000E+00 -0.34821521943E+01  0.34821553258E+01  0.46700000000E-02 0. -1.
       1023    2    1    2    0    0  0.00000000000E+00  0.00000000000E+00  0.25255875078E+02  0.32220182978E+02  0.20007022896E+02 0.  0.
        -11    1    3    3    0    0  0.99279388124E+01  0.12270074943E+01  0.12671287312E+02  0.16144071322E+02  0.51100000000E-03 0. -1.
         11    1    3    3    0    0 -0.99279388124E+01 -0.12270074943E+01  0.12584587766E+02  0.16076111655E+02  0.51100000000E-03 0.  1.
<mgrwt>
<rscale>  0 0.20007023E+02</rscale>
<asrwt>0</asrwt>
<pdfrwt beam="1">  1        1 0.44212352E-02 0.20007023E+02</pdfrwt>
<pdfrwt beam="2">  1       -1 0.53571600E-03 0.20007023E+02</pdfrwt>
<totfact> 0.40337389E+06</totfact>
</mgrwt>
</event>
<event>
 5    1  0.9583198E-007  0.2000240E+02  0.7818608E-02  0.1745280E+00
          1   -1    0    0  501    0  0.00000000000E+00  0.00000000000E+00  0.51955548068E+01  0.51955569056E+01  0.46700000000E-02 0.  1.
         -1   -1    0    0    0  501 -0.00000000000E+00 -0.00000000000E+00 -0.19251844941E+02  0.19251845508E+02  0.46700000000E-02 0. -1.
       1023    2    1    2    0    0  0.00000000000E+00  0.00000000000E+00 -0.14056290135E+02  0.24447402413E+02  0.20002404666E+02 0.  0.
        -11    1    3    3    0    0 -0.54085775943E+01  0.84121944802E+01 -0.69309781117E+01  0.12167834048E+02  0.51100000000E-03 0.  1.
         11    1    3    3    0    0  0.54085775943E+01 -0.84121944802E+01 -0.71253120229E+01  0.12279568366E+02  0.51100000000E-03 0. -1.
<mgrwt>
<rscale>  0 0.20002405E+02</rscale>
<asrwt>0</asrwt>
<pdfrwt beam="1">  1        1 0.79931634E-03 0.20002405E+02</pdfrwt>
<pdfrwt beam="2">  1       -1 0.29618225E-02 0.20002405E+02</pdfrwt>
<totfact> 0.37483699E+06</totfact>
</mgrwt>
</event>
<event>
 5    1  0.9583198E-007  0.2000042E+02  0.7818608E-02  0.1745320E+00
         -1   -1    0    0    0  501 -0.00000000000E+00  0.00000000000E+00  0.14382773561E+02  0.14382774319E+02  0.46700000000E-02 0. -1.
          1   -1    0    0  501    0  0.00000000000E+00 -0.00000000000E+00 -0.69530552712E+01  0.69530568395E+01  0.46700000000E-02 0.  1.
       1023    2    1    2    0    0  0.00000000000E+00  0.00000000000E+00  0.74297182896E+01  0.21335831159E+02  0.20000424430E+02 0.  0.
        -11    1    3    3    0    0 -0.98831374797E+01  0.15256260255E+01  0.36962940861E+01  0.10661450720E+02  0.51100000000E-03 0.  1.
         11    1    3    3    0    0  0.98831374797E+01 -0.15256260255E+01  0.37334242035E+01  0.10674380439E+02  0.51100000000E-03 0. -1.
<mgrwt>
<rscale>  0 0.20000424E+02</rscale>
<asrwt>0</asrwt>
<pdfrwt beam="2">  1        1 0.10697010E-02 0.20000424E+02</pdfrwt>
<pdfrwt beam="1">  1       -1 0.22127346E-02 0.20000424E+02</pdfrwt>
<totfact> 0.38031386E+06</totfact>
</mgrwt>
</event>
<event>
 5    1  0.9583198E-007  0.2000044E+02  0.7818608E-02  0.1745319E+00
          1   -1    0    0  501    0  0.00000000000E+00  0.00000000000E+00  0.65429131239E+01  0.65429147905E+01  0.46700000000E-02 0. -1.
         -1   -1    0    0    0  501 -0.00000000000E+00 -0.00000000000E+00 -0.15284374371E+02  0.15284375085E+02  0.46700000000E-02 0.  1.
       1023    2    1    2    0    0  0.00000000000E+00  0.00000000000E+00 -0.87414612473E+01  0.21827289875E+02  0.20000435959E+02 0.  0.
        -11    1    3    3    0    0  0.96573847238E+01 -0.25954814950E+01 -0.43134432127E+01  0.10890702296E+02  0.51100000000E-03 0. -1.
         11    1    3    3    0    0 -0.96573847238E+01  0.25954814950E+01 -0.44280180346E+01  0.10936587579E+02  0.51100000000E-03 0.  1.
<mgrwt>
<rscale>  0 0.20000436E+02</rscale>
<asrwt>0</asrwt>
<pdfrwt beam="1">  1        1 0.10066022E-02 0.20000436E+02</pdfrwt>
<pdfrwt beam="2">  1       -1 0.23514424E-02 0.20000436E+02</pdfrwt>
<totfact> 0.37924849E+06</totfact>
</mgrwt>
</event>
<event>
 5    1  0.9925776E-007  0.2000212E+02  0.7818608E-02  0.1745286E+00
         -1   -1    0    0    0  501 -0.00000000000E+00  0.00000000000E+00  0.13894462365E+01  0.13894540845E+01  0.46700000000E-02 0.  1.
          1   -1    0    0  501    0  0.00000000000E+00 -0.00000000000E+00 -0.71986134808E+02  0.71986134960E+02  0.46700000000E-02 0. -1.
       1023    2    1    2    0    0  0.00000000000E+00  0.00000000000E+00 -0.70596688572E+02  0.73375589044E+02  0.20002115645E+02 0.  0.
        -11    1    3    3    0    0 -0.20002122621E+01 -0.97989777391E+01 -0.35366332054E+02  0.36753207438E+02  0.51100000000E-03 0. -1.
         11    1    3    3    0    0  0.20002122621E+01  0.97989777391E+01 -0.35230356518E+02  0.36622381606E+02  0.51100000000E-03 0.  1.
<mgrwt>
<rscale>  0 0.20002116E+02</rscale>
<asrwt>0</asrwt>
<pdfrwt beam="2">  1        1 0.11074788E-01 0.20002116E+02</pdfrwt>
<pdfrwt beam="1">  1       -1 0.21376163E-03 0.20002116E+02</pdfrwt>
<totfact> 0.42929858E+06</totfact>
</mgrwt>
</event>
<event>
 5    1  0.9583198E-007  0.2000100E+02  0.7818608E-02  0.1745308E+00
         -1   -1    0    0    0  501 -0.00000000000E+00  0.00000000000E+00  0.21681021966E+02  0.21681022469E+02  0.46700000000E-02 0.  1.
          1   -1    0    0  501    0  0.00000000000E+00 -0.00000000000E+00 -0.46127871870E+01  0.46127895509E+01  0.46700000000E-02 0. -1.
       1023    2    1    2    0    0  0.00000000000E+00  0.00000000000E+00  0.17068234779E+02  0.26293812020E+02  0.20000997777E+02 0.  0.
        -11    1    3    3    0    0  0.97882748106E+01  0.20479069135E+01  0.84345935596E+01  0.13082301604E+02  0.51100000000E-03 0. -1.
         11    1    3    3    0    0 -0.97882748106E+01 -0.20479069135E+01  0.86336412197E+01  0.13211510416E+02  0.51100000000E-03 0.  1.
<mgrwt>
<rscale>  0 0.20000998E+02</rscale>
<asrwt>0</asrwt>
<pdfrwt beam="2">  1        1 0.70965978E-03 0.20000998E+02</pdfrwt>
<pdfrwt beam="1">  1       -1 0.33355421E-02 0.20000998E+02</pdfrwt>
<totfact> 0.37244706E+06</totfact>
</mgrwt>
</event>
<event>
 5    1  0.9583198E-007  0.2000418E+02  0.7818608E-02  0.1745245E+00
          1   -1    0    0  501    0  0.00000000000E+00  0.00000000000E+00  0.13658207873E+01  0.13658287711E+01  0.46700000000E-02 0. -1.
         -1   -1    0    0    0  501 -0.00000000000E+00 -0.00000000000E+00 -0.73246455935E+02  0.73246456084E+02  0.46700000000E-02 0.  1.
       1023    2    1    2    0    0  0.00000000000E+00  0.00000000000E+00 -0.71880635147E+02  0.74612284855E+02  0.20004183114E+02 0.  0.
        -11    1    3    3    0    0 -0.35597477078E+01 -0.93470289938E+01 -0.36147331621E+02  0.37505577429E+02  0.51100000000E-03 0. -1.
         11    1    3    3    0    0  0.35597477078E+01  0.93470289938E+01 -0.35733303527E+02  0.37106707425E+02  0.51100000000E-03 0.  1.
<mgrwt>
<rscale>  0 0.20004183E+02</rscale>
<asrwt>0</asrwt>
<pdfrwt beam="1">  1        1 0.21012696E-03 0.20004183E+02</pdfrwt>
<pdfrwt beam="2">  1       -1 0.11268683E-01 0.20004183E+02</pdfrwt>
<totfact> 0.33384419E+06</totfact>
</mgrwt>
</event>
<event>
 5    1  0.9583198E-007  0.2000235E+02  0.7818608E-02  0.1745281E+00
         -1   -1    0    0    0  501 -0.00000000000E+00  0.00000000000E+00  0.10091875988E+02  0.10091877068E+02  0.46700000000E-02 0.  1.
          1   -1    0    0  501    0  0.00000000000E+00 -0.00000000000E+00 -0.99112830374E+01  0.99112841376E+01  0.46700000000E-02 0. -1.
       1023    2    1    2    0    0  0.00000000000E+00  0.00000000000E+00  0.18059295051E+00  0.20003161206E+02  0.20002345973E+02 0.  0.
        -11    1    3    3    0    0 -0.98363954729E+01  0.18033614105E+01  0.21942404032E+00  0.10002746395E+02  0.51100000000E-03 0.  1.
         11    1    3    3    0    0  0.98363954729E+01 -0.18033614105E+01 -0.38831089808E-01  0.10000414811E+02  0.51100000000E-03 0. -1.
<mgrwt>
<rscale>  0 0.20002346E+02</rscale>
<asrwt>0</asrwt>
<pdfrwt beam="2">  1        1 0.15248129E-02 0.20002346E+02</pdfrwt>
<pdfrwt beam="1">  1       -1 0.15525965E-02 0.20002346E+02</pdfrwt>
<totfact> 0.38599880E+06</totfact>
</mgrwt>
</event>
<event>
 5    1  0.9699012E-007  0.2000059E+02  0.7818608E-02  0.1745316E+00
          1   -1    0    0  501    0  0.00000000000E+00  0.00000000000E+00  0.34332344169E+02  0.34332344486E+02  0.46700000000E-02 0. -1.
         -1   -1    0    0    0  501 -0.00000000000E+00 -0.00000000000E+00 -0.29128757795E+01  0.29128795231E+01  0.46700000000E-02 0.  1.
       1023    2    1    2    0    0  0.00000000000E+00  0.00000000000E+00  0.31419468389E+02  0.37245224009E+02  0.20000592932E+02 0.  0.
        -11    1    3    3    0    0  0.56660219690E+01 -0.82401160865E+01  0.15614577837E+02  0.18542339641E+02  0.51100000000E-03 0.  1.
         11    1    3    3    0    0 -0.56660219690E+01  0.82401160865E+01  0.15804890552E+02  0.18702884369E+02  0.51100000000E-03 0. -1.
<mgrwt>
<rscale>  0 0.20000593E+02</rscale>
<asrwt>0</asrwt>
<pdfrwt beam="1">  1        1 0.52818995E-02 0.20000593E+02</pdfrwt>
<pdfrwt beam="2">  1       -1 0.44813504E-03 0.20000593E+02</pdfrwt>
<totfact> 0.40744934E+06</totfact>
</mgrwt>
</event>
<event>
 4    1  0.9583198E-007  0.2004102E+02  0.7818608E-02  0.1744514E+00
          1   -1    0    0  501    0  0.00000000000E+00  0.00000000000E+00  0.85533324510E+02  0.85533324638E+02  0.46700000000E-02 0. -1.
         -1   -1    0    0    0  501 -0.00000000000E+00 -0.00000000000E+00 -0.11739313241E+01  0.11739406129E+01  0.46700000000E-02 0.  1.
        -11    1    1    2    0    0  0.10012030457E+02  0.33465903821E+00  0.43220811182E+02  0.44366555760E+02  0.51100000000E-03 0. -1.
         11    1    1    2    0    0 -0.10012030457E+02 -0.33465903821E+00  0.41138582005E+02  0.42340709491E+02  0.51100000000E-03 0.  1.
<mgrwt>
<rscale>  0 0.20041024E+02</rscale>
<asrwt>0</asrwt>
<pdfrwt beam="1">  1        1 0.13158975E-01 0.20041024E+02</pdfrwt>
<pdfrwt beam="2">  1       -1 0.18060553E-03 0.20041024E+02</pdfrwt>
<totfact> 0.43445349E+06</totfact>
</mgrwt>
</event>
<event>
 5    1  0.9583198E-007  0.2000008E+02  0.7818608E-02  0.1745327E+00
         -1   -1    0    0    0  501 -0.00000000000E+00  0.00000000000E+00  0.68663159311E+01  0.68663175192E+01  0.46700000000E-02 0. -1.
          1   -1    0    0  501    0  0.00000000000E+00 -0.00000000000E+00 -0.14563961286E+02  0.14563962035E+02  0.46700000000E-02 0.  1.
       1023    2    1    2    0    0  0.00000000000E+00  0.00000000000E+00 -0.76976453549E+01  0.21430279554E+02  0.20000078444E+02 0.  0.
        -11    1    3    3    0    0  0.21774791135E+01 -0.97600806477E+01 -0.38637715961E+01  0.10720509351E+02  0.51100000000E-03 0. -1.
         11    1    3    3    0    0 -0.21774791135E+01  0.97600806477E+01 -0.38338737588E+01  0.10709770203E+02  0.51100000000E-03 0.  1.
<mgrwt>
<rscale>  0 0.20000078E+02</rscale>
<asrwt>0</asrwt>
<pdfrwt beam="2">  1        1 0.22406096E-02 0.20000078E+02</pdfrwt>
<pdfrwt beam="1">  1       -1 0.10563565E-02 0.20000078E+02</pdfrwt>
<totfact> 0.39198784E+06</totfact>
</mgrwt>
</event>
<event>
 5    1  0.9583198E-007  0.2000038E+02  0.7818608E-02  0.1745321E+00
          1   -1    0    0  501    0  0.00000000000E+00  0.00000000000E+00  0.57926694075E+02  0.57926694263E+02  0.46700000000E-02 0.  1.
         -1   -1    0    0    0  501 -0.00000000000E+00 -0.00000000000E+00 -0.17263814052E+01  0.17263877216E+01  0.46700000000E-02 0. -1.
       1023    2    1    2    0    0  0.00000000000E+00  0.00000000000E+00  0.56200312670E+02  0.59653081985E+02  0.20000376149E+02 0.  0.
        -11    1    3    3    0    0  0.74047534714E+01  0.67210971299E+01  0.28053886193E+02  0.29782949005E+02  0.51100000000E-03 0. -1.
         11    1    3    3    0    0 -0.74047534714E+01 -0.67210971299E+01  0.28146426477E+02  0.29870132980E+02  0.51100000000E-03 0.  1.
<mgrwt>
<rscale>  0 0.20000376E+02</rscale>
<asrwt>0</asrwt>
<pdfrwt beam="1">  1        1 0.89117980E-02 0.20000376E+02</pdfrwt>
<pdfrwt beam="2">  1       -1 0.26559769E-03 0.20000376E+02</pdfrwt>
<totfact> 0.42168424E+06</totfact>
</mgrwt>
</event>
<event>
 5    1  0.9583198E-007  0.2000309E+02  0.7818608E-02  0.1745267E+00
          1   -1    0    0  501    0  0.00000000000E+00  0.00000000000E+00  0.22780558217E+01  0.22780606085E+01  0.46700000000E-02 0. -1.
         -1   -1    0    0    0  501 -0.00000000000E+00 -0.00000000000E+00 -0.43910601326E+02  0.43910601574E+02  0.46700000000E-02 0.  1.
       1023    2    1    2    0    0  0.00000000000E+00  0.00000000000E+00 -0.41632545504E+02  0.46188662182E+02  0.20003091488E+02 0.  0.
        -11    1    3    3    0    0 -0.98364470046E+01  0.18095757002E+01 -0.20756811593E+02  0.23040735267E+02  0.51100000000E-03 0. -1.
         11    1    3    3    0    0  0.98364470046E+01 -0.18095757002E+01 -0.20875733911E+02  0.23147926915E+02  0.51100000000E-03 0.  1.
<mgrwt>
<rscale>  0 0.20003091E+02</rscale>
<asrwt>0</asrwt>
<pdfrwt beam="1">  1        1 0.35047055E-03 0.20003091E+02</pdfrwt>
<pdfrwt beam="2">  1       -1 0.67554769E-02 0.20003091E+02</pdfrwt>
<totfact> 0.35361600E+06</totfact>
</mgrwt>
</event>
<event>
 5    1  0.9583198E-007  0.2000217E+02  0.7818608E-02  0.1745285E+00
          1   -1    0    0  501    0  0.00000000000E+00  0.00000000000E+00  0.83765772678E+01  0.83765785696E+01  0.46700000000E-02 0. -1.
         -1   -1    0    0    0  501 -0.00000000000E+00 -0.00000000000E+00 -0.11940640605E+02  0.11940641518E+02  0.46700000000E-02 0.  1.
       1023    2    1    2    0    0  0.00000000000E+00  0.00000000000E+00 -0.35640633373E+01  0.20317220088E+02  0.20002171998E+02 0.  0.
        -11    1    3    3    0    0  0.96449627153E+01 -0.26442862467E+01 -0.17164755072E+01  0.10147110129E+02  0.51100000000E-03 0.  1.
         11    1    3    3    0    0 -0.96449627153E+01  0.26442862467E+01 -0.18475878301E+01  0.10170109959E+02  0.51100000000E-03 0. -1.
<mgrwt>
<rscale>  0 0.20002172E+02</rscale>
<asrwt>0</asrwt>
<pdfrwt beam="1">  1        1 0.12887044E-02 0.20002172E+02</pdfrwt>
<pdfrwt beam="2">  1       -1 0.18370218E-02 0.20002172E+02</pdfrwt>
<totfact> 0.38334693E+06</totfact>
</mgrwt>
</event>
<event>
 4    1  0.9583198E-007  0.2003801E+02  0.7818608E-02  0.1744573E+00
          1   -1    0    0  501    0  0.00000000000E+00  0.00000000000E+00  0.12709407378E+02  0.12709408236E+02  0.46700000000E-02 0.  1.
         -1   -1    0    0    0  501 -0.00000000000E+00 -0.00000000000E+00 -0.78981244201E+01  0.78981258007E+01  0.46700000000E-02 0. -1.
        -11    1    1    2    0    0  0.41180467804E+01 -0.91164990045E+01  0.29797554018E+01  0.10437806566E+02  0.51100000000E-03 0. -1.
         11    1    1    2    0    0 -0.41180467804E+01  0.91164990045E+01  0.18315275560E+01  0.10169727471E+02  0.51100000000E-03 0.  1.
<mgrwt>
<rscale>  0 0.20038014E+02</rscale>
<asrwt>0</asrwt>
<pdfrwt beam="1">  1        1 0.19552936E-02 0.20038014E+02</pdfrwt>
<pdfrwt beam="2">  1       -1 0.12150962E-02 0.20038014E+02</pdfrwt>
<totfact> 0.38824193E+06</totfact>
</mgrwt>
</event>
<event>
 5    1  0.9583198E-007  0.2000048E+02  0.7818608E-02  0.1745319E+00
         -1   -1    0    0    0  501 -0.00000000000E+00  0.00000000000E+00  0.87130034149E+00  0.87131285654E+00  0.46700000000E-02 0.  1.
          1   -1    0    0  501    0  0.00000000000E+00 -0.00000000000E+00 -0.11477564994E+03  0.11477565003E+03  0.46700000000E-02 0. -1.
       1023    2    1    2    0    0  0.00000000000E+00  0.00000000000E+00 -0.11390434959E+03  0.11564696289E+03  0.20000479208E+02 0.  0.
        -11    1    3    3    0    0 -0.61164454786E+01 -0.79116297265E+01 -0.56944728485E+02  0.57816147335E+02  0.51100000000E-03 0. -1.
         11    1    3    3    0    0  0.61164454786E+01  0.79116297265E+01 -0.56959621110E+02  0.57830815552E+02  0.51100000000E-03 0.  1.
<mgrwt>
<rscale>  0 0.20000479E+02</rscale>
<asrwt>0</asrwt>
<pdfrwt beam="2">  1        1 0.17657781E-01 0.20000479E+02</pdfrwt>
<pdfrwt beam="1">  1       -1 0.13404727E-03 0.20000479E+02</pdfrwt>
<totfact> 0.45057866E+06</totfact>
</mgrwt>
</event>
<event>
 5    1  0.9583198E-007  0.2000179E+02  0.7818608E-02  0.1745292E+00
         -1   -1    0    0    0  501 -0.00000000000E+00  0.00000000000E+00  0.20060421071E+02  0.20060421615E+02  0.46700000000E-02 0. -1.
          1   -1    0    0  501    0  0.00000000000E+00 -0.00000000000E+00 -0.49858310624E+01  0.49858332494E+01  0.46700000000E-02 0.  1.
       1023    2    1    2    0    0  0.00000000000E+00  0.00000000000E+00  0.15074590009E+02  0.25046254864E+02  0.20001790389E+02 0.  0.
        -11    1    3    3    0    0 -0.35697198090E+01  0.93418769340E+01  0.76197908977E+01  0.12572779237E+02  0.51100000000E-03 0. -1.
         11    1    3    3    0    0  0.35697198090E+01 -0.93418769340E+01  0.74547991109E+01  0.12473475627E+02  0.51100000000E-03 0.  1.
<mgrwt>
<rscale>  0 0.20001790E+02</rscale>
<asrwt>0</asrwt>
<pdfrwt beam="2">  1        1 0.76705114E-03 0.20001790E+02</pdfrwt>
<pdfrwt beam="1">  1       -1 0.30862188E-02 0.20001790E+02</pdfrwt>
<totfact> 0.37403287E+06</totfact>
</mgrwt>
</event>
<event>
 5    1  0.9583198E-007  0.2000133E+02  0.7818608E-02  0.1745302E+00
          1   -1    0    0  501    0  0.00000000000E+00  0.00000000000E+00  0.97621513362E+01  0.97621524532E+01  0.46700000000E-02 0. -1.
         -1   -1    0    0    0  501 -0.00000000000E+00 -0.00000000000E+00 -0.10245000361E+02  0.10245001425E+02  0.46700000000E-02 0.  1.
       1023    2    1    2    0    0  0.00000000000E+00  0.00000000000E+00 -0.48284902454E+00  0.20007153878E+02  0.20001326534E+02 0.  0.
        -11    1    3    3    0    0  0.92997795624E+01  0.36779288992E+01 -0.22711566939E+00  0.10003231612E+02  0.51100000000E-03 0. -1.
         11    1    3    3    0    0 -0.92997795624E+01 -0.36779288992E+01 -0.25573335515E+00  0.10003922266E+02  0.51100000000E-03 0.  1.
<mgrwt>
<rscale>  0 0.20001327E+02</rscale>
<asrwt>0</asrwt>
<pdfrwt beam="1">  1        1 0.15018696E-02 0.20001327E+02</pdfrwt>
<pdfrwt beam="2">  1       -1 0.15761541E-02 0.20001327E+02</pdfrwt>
<totfact> 0.38580781E+06</totfact>
</mgrwt>
</event>
<event>
 5    1  0.9583198E-007  0.2000012E+02  0.7818608E-02  0.1745326E+00
          1   -1    0    0  501    0  0.00000000000E+00  0.00000000000E+00  0.13804744078E+01  0.13804823069E+01  0.46700000000E-02 0. -1.
         -1   -1    0    0    0  501 -0.00000000000E+00 -0.00000000000E+00 -0.72439513170E+02  0.72439513321E+02  0.46700000000E-02 0.  1.
       1023    2    1    2    0    0  0.00000000000E+00  0.00000000000E+00 -0.71059038762E+02  0.73819995628E+02  0.20000119115E+02 0.  0.
        -11    1    3    3    0    0 -0.81102060616E+01 -0.58502673384E+01 -0.35570053774E+02  0.36949016171E+02  0.51100000000E-03 0. -1.
         11    1    3    3    0    0  0.81102060616E+01  0.58502673384E+01 -0.35488984989E+02  0.36870979457E+02  0.51100000000E-03 0.  1.
<mgrwt>
<rscale>  0 0.20000119E+02</rscale>
<asrwt>0</asrwt>
<pdfrwt beam="1">  1        1 0.21238135E-03 0.20000119E+02</pdfrwt>
<pdfrwt beam="2">  1       -1 0.11144538E-01 0.20000119E+02</pdfrwt>
<totfact> 0.33448869E+06</totfact>
</mgrwt>
</event>
<event>
 5    1  0.9583198E-007  0.2000589E+02  0.7818608E-02  0.1745211E+00
         -1   -1    0    0    0  501 -0.00000000000E+00  0.00000000000E+00  0.10355521696E+02  0.10355522749E+02  0.46700000000E-02 0.  1.
          1   -1    0    0  501    0  0.00000000000E+00 -0.00000000000E+00 -0.96623657980E+01  0.96623669265E+01  0.46700000000E-02 0. -1.
       1023    2    1    2    0    0  0.00000000000E+00  0.00000000000E+00  0.69315589853E+00  0.20017889676E+02  0.20005885184E+02 0.  0.
        -11    1    3    3    0    0  0.60262187073E+01  0.79833211077E+01  0.24585763756E+00  0.10005457214E+02  0.51100000000E-03 0.  1.
         11    1    3    3    0    0 -0.60262187073E+01 -0.79833211077E+01  0.44729826098E+00  0.10012432462E+02  0.51100000000E-03 0. -1.
<mgrwt>
<rscale>  0 0.20005885E+02</rscale>
<asrwt>0</asrwt>
<pdfrwt beam="2">  1        1 0.14865180E-02 0.20005885E+02</pdfrwt>
<pdfrwt beam="1">  1       -1 0.15931573E-02 0.20005885E+02</pdfrwt>
<totfact> 0.38544859E+06</totfact>
</mgrwt>
</event>
<event>
 5    1  0.9583198E-007  0.2000188E+02  0.7818608E-02  0.1745291E+00
          1   -1    0    0  501    0  0.00000000000E+00  0.00000000000E+00  0.93493259160E+00  0.93494425488E+00  0.46700000000E-02 0. -1.
         -1   -1    0    0    0  501 -0.00000000000E+00 -0.00000000000E+00 -0.10697898049E+03  0.10697898059E+03  0.46700000000E-02 0.  1.
       1023    2    1    2    0    0  0.00000000000E+00  0.00000000000E+00 -0.10604404790E+03  0.10791392485E+03  0.20001876941E+02 0.  0.
        -11    1    3    3    0    0  0.47074132899E+01 -0.88232660879E+01 -0.52510029489E+02  0.53453839540E+02  0.51100000000E-03 0. -1.
         11    1    3    3    0    0 -0.47074132899E+01  0.88232660879E+01 -0.53534018409E+02  0.54460085307E+02  0.51100000000E-03 0.  1.
<mgrwt>
<rscale>  0 0.20001877E+02</rscale>
<asrwt>0</asrwt>
<pdfrwt beam="1">  1        1 0.14383677E-03 0.20001877E+02</pdfrwt>
<pdfrwt beam="2">  1       -1 0.16458296E-01 0.20001877E+02</pdfrwt>
<totfact> 0.31491883E+06</totfact>
</mgrwt>
</event>
<event>
 5    1  0.9583198E-007  0.2000029E+02  0.7818608E-02  0.1745322E+00
         -1   -1    0    0    0  501 -0.00000000000E+00  0.00000000000E+00  0.79111279104E+01  0.79111292888E+01  0.46700000000E-02 0.  1.
          1   -1    0    0  501    0  0.00000000000E+00 -0.00000000000E+00 -0.12640781555E+02  0.12640782417E+02  0.46700000000E-02 0. -1.
       1023    2    1    2    0    0  0.00000000000E+00  0.00000000000E+00 -0.47296536444E+01  0.20551911706E+02  0.20000286278E+02 0.  0.
        -11    1    3    3    0    0 -0.20968367830E+01  0.97777552357E+01 -0.23232054767E+01  0.10266377447E+02  0.51100000000E-03 0.  1.
         11    1    3    3    0    0  0.20968367830E+01 -0.97777552357E+01 -0.24064481677E+01  0.10285534259E+02  0.51100000000E-03 0. -1.
<mgrwt>
<rscale>  0 0.20000286E+02</rscale>
<asrwt>0</asrwt>
<pdfrwt beam="2">  1        1 0.19447358E-02 0.20000286E+02</pdfrwt>
<pdfrwt beam="1">  1       -1 0.12170968E-02 0.20000286E+02</pdfrwt>
<totfact> 0.38981407E+06</totfact>
</mgrwt>
</event>
<event>
 5    1  0.9607466E-007  0.2000159E+02  0.7818608E-02  0.1745296E+00
          1   -1    0    0  501    0  0.00000000000E+00  0.00000000000E+00  0.37054362989E+02  0.37054363284E+02  0.46700000000E-02 0.  1.
         -1   -1    0    0    0  501 -0.00000000000E+00 -0.00000000000E+00 -0.26991645626E+01  0.26991686026E+01  0.46700000000E-02 0. -1.
       1023    2    1    2    0    0  0.00000000000E+00  0.00000000000E+00  0.34355198427E+02  0.39753531886E+02  0.20001590899E+02 0.  0.
        -11    1    3    3    0    0  0.87203154738E+01 -0.48961172803E+01  0.17164569865E+02  0.19865505916E+02  0.51100000000E-03 0. -1.
         11    1    3    3    0    0 -0.87203154738E+01  0.48961172803E+01  0.17190628561E+02  0.19888025970E+02  0.51100000000E-03 0.  1.
<mgrwt>
<rscale>  0 0.20001591E+02</rscale>
<asrwt>0</asrwt>
<pdfrwt beam="1">  1        1 0.57006716E-02 0.20001591E+02</pdfrwt>
<pdfrwt beam="2">  1       -1 0.41525642E-03 0.20001591E+02</pdfrwt>
<totfact> 0.40916812E+06</totfact>
</mgrwt>
</event>
<event>
 5    1  0.9583198E-007  0.2000024E+02  0.7818608E-02  0.1745323E+00
          1   -1    0    0  501    0  0.00000000000E+00  0.00000000000E+00  0.17612879260E+01  0.17612941172E+01  0.46700000000E-02 0.  1.
         -1   -1    0    0    0  501 -0.00000000000E+00 -0.00000000000E+00 -0.56777896102E+02  0.56777896294E+02  0.46700000000E-02 0. -1.
       1023    2    1    2    0    0  0.00000000000E+00  0.00000000000E+00 -0.55016608176E+02  0.58539190411E+02  0.20000240969E+02 0.  0.
        -11    1    3    3    0    0  0.96327913221E+01 -0.26854348322E+01 -0.27468975618E+02  0.29232633317E+02  0.51100000000E-03 0.  1.
         11    1    3    3    0    0 -0.96327913221E+01  0.26854348322E+01 -0.27547632558E+02  0.29306557094E+02  0.51100000000E-03 0. -1.
<mgrwt>
<rscale>  0 0.20000241E+02</rscale>
<asrwt>0</asrwt>
<pdfrwt beam="1">  1        1 0.27096791E-03 0.20000241E+02</pdfrwt>
<pdfrwt beam="2">  1       -1 0.87350600E-02 0.20000241E+02</pdfrwt>
<totfact> 0.34458249E+06</totfact>
</mgrwt>
</event>
<event>
 5    1  0.9583198E-007  0.2000083E+02  0.7818608E-02  0.1745312E+00
          1   -1    0    0  501    0  0.00000000000E+00  0.00000000000E+00  0.51128604183E+01  0.51128625510E+01  0.46700000000E-02 0. -1.
         -1   -1    0    0    0  501 -0.00000000000E+00 -0.00000000000E+00 -0.19560139253E+02  0.19560139811E+02  0.46700000000E-02 0.  1.
       1023    2    1    2    0    0  0.00000000000E+00  0.00000000000E+00 -0.14447278835E+02  0.24673002362E+02  0.20000829478E+02 0.  0.
        -11    1    3    3    0    0 -0.99138757145E+01 -0.13116939686E+01 -0.71581082446E+01  0.12298129396E+02  0.51100000000E-03 0.  1.
         11    1    3    3    0    0  0.99138757145E+01  0.13116939686E+01 -0.72891705905E+01  0.12374872965E+02  0.51100000000E-03 0. -1.
<mgrwt>
<rscale>  0 0.20000829E+02</rscale>
<asrwt>0</asrwt>
<pdfrwt beam="1">  1        1 0.78659413E-03 0.20000829E+02</pdfrwt>
<pdfrwt beam="2">  1       -1 0.30092524E-02 0.20000829E+02</pdfrwt>
<totfact> 0.37458373E+06</totfact>
</mgrwt>
</event>
<event>
 5    1  0.9583198E-007  0.2000031E+02  0.7818608E-02  0.1745322E+00
          1   -1    0    0  501    0  0.00000000000E+00  0.00000000000E+00  0.15718438803E+02  0.15718439496E+02  0.46700000000E-02 0. -1.
         -1   -1    0    0    0  501 -0.00000000000E+00 -0.00000000000E+00 -0.63621496038E+01  0.63621513177E+01  0.46700000000E-02 0.  1.
       1023    2    1    2    0    0  0.00000000000E+00  0.00000000000E+00  0.93562891989E+01  0.22080590814E+02  0.20000308576E+02 0.  0.
        -11    1    3    3    0    0 -0.22648691537E+01 -0.97402988809E+01  0.46720028147E+01  0.11037692926E+02  0.51100000000E-03 0.  1.
         11    1    3    3    0    0  0.22648691537E+01  0.97402988809E+01  0.46842863842E+01  0.11042897888E+02  0.51100000000E-03 0. -1.
<mgrwt>
<rscale>  0 0.20000309E+02</rscale>
<asrwt>0</asrwt>
<pdfrwt beam="1">  1        1 0.24182215E-02 0.20000309E+02</pdfrwt>
<pdfrwt beam="2">  1       -1 0.97879244E-03 0.20000309E+02</pdfrwt>
<totfact> 0.39315980E+06</totfact>
</mgrwt>
</event>
<event>
 5    1  0.9583198E-007  0.2000718E+02  0.7818608E-02  0.1745185E+00
          1   -1    0    0  501    0  0.00000000000E+00  0.00000000000E+00  0.58801940910E+02  0.58801941096E+02  0.46700000000E-02 0.  1.
         -1   -1    0    0    0  501 -0.00000000000E+00 -0.00000000000E+00 -0.17018414938E+01  0.17018479012E+01  0.46700000000E-02 0. -1.
       1023    2    1    2    0    0  0.00000000000E+00  0.00000000000E+00  0.57100099416E+02  0.60503788997E+02  0.20007176953E+02 0.  0.
        -11    1    3    3    0    0 -0.28266521858E+01  0.95958546633E+01  0.28437187669E+02  0.30145381604E+02  0.51100000000E-03 0. -1.
         11    1    3    3    0    0  0.28266521858E+01 -0.95958546633E+01  0.28662911748E+02  0.30358407393E+02  0.51100000000E-03 0.  1.
<mgrwt>
<rscale>  0 0.20007177E+02</rscale>
<asrwt>0</asrwt>
<pdfrwt beam="1">  1        1 0.90464526E-02 0.20007177E+02</pdfrwt>
<pdfrwt beam="2">  1       -1 0.26182229E-03 0.20007177E+02</pdfrwt>
<totfact> 0.42185876E+06</totfact>
</mgrwt>
</event>
<event>
 5    1  0.9684738E-007  0.2000213E+02  0.7818608E-02  0.1745286E+00
         -1   -1    0    0    0  501 -0.00000000000E+00  0.00000000000E+00  0.17708691132E+02  0.17708691748E+02  0.46700000000E-02 0.  1.
          1   -1    0    0  501    0  0.00000000000E+00 -0.00000000000E+00 -0.56481478981E+01  0.56481498288E+01  0.46700000000E-02 0. -1.
       1023    2    1    2    0    0  0.00000000000E+00  0.00000000000E+00  0.12060543234E+02  0.23356841577E+02  0.20002133520E+02 0.  0.
        -11    1    3    3    0    0 -0.82036051487E+01  0.57199706981E+01  0.59551931730E+01  0.11639653268E+02  0.51100000000E-03 0.  1.
         11    1    3    3    0    0  0.82036051487E+01 -0.57199706981E+01  0.61053500611E+01  0.11717188308E+02  0.51100000000E-03 0. -1.
<mgrwt>
<rscale>  0 0.20002134E+02</rscale>
<asrwt>0</asrwt>
<pdfrwt beam="2">  1        1 0.86894602E-03 0.20002134E+02</pdfrwt>
<pdfrwt beam="1">  1       -1 0.27244142E-02 0.20002134E+02</pdfrwt>
<totfact> 0.37647396E+06</totfact>
</mgrwt>
</event>
<event>
 5    1  0.9583198E-007  0.2000020E+02  0.7818608E-02  0.1745324E+00
          1   -1    0    0  501    0  0.00000000000E+00  0.00000000000E+00  0.44362526500E+02  0.44362526745E+02  0.46700000000E-02 0. -1.
         -1   -1    0    0    0  501 -0.00000000000E+00 -0.00000000000E+00 -0.22541975780E+01  0.22542024154E+01  0.46700000000E-02 0.  1.
       1023    2    1    2    0    0  0.00000000000E+00  0.00000000000E+00  0.42108328922E+02  0.46616729161E+02  0.20000201826E+02 0.  0.
        -11    1    3    3    0    0  0.50374696521E+01  0.86385881763E+01  0.20991977872E+02  0.23252192185E+02  0.51100000000E-03 0. -1.
         11    1    3    3    0    0 -0.50374696521E+01 -0.86385881763E+01  0.21116351050E+02  0.23364536976E+02  0.51100000000E-03 0.  1.
<mgrwt>
<rscale>  0 0.20000202E+02</rscale>
<asrwt>0</asrwt>
<pdfrwt beam="1">  1        1 0.68250038E-02 0.20000202E+02</pdfrwt>
<pdfrwt beam="2">  1       -1 0.34680005E-03 0.20000202E+02</pdfrwt>
<totfact> 0.41377936E+06</totfact>
</mgrwt>
</event>
<event>
 5    1  0.9583198E-007  0.2000869E+02  0.7818608E-02  0.1745155E+00
         -1   -1    0    0    0  501 -0.00000000000E+00  0.00000000000E+00  0.10537460086E+01  0.10537563568E+01  0.46700000000E-02 0. -1.
          1   -1    0    0  501    0  0.00000000000E+00 -0.00000000000E+00 -0.94981583897E+02  0.94981584012E+02  0.46700000000E-02 0.  1.
       1023    2    1    2    0    0  0.00000000000E+00  0.00000000000E+00 -0.93927837888E+02  0.96035340368E+02  0.20008694843E+02 0.  0.
        -11    1    3    3    0    0 -0.92543944159E+01 -0.37911043189E+01 -0.48239940010E+02  0.49265688876E+02  0.51100000000E-03 0. -1.
         11    1    3    3    0    0  0.92543944159E+01  0.37911043189E+01 -0.45687897878E+02  0.46769651493E+02  0.51100000000E-03 0.  1.
<mgrwt>
<rscale>  0 0.20008695E+02</rscale>
<asrwt>0</asrwt>
<pdfrwt beam="2">  1        1 0.14612545E-01 0.20008695E+02</pdfrwt>
<pdfrwt beam="1">  1       -1 0.16211565E-03 0.20008695E+02</pdfrwt>
<totfact> 0.44073003E+06</totfact>
</mgrwt>
</event>
<event>
 5    1  0.9903834E-007  0.2000084E+02  0.7818608E-02  0.1745311E+00
          1   -1    0    0  501    0  0.00000000000E+00  0.00000000000E+00  0.40209085979E+02  0.40209086250E+02  0.46700000000E-02 0.  1.
         -1   -1    0    0    0  501 -0.00000000000E+00 -0.00000000000E+00 -0.24872070967E+01  0.24872114809E+01  0.46700000000E-02 0. -1.
       1023    2    1    2    0    0  0.00000000000E+00  0.00000000000E+00  0.37721878882E+02  0.42696297731E+02  0.20000842320E+02 0.  0.
        -11    1    3    3    0    0 -0.90247656906E+01  0.43082385034E+01  0.18932008439E+02  0.21410937825E+02  0.51100000000E-03 0. -1.
         11    1    3    3    0    0  0.90247656906E+01 -0.43082385034E+01  0.18789870444E+02  0.21285359906E+02  0.51100000000E-03 0.  1.
<mgrwt>
<rscale>  0 0.20000842E+02</rscale>
<asrwt>0</asrwt>
<pdfrwt beam="1">  1        1 0.61860135E-02 0.20000842E+02</pdfrwt>
<pdfrwt beam="2">  1       -1 0.38264761E-03 0.20000842E+02</pdfrwt>
<totfact> 0.41119585E+06</totfact>
</mgrwt>
</event>
<event>
 5    1  0.9583198E-007  0.2000773E+02  0.7818608E-02  0.1745174E+00
         -1   -1    0    0    0  501 -0.00000000000E+00  0.00000000000E+00  0.27097679162E+01  0.27097719403E+01  0.46700000000E-02 0.  1.
          1   -1    0    0  501    0  0.00000000000E+00 -0.00000000000E+00 -0.36932020386E+02  0.36932020681E+02  0.46700000000E-02 0. -1.
       1023    2    1    2    0    0  0.00000000000E+00  0.00000000000E+00 -0.34222252469E+02  0.39641792621E+02  0.20007727461E+02 0.  0.
        -11    1    3    3    0    0 -0.30688594409E+00  0.99987496726E+01 -0.17289613476E+02  0.19974982063E+02  0.51100000000E-03 0. -1.
         11    1    3    3    0    0  0.30688594409E+00 -0.99987496726E+01 -0.16932638993E+02  0.19666810558E+02  0.51100000000E-03 0.  1.
<mgrwt>
<rscale>  0 0.20007727E+02</rscale>
<asrwt>0</asrwt>
<pdfrwt beam="2">  1        1 0.56818492E-02 0.20007727E+02</pdfrwt>
<pdfrwt beam="1">  1       -1 0.41688773E-03 0.20007727E+02</pdfrwt>
<totfact> 0.40881015E+06</totfact>
</mgrwt>
</event>
<event>
 5    1  0.9848577E-007  0.2000073E+02  0.7818608E-02  0.1745314E+00
          1   -1    0    0  501    0  0.00000000000E+00  0.00000000000E+00  0.17133815396E+02  0.17133816032E+02  0.46700000000E-02 0. -1.
         -1   -1    0    0    0  501 -0.00000000000E+00 -0.00000000000E+00 -0.58368344280E+01  0.58368362962E+01  0.46700000000E-02 0.  1.
       1023    2    1    2    0    0  0.00000000000E+00  0.00000000000E+00  0.11296980967E+02  0.22970652328E+02  0.20000727222E+02 0.  0.
        -11    1    3    3    0    0 -0.75414275004E+01  0.65671836145E+01  0.55577472043E+01  0.11440698563E+02  0.51100000000E-03 0. -1.
         11    1    3    3    0    0  0.75414275004E+01 -0.65671836145E+01  0.57392337632E+01  0.11529953765E+02  0.51100000000E-03 0.  1.
<mgrwt>
<rscale>  0 0.20000727E+02</rscale>
<asrwt>0</asrwt>
<pdfrwt beam="1">  1        1 0.26359717E-02 0.20000727E+02</pdfrwt>
<pdfrwt beam="2">  1       -1 0.89797473E-03 0.20000727E+02</pdfrwt>
<totfact> 0.39450059E+06</totfact>
</mgrwt>
</event>
<event>
 5    1  0.9583198E-007  0.2000017E+02  0.7818608E-02  0.1745325E+00
          1   -1    0    0  501    0  0.00000000000E+00  0.00000000000E+00  0.68728473002E+01  0.68728488868E+01  0.46700000000E-02 0. -1.
         -1   -1    0    0    0  501 -0.00000000000E+00 -0.00000000000E+00 -0.14550251839E+02  0.14550252589E+02  0.46700000000E-02 0.  1.
       1023    2    1    2    0    0  0.00000000000E+00  0.00000000000E+00 -0.76774045389E+01  0.21423101475E+02  0.20000168408E+02 0.  0.
        -11    1    3    3    0    0  0.22177003357E+01 -0.97510650875E+01 -0.38228611900E+01  0.10705873764E+02  0.51100000000E-03 0.  1.
         11    1    3    3    0    0 -0.22177003357E+01  0.97510650875E+01 -0.38545433490E+01  0.10717227711E+02  0.51100000000E-03 0. -1.
<mgrwt>
<rscale>  0 0.20000168E+02</rscale>
<asrwt>0</asrwt>
<pdfrwt beam="1">  1        1 0.10573613E-02 0.20000168E+02</pdfrwt>
<pdfrwt beam="2">  1       -1 0.22385005E-02 0.20000168E+02</pdfrwt>
<totfact> 0.38012385E+06</totfact>
</mgrwt>
</event>
<event>
 4    1  0.1032802E-006  0.2009002E+02  0.7818608E-02  0.1743544E+00
          1   -1    0    0  501    0  0.00000000000E+00  0.00000000000E+00  0.79465380254E+01  0.79465393976E+01  0.46700000000E-02 0.  1.
         -1   -1    0    0    0  501 -0.00000000000E+00 -0.00000000000E+00 -0.12697626191E+02  0.12697627050E+02  0.46700000000E-02 0. -1.
        -11    1    1    2    0    0 -0.72869939992E+01 -0.68510080952E+01 -0.33315824963E+01  0.10542107743E+02  0.51100000000E-03 0. -1.
         11    1    1    2    0    0  0.72869939992E+01  0.68510080952E+01 -0.14195056691E+01  0.10102058705E+02  0.51100000000E-03 0.  1.
<mgrwt>
<rscale>  0 0.20090017E+02</rscale>
<asrwt>0</asrwt>
<pdfrwt beam="1">  1        1 0.12225445E-02 0.20090017E+02</pdfrwt>
<pdfrwt beam="2">  1       -1 0.19534811E-02 0.20090017E+02</pdfrwt>
<totfact> 0.37868990E+06</totfact>
</mgrwt>
</event>
<event>
 5    1  0.9583198E-007  0.2000052E+02  0.7818608E-02  0.1745318E+00
          1   -1    0    0  501    0  0.00000000000E+00  0.00000000000E+00  0.10978700692E+02  0.10978701686E+02  0.46700000000E-02 0. -1.
         -1   -1    0    0    0  501 -0.00000000000E+00 -0.00000000000E+00 -0.91090149638E+01  0.91090161609E+01  0.46700000000E-02 0.  1.
       1023    2    1    2    0    0  0.00000000000E+00  0.00000000000E+00  0.18696857287E+01  0.20087717847E+02  0.20000517082E+02 0.  0.
        -11    1    3    3    0    0 -0.98264250043E+01 -0.18561880060E+01  0.90140581903E+00  0.10040746735E+02  0.51100000000E-03 0. -1.
         11    1    3    3    0    0  0.98264250043E+01  0.18561880060E+01  0.96827990963E+00  0.10046971112E+02  0.51100000000E-03 0.  1.
<mgrwt>
<rscale>  0 0.20000517E+02</rscale>
<asrwt>0</asrwt>
<pdfrwt beam="1">  1        1 0.16890311E-02 0.20000517E+02</pdfrwt>
<pdfrwt beam="2">  1       -1 0.14013871E-02 0.20000517E+02</pdfrwt>
<totfact> 0.38765464E+06</totfact>
</mgrwt>
</event>
<event>
 5    1  0.9583198E-007  0.2000832E+02  0.7818608E-02  0.1745163E+00
          1   -1    0    0  501    0  0.00000000000E+00  0.00000000000E+00  0.14463688010E+01  0.14463763402E+01  0.46700000000E-02 0.  1.
         -1   -1    0    0    0  501 -0.00000000000E+00 -0.00000000000E+00 -0.69195998684E+02  0.69195998842E+02  0.46700000000E-02 0. -1.
       1023    2    1    2    0    0  0.00000000000E+00  0.00000000000E+00 -0.67749629883E+02  0.70642375182E+02  0.20008318821E+02 0.  0.
        -11    1    3    3    0    0  0.67362352662E+01  0.73923862341E+01 -0.34732155803E+02  0.36143421072E+02  0.51100000000E-03 0.  1.
         11    1    3    3    0    0 -0.67362352662E+01 -0.73923862341E+01 -0.33017474080E+02  0.34498954110E+02  0.51100000000E-03 0. -1.
<mgrwt>
<rscale>  0 0.20008319E+02</rscale>
<asrwt>0</asrwt>
<pdfrwt beam="1">  1        1 0.22251892E-03 0.20008319E+02</pdfrwt>
<pdfrwt beam="2">  1       -1 0.10645536E-01 0.20008319E+02</pdfrwt>
<totfact> 0.33619991E+06</totfact>
</mgrwt>
</event>
<event>
 5    1  0.9583198E-007  0.2000029E+02  0.7818608E-02  0.1745322E+00
          1   -1    0    0  501    0  0.00000000000E+00  0.00000000000E+00  0.24515663661E+02  0.24515664106E+02  0.46700000000E-02 0.  1.
         -1   -1    0    0    0  501 -0.00000000000E+00 -0.00000000000E+00 -0.40791400898E+01  0.40791427630E+01  0.46700000000E-02 0. -1.
       1023    2    1    2    0    0  0.00000000000E+00  0.00000000000E+00  0.20436523571E+02  0.28594806869E+02  0.20000287102E+02 0.  0.
        -11    1    3    3    0    0  0.33594531827E+01  0.94189111795E+01  0.10171773039E+02  0.14264178228E+02  0.51100000000E-03 0.  1.
         11    1    3    3    0    0 -0.33594531827E+01 -0.94189111795E+01  0.10264750532E+02  0.14330628641E+02  0.51100000000E-03 0. -1.
<mgrwt>
<rscale>  0 0.20000287E+02</rscale>
<asrwt>0</asrwt>
<pdfrwt beam="1">  1        1 0.37716409E-02 0.20000287E+02</pdfrwt>
<pdfrwt beam="2">  1       -1 0.62756024E-03 0.20000287E+02</pdfrwt>
<totfact> 0.40061805E+06</totfact>
</mgrwt>
</event>
<event>
 5    1  0.1031390E-006  0.2000084E+02  0.7818608E-02  0.1745311E+00
          1   -1    0    0  501    0  0.00000000000E+00  0.00000000000E+00  0.98094916534E+02  0.98094916645E+02  0.46700000000E-02 0. -1.
         -1   -1    0    0    0  501 -0.00000000000E+00 -0.00000000000E+00 -0.10195013749E+01  0.10195120707E+01  0.46700000000E-02 0.  1.
       1023    2    1    2    0    0  0.00000000000E+00  0.00000000000E+00  0.97075415159E+02  0.99114428716E+02  0.20000843767E+02 0.  0.
        -11    1    3    3    0    0 -0.75007180381E+01 -0.66140818527E+01  0.48735167244E+02  0.49750611820E+02  0.51100000000E-03 0. -1.
         11    1    3    3    0    0  0.75007180381E+01  0.66140818527E+01  0.48340247915E+02  0.49363816896E+02  0.51100000000E-03 0.  1.
<mgrwt>
<rscale>  0 0.20000844E+02</rscale>
<asrwt>0</asrwt>
<pdfrwt beam="1">  1        1 0.15091522E-01 0.20000844E+02</pdfrwt>
<pdfrwt beam="2">  1       -1 0.15684724E-03 0.20000844E+02</pdfrwt>
<totfact> 0.44263864E+06</totfact>
</mgrwt>
</event>
<event>
 5    1  0.1052847E-006  0.2000115E+02  0.7818608E-02  0.1745305E+00
         -1   -1    0    0    0  501 -0.00000000000E+00  0.00000000000E+00  0.98239220518E+00  0.98240330501E+00  0.46700000000E-02 0. -1.
          1   -1    0    0  501    0  0.00000000000E+00 -0.00000000000E+00 -0.10180344107E+03  0.10180344117E+03  0.46700000000E-02 0.  1.
       1023    2    1    2    0    0  0.00000000000E+00  0.00000000000E+00 -0.10082104886E+03  0.10278584448E+03  0.20001148259E+02 0.  0.
        -11    1    3    3    0    0  0.51310722277E+00  0.99873717343E+01 -0.50537394313E+02  0.51517366949E+02  0.51100000000E-03 0. -1.
         11    1    3    3    0    0 -0.51310722277E+00 -0.99873717343E+01 -0.50283654549E+02  0.51268477530E+02  0.51100000000E-03 0.  1.
<mgrwt>
<rscale>  0 0.20001148E+02</rscale>
<asrwt>0</asrwt>
<pdfrwt beam="2">  1        1 0.15662060E-01 0.20001148E+02</pdfrwt>
<pdfrwt beam="1">  1       -1 0.15113821E-03 0.20001148E+02</pdfrwt>
<totfact> 0.44442277E+06</totfact>
</mgrwt>
</event>
<event>
 5    1  0.9583198E-007  0.2000049E+02  0.7818608E-02  0.1745318E+00
          1   -1    0    0  501    0  0.00000000000E+00  0.00000000000E+00  0.44449706550E+02  0.44449706795E+02  0.46700000000E-02 0.  1.
         -1   -1    0    0    0  501 -0.00000000000E+00 -0.00000000000E+00 -0.22498402849E+01  0.22498451317E+01  0.46700000000E-02 0. -1.
       1023    2    1    2    0    0  0.00000000000E+00  0.00000000000E+00  0.42199866265E+02  0.46699551927E+02  0.20000485929E+02 0.  0.
        -11    1    3    3    0    0 -0.82740224384E+01  0.56164588884E+01  0.21033836708E+02  0.23290048189E+02  0.51100000000E-03 0.  1.
         11    1    3    3    0    0  0.82740224384E+01 -0.56164588884E+01  0.21166029557E+02  0.23409503737E+02  0.51100000000E-03 0. -1.
<mgrwt>
<rscale>  0 0.20000486E+02</rscale>
<asrwt>0</asrwt>
<pdfrwt beam="1">  1        1 0.68384163E-02 0.20000486E+02</pdfrwt>
<pdfrwt beam="2">  1       -1 0.34612969E-03 0.20000486E+02</pdfrwt>
<totfact> 0.41381912E+06</totfact>
</mgrwt>
</event>
<event>
 5    1  0.9875582E-007  0.2000094E+02  0.7818608E-02  0.1745309E+00
         -1   -1    0    0    0  501 -0.00000000000E+00  0.00000000000E+00  0.33498603343E+01  0.33498635895E+01  0.46700000000E-02 0.  1.
          1   -1    0    0  501    0  0.00000000000E+00 -0.00000000000E+00 -0.29854790530E+02  0.29854790895E+02  0.46700000000E-02 0. -1.
       1023    2    1    2    0    0  0.00000000000E+00  0.00000000000E+00 -0.26504930195E+02  0.33204654484E+02  0.20000943847E+02 0.  0.
        -11    1    3    3    0    0 -0.39726391978E+01  0.91774400153E+01 -0.13175111886E+02  0.16540581638E+02  0.51100000000E-03 0. -1.
         11    1    3    3    0    0  0.39726391978E+01 -0.91774400153E+01 -0.13329818309E+02  0.16664072847E+02  0.51100000000E-03 0.  1.
<mgrwt>
<rscale>  0 0.20000944E+02</rscale>
<asrwt>0</asrwt>
<pdfrwt beam="2">  1        1 0.45930448E-02 0.20000944E+02</pdfrwt>
<pdfrwt beam="1">  1       -1 0.51536343E-03 0.20000944E+02</pdfrwt>
<totfact> 0.40442412E+06</totfact>
</mgrwt>
</event>
<event>
 4    1  0.9583198E-007  0.2002181E+02  0.7818608E-02  0.1744895E+00
          1   -1    0    0  501    0  0.00000000000E+00  0.00000000000E+00  0.94222844025E+02  0.94222844140E+02  0.46700000000E-02 0. -1.
         -1   -1    0    0    0  501 -0.00000000000E+00 -0.00000000000E+00 -0.10636241994E+01  0.10636344515E+01  0.46700000000E-02 0.  1.
        -11    1    1    2    0    0  0.99910031602E+01 -0.63089381497E+00  0.46558548684E+02  0.47622648257E+02  0.51100000000E-03 0. -1.
         11    1    1    2    0    0 -0.99910031602E+01  0.63089381497E+00  0.46600671141E+02  0.47663830335E+02  0.51100000000E-03 0.  1.
<mgrwt>
<rscale>  0 0.20021807E+02</rscale>
<asrwt>0</asrwt>
<pdfrwt beam="1">  1        1 0.14495826E-01 0.20021807E+02</pdfrwt>
<pdfrwt beam="2">  1       -1 0.16363526E-03 0.20021807E+02</pdfrwt>
<totfact> 0.43971954E+06</totfact>
</mgrwt>
</event>
<event>
 5    1  0.9583198E-007  0.2000007E+02  0.7818608E-02  0.1745327E+00
         -1   -1    0    0    0  501 -0.00000000000E+00  0.00000000000E+00  0.71198638270E+01  0.71198653585E+01  0.46700000000E-02 0.  1.
          1   -1    0    0  501    0  0.00000000000E+00 -0.00000000000E+00 -0.14045313813E+02  0.14045314590E+02  0.46700000000E-02 0. -1.
       1023    2    1    2    0    0  0.00000000000E+00  0.00000000000E+00 -0.69254499861E+01  0.21165179948E+02  0.20000074618E+02 0.  0.
        -11    1    3    3    0    0  0.32583859558E+01 -0.94542885895E+01 -0.34524567189E+01  0.10579230096E+02  0.51100000000E-03 0.  1.
         11    1    3    3    0    0 -0.32583859558E+01  0.94542885895E+01 -0.34729932673E+01  0.10585949852E+02  0.51100000000E-03 0. -1.
<mgrwt>
<rscale>  0 0.20000075E+02</rscale>
<asrwt>0</asrwt>
<pdfrwt beam="2">  1        1 0.21608177E-02 0.20000075E+02</pdfrwt>
<pdfrwt beam="1">  1       -1 0.10953638E-02 0.20000075E+02</pdfrwt>
<totfact> 0.39143116E+06</totfact>
</mgrwt>
</event>
<event>
 5    1  0.9583198E-007  0.2000076E+02  0.7818608E-02  0.1745313E+00
         -1   -1    0    0    0  501 -0.00000000000E+00  0.00000000000E+00  0.27001565035E+02  0.27001565439E+02  0.46700000000E-02 0. -1.
          1   -1    0    0  501    0  0.00000000000E+00 -0.00000000000E+00 -0.37037684641E+01  0.37037714082E+01  0.46700000000E-02 0.  1.
       1023    2    1    2    0    0  0.00000000000E+00  0.00000000000E+00  0.23297796571E+02  0.30705336847E+02  0.20000759632E+02 0.  0.
        -11    1    3    3    0    0  0.42219958498E+01 -0.90654261712E+01  0.11618364360E+02  0.15329500686E+02  0.51100000000E-03 0.  1.
         11    1    3    3    0    0 -0.42219958498E+01  0.90654261712E+01  0.11679432211E+02  0.15375836161E+02  0.51100000000E-03 0. -1.
<mgrwt>
<rscale>  0 0.20000760E+02</rscale>
<asrwt>0</asrwt>
<pdfrwt beam="2">  1        1 0.56981077E-03 0.20000760E+02</pdfrwt>
<pdfrwt beam="1">  1       -1 0.41540874E-02 0.20000760E+02</pdfrwt>
<totfact> 0.36747416E+06</totfact>
</mgrwt>
</event>
<event>
 5    1  0.9583198E-007  0.2000891E+02  0.7818608E-02  0.1745151E+00
          1   -1    0    0  501    0  0.00000000000E+00  0.00000000000E+00  0.98129967991E+00  0.98131079209E+00  0.46700000000E-02 0. -1.
         -1   -1    0    0    0  501 -0.00000000000E+00 -0.00000000000E+00 -0.10199588373E+03  0.10199588384E+03  0.46700000000E-02 0.  1.
       1023    2    1    2    0    0  0.00000000000E+00  0.00000000000E+00 -0.10101458405E+03  0.10297719463E+03  0.20008908587E+02 0.  0.
        -11    1    3    3    0    0 -0.15515889829E+01 -0.98801551399E+01 -0.49203152583E+02  0.50209313064E+02  0.51100000000E-03 0.  1.
         11    1    3    3    0    0  0.15515889829E+01  0.98801551399E+01 -0.51811431466E+02  0.52767881564E+02  0.51100000000E-03 0. -1.
<mgrwt>
<rscale>  0 0.20008909E+02</rscale>
<asrwt>0</asrwt>
<pdfrwt beam="1">  1        1 0.15097013E-03 0.20008909E+02</pdfrwt>
<pdfrwt beam="2">  1       -1 0.15691667E-01 0.20008909E+02</pdfrwt>
<totfact> 0.31730126E+06</totfact>
</mgrwt>
</event>
<event>
 5    1  0.9583198E-007  0.2000075E+02  0.7818608E-02  0.1745313E+00
         -1   -1    0    0    0  501 -0.00000000000E+00  0.00000000000E+00  0.18273243712E+02  0.18273244309E+02  0.46700000000E-02 0. -1.
          1   -1    0    0  501    0  0.00000000000E+00 -0.00000000000E+00 -0.54728917579E+01  0.54728937504E+01  0.46700000000E-02 0.  1.
       1023    2    1    2    0    0  0.00000000000E+00  0.00000000000E+00  0.12800351954E+02  0.23746138059E+02  0.20000751550E+02 0.  0.
        -11    1    3    3    0    0  0.95102604414E+01  0.30923137821E+01  0.63911971864E+01  0.11868229014E+02  0.51100000000E-03 0.  1.
         11    1    3    3    0    0 -0.95102604414E+01 -0.30923137821E+01  0.64091547678E+01  0.11877909045E+02  0.51100000000E-03 0. -1.
<mgrwt>
<rscale>  0 0.20000752E+02</rscale>
<asrwt>0</asrwt>
<pdfrwt beam="2">  1        1 0.84198356E-03 0.20000752E+02</pdfrwt>
<pdfrwt beam="1">  1       -1 0.28112684E-02 0.20000752E+02</pdfrwt>
<totfact> 0.37592894E+06</totfact>
</mgrwt>
</event>
<event>
 4    1  0.9583198E-007  0.2001434E+02  0.7818608E-02  0.1745043E+00
         -1   -1    0    0    0  501 -0.00000000000E+00  0.00000000000E+00  0.33209917106E+01  0.33209949941E+01  0.46700000000E-02 0. -1.
          1   -1    0    0  501    0  0.00000000000E+00 -0.00000000000E+00 -0.30154661078E+02  0.30154661440E+02  0.46700000000E-02 0.  1.
        -11    1    1    2    0    0  0.91257242062E+01  0.40934565882E+01 -0.13967038704E+02  0.17178864909E+02  0.51100000000E-03 0.  1.
         11    1    1    2    0    0 -0.91257242062E+01 -0.40934565882E+01 -0.12866630664E+02  0.16296791526E+02  0.51100000000E-03 0. -1.
<mgrwt>
<rscale>  0 0.20014339E+02</rscale>
<asrwt>0</asrwt>
<pdfrwt beam="2">  1        1 0.46391787E-02 0.20014339E+02</pdfrwt>
<pdfrwt beam="1">  1       -1 0.51092210E-03 0.20014339E+02</pdfrwt>
<totfact> 0.40402609E+06</totfact>
</mgrwt>
</event>
<event>
 5    1  0.9583198E-007  0.2000313E+02  0.7818608E-02  0.1745266E+00
         -1   -1    0    0    0  501 -0.00000000000E+00  0.00000000000E+00  0.60803985204E+02  0.60803985383E+02  0.46700000000E-02 0.  1.
          1   -1    0    0  501    0  0.00000000000E+00 -0.00000000000E+00 -0.16451407159E+01  0.16451473442E+01  0.46700000000E-02 0. -1.
       1023    2    1    2    0    0  0.00000000000E+00  0.00000000000E+00  0.59158844488E+02  0.62449132727E+02  0.20003132186E+02 0.  0.
        -11    1    3    3    0    0  0.35116231164E+01 -0.93647456193E+01  0.29694834904E+02  0.31333898220E+02  0.51100000000E-03 0. -1.
         11    1    3    3    0    0 -0.35116231164E+01  0.93647456193E+01  0.29464009584E+02  0.31115234508E+02  0.51100000000E-03 0.  1.
<mgrwt>
<rscale>  0 0.20003132E+02</rscale>
<asrwt>0</asrwt>
<pdfrwt beam="2">  1        1 0.25309907E-03 0.20003132E+02</pdfrwt>
<pdfrwt beam="1">  1       -1 0.93544607E-02 0.20003132E+02</pdfrwt>
<totfact> 0.34178255E+06</totfact>
</mgrwt>
</event>
<event>
 5    1  0.9950331E-007  0.2000141E+02  0.7818608E-02  0.1745300E+00
         -1   -1    0    0    0  501 -0.00000000000E+00  0.00000000000E+00  0.45317550021E+01  0.45317574083E+01  0.46700000000E-02 0. -1.
          1   -1    0    0  501    0  0.00000000000E+00 -0.00000000000E+00 -0.22069611050E+02  0.22069611544E+02  0.46700000000E-02 0.  1.
       1023    2    1    2    0    0  0.00000000000E+00  0.00000000000E+00 -0.17537856048E+02  0.26601368952E+02  0.20001410835E+02 0.  0.
        -11    1    3    3    0    0  0.23008965981E+01  0.97323465114E+01 -0.87189023838E+01  0.13267703374E+02  0.51100000000E-03 0.  1.
         11    1    3    3    0    0 -0.23008965981E+01 -0.97323465114E+01 -0.88189536640E+01  0.13333665579E+02  0.51100000000E-03 0. -1.
<mgrwt>
<rscale>  0 0.20001411E+02</rscale>
<asrwt>0</asrwt>
<pdfrwt beam="2">  1        1 0.33953249E-02 0.20001411E+02</pdfrwt>
<pdfrwt beam="1">  1       -1 0.69719332E-03 0.20001411E+02</pdfrwt>
<totfact> 0.39868151E+06</totfact>
</mgrwt>
</event>
<event>
 5    1  0.9583198E-007  0.2000076E+02  0.7818608E-02  0.1745313E+00
         -1   -1    0    0    0  501 -0.00000000000E+00  0.00000000000E+00  0.14803546622E+02  0.14803547358E+02  0.46700000000E-02 0. -1.
          1   -1    0    0  501    0  0.00000000000E+00 -0.00000000000E+00 -0.67556516993E+01  0.67556533134E+01  0.46700000000E-02 0.  1.
       1023    2    1    2    0    0  0.00000000000E+00  0.00000000000E+00  0.80478949223E+01  0.21559200672E+02  0.20000763009E+02 0.  0.
        -11    1    3    3    0    0  0.54937139802E+01  0.83562273461E+01  0.40392377338E+01  0.10785308085E+02  0.51100000000E-03 0. -1.
         11    1    3    3    0    0 -0.54937139802E+01 -0.83562273461E+01  0.40086571885E+01  0.10773892587E+02  0.51100000000E-03 0.  1.
<mgrwt>
<rscale>  0 0.20000763E+02</rscale>
<asrwt>0</asrwt>
<pdfrwt beam="2">  1        1 0.10393312E-02 0.20000763E+02</pdfrwt>
<pdfrwt beam="1">  1       -1 0.22774689E-02 0.20000763E+02</pdfrwt>
<totfact> 0.37979811E+06</totfact>
</mgrwt>
</event>
<event>
 5    1  0.9583198E-007  0.2000054E+02  0.7818608E-02  0.1745317E+00
         -1   -1    0    0    0  501 -0.00000000000E+00  0.00000000000E+00  0.51193786907E+02  0.51193787120E+02  0.46700000000E-02 0.  1.
          1   -1    0    0  501    0  0.00000000000E+00 -0.00000000000E+00 -0.19534650723E+01  0.19534706544E+01  0.46700000000E-02 0. -1.
       1023    2    1    2    0    0  0.00000000000E+00  0.00000000000E+00  0.49240321834E+02  0.53147257774E+02  0.20000542856E+02 0.  0.
        -11    1    3    3    0    0 -0.52683495613E+00 -0.99861385464E+01  0.24806365453E+02  0.26746145244E+02  0.51100000000E-03 0. -1.
         11    1    3    3    0    0  0.52683495613E+00  0.99861385464E+01  0.24433956381E+02  0.26401112530E+02  0.51100000000E-03 0.  1.
<mgrwt>
<rscale>  0 0.20000543E+02</rscale>
<asrwt>0</asrwt>
<pdfrwt beam="2">  1        1 0.30053357E-03 0.20000543E+02</pdfrwt>
<pdfrwt beam="1">  1       -1 0.78759667E-02 0.20000543E+02</pdfrwt>
<totfact> 0.34842959E+06</totfact>
</mgrwt>
</event>
<event>
 5    1  0.9583198E-007  0.2000170E+02  0.7818608E-02  0.1745294E+00
          1   -1    0    0  501    0  0.00000000000E+00  0.00000000000E+00  0.12084066355E+01  0.12084156593E+01  0.46700000000E-02 0.  1.
         -1   -1    0    0    0  501 -0.00000000000E+00 -0.00000000000E+00 -0.82767333726E+02  0.82767333858E+02  0.46700000000E-02 0. -1.
       1023    2    1    2    0    0  0.00000000000E+00  0.00000000000E+00 -0.81558927090E+02  0.83975749517E+02  0.20001697897E+02 0.  0.
        -11    1    3    3    0    0  0.13176477967E+00 -0.99996894242E+01 -0.40458925040E+02  0.41676561353E+02  0.51100000000E-03 0.  1.
         11    1    3    3    0    0 -0.13176477967E+00  0.99996894242E+01 -0.41100002050E+02  0.42299188164E+02  0.51100000000E-03 0. -1.
<mgrwt>
<rscale>  0 0.20001698E+02</rscale>
<asrwt>0</asrwt>
<pdfrwt beam="1">  1        1 0.18590948E-03 0.20001698E+02</pdfrwt>
<pdfrwt beam="2">  1       -1 0.12733432E-01 0.20001698E+02</pdfrwt>
<totfact> 0.32824975E+06</totfact>
</mgrwt>
</event>
<event>
 5    1  0.9728685E-007  0.2000140E+02  0.7818608E-02  0.1745300E+00
          1   -1    0    0  501    0  0.00000000000E+00  0.00000000000E+00  0.21375108372E+02  0.21375108882E+02  0.46700000000E-02 0. -1.
         -1   -1    0    0    0  501 -0.00000000000E+00 -0.00000000000E+00 -0.46789917900E+01  0.46789941205E+01  0.46700000000E-02 0.  1.
       1023    2    1    2    0    0  0.00000000000E+00  0.00000000000E+00  0.16696116582E+02  0.26054103002E+02  0.20001399310E+02 0.  0.
        -11    1    3    3    0    0 -0.99495870181E+01  0.10090595869E+01  0.83986803089E+01  0.13059491348E+02  0.51100000000E-03 0.  1.
         11    1    3    3    0    0  0.99495870181E+01 -0.10090595869E+01  0.82974362730E+01  0.12994611654E+02  0.51100000000E-03 0. -1.
<mgrwt>
<rscale>  0 0.20001399E+02</rscale>
<asrwt>0</asrwt>
<pdfrwt beam="1">  1        1 0.32884785E-02 0.20001399E+02</pdfrwt>
<pdfrwt beam="2">  1       -1 0.71984510E-03 0.20001399E+02</pdfrwt>
<totfact> 0.39812689E+06</totfact>
</mgrwt>
</event>
<event>
 5    1  0.9583198E-007  0.2000040E+02  0.7818608E-02  0.1745320E+00
          1   -1    0    0  501    0  0.00000000000E+00  0.00000000000E+00  0.76217234520E+02  0.76217234663E+02  0.46700000000E-02 0.  1.
         -1   -1    0    0    0  501 -0.00000000000E+00 -0.00000000000E+00 -0.13120868224E+01  0.13120951332E+01  0.46700000000E-02 0. -1.
       1023    2    1    2    0    0  0.00000000000E+00  0.00000000000E+00  0.74905147697E+02  0.77529329796E+02  0.20000395673E+02 0.  0.
        -11    1    3    3    0    0 -0.65474564873E+01 -0.75586503161E+01  0.37298712450E+02  0.38616011339E+02  0.51100000000E-03 0. -1.
         11    1    3    3    0    0  0.65474564873E+01  0.75586503161E+01  0.37606435247E+02  0.38913318457E+02  0.51100000000E-03 0.  1.
<mgrwt>
<rscale>  0 0.20000396E+02</rscale>
<asrwt>0</asrwt>
<pdfrwt beam="1">  1        1 0.11725735E-01 0.20000396E+02</pdfrwt>
<pdfrwt beam="2">  1       -1 0.20186005E-03 0.20000396E+02</pdfrwt>
<totfact> 0.43161020E+06</totfact>
</mgrwt>
</event>
<event>
 4    1  0.9583198E-007  0.2001303E+02  0.7818608E-02  0.1745069E+00
         -1   -1    0    0    0  501 -0.00000000000E+00  0.00000000000E+00  0.63440286469E+01  0.63440303657E+01  0.46700000000E-02 0.  1.
          1   -1    0    0  501    0  0.00000000000E+00 -0.00000000000E+00 -0.15783393189E+02  0.15783393880E+02  0.46700000000E-02 0. -1.
        -11    1    1    2    0    0  0.41257011958E+01  0.91164051388E+01 -0.47103054240E+01  0.11059712042E+02  0.51100000000E-03 0. -1.
         11    1    1    2    0    0 -0.41257011958E+01 -0.91164051388E+01 -0.47290591182E+01  0.11067712203E+02  0.51100000000E-03 0.  1.
<mgrwt>
<rscale>  0 0.20013028E+02</rscale>
<asrwt>0</asrwt>
<pdfrwt beam="2">  1        1 0.24282145E-02 0.20013028E+02</pdfrwt>
<pdfrwt beam="1">  1       -1 0.97600460E-03 0.20013028E+02</pdfrwt>
<totfact> 0.39266227E+06</totfact>
</mgrwt>
</event>
<event>
 5    1  0.9583198E-007  0.2000397E+02  0.7818608E-02  0.1745249E+00
          1   -1    0    0  501    0  0.00000000000E+00  0.00000000000E+00  0.23056907432E+02  0.23056907905E+02  0.46700000000E-02 0.  1.
         -1   -1    0    0    0  501 -0.00000000000E+00 -0.00000000000E+00 -0.43388138599E+01  0.43388163731E+01  0.46700000000E-02 0. -1.
       1023    2    1    2    0    0  0.00000000000E+00  0.00000000000E+00  0.18718093572E+02  0.27395724278E+02  0.20003966650E+02 0.  0.
        -11    1    3    3    0    0  0.92719351703E+01 -0.37510870196E+01  0.93800205841E+01  0.13712192460E+02  0.51100000000E-03 0.  1.
         11    1    3    3    0    0 -0.92719351703E+01  0.37510870196E+01  0.93380729877E+01  0.13683531818E+02  0.51100000000E-03 0. -1.
<mgrwt>
<rscale>  0 0.20003967E+02</rscale>
<asrwt>0</asrwt>
<pdfrwt beam="1">  1        1 0.35472167E-02 0.20003967E+02</pdfrwt>
<pdfrwt beam="2">  1       -1 0.66751006E-03 0.20003967E+02</pdfrwt>
<totfact> 0.39934054E+06</totfact>
</mgrwt>
</event>
<event>
 5    1  0.9583198E-007  0.2000219E+02  0.7818608E-02  0.1745284E+00
          1   -1    0    0  501    0  0.00000000000E+00  0.00000000000E+00  0.11445983868E+03  0.11445983878E+03  0.46700000000E-02 0.  1.
         -1   -1    0    0    0  501 -0.00000000000E+00 -0.00000000000E+00 -0.87385405169E+00  0.87386653017E+00  0.46700000000E-02 0. -1.
       1023    2    1    2    0    0  0.00000000000E+00  0.00000000000E+00  0.11358598463E+03  0.11533370531E+03  0.20002191767E+02 0.  0.
        -11    1    3    3    0    0 -0.99989540214E+01 -0.20350011083E+00  0.57010640451E+02  0.57881202637E+02  0.51100000000E-03 0. -1.
         11    1    3    3    0    0  0.99989540214E+01  0.20350011083E+00  0.56575344177E+02  0.57452502668E+02  0.51100000000E-03 0.  1.
<mgrwt>
<rscale>  0 0.20002192E+02</rscale>
<asrwt>0</asrwt>
<pdfrwt beam="1">  1        1 0.17609207E-01 0.20002192E+02</pdfrwt>
<pdfrwt beam="2">  1       -1 0.13444005E-03 0.20002192E+02</pdfrwt>
<totfact> 0.45034749E+06</totfact>
</mgrwt>
</event>
<event>
 5    1  0.9583198E-007  0.2000067E+02  0.7818608E-02  0.1745315E+00
          1   -1    0    0  501    0  0.00000000000E+00  0.00000000000E+00  0.55941835251E+01  0.55941854743E+01  0.46700000000E-02 0.  1.
         -1   -1    0    0    0  501 -0.00000000000E+00 -0.00000000000E+00 -0.17876900312E+02  0.17876900922E+02  0.46700000000E-02 0. -1.
       1023    2    1    2    0    0  0.00000000000E+00  0.00000000000E+00 -0.12282716787E+02  0.23471086396E+02  0.20000669113E+02 0.  0.
        -11    1    3    3    0    0 -0.71677361305E+01  0.69735384376E+01 -0.61373959671E+01  0.11733469610E+02  0.51100000000E-03 0. -1.
         11    1    3    3    0    0  0.71677361305E+01 -0.69735384376E+01 -0.61453208199E+01  0.11737616786E+02  0.51100000000E-03 0.  1.
<mgrwt>
<rscale>  0 0.20000669E+02</rscale>
<asrwt>0</asrwt>
<pdfrwt beam="1">  1        1 0.86064383E-03 0.20000669E+02</pdfrwt>
<pdfrwt beam="2">  1       -1 0.27502925E-02 0.20000669E+02</pdfrwt>
<totfact> 0.37635411E+06</totfact>
</mgrwt>
</event>
<event>
 5    1  0.9583198E-007  0.2000037E+02  0.7818608E-02  0.1745321E+00
         -1   -1    0    0    0  501 -0.00000000000E+00  0.00000000000E+00  0.15002211884E+02  0.15002212611E+02  0.46700000000E-02 0.  1.
          1   -1    0    0  501    0  0.00000000000E+00 -0.00000000000E+00 -0.66659319296E+01  0.66659335655E+01  0.46700000000E-02 0. -1.
       1023    2    1    2    0    0  0.00000000000E+00  0.00000000000E+00  0.83362799545E+01  0.21668146176E+02  0.20000374878E+02 0.  0.
        -11    1    3    3    0    0  0.50051061314E+01  0.86575135285E+01  0.41562391694E+01  0.10829494549E+02  0.51100000000E-03 0.  1.
         11    1    3    3    0    0 -0.50051061314E+01 -0.86575135285E+01  0.41800407852E+01  0.10838651628E+02  0.51100000000E-03 0. -1.
<mgrwt>
<rscale>  0 0.20000375E+02</rscale>
<asrwt>0</asrwt>
<pdfrwt beam="2">  1        1 0.10255282E-02 0.20000375E+02</pdfrwt>
<pdfrwt beam="1">  1       -1 0.23080328E-02 0.20000375E+02</pdfrwt>
<totfact> 0.37958031E+06</totfact>
</mgrwt>
</event>
<event>
 5    1  0.9636473E-007  0.2000135E+02  0.7818608E-02  0.1745301E+00
          1   -1    0    0  501    0  0.00000000000E+00  0.00000000000E+00  0.57046555896E+01  0.57046575011E+01  0.46700000000E-02 0. -1.
         -1   -1    0    0    0  501 -0.00000000000E+00 -0.00000000000E+00 -0.17531894712E+02  0.17531895334E+02  0.46700000000E-02 0.  1.
       1023    2    1    2    0    0  0.00000000000E+00  0.00000000000E+00 -0.11827239122E+02  0.23236552835E+02  0.20001345015E+02 0.  0.
        -11    1    3    3    0    0 -0.75780396779E+01  0.65258494083E+01 -0.59050446178E+01  0.11613911833E+02  0.51100000000E-03 0.  1.
         11    1    3    3    0    0  0.75780396779E+01 -0.65258494083E+01 -0.59221945046E+01  0.11622641002E+02  0.51100000000E-03 0. -1.
<mgrwt>
<rscale>  0 0.20001345E+02</rscale>
<asrwt>0</asrwt>
<pdfrwt beam="1">  1        1 0.87763952E-03 0.20001345E+02</pdfrwt>
<pdfrwt beam="2">  1       -1 0.26972147E-02 0.20001345E+02</pdfrwt>
<totfact> 0.37669705E+06</totfact>
</mgrwt>
</event>
<event>
 5    1  0.9651117E-007  0.2000074E+02  0.7818608E-02  0.1745313E+00
          1   -1    0    0  501    0  0.00000000000E+00  0.00000000000E+00  0.33365633329E+01  0.33365666010E+01  0.46700000000E-02 0. -1.
         -1   -1    0    0    0  501 -0.00000000000E+00 -0.00000000000E+00 -0.29973154370E+02  0.29973154733E+02  0.46700000000E-02 0.  1.
       1023    2    1    2    0    0  0.00000000000E+00  0.00000000000E+00 -0.26636591037E+02  0.33309721334E+02  0.20000738819E+02 0.  0.
        -11    1    3    3    0    0 -0.20684178089E+01 -0.97840099930E+01 -0.13396131515E+02  0.16717103325E+02  0.51100000000E-03 0.  1.
         11    1    3    3    0    0  0.20684178089E+01  0.97840099930E+01 -0.13240459522E+02  0.16592618009E+02  0.51100000000E-03 0. -1.
<mgrwt>
<rscale>  0 0.20000739E+02</rscale>
<asrwt>0</asrwt>
<pdfrwt beam="1">  1        1 0.51331774E-03 0.20000739E+02</pdfrwt>
<pdfrwt beam="2">  1       -1 0.46112546E-02 0.20000739E+02</pdfrwt>
<totfact> 0.36485858E+06</totfact>
</mgrwt>
</event>
<event>
 5    1  0.1018646E-006  0.2000148E+02  0.7818608E-02  0.1745299E+00
          1   -1    0    0  501    0  0.00000000000E+00  0.00000000000E+00  0.77458264635E+02  0.77458264776E+02  0.46700000000E-02 0.  1.
         -1   -1    0    0    0  501 -0.00000000000E+00 -0.00000000000E+00 -0.12912048601E+01  0.12912133052E+01  0.46700000000E-02 0. -1.
       1023    2    1    2    0    0  0.00000000000E+00  0.00000000000E+00  0.76167059775E+02  0.78749478081E+02  0.20001482527E+02 0.  0.
        -11    1    3    3    0    0  0.63748199170E+01 -0.77053935626E+01  0.38313328773E+02  0.39597002170E+02  0.51100000000E-03 0. -1.
         11    1    3    3    0    0 -0.63748199170E+01  0.77053935626E+01  0.37853731002E+02  0.39152475911E+02  0.51100000000E-03 0.  1.
<mgrwt>
<rscale>  0 0.20001483E+02</rscale>
<asrwt>0</asrwt>
<pdfrwt beam="1">  1        1 0.11916660E-01 0.20001483E+02</pdfrwt>
<pdfrwt beam="2">  1       -1 0.19864752E-03 0.20001483E+02</pdfrwt>
<totfact> 0.43220578E+06</totfact>
</mgrwt>
</event>
<event>
 5    1  0.9583198E-007  0.2000010E+02  0.7818608E-02  0.1745326E+00
          1   -1    0    0  501    0  0.00000000000E+00  0.00000000000E+00  0.25098683631E+02  0.25098684066E+02  0.46700000000E-02 0.  1.
         -1   -1    0    0    0  501 -0.00000000000E+00 -0.00000000000E+00 -0.39843096742E+01  0.39843124111E+01  0.46700000000E-02 0. -1.
       1023    2    1    2    0    0  0.00000000000E+00  0.00000000000E+00  0.21114373957E+02  0.29082996477E+02  0.20000097412E+02 0.  0.
        -11    1    3    3    0    0  0.79876525593E+01  0.60164951145E+01  0.10538396161E+02  0.14527856028E+02  0.51100000000E-03 0. -1.
         11    1    3    3    0    0 -0.79876525593E+01 -0.60164951145E+01  0.10575977796E+02  0.14555140449E+02  0.51100000000E-03 0.  1.
<mgrwt>
<rscale>  0 0.20000097E+02</rscale>
<asrwt>0</asrwt>
<pdfrwt beam="1">  1        1 0.38613361E-02 0.20000097E+02</pdfrwt>
<pdfrwt beam="2">  1       -1 0.61297098E-03 0.20000097E+02</pdfrwt>
<totfact> 0.40106243E+06</totfact>
</mgrwt>
</event>
<event>
 5    1  0.9583198E-007  0.2000006E+02  0.7818608E-02  0.1745327E+00
          1   -1    0    0  501    0  0.00000000000E+00  0.00000000000E+00  0.16164136946E+02  0.16164137620E+02  0.46700000000E-02 0.  1.
         -1   -1    0    0    0  501 -0.00000000000E+00 -0.00000000000E+00 -0.61865689641E+01  0.61865707267E+01  0.46700000000E-02 0. -1.
       1023    2    1    2    0    0  0.00000000000E+00  0.00000000000E+00  0.99775679817E+01  0.22350708347E+02  0.20000057520E+02 0.  0.
        -11    1    3    3    0    0  0.75368863648E+01 -0.65723560221E+01  0.49804826592E+01  0.11171648380E+02  0.51100000000E-03 0. -1.
         11    1    3    3    0    0 -0.75368863648E+01  0.65723560221E+01  0.49970853225E+01  0.11179059967E+02  0.51100000000E-03 0.  1.
<mgrwt>
<rscale>  0 0.20000058E+02</rscale>
<asrwt>0</asrwt>
<pdfrwt beam="1">  1        1 0.24867905E-02 0.20000058E+02</pdfrwt>
<pdfrwt beam="2">  1       -1 0.95178003E-03 0.20000058E+02</pdfrwt>
<totfact> 0.39360870E+06</totfact>
</mgrwt>
</event>
<event>
 5    1  0.1024171E-006  0.2000121E+02  0.7818608E-02  0.1745304E+00
         -1   -1    0    0    0  501 -0.00000000000E+00  0.00000000000E+00  0.10067046851E+01  0.10067155169E+01  0.46700000000E-02 0.  1.
          1   -1    0    0  501    0  0.00000000000E+00 -0.00000000000E+00 -0.99345480352E+02  0.99345480462E+02  0.46700000000E-02 0. -1.
       1023    2    1    2    0    0  0.00000000000E+00  0.00000000000E+00 -0.98338775667E+02  0.10035219598E+03  0.20001210915E+02 0.  0.
        -11    1    3    3    0    0 -0.94577249185E+01  0.32499146996E+01 -0.48968503066E+02  0.49979243682E+02  0.51100000000E-03 0. -1.
         11    1    3    3    0    0  0.94577249185E+01 -0.32499146996E+01 -0.49370272601E+02  0.50372952297E+02  0.51100000000E-03 0.  1.
<mgrwt>
<rscale>  0 0.20001211E+02</rscale>
<asrwt>0</asrwt>
<pdfrwt beam="2">  1        1 0.15283913E-01 0.20001211E+02</pdfrwt>
<pdfrwt beam="1">  1       -1 0.15487856E-03 0.20001211E+02</pdfrwt>
<totfact> 0.44322968E+06</totfact>
</mgrwt>
</event>
<event>
 5    1  0.9583198E-007  0.2000541E+02  0.7818608E-02  0.1745221E+00
          1   -1    0    0  501    0  0.00000000000E+00  0.00000000000E+00  0.47726946483E+02  0.47726946712E+02  0.46700000000E-02 0.  1.
         -1   -1    0    0    0  501 -0.00000000000E+00 -0.00000000000E+00 -0.20963827621E+01  0.20963879637E+01  0.46700000000E-02 0. -1.
       1023    2    1    2    0    0  0.00000000000E+00  0.00000000000E+00  0.45630563721E+02  0.49823334676E+02  0.20005407586E+02 0.  0.
        -11    1    3    3    0    0  0.68661283382E+01  0.72738594732E+01  0.22724356214E+02  0.24828393335E+02  0.51100000000E-03 0.  1.
         11    1    3    3    0    0 -0.68661283382E+01 -0.72738594732E+01  0.22906207508E+02  0.24994941341E+02  0.51100000000E-03 0. -1.
<mgrwt>
<rscale>  0 0.20005408E+02</rscale>
<asrwt>0</asrwt>
<pdfrwt beam="1">  1        1 0.73426077E-02 0.20005408E+02</pdfrwt>
<pdfrwt beam="2">  1       -1 0.32252084E-03 0.20005408E+02</pdfrwt>
<totfact> 0.41555730E+06</totfact>
</mgrwt>
</event>
<event>
 4    1  0.9583198E-007  0.2018799E+02  0.7818608E-02  0.1741615E+00
         -1   -1    0    0    0  501 -0.00000000000E+00  0.00000000000E+00  0.57130373157E+01  0.57130392244E+01  0.46700000000E-02 0.  1.
          1   -1    0    0  501    0  0.00000000000E+00 -0.00000000000E+00 -0.17834425030E+02  0.17834425641E+02  0.46700000000E-02 0. -1.
        -11    1    1    2    0    0  0.89888236476E+01  0.45922626581E+01 -0.60249662473E+01  0.11755341145E+02  0.51100000000E-03 0. -1.
         11    1    1    2    0    0 -0.89888236476E+01 -0.45922626581E+01 -0.60964214670E+01  0.11792123721E+02  0.51100000000E-03 0.  1.
<mgrwt>
<rscale>  0 0.20187993E+02</rscale>
<asrwt>0</asrwt>
<pdfrwt beam="2">  1        1 0.27437579E-02 0.20187993E+02</pdfrwt>
<pdfrwt beam="1">  1       -1 0.87892902E-03 0.20187993E+02</pdfrwt>
<totfact> 0.38695318E+06</totfact>
</mgrwt>
</event>
<event>
 5    1  0.9583198E-007  0.2000020E+02  0.7818608E-02  0.1745324E+00
         -1   -1    0    0    0  501 -0.00000000000E+00  0.00000000000E+00  0.17059901727E+02  0.17059902366E+02  0.46700000000E-02 0.  1.
          1   -1    0    0  501    0  0.00000000000E+00 -0.00000000000E+00 -0.58618116121E+01  0.58618134723E+01  0.46700000000E-02 0. -1.
       1023    2    1    2    0    0  0.00000000000E+00  0.00000000000E+00  0.11198090115E+02  0.22921715838E+02  0.20000195868E+02 0.  0.
        -11    1    3    3    0    0 -0.81175620096E+01 -0.58401299129E+01  0.56051146447E+01  0.11463823133E+02  0.51100000000E-03 0.  1.
         11    1    3    3    0    0  0.81175620096E+01  0.58401299129E+01  0.55929754698E+01  0.11457892705E+02  0.51100000000E-03 0. -1.
<mgrwt>
<rscale>  0 0.20000196E+02</rscale>
<asrwt>0</asrwt>
<pdfrwt beam="2">  1        1 0.90181737E-03 0.20000196E+02</pdfrwt>
<pdfrwt beam="1">  1       -1 0.26246004E-02 0.20000196E+02</pdfrwt>
<totfact> 0.37725799E+06</totfact>
</mgrwt>
</event>
<event>
 5    1  0.9583198E-007  0.2000004E+02  0.7818608E-02  0.1745327E+00
          1   -1    0    0  501    0  0.00000000000E+00  0.00000000000E+00  0.53623231396E+01  0.53623251732E+01  0.46700000000E-02 0. -1.
         -1   -1    0    0    0  501 -0.00000000000E+00 -0.00000000000E+00 -0.18648696297E+02  0.18648696882E+02  0.46700000000E-02 0.  1.
       1023    2    1    2    0    0  0.00000000000E+00  0.00000000000E+00 -0.13286373157E+02  0.24011022055E+02  0.20000036711E+02 0.  0.
        -11    1    3    3    0    0  0.30120906193E+01 -0.95356004825E+01 -0.66424382641E+01  0.12005096951E+02  0.51100000000E-03 0.  1.
         11    1    3    3    0    0 -0.30120906193E+01  0.95356004825E+01 -0.66439348932E+01  0.12005925103E+02  0.51100000000E-03 0. -1.
<mgrwt>
<rscale>  0 0.20000037E+02</rscale>
<asrwt>0</asrwt>
<pdfrwt beam="1">  1        1 0.82497300E-03 0.20000037E+02</pdfrwt>
<pdfrwt beam="2">  1       -1 0.28690304E-02 0.20000037E+02</pdfrwt>
<totfact> 0.37556295E+06</totfact>
</mgrwt>
</event>
<event>
 5    1  0.9583198E-007  0.2000034E+02  0.7818608E-02  0.1745321E+00
         -1   -1    0    0    0  501 -0.00000000000E+00  0.00000000000E+00  0.18931017782E+01  0.18931075383E+01  0.46700000000E-02 0.  1.
          1   -1    0    0  501    0  0.00000000000E+00 -0.00000000000E+00 -0.52825096802E+02  0.52825097009E+02  0.46700000000E-02 0. -1.
       1023    2    1    2    0    0  0.00000000000E+00  0.00000000000E+00 -0.50931995024E+02  0.54718204547E+02  0.20000344790E+02 0.  0.
        -11    1    3    3    0    0  0.10452517977E+01 -0.99453945403E+01 -0.25479339754E+02  0.27371521303E+02  0.51100000000E-03 0.  1.
         11    1    3    3    0    0 -0.10452517977E+01  0.99453945403E+01 -0.25452655271E+02  0.27346683244E+02  0.51100000000E-03 0. -1.
<mgrwt>
<rscale>  0 0.20000345E+02</rscale>
<asrwt>0</asrwt>
<pdfrwt beam="2">  1        1 0.81269373E-02 0.20000345E+02</pdfrwt>
<pdfrwt beam="1">  1       -1 0.29124693E-03 0.20000345E+02</pdfrwt>
<totfact> 0.41877605E+06</totfact>
</mgrwt>
</event>
<event>
 4    1  0.9583198E-007  0.2001817E+02  0.7818608E-02  0.1744967E+00
         -1   -1    0    0    0  501 -0.00000000000E+00  0.00000000000E+00  0.11960802761E+02  0.11960803673E+02  0.46700000000E-02 0.  1.
          1   -1    0    0  501    0  0.00000000000E+00 -0.00000000000E+00 -0.83758358215E+01  0.83758371234E+01  0.46700000000E-02 0. -1.
        -11    1    1    2    0    0  0.22602969384E+01 -0.97482215947E+01  0.15770341336E+01  0.10130340736E+02  0.51100000000E-03 0.  1.
         11    1    1    2    0    0 -0.22602969384E+01  0.97482215947E+01  0.20079328062E+01  0.10206300060E+02  0.51100000000E-03 0. -1.
<mgrwt>
<rscale>  0 0.20018166E+02</rscale>
<asrwt>0</asrwt>
<pdfrwt beam="2">  1        1 0.12885903E-02 0.20018166E+02</pdfrwt>
<pdfrwt beam="1">  1       -1 0.18401237E-02 0.20018166E+02</pdfrwt>
<totfact> 0.38264933E+06</totfact>
</mgrwt>
</event>
<event>
 5    1  0.9583198E-007  0.2000042E+02  0.7818608E-02  0.1745320E+00
          1   -1    0    0  501    0  0.00000000000E+00  0.00000000000E+00  0.37767117627E+01  0.37767146500E+01  0.46700000000E-02 0. -1.
         -1   -1    0    0    0  501 -0.00000000000E+00 -0.00000000000E+00 -0.26479147800E+02  0.26479148212E+02  0.46700000000E-02 0.  1.
       1023    2    1    2    0    0  0.00000000000E+00  0.00000000000E+00 -0.22702436038E+02  0.30255862862E+02  0.20000415883E+02 0.  0.
        -11    1    3    3    0    0 -0.84088264154E+01 -0.54125536010E+01 -0.11339457184E+02  0.15119106708E+02  0.51100000000E-03 0. -1.
         11    1    3    3    0    0  0.84088264154E+01  0.54125536010E+01 -0.11362978854E+02  0.15136756154E+02  0.51100000000E-03 0.  1.
<mgrwt>
<rscale>  0 0.20000416E+02</rscale>
<asrwt>0</asrwt>
<pdfrwt beam="1">  1        1 0.58103285E-03 0.20000416E+02</pdfrwt>
<pdfrwt beam="2">  1       -1 0.40737152E-02 0.20000416E+02</pdfrwt>
<totfact> 0.36795846E+06</totfact>
</mgrwt>
</event>
<event>
 4    1  0.9583198E-007  0.2003509E+02  0.7818608E-02  0.1744631E+00
         -1   -1    0    0    0  501 -0.00000000000E+00  0.00000000000E+00  0.27887651792E+01  0.27887690893E+01  0.46700000000E-02 0.  1.
          1   -1    0    0  501    0  0.00000000000E+00 -0.00000000000E+00 -0.35984057582E+02  0.35984057885E+02  0.46700000000E-02 0. -1.
        -11    1    1    2    0    0 -0.86781217579E+01 -0.49988758820E+01 -0.16153757564E+02  0.19006378956E+02  0.51100000000E-03 0. -1.
         11    1    1    2    0    0  0.86781217579E+01  0.49988758820E+01 -0.17041534839E+02  0.19766448018E+02  0.51100000000E-03 0.  1.
<mgrwt>
<rscale>  0 0.20035086E+02</rscale>
<asrwt>0</asrwt>
<pdfrwt beam="2">  1        1 0.55360089E-02 0.20035086E+02</pdfrwt>
<pdfrwt beam="1">  1       -1 0.42904115E-03 0.20035086E+02</pdfrwt>
<totfact> 0.40695858E+06</totfact>
</mgrwt>
</event>
<event>
 5    1  0.9583198E-007  0.2000047E+02  0.7818608E-02  0.1745319E+00
         -1   -1    0    0    0  501 -0.00000000000E+00  0.00000000000E+00  0.23150682314E+01  0.23150729416E+01  0.46700000000E-02 0. -1.
          1   -1    0    0  501    0  0.00000000000E+00 -0.00000000000E+00 -0.43197239211E+02  0.43197239464E+02  0.46700000000E-02 0.  1.
       1023    2    1    2    0    0  0.00000000000E+00  0.00000000000E+00 -0.40882170980E+02  0.45512312405E+02  0.20000466906E+02 0.  0.
        -11    1    3    3    0    0 -0.98644369222E+01  0.16421928440E+01 -0.20503641718E+02  0.22812348347E+02  0.51100000000E-03 0.  1.
         11    1    3    3    0    0  0.98644369222E+01 -0.16421928440E+01 -0.20378529262E+02  0.22699964059E+02  0.51100000000E-03 0. -1.
<mgrwt>
<rscale>  0 0.20000467E+02</rscale>
<asrwt>0</asrwt>
<pdfrwt beam="2">  1        1 0.66457289E-02 0.20000467E+02</pdfrwt>
<pdfrwt beam="1">  1       -1 0.35616476E-03 0.20000467E+02</pdfrwt>
<totfact> 0.41305796E+06</totfact>
</mgrwt>
</event>
<event>
 5    1  0.1015720E-006  0.2000146E+02  0.7818608E-02  0.1745299E+00
         -1   -1    0    0    0  501 -0.00000000000E+00  0.00000000000E+00  0.61313914980E+01  0.61313932765E+01  0.46700000000E-02 0.  1.
          1   -1    0    0  501    0  0.00000000000E+00 -0.00000000000E+00 -0.16311894564E+02  0.16311895232E+02  0.46700000000E-02 0. -1.
       1023    2    1    2    0    0  0.00000000000E+00  0.00000000000E+00 -0.10180503066E+02  0.22443288509E+02  0.20001463857E+02 0.  0.
        -11    1    3    3    0    0 -0.79732710871E+01  0.60365364729E+01 -0.50424552165E+01  0.11199963361E+02  0.51100000000E-03 0.  1.
         11    1    3    3    0    0  0.79732710871E+01 -0.60365364729E+01 -0.51380478494E+01  0.11243325148E+02  0.51100000000E-03 0. -1.
<mgrwt>
<rscale>  0 0.20001464E+02</rscale>
<asrwt>0</asrwt>
<pdfrwt beam="2">  1        1 0.25095224E-02 0.20001464E+02</pdfrwt>
<pdfrwt beam="1">  1       -1 0.94329120E-03 0.20001464E+02</pdfrwt>
<totfact> 0.39368951E+06</totfact>
</mgrwt>
</event>
<event>
 4    1  0.9583198E-007  0.2001669E+02  0.7818608E-02  0.1744996E+00
          1   -1    0    0  501    0  0.00000000000E+00  0.00000000000E+00  0.25169769618E+01  0.25169812942E+01  0.46700000000E-02 0.  1.
         -1   -1    0    0    0  501 -0.00000000000E+00 -0.00000000000E+00 -0.39796514202E+02  0.39796514476E+02  0.46700000000E-02 0. -1.
        -11    1    1    2    0    0  0.91043019648E+01 -0.41541354564E+01 -0.18327289006E+02  0.20881443394E+02  0.51100000000E-03 0.  1.
         11    1    1    2    0    0 -0.91043019648E+01  0.41541354564E+01 -0.18952248234E+02  0.21432052376E+02  0.51100000000E-03 0. -1.
<mgrwt>
<rscale>  0 0.20016694E+02</rscale>
<asrwt>0</asrwt>
<pdfrwt beam="1">  1        1 0.38722761E-03 0.20016694E+02</pdfrwt>
<pdfrwt beam="2">  1       -1 0.61225406E-02 0.20016694E+02</pdfrwt>
<totfact> 0.35621492E+06</totfact>
</mgrwt>
</event>
<event>
 5    1  0.9583198E-007  0.2000485E+02  0.7818608E-02  0.1745232E+00
         -1   -1    0    0    0  501 -0.00000000000E+00  0.00000000000E+00  0.52766997114E+02  0.52766997321E+02  0.46700000000E-02 0. -1.
          1   -1    0    0  501    0  0.00000000000E+00 -0.00000000000E+00 -0.18960403214E+01  0.18960460726E+01  0.46700000000E-02 0.  1.
       1023    2    1    2    0    0  0.00000000000E+00  0.00000000000E+00  0.50870956793E+02  0.54663043393E+02  0.20004851112E+02 0.  0.
        -11    1    3    3    0    0  0.11235005775E+01  0.99389641776E+01  0.25279600182E+02  0.27186457071E+02  0.51100000000E-03 0.  1.
         11    1    3    3    0    0 -0.11235005775E+01 -0.99389641776E+01  0.25591356611E+02  0.27476586322E+02  0.51100000000E-03 0. -1.
<mgrwt>
<rscale>  0 0.20004851E+02</rscale>
<asrwt>0</asrwt>
<pdfrwt beam="2">  1        1 0.29169896E-03 0.20004851E+02</pdfrwt>
<pdfrwt beam="1">  1       -1 0.81180002E-02 0.20004851E+02</pdfrwt>
<totfact> 0.34716232E+06</totfact>
</mgrwt>
</event>
<event>
 5    1  0.9593858E-007  0.2000238E+02  0.7818608E-02  0.1745281E+00
         -1   -1    0    0    0  501 -0.00000000000E+00  0.00000000000E+00  0.29990533848E+01  0.29990570208E+01  0.46700000000E-02 0.  1.
          1   -1    0    0  501    0  0.00000000000E+00 -0.00000000000E+00 -0.33351772621E+02  0.33351772948E+02  0.46700000000E-02 0. -1.
       1023    2    1    2    0    0  0.00000000000E+00  0.00000000000E+00 -0.30352719236E+02  0.36350829969E+02  0.20002381718E+02 0.  0.
        -11    1    3    3    0    0 -0.66970158770E+01  0.74278374591E+01 -0.15118109844E+02  0.18126776781E+02  0.51100000000E-03 0.  1.
         11    1    3    3    0    0  0.66970158770E+01 -0.74278374591E+01 -0.15234609392E+02  0.18224053187E+02  0.51100000000E-03 0. -1.
<mgrwt>
<rscale>  0 0.20002382E+02</rscale>
<asrwt>0</asrwt>
<pdfrwt beam="2">  1        1 0.51310420E-02 0.20002382E+02</pdfrwt>
<pdfrwt beam="1">  1       -1 0.46139316E-03 0.20002382E+02</pdfrwt>
<totfact> 0.40672154E+06</totfact>
</mgrwt>
</event>
<event>
 4    1  0.9583198E-007  0.2002266E+02  0.7818608E-02  0.1744878E+00
         -1   -1    0    0    0  501 -0.00000000000E+00  0.00000000000E+00  0.25595782555E+01  0.25595825158E+01  0.46700000000E-02 0.  1.
          1   -1    0    0  501    0  0.00000000000E+00 -0.00000000000E+00 -0.39157462324E+02  0.39157462603E+02  0.46700000000E-02 0. -1.
        -11    1    1    2    0    0  0.95186158797E+01  0.31020249299E+01 -0.18280708623E+02  0.20842526597E+02  0.51100000000E-03 0. -1.
         11    1    1    2    0    0 -0.95186158797E+01 -0.31020249299E+01 -0.18317175446E+02  0.20874518521E+02  0.51100000000E-03 0.  1.
<mgrwt>
<rscale>  0 0.20022656E+02</rscale>
<asrwt>0</asrwt>
<pdfrwt beam="2">  1        1 0.60242249E-02 0.20022656E+02</pdfrwt>
<pdfrwt beam="1">  1       -1 0.39378165E-03 0.20022656E+02</pdfrwt>
<totfact> 0.40954115E+06</totfact>
</mgrwt>
</event>
<event>
 5    1  0.9583198E-007  0.2000092E+02  0.7818608E-02  0.1745310E+00
          1   -1    0    0  501    0  0.00000000000E+00  0.00000000000E+00  0.11156674777E+01  0.11156772515E+01  0.46700000000E-02 0.  1.
         -1   -1    0    0    0  501 -0.00000000000E+00 -0.00000000000E+00 -0.89640256109E+02  0.89640256230E+02  0.46700000000E-02 0. -1.
       1023    2    1    2    0    0  0.00000000000E+00  0.00000000000E+00 -0.88524588631E+02  0.90755933482E+02  0.20000916726E+02 0.  0.
        -11    1    3    3    0    0 -0.20622421291E+01  0.97855120132E+01 -0.44302688642E+02  0.45417367924E+02  0.51100000000E-03 0. -1.
         11    1    3    3    0    0  0.20622421291E+01 -0.97855120132E+01 -0.44221899989E+02  0.45338565558E+02  0.51100000000E-03 0.  1.
<mgrwt>
<rscale>  0 0.20000917E+02</rscale>
<asrwt>0</asrwt>
<pdfrwt beam="1">  1        1 0.17164198E-03 0.20000917E+02</pdfrwt>
<pdfrwt beam="2">  1       -1 0.13790804E-01 0.20000917E+02</pdfrwt>
<totfact> 0.32434161E+06</totfact>
</mgrwt>
</event>
<event>
 5    1  0.9583198E-007  0.2000119E+02  0.7818608E-02  0.1745304E+00
         -1   -1    0    0    0  501 -0.00000000000E+00  0.00000000000E+00  0.98205691491E+02  0.98205691602E+02  0.46700000000E-02 0. -1.
          1   -1    0    0  501    0  0.00000000000E+00 -0.00000000000E+00 -0.10183864140E+01  0.10183971215E+01  0.46700000000E-02 0.  1.
       1023    2    1    2    0    0  0.00000000000E+00  0.00000000000E+00  0.97187305077E+02  0.99224088724E+02  0.20001187837E+02 0.  0.
        -11    1    3    3    0    0  0.81759723140E+01 -0.57588728047E+01  0.48728531221E+02  0.49744154375E+02  0.51100000000E-03 0. -1.
         11    1    3    3    0    0 -0.81759723140E+01  0.57588728047E+01  0.48458773856E+02  0.49479934349E+02  0.51100000000E-03 0.  1.
<mgrwt>
<rscale>  0 0.20001188E+02</rscale>
<asrwt>0</asrwt>
<pdfrwt beam="2">  1        1 0.15667564E-03 0.20001188E+02</pdfrwt>
<pdfrwt beam="1">  1       -1 0.15108571E-01 0.20001188E+02</pdfrwt>
<totfact> 0.31960385E+06</totfact>
</mgrwt>
</event>
<event>
 5    1  0.1015731E-006  0.2000225E+02  0.7818608E-02  0.1745283E+00
          1   -1    0    0  501    0  0.00000000000E+00  0.00000000000E+00  0.91209342737E+02  0.91209342856E+02  0.46700000000E-02 0. -1.
         -1   -1    0    0    0  501 -0.00000000000E+00 -0.00000000000E+00 -0.10966205048E+01  0.10966304484E+01  0.46700000000E-02 0.  1.
       1023    2    1    2    0    0  0.00000000000E+00  0.00000000000E+00  0.90112722232E+02  0.92305973305E+02  0.20002249865E+02 0.  0.
        -11    1    3    3    0    0  0.98819659618E+01  0.15351117447E+01  0.45576017241E+02  0.46660295404E+02  0.51100000000E-03 0.  1.
         11    1    3    3    0    0 -0.98819659618E+01 -0.15351117447E+01  0.44536704990E+02  0.45645677901E+02  0.51100000000E-03 0. -1.
<mgrwt>
<rscale>  0 0.20002250E+02</rscale>
<asrwt>0</asrwt>
<pdfrwt beam="1">  1        1 0.14032213E-01 0.20002250E+02</pdfrwt>
<pdfrwt beam="2">  1       -1 0.16871156E-03 0.20002250E+02</pdfrwt>
<totfact> 0.43917379E+06</totfact>
</mgrwt>
</event>
<event>
 4    1  0.9583198E-007  0.2006448E+02  0.7818608E-02  0.1744049E+00
         -1   -1    0    0    0  501 -0.00000000000E+00  0.00000000000E+00  0.87915199331E+00  0.87916439659E+00  0.46700000000E-02 0. -1.
          1   -1    0    0  501    0  0.00000000000E+00 -0.00000000000E+00 -0.11447975779E+03  0.11447975788E+03  0.46700000000E-02 0.  1.
        -11    1    1    2    0    0 -0.64522318405E+01  0.76692293248E+01 -0.59355097496E+02  0.60195315210E+02  0.51100000000E-03 0.  1.
         11    1    1    2    0    0  0.64522318405E+01 -0.76692293248E+01 -0.54245508298E+02  0.55163607070E+02  0.51100000000E-03 0. -1.
<mgrwt>
<rscale>  0 0.20064479E+02</rscale>
<asrwt>0</asrwt>
<pdfrwt beam="2">  1        1 0.17612260E-01 0.20064479E+02</pdfrwt>
<pdfrwt beam="1">  1       -1 0.13525520E-03 0.20064479E+02</pdfrwt>
<totfact> 0.44728162E+06</totfact>
</mgrwt>
</event>
<event>
 5    1  0.9583198E-007  0.2000068E+02  0.7818608E-02  0.1745314E+00
          1   -1    0    0  501    0  0.00000000000E+00  0.00000000000E+00  0.47485342803E+01  0.47485365767E+01  0.46700000000E-02 0. -1.
         -1   -1    0    0    0  501 -0.00000000000E+00 -0.00000000000E+00 -0.21060562678E+02  0.21060563195E+02  0.46700000000E-02 0.  1.
       1023    2    1    2    0    0  0.00000000000E+00  0.00000000000E+00 -0.16312028397E+02  0.25809099772E+02  0.20000684004E+02 0.  0.
        -11    1    3    3    0    0  0.14454911603E+01 -0.98951571938E+01 -0.80823442087E+01  0.12857988519E+02  0.51100000000E-03 0. -1.
         11    1    3    3    0    0 -0.14454911603E+01  0.98951571938E+01 -0.82296841887E+01  0.12951111253E+02  0.51100000000E-03 0.  1.
<mgrwt>
<rscale>  0 0.20000684E+02</rscale>
<asrwt>0</asrwt>
<pdfrwt beam="1">  1        1 0.73054397E-03 0.20000684E+02</pdfrwt>
<pdfrwt beam="2">  1       -1 0.32400867E-02 0.20000684E+02</pdfrwt>
<totfact> 0.37307298E+06</totfact>
</mgrwt>
</event>
<event>
 5    1  0.9583198E-007  0.2000094E+02  0.7818608E-02  0.1745309E+00
          1   -1    0    0  501    0  0.00000000000E+00  0.00000000000E+00  0.68249351246E+01  0.68249367223E+01  0.46700000000E-02 0.  1.
         -1   -1    0    0    0  501 -0.00000000000E+00 -0.00000000000E+00 -0.14653528314E+02  0.14653529058E+02  0.46700000000E-02 0. -1.
       1023    2    1    2    0    0  0.00000000000E+00  0.00000000000E+00 -0.78285931895E+01  0.21478465781E+02  0.20000940502E+02 0.  0.
        -11    1    3    3    0    0  0.98954679063E+01 -0.14440156506E+01 -0.38469013973E+01  0.10714668306E+02  0.51100000000E-03 0. -1.
         11    1    3    3    0    0 -0.98954679063E+01  0.14440156506E+01 -0.39816917923E+01  0.10763797475E+02  0.51100000000E-03 0.  1.
<mgrwt>
<rscale>  0 0.20000941E+02</rscale>
<asrwt>0</asrwt>
<pdfrwt beam="1">  1        1 0.10499902E-02 0.20000941E+02</pdfrwt>
<pdfrwt beam="2">  1       -1 0.22543891E-02 0.20000941E+02</pdfrwt>
<totfact> 0.37996859E+06</totfact>
</mgrwt>
</event>
<event>
 5    1  0.9583198E-007  0.2000253E+02  0.7818608E-02  0.1745278E+00
          1   -1    0    0  501    0  0.00000000000E+00  0.00000000000E+00  0.13335340152E+01  0.13335421923E+01  0.46700000000E-02 0. -1.
         -1   -1    0    0    0  501 -0.00000000000E+00 -0.00000000000E+00 -0.75007426616E+02  0.75007426762E+02  0.46700000000E-02 0.  1.
       1023    2    1    2    0    0  0.00000000000E+00  0.00000000000E+00 -0.73673892601E+02  0.76340968954E+02  0.20002527086E+02 0.  0.
        -11    1    3    3    0    0 -0.90501103040E+01 -0.42549547114E+01 -0.37321756645E+02  0.38638357307E+02  0.51100000000E-03 0. -1.
         11    1    3    3    0    0  0.90501103040E+01  0.42549547114E+01 -0.36352135956E+02  0.37702611646E+02  0.51100000000E-03 0.  1.
<mgrwt>
<rscale>  0 0.20002527E+02</rscale>
<asrwt>0</asrwt>
<pdfrwt beam="1">  1        1 0.20515978E-03 0.20002527E+02</pdfrwt>
<pdfrwt beam="2">  1       -1 0.11539601E-01 0.20002527E+02</pdfrwt>
<totfact> 0.33283120E+06</totfact>
</mgrwt>
</event>
<event>
 5    1  0.9594937E-007  0.2000259E+02  0.7818608E-02  0.1745277E+00
         -1   -1    0    0    0  501 -0.00000000000E+00  0.00000000000E+00  0.12444418909E+01  0.12444506534E+01  0.46700000000E-02 0. -1.
          1   -1    0    0  501    0  0.00000000000E+00 -0.00000000000E+00 -0.80377833574E+02  0.80377833710E+02  0.46700000000E-02 0.  1.
       1023    2    1    2    0    0  0.00000000000E+00  0.00000000000E+00 -0.79133391683E+02  0.81622284363E+02  0.20002590466E+02 0.  0.
        -11    1    3    3    0    0  0.23178750006E+01  0.97288412017E+01 -0.39790587079E+02  0.41028206346E+02  0.51100000000E-03 0. -1.
         11    1    3    3    0    0 -0.23178750006E+01 -0.97288412017E+01 -0.39342804605E+02  0.40594078017E+02  0.51100000000E-03 0.  1.
<mgrwt>
<rscale>  0 0.20002590E+02</rscale>
<asrwt>0</asrwt>
<pdfrwt beam="2">  1        1 0.12365817E-01 0.20002590E+02</pdfrwt>
<pdfrwt beam="1">  1       -1 0.19145335E-03 0.20002590E+02</pdfrwt>
<totfact> 0.43366473E+06</totfact>
</mgrwt>
</event>
<event>
 5    1  0.9583198E-007  0.2000767E+02  0.7818608E-02  0.1745176E+00
         -1   -1    0    0    0  501 -0.00000000000E+00  0.00000000000E+00  0.58451023873E+02  0.58451024060E+02  0.46700000000E-02 0.  1.
          1   -1    0    0  501    0  0.00000000000E+00 -0.00000000000E+00 -0.17121433652E+01  0.17121497341E+01  0.46700000000E-02 0. -1.
       1023    2    1    2    0    0  0.00000000000E+00  0.00000000000E+00  0.56738880508E+02  0.60163173794E+02  0.20007671520E+02 0.  0.
        -11    1    3    3    0    0 -0.12318796535E+01 -0.99274697801E+01  0.28166697232E+02  0.29890383353E+02  0.51100000000E-03 0. -1.
         11    1    3    3    0    0  0.12318796535E+01  0.99274697801E+01  0.28572183276E+02  0.30272790442E+02  0.51100000000E-03 0.  1.
<mgrwt>
<rscale>  0 0.20007672E+02</rscale>
<asrwt>0</asrwt>
<pdfrwt beam="2">  1        1 0.26340714E-03 0.20007672E+02</pdfrwt>
<pdfrwt beam="1">  1       -1 0.89924671E-02 0.20007672E+02</pdfrwt>
<totfact> 0.34317522E+06</totfact>
</mgrwt>
</event>
<event>
 5    1  0.1015599E-006  0.2000112E+02  0.7818608E-02  0.1745306E+00
          1   -1    0    0  501    0  0.00000000000E+00  0.00000000000E+00  0.20815246857E+02  0.20815247380E+02  0.46700000000E-02 0. -1.
         -1   -1    0    0    0  501 -0.00000000000E+00 -0.00000000000E+00 -0.48047084472E+01  0.48047107167E+01  0.46700000000E-02 0.  1.
       1023    2    1    2    0    0  0.00000000000E+00  0.00000000000E+00  0.16010538409E+02  0.25619958097E+02  0.20001122787E+02 0.  0.
        -11    1    3    3    0    0 -0.70739867466E-01 -0.99999277726E+01  0.81174386807E+01  0.12880076497E+02  0.51100000000E-03 0. -1.
         11    1    3    3    0    0  0.70739867466E-01  0.99999277726E+01  0.78930997287E+01  0.12739881600E+02  0.51100000000E-03 0.  1.
<mgrwt>
<rscale>  0 0.20001123E+02</rscale>
<asrwt>0</asrwt>
<pdfrwt beam="1">  1        1 0.32023459E-02 0.20001123E+02</pdfrwt>
<pdfrwt beam="2">  1       -1 0.73918613E-03 0.20001123E+02</pdfrwt>
<totfact> 0.39768433E+06</totfact>
</mgrwt>
</event>
<event>
 5    1  0.9583198E-007  0.2000048E+02  0.7818608E-02  0.1745319E+00
         -1   -1    0    0    0  501 -0.00000000000E+00  0.00000000000E+00  0.39592726230E+02  0.39592726506E+02  0.46700000000E-02 0. -1.
          1   -1    0    0  501    0  0.00000000000E+00 -0.00000000000E+00 -0.25258350179E+01  0.25258393351E+01  0.46700000000E-02 0.  1.
       1023    2    1    2    0    0  0.00000000000E+00  0.00000000000E+00  0.37066891212E+02  0.42118565841E+02  0.20000479103E+02 0.  0.
        -11    1    3    3    0    0 -0.99523386604E+01  0.97581181493E+00  0.18658693361E+02  0.21169508537E+02  0.51100000000E-03 0.  1.
         11    1    3    3    0    0  0.99523386604E+01 -0.97581181493E+00  0.18408197852E+02  0.20949057304E+02  0.51100000000E-03 0. -1.
<mgrwt>
<rscale>  0 0.20000479E+02</rscale>
<asrwt>0</asrwt>
<pdfrwt beam="2">  1        1 0.38859038E-03 0.20000479E+02</pdfrwt>
<pdfrwt beam="1">  1       -1 0.60911886E-02 0.20000479E+02</pdfrwt>
<totfact> 0.35700853E+06</totfact>
</mgrwt>
</event>
<event>
 5    1  0.9583198E-007  0.2000124E+02  0.7818608E-02  0.1745303E+00
         -1   -1    0    0    0  501 -0.00000000000E+00  0.00000000000E+00  0.11065534916E+03  0.11065534926E+03  0.46700000000E-02 0. -1.
          1   -1    0    0  501    0  0.00000000000E+00 -0.00000000000E+00 -0.90381252753E+00  0.90382459240E+00  0.46700000000E-02 0.  1.
       1023    2    1    2    0    0  0.00000000000E+00  0.00000000000E+00  0.10975153664E+03  0.11155917385E+03  0.20001236890E+02 0.  0.
        -11    1    3    3    0    0 -0.98109079187E+01 -0.19364689157E+01  0.55391297079E+02  0.56286762373E+02  0.51100000000E-03 0.  1.
         11    1    3    3    0    0  0.98109079187E+01  0.19364689157E+01  0.54360239557E+02  0.55272411482E+02  0.51100000000E-03 0. -1.
<mgrwt>
<rscale>  0 0.20001237E+02</rscale>
<asrwt>0</asrwt>
<pdfrwt beam="2">  1        1 0.13904904E-03 0.20001237E+02</pdfrwt>
<pdfrwt beam="1">  1       -1 0.17023898E-01 0.20001237E+02</pdfrwt>
<totfact> 0.31303690E+06</totfact>
</mgrwt>
</event>
<event>
 4    1  0.9583198E-007  0.2001695E+02  0.7818608E-02  0.1744991E+00
         -1   -1    0    0    0  501 -0.00000000000E+00  0.00000000000E+00  0.17120860900E+01  0.17120924591E+01  0.46700000000E-02 0. -1.
          1   -1    0    0  501    0  0.00000000000E+00 -0.00000000000E+00 -0.58507231208E+02  0.58507231395E+02  0.46700000000E-02 0.  1.
        -11    1    1    2    0    0 -0.94535349870E+01  0.32785094920E+01 -0.29081387542E+02  0.30754593964E+02  0.51100000000E-03 0.  1.
         11    1    1    2    0    0  0.94535349870E+01 -0.32785094920E+01 -0.27713757576E+02  0.29464729890E+02  0.51100000000E-03 0. -1.
<mgrwt>
<rscale>  0 0.20016954E+02</rscale>
<asrwt>0</asrwt>
<pdfrwt beam="2">  1        1 0.90011114E-02 0.20016954E+02</pdfrwt>
<pdfrwt beam="1">  1       -1 0.26339841E-03 0.20016954E+02</pdfrwt>
<totfact> 0.42123621E+06</totfact>
</mgrwt>
</event>
<event>
 5    1  0.9583198E-007  0.2000013E+02  0.7818608E-02  0.1745326E+00
         -1   -1    0    0    0  501 -0.00000000000E+00  0.00000000000E+00  0.19273707574E+01  0.19273764150E+01  0.46700000000E-02 0. -1.
          1   -1    0    0  501    0  0.00000000000E+00 -0.00000000000E+00 -0.51884741588E+02  0.51884741799E+02  0.46700000000E-02 0.  1.
       1023    2    1    2    0    0  0.00000000000E+00  0.00000000000E+00 -0.49957370831E+02  0.53812118214E+02  0.20000129157E+02 0.  0.
        -11    1    3    3    0    0  0.47558607032E+01 -0.87967631654E+01 -0.24962079268E+02  0.26890642515E+02  0.51100000000E-03 0.  1.
         11    1    3    3    0    0 -0.47558607032E+01  0.87967631654E+01 -0.24995291563E+02  0.26921475698E+02  0.51100000000E-03 0. -1.
<mgrwt>
<rscale>  0 0.20000129E+02</rscale>
<asrwt>0</asrwt>
<pdfrwt beam="2">  1        1 0.79822673E-02 0.20000129E+02</pdfrwt>
<pdfrwt beam="1">  1       -1 0.29651907E-03 0.20000129E+02</pdfrwt>
<totfact> 0.41824166E+06</totfact>
</mgrwt>
</event>
<event>
 5    1  0.1117475E-006  0.2000355E+02  0.7818608E-02  0.1745257E+00
         -1   -1    0    0    0  501 -0.00000000000E+00  0.00000000000E+00  0.79762496452E+01  0.79762510124E+01  0.46700000000E-02 0. -1.
          1   -1    0    0  501    0  0.00000000000E+00 -0.00000000000E+00 -0.12541671788E+02  0.12541672658E+02  0.46700000000E-02 0.  1.
       1023    2    1    2    0    0  0.00000000000E+00  0.00000000000E+00 -0.45654221430E+01  0.20517923670E+02  0.20003552494E+02 0.  0.
        -11    1    3    3    0    0 -0.99996429362E+01  0.18203473121E+00 -0.23828553353E+01  0.10281244832E+02  0.51100000000E-03 0. -1.
         11    1    3    3    0    0  0.99996429362E+01 -0.18203473121E+00 -0.21825668077E+01  0.10236678838E+02  0.51100000000E-03 0.  1.
<mgrwt>
<rscale>  0 0.20003552E+02</rscale>
<asrwt>0</asrwt>
<pdfrwt beam="2">  1        1 0.19294882E-02 0.20003552E+02</pdfrwt>
<pdfrwt beam="1">  1       -1 0.12271155E-02 0.20003552E+02</pdfrwt>
<totfact> 0.38955058E+06</totfact>
</mgrwt>
</event>
<event>
 5    1  0.9746589E-007  0.2000095E+02  0.7818608E-02  0.1745309E+00
         -1   -1    0    0    0  501 -0.00000000000E+00  0.00000000000E+00  0.45816347758E+01  0.45816371558E+01  0.46700000000E-02 0.  1.
          1   -1    0    0  501    0  0.00000000000E+00 -0.00000000000E+00 -0.21828342801E+02  0.21828343301E+02  0.46700000000E-02 0. -1.
       1023    2    1    2    0    0  0.00000000000E+00  0.00000000000E+00 -0.17246708025E+02  0.26409980457E+02  0.20000953227E+02 0.  0.
        -11    1    3    3    0    0  0.78992742925E+01  0.61323425283E+01 -0.85265649927E+01  0.13141783367E+02  0.51100000000E-03 0.  1.
         11    1    3    3    0    0 -0.78992742925E+01 -0.61323425283E+01 -0.87201430328E+01  0.13268197090E+02  0.51100000000E-03 0. -1.
<mgrwt>
<rscale>  0 0.20000953E+02</rscale>
<asrwt>0</asrwt>
<pdfrwt beam="2">  1        1 0.33582067E-02 0.20000953E+02</pdfrwt>
<pdfrwt beam="1">  1       -1 0.70486712E-03 0.20000953E+02</pdfrwt>
<totfact> 0.39851019E+06</totfact>
</mgrwt>
</event>
<event>
 4    1  0.9583198E-007  0.2001907E+02  0.7818608E-02  0.1744949E+00
         -1   -1    0    0    0  501 -0.00000000000E+00  0.00000000000E+00  0.11947192413E+03  0.11947192422E+03  0.46700000000E-02 0.  1.
          1   -1    0    0  501    0  0.00000000000E+00 -0.00000000000E+00 -0.83860709330E+00  0.83862009625E+00  0.46700000000E-02 0. -1.
        -11    1    1    2    0    0  0.91583470219E+01  0.40365251440E+01  0.58426578649E+02  0.59277600730E+02  0.51100000000E-03 0.  1.
         11    1    1    2    0    0 -0.91583470219E+01 -0.40365251440E+01  0.60206738385E+02  0.61032943585E+02  0.51100000000E-03 0. -1.
<mgrwt>
<rscale>  0 0.20019070E+02</rscale>
<asrwt>0</asrwt>
<pdfrwt beam="2">  1        1 0.12901741E-03 0.20019070E+02</pdfrwt>
<pdfrwt beam="1">  1       -1 0.18380307E-01 0.20019070E+02</pdfrwt>
<totfact> 0.30798391E+06</totfact>
</mgrwt>
</event>
<event>
 5    1  0.9583198E-007  0.2000286E+02  0.7818608E-02  0.1745271E+00
          1   -1    0    0  501    0  0.00000000000E+00  0.00000000000E+00  0.48719570423E+01  0.48719592805E+01  0.46700000000E-02 0. -1.
         -1   -1    0    0    0  501 -0.00000000000E+00 -0.00000000000E+00 -0.20531501924E+02  0.20531502455E+02  0.46700000000E-02 0.  1.
       1023    2    1    2    0    0  0.00000000000E+00  0.00000000000E+00 -0.15659544881E+02  0.25403461735E+02  0.20002862851E+02 0.  0.
        -11    1    3    3    0    0  0.68632404960E+01 -0.72748220042E+01 -0.77801776782E+01  0.12671158995E+02  0.51100000000E-03 0.  1.
         11    1    3    3    0    0 -0.68632404960E+01  0.72748220042E+01 -0.78793672032E+01  0.12732302741E+02  0.51100000000E-03 0. -1.
<mgrwt>
<rscale>  0 0.20002863E+02</rscale>
<asrwt>0</asrwt>
<pdfrwt beam="1">  1        1 0.74953208E-03 0.20002863E+02</pdfrwt>
<pdfrwt beam="2">  1       -1 0.31586928E-02 0.20002863E+02</pdfrwt>
<totfact> 0.37351265E+06</totfact>
</mgrwt>
</event>
<event>
 5    1  0.9583198E-007  0.2000045E+02  0.7818608E-02  0.1745319E+00
          1   -1    0    0  501    0  0.00000000000E+00  0.00000000000E+00  0.86211474260E+02  0.86211474386E+02  0.46700000000E-02 0. -1.
         -1   -1    0    0    0  501 -0.00000000000E+00 -0.00000000000E+00 -0.11599854074E+01  0.11599948079E+01  0.46700000000E-02 0.  1.
       1023    2    1    2    0    0  0.00000000000E+00  0.00000000000E+00  0.85051488852E+02  0.87371469194E+02  0.20000446823E+02 0.  0.
        -11    1    3    3    0    0 -0.76261121847E+01  0.64689031682E+01  0.42583164187E+02  0.43741629688E+02  0.51100000000E-03 0. -1.
         11    1    3    3    0    0  0.76261121847E+01 -0.64689031682E+01  0.42468324665E+02  0.43629839507E+02  0.51100000000E-03 0.  1.
<mgrwt>
<rscale>  0 0.20000447E+02</rscale>
<asrwt>0</asrwt>
<pdfrwt beam="1">  1        1 0.13263306E-01 0.20000447E+02</pdfrwt>
<pdfrwt beam="2">  1       -1 0.17846001E-03 0.20000447E+02</pdfrwt>
<totfact> 0.43674808E+06</totfact>
</mgrwt>
</event>
<event>
 5    1  0.9860446E-007  0.2000131E+02  0.7818608E-02  0.1745302E+00
         -1   -1    0    0    0  501 -0.00000000000E+00  0.00000000000E+00  0.18301829783E+01  0.18301889364E+01  0.46700000000E-02 0. -1.
          1   -1    0    0  501    0  0.00000000000E+00 -0.00000000000E+00 -0.54646407146E+02  0.54646407346E+02  0.46700000000E-02 0.  1.
       1023    2    1    2    0    0  0.00000000000E+00  0.00000000000E+00 -0.52816224168E+02  0.56476596282E+02  0.20001309764E+02 0.  0.
        -11    1    3    3    0    0  0.99102860902E+01  0.13377795819E+01 -0.26130399653E+02  0.27978584862E+02  0.51100000000E-03 0.  1.
         11    1    3    3    0    0 -0.99102860902E+01 -0.13377795819E+01 -0.26685824515E+02  0.28498011420E+02  0.51100000000E-03 0. -1.
<mgrwt>
<rscale>  0 0.20001310E+02</rscale>
<asrwt>0</asrwt>
<pdfrwt beam="2">  1        1 0.84071388E-02 0.20001310E+02</pdfrwt>
<pdfrwt beam="1">  1       -1 0.28156713E-03 0.20001310E+02</pdfrwt>
<totfact> 0.41977813E+06</totfact>
</mgrwt>
</event>
<event>
 5    1  0.9656704E-007  0.2000103E+02  0.7818608E-02  0.1745308E+00
          1   -1    0    0  501    0  0.00000000000E+00  0.00000000000E+00  0.38081102209E+02  0.38081102495E+02  0.46700000000E-02 0. -1.
         -1   -1    0    0    0  501 -0.00000000000E+00 -0.00000000000E+00 -0.26262430928E+01  0.26262472449E+01  0.46700000000E-02 0.  1.
       1023    2    1    2    0    0  0.00000000000E+00  0.00000000000E+00  0.35454859116E+02  0.40707349740E+02  0.20001032171E+02 0.  0.
        -11    1    3    3    0    0  0.84676819757E+01 -0.53201813515E+01  0.17593132100E+02  0.20236705883E+02  0.51100000000E-03 0.  1.
         11    1    3    3    0    0 -0.84676819757E+01  0.53201813515E+01  0.17861727016E+02  0.20470643857E+02  0.51100000000E-03 0. -1.
<mgrwt>
<rscale>  0 0.20001032E+02</rscale>
<asrwt>0</asrwt>
<pdfrwt beam="1">  1        1 0.58586313E-02 0.20001032E+02</pdfrwt>
<pdfrwt beam="2">  1       -1 0.40403775E-03 0.20001032E+02</pdfrwt>
<totfact> 0.40984805E+06</totfact>
</mgrwt>
</event>
<event>
 5    1  0.9583198E-007  0.2000099E+02  0.7818608E-02  0.1745308E+00
         -1   -1    0    0    0  501 -0.00000000000E+00  0.00000000000E+00  0.58477360286E+02  0.58477360472E+02  0.46700000000E-02 0. -1.
          1   -1    0    0  501    0  0.00000000000E+00 -0.00000000000E+00 -0.17102286373E+01  0.17102350133E+01  0.46700000000E-02 0.  1.
       1023    2    1    2    0    0  0.00000000000E+00  0.00000000000E+00  0.56767131649E+02  0.60187595486E+02  0.20000985344E+02 0.  0.
        -11    1    3    3    0    0 -0.95590829396E+01 -0.29382969908E+01  0.28425863590E+02  0.30133691725E+02  0.51100000000E-03 0.  1.
         11    1    3    3    0    0  0.95590829396E+01  0.29382969908E+01  0.28341268058E+02  0.30053903761E+02  0.51100000000E-03 0. -1.
<mgrwt>
<rscale>  0 0.20000985E+02</rscale>
<asrwt>0</asrwt>
<pdfrwt beam="2">  1        1 0.26311259E-03 0.20000985E+02</pdfrwt>
<pdfrwt beam="1">  1       -1 0.89965178E-02 0.20000985E+02</pdfrwt>
<totfact> 0.34340964E+06</totfact>
</mgrwt>
</event>
<event>
 5    1  0.9583198E-007  0.2000054E+02  0.7818608E-02  0.1745317E+00
         -1   -1    0    0    0  501 -0.00000000000E+00  0.00000000000E+00  0.88325364484E+00  0.88326599053E+00  0.46700000000E-02 0. -1.
          1   -1    0    0  501    0  0.00000000000E+00 -0.00000000000E+00 -0.11322302072E+03  0.11322302082E+03  0.46700000000E-02 0.  1.
       1023    2    1    2    0    0  0.00000000000E+00  0.00000000000E+00 -0.11233976708E+03  0.11410628681E+03  0.20000535552E+02 0.  0.
        -11    1    3    3    0    0 -0.70754588558E+01  0.70668157411E+01 -0.55839545964E+02  0.56727919903E+02  0.51100000000E-03 0. -1.
         11    1    3    3    0    0  0.70754588558E+01 -0.70668157411E+01 -0.56500221112E+02  0.57378366905E+02  0.51100000000E-03 0.  1.
<mgrwt>
<rscale>  0 0.20000536E+02</rscale>
<asrwt>0</asrwt>
<pdfrwt beam="2">  1        1 0.17418916E-01 0.20000536E+02</pdfrwt>
<pdfrwt beam="1">  1       -1 0.13588622E-03 0.20000536E+02</pdfrwt>
<totfact> 0.44985554E+06</totfact>
</mgrwt>
</event>
<event>
 4    1  0.9583198E-007  0.2001686E+02  0.7818608E-02  0.1744993E+00
          1   -1    0    0  501    0  0.00000000000E+00  0.00000000000E+00  0.12315538634E+01  0.12315627176E+01  0.46700000000E-02 0.  1.
         -1   -1    0    0    0  501 -0.00000000000E+00 -0.00000000000E+00 -0.81334871105E+02  0.81334871239E+02  0.46700000000E-02 0. -1.
        -11    1    1    2    0    0 -0.19784269570E+01 -0.98088806376E+01 -0.39223263276E+02  0.40479534271E+02  0.51100000000E-03 0. -1.
         11    1    1    2    0    0  0.19784269570E+01  0.98088806376E+01 -0.40880053966E+02  0.42086899685E+02  0.51100000000E-03 0.  1.
<mgrwt>
<rscale>  0 0.20016857E+02</rscale>
<asrwt>0</asrwt>
<pdfrwt beam="1">  1        1 0.18947058E-03 0.20016857E+02</pdfrwt>
<pdfrwt beam="2">  1       -1 0.12513054E-01 0.20016857E+02</pdfrwt>
<totfact> 0.32854066E+06</totfact>
</mgrwt>
</event>
<event>
 5    1  0.9583198E-007  0.2000052E+02  0.7818608E-02  0.1745318E+00
         -1   -1    0    0    0  501 -0.00000000000E+00  0.00000000000E+00  0.31251740131E+01  0.31251775023E+01  0.46700000000E-02 0. -1.
          1   -1    0    0  501    0  0.00000000000E+00 -0.00000000000E+00 -0.31999872210E+02  0.31999872551E+02  0.46700000000E-02 0.  1.
       1023    2    1    2    0    0  0.00000000000E+00  0.00000000000E+00 -0.28874698197E+02  0.35125050053E+02  0.20000523625E+02 0.  0.
        -11    1    3    3    0    0 -0.26515288674E+01 -0.96421010244E+01 -0.14319296524E+02  0.17465479401E+02  0.51100000000E-03 0. -1.
         11    1    3    3    0    0  0.26515288674E+01  0.96421010244E+01 -0.14555401673E+02  0.17659570652E+02  0.51100000000E-03 0.  1.
<mgrwt>
<rscale>  0 0.20000524E+02</rscale>
<asrwt>0</asrwt>
<pdfrwt beam="2">  1        1 0.49230573E-02 0.20000524E+02</pdfrwt>
<pdfrwt beam="1">  1       -1 0.48079632E-03 0.20000524E+02</pdfrwt>
<totfact> 0.40590367E+06</totfact>
</mgrwt>
</event>
<event>
 4    1  0.9583198E-007  0.2002358E+02  0.7818608E-02  0.1744860E+00
          1   -1    0    0  501    0  0.00000000000E+00  0.00000000000E+00  0.39392051512E+02  0.39392051788E+02  0.46700000000E-02 0.  1.
         -1   -1    0    0    0  501 -0.00000000000E+00 -0.00000000000E+00 -0.25445698841E+01  0.25445741695E+01  0.46700000000E-02 0. -1.
        -11    1    1    2    0    0  0.75232741901E+01 -0.66013255415E+01  0.17916014951E+02  0.20522201281E+02  0.51100000000E-03 0.  1.
         11    1    1    2    0    0 -0.75232741901E+01  0.66013255415E+01  0.18931466677E+02  0.21414424677E+02  0.51100000000E-03 0. -1.
<mgrwt>
<rscale>  0 0.20023578E+02</rscale>
<asrwt>0</asrwt>
<pdfrwt beam="1">  1        1 0.60603156E-02 0.20023578E+02</pdfrwt>
<pdfrwt beam="2">  1       -1 0.39147266E-03 0.20023578E+02</pdfrwt>
<totfact> 0.40964624E+06</totfact>
</mgrwt>
</event>
<event>
 4    1  0.9583198E-007  0.2007535E+02  0.7818608E-02  0.1743834E+00
          1   -1    0    0  501    0  0.00000000000E+00  0.00000000000E+00  0.14870176275E+02  0.14870177008E+02  0.46700000000E-02 0.  1.
         -1   -1    0    0    0  501 -0.00000000000E+00 -0.00000000000E+00 -0.67756362045E+01  0.67756378139E+01  0.46700000000E-02 0. -1.
        -11    1    1    2    0    0 -0.80760766546E+01  0.59598987723E+01  0.41630093231E+01  0.10866188586E+02  0.51100000000E-03 0.  1.
         11    1    1    2    0    0  0.80760766546E+01 -0.59598987723E+01  0.39315307473E+01  0.10779626236E+02  0.51100000000E-03 0. -1.
<mgrwt>
<rscale>  0 0.20075351E+02</rscale>
<asrwt>0</asrwt>
<pdfrwt beam="1">  1        1 0.22877196E-02 0.20075351E+02</pdfrwt>
<pdfrwt beam="2">  1       -1 0.10424058E-02 0.20075351E+02</pdfrwt>
<totfact> 0.38900424E+06</totfact>
</mgrwt>
</event>
<event>
 5    1  0.9763089E-007  0.2000191E+02  0.7818608E-02  0.1745290E+00
          1   -1    0    0  501    0  0.00000000000E+00  0.00000000000E+00  0.46721283535E+02  0.46721283768E+02  0.46700000000E-02 0. -1.
         -1   -1    0    0    0  501 -0.00000000000E+00 -0.00000000000E+00 -0.21407581582E+01  0.21407632520E+01  0.46700000000E-02 0.  1.
       1023    2    1    2    0    0  0.00000000000E+00  0.00000000000E+00  0.44580525377E+02  0.48862047020E+02  0.20001909813E+02 0.  0.
        -11    1    3    3    0    0 -0.32392750194E+01  0.94610181430E+01  0.21987782379E+02  0.24155047944E+02  0.51100000000E-03 0. -1.
         11    1    3    3    0    0  0.32392750194E+01 -0.94610181430E+01  0.22592742998E+02  0.24706999077E+02  0.51100000000E-03 0.  1.
<mgrwt>
<rscale>  0 0.20001910E+02</rscale>
<asrwt>0</asrwt>
<pdfrwt beam="1">  1        1 0.71878888E-02 0.20001910E+02</pdfrwt>
<pdfrwt beam="2">  1       -1 0.32934788E-03 0.20001910E+02</pdfrwt>
<totfact> 0.41511998E+06</totfact>
</mgrwt>
</event>
<event>
 5    1  0.9583198E-007  0.2000023E+02  0.7818608E-02  0.1745323E+00
          1   -1    0    0  501    0  0.00000000000E+00  0.00000000000E+00  0.51495876653E+02  0.51495876865E+02  0.46700000000E-02 0. -1.
         -1   -1    0    0    0  501 -0.00000000000E+00 -0.00000000000E+00 -0.19419451542E+01  0.19419507694E+01  0.46700000000E-02 0.  1.
       1023    2    1    2    0    0  0.00000000000E+00  0.00000000000E+00  0.49553931499E+02  0.53437827634E+02  0.20000232381E+02 0.  0.
        -11    1    3    3    0    0 -0.98966398535E+01 -0.14347382933E+01  0.24828304338E+02  0.26766521083E+02  0.51100000000E-03 0.  1.
         11    1    3    3    0    0  0.98966398535E+01  0.14347382933E+01  0.24725627161E+02  0.26671306551E+02  0.51100000000E-03 0. -1.
<mgrwt>
<rscale>  0 0.20000232E+02</rscale>
<asrwt>0</asrwt>
<pdfrwt beam="1">  1        1 0.79224433E-02 0.20000232E+02</pdfrwt>
<pdfrwt beam="2">  1       -1 0.29876123E-03 0.20000232E+02</pdfrwt>
<totfact> 0.41801096E+06</totfact>
</mgrwt>
</event>
<event>
 5    1  0.9640825E-007  0.2000061E+02  0.7818608E-02  0.1745316E+00
          1   -1    0    0  501    0  0.00000000000E+00  0.00000000000E+00  0.29412431212E+02  0.29412431583E+02  0.46700000000E-02 0.  1.
         -1   -1    0    0    0  501 -0.00000000000E+00 -0.00000000000E+00 -0.34001278861E+01  0.34001310932E+01  0.46700000000E-02 0. -1.
       1023    2    1    2    0    0  0.00000000000E+00  0.00000000000E+00  0.26012303326E+02  0.32812562676E+02  0.20000608617E+02 0.  0.
        -11    1    3    3    0    0 -0.44485754760E+01 -0.89561327044E+01  0.13109250192E+02  0.16488013150E+02  0.51100000000E-03 0. -1.
         11    1    3    3    0    0  0.44485754760E+01  0.89561327044E+01  0.12903053135E+02  0.16324549526E+02  0.51100000000E-03 0.  1.
<mgrwt>
<rscale>  0 0.20000609E+02</rscale>
<asrwt>0</asrwt>
<pdfrwt beam="1">  1        1 0.45249896E-02 0.20000609E+02</pdfrwt>
<pdfrwt beam="2">  1       -1 0.52309689E-03 0.20000609E+02</pdfrwt>
<totfact> 0.40413316E+06</totfact>
</mgrwt>
</event>
<event>
 5    1  0.9583198E-007  0.2000084E+02  0.7818608E-02  0.1745311E+00
          1   -1    0    0  501    0  0.00000000000E+00  0.00000000000E+00  0.97822688992E+00  0.97823803701E+00  0.46700000000E-02 0. -1.
         -1   -1    0    0    0  501 -0.00000000000E+00 -0.00000000000E+00 -0.10223372157E+03  0.10223372168E+03  0.46700000000E-02 0.  1.
       1023    2    1    2    0    0  0.00000000000E+00  0.00000000000E+00 -0.10125549468E+03  0.10321195972E+03  0.20000835609E+02 0.  0.
        -11    1    3    3    0    0  0.99963294016E+01  0.27870071793E+00 -0.50957382406E+02  0.51929366427E+02  0.51100000000E-03 0. -1.
         11    1    3    3    0    0 -0.99963294016E+01 -0.27870071793E+00 -0.50298112276E+02  0.51282593289E+02  0.51100000000E-03 0.  1.
<mgrwt>
<rscale>  0 0.20000836E+02</rscale>
<asrwt>0</asrwt>
<pdfrwt beam="1">  1        1 0.15049739E-03 0.20000836E+02</pdfrwt>
<pdfrwt beam="2">  1       -1 0.15728257E-01 0.20000836E+02</pdfrwt>
<totfact> 0.31745532E+06</totfact>
</mgrwt>
</event>
<event>
 4    1  0.9583198E-007  0.2003507E+02  0.7818608E-02  0.1744632E+00
         -1   -1    0    0    0  501 -0.00000000000E+00  0.00000000000E+00  0.52626765209E+02  0.52626765417E+02  0.46700000000E-02 0. -1.
          1   -1    0    0  501    0  0.00000000000E+00 -0.00000000000E+00 -0.19068410125E+01  0.19068467311E+01  0.46700000000E-02 0.  1.
        -11    1    1    2    0    0 -0.30597282592E+01  0.95212128288E+01  0.23783122798E+02  0.25800239554E+02  0.51100000000E-03 0.  1.
         11    1    1    2    0    0  0.30597282592E+01 -0.95212128288E+01  0.26936801399E+02  0.28733372593E+02  0.51100000000E-03 0. -1.
<mgrwt>
<rscale>  0 0.20035073E+02</rscale>
<asrwt>0</asrwt>
<pdfrwt beam="2">  1        1 0.29336061E-03 0.20035073E+02</pdfrwt>
<pdfrwt beam="1">  1       -1 0.80964260E-02 0.20035073E+02</pdfrwt>
<totfact> 0.34610976E+06</totfact>
</mgrwt>
</event>
<event>
 5    1  0.9583198E-007  0.2000289E+02  0.7818608E-02  0.1745271E+00
          1   -1    0    0  501    0  0.00000000000E+00  0.00000000000E+00  0.47385119104E+01  0.47385142116E+01  0.46700000000E-02 0. -1.
         -1   -1    0    0    0  501 -0.00000000000E+00 -0.00000000000E+00 -0.21109755415E+02  0.21109755931E+02  0.46700000000E-02 0.  1.
       1023    2    1    2    0    0  0.00000000000E+00  0.00000000000E+00 -0.16371243504E+02  0.25848270143E+02  0.20002886179E+02 0.  0.
        -11    1    3    3    0    0 -0.71804414850E+01 -0.69620012364E+01 -0.81523615664E+01  0.12903069422E+02  0.51100000000E-03 0.  1.
         11    1    3    3    0    0  0.71804414850E+01  0.69620012364E+01 -0.82188819379E+01  0.12945200721E+02  0.51100000000E-03 0. -1.
<mgrwt>
<rscale>  0 0.20002886E+02</rscale>
<asrwt>0</asrwt>
<pdfrwt beam="1">  1        1 0.72900206E-03 0.20002886E+02</pdfrwt>
<pdfrwt beam="2">  1       -1 0.32476548E-02 0.20002886E+02</pdfrwt>
<totfact> 0.37293383E+06</totfact>
</mgrwt>
</event>
<event>
 5    1  0.9583198E-007  0.2000351E+02  0.7818608E-02  0.1745258E+00
          1   -1    0    0  501    0  0.00000000000E+00  0.00000000000E+00  0.54158439138E+01  0.54158459273E+01  0.46700000000E-02 0.  1.
         -1   -1    0    0    0  501 -0.00000000000E+00 -0.00000000000E+00 -0.18470821087E+02  0.18470821677E+02  0.46700000000E-02 0. -1.
       1023    2    1    2    0    0  0.00000000000E+00  0.00000000000E+00 -0.13054977173E+02  0.23886667604E+02  0.20003511198E+02 0.  0.
        -11    1    3    3    0    0  0.11204493405E+00 -0.10000792262E+02 -0.64296369109E+01  0.11889854120E+02  0.51100000000E-03 0.  1.
         11    1    3    3    0    0 -0.11204493405E+00  0.10000792262E+02 -0.66253402621E+01  0.11996813484E+02  0.51100000000E-03 0. -1.
<mgrwt>
<rscale>  0 0.20003511E+02</rscale>
<asrwt>0</asrwt>
<pdfrwt beam="1">  1        1 0.83320697E-03 0.20003511E+02</pdfrwt>
<pdfrwt beam="2">  1       -1 0.28416650E-02 0.20003511E+02</pdfrwt>
<totfact> 0.37560650E+06</totfact>
</mgrwt>
</event>
<event>
 5    1  0.9675845E-007  0.2000079E+02  0.7818608E-02  0.1745312E+00
         -1   -1    0    0    0  501 -0.00000000000E+00  0.00000000000E+00  0.31266952838E+02  0.31266953187E+02  0.46700000000E-02 0. -1.
          1   -1    0    0  501    0  0.00000000000E+00 -0.00000000000E+00 -0.31985146963E+01  0.31985181056E+01  0.46700000000E-02 0.  1.
       1023    2    1    2    0    0  0.00000000000E+00  0.00000000000E+00  0.28068438142E+02  0.34465471293E+02  0.20000787277E+02 0.  0.
        -11    1    3    3    0    0  0.70533965761E+00  0.99753612159E+01  0.13947419403E+02  0.17162046606E+02  0.51100000000E-03 0.  1.
         11    1    3    3    0    0 -0.70533965761E+00 -0.99753612159E+01  0.14121018739E+02  0.17303424687E+02  0.51100000000E-03 0. -1.
<mgrwt>
<rscale>  0 0.20000787E+02</rscale>
<asrwt>0</asrwt>
<pdfrwt beam="2">  1        1 0.49207947E-03 0.20000787E+02</pdfrwt>
<pdfrwt beam="1">  1       -1 0.48103008E-02 0.20000787E+02</pdfrwt>
<totfact> 0.36374852E+06</totfact>
</mgrwt>
</event>
<event>
 5    1  0.9583198E-007  0.2000264E+02  0.7818608E-02  0.1745276E+00
         -1   -1    0    0    0  501 -0.00000000000E+00  0.00000000000E+00  0.33942598238E+02  0.33942598559E+02  0.46700000000E-02 0.  1.
          1   -1    0    0  501    0  0.00000000000E+00 -0.00000000000E+00 -0.29469250970E+01  0.29469287972E+01  0.46700000000E-02 0. -1.
       1023    2    1    2    0    0  0.00000000000E+00  0.00000000000E+00  0.30995673141E+02  0.36889527357E+02  0.20002636704E+02 0.  0.
        -11    1    3    3    0    0  0.55453659413E+01 -0.83228824969E+01  0.15368581754E+02  0.18336159955E+02  0.51100000000E-03 0.  1.
         11    1    3    3    0    0 -0.55453659413E+01  0.83228824969E+01  0.15627091387E+02  0.18553367402E+02  0.51100000000E-03 0. -1.
<mgrwt>
<rscale>  0 0.20002637E+02</rscale>
<asrwt>0</asrwt>
<pdfrwt beam="2">  1        1 0.45337338E-03 0.20002637E+02</pdfrwt>
<pdfrwt beam="1">  1       -1 0.52219387E-02 0.20002637E+02</pdfrwt>
<totfact> 0.36143749E+06</totfact>
</mgrwt>
</event>
<event>
 4    1  0.9583198E-007  0.2002030E+02  0.7818608E-02  0.1744925E+00
          1   -1    0    0  501    0  0.00000000000E+00  0.00000000000E+00  0.16843182622E+01  0.16843247363E+01  0.46700000000E-02 0. -1.
         -1   -1    0    0    0  501 -0.00000000000E+00 -0.00000000000E+00 -0.59491675823E+02  0.59491676006E+02  0.46700000000E-02 0.  1.
        -11    1    1    2    0    0 -0.50703119821E+01  0.86203737125E+01 -0.30215185294E+02  0.31827289064E+02  0.51100000000E-03 0.  1.
         11    1    1    2    0    0  0.50703119821E+01 -0.86203737125E+01 -0.27592172266E+02  0.29348711678E+02  0.51100000000E-03 0. -1.
<mgrwt>
<rscale>  0 0.20020302E+02</rscale>
<asrwt>0</asrwt>
<pdfrwt beam="1">  1        1 0.25912644E-03 0.20020302E+02</pdfrwt>
<pdfrwt beam="2">  1       -1 0.91525644E-02 0.20020302E+02</pdfrwt>
<totfact> 0.34200652E+06</totfact>
</mgrwt>
</event>
<event>
 5    1  0.1003285E-006  0.2000087E+02  0.7818608E-02  0.1745311E+00
         -1   -1    0    0    0  501 -0.00000000000E+00  0.00000000000E+00  0.36419798858E+01  0.36419828799E+01  0.46700000000E-02 0. -1.
          1   -1    0    0  501    0  0.00000000000E+00 -0.00000000000E+00 -0.27459972375E+02  0.27459972772E+02  0.46700000000E-02 0.  1.
       1023    2    1    2    0    0  0.00000000000E+00  0.00000000000E+00 -0.23817992489E+02  0.31101955652E+02  0.20000871960E+02 0.  0.
        -11    1    3    3    0    0 -0.32645160765E+01  0.94525816913E+01 -0.11938240962E+02  0.15573373538E+02  0.51100000000E-03 0.  1.
         11    1    3    3    0    0  0.32645160765E+01 -0.94525816913E+01 -0.11879751527E+02  0.15528582114E+02  0.51100000000E-03 0. -1.
<mgrwt>
<rscale>  0 0.20000872E+02</rscale>
<asrwt>0</asrwt>
<pdfrwt beam="2">  1        1 0.42246113E-02 0.20000872E+02</pdfrwt>
<pdfrwt beam="1">  1       -1 0.56030488E-03 0.20000872E+02</pdfrwt>
<totfact> 0.40274757E+06</totfact>
</mgrwt>
</event>
<event>
 5    1  0.9583198E-007  0.2000346E+02  0.7818608E-02  0.1745259E+00
          1   -1    0    0  501    0  0.00000000000E+00  0.00000000000E+00  0.11571836470E+03  0.11571836479E+03  0.46700000000E-02 0. -1.
         -1   -1    0    0    0  501 -0.00000000000E+00 -0.00000000000E+00 -0.86445998948E+00  0.86447260357E+00  0.46700000000E-02 0.  1.
       1023    2    1    2    0    0  0.00000000000E+00  0.00000000000E+00  0.11485390471E+03  0.11658283740E+03  0.20003463412E+02 0.  0.
        -11    1    3    3    0    0  0.28189159759E+01 -0.95956228247E+01  0.58075217394E+02  0.58930069916E+02  0.51100000000E-03 0. -1.
         11    1    3    3    0    0 -0.28189159759E+01  0.95956228247E+01  0.56778687316E+02  0.57652767481E+02  0.51100000000E-03 0.  1.
<mgrwt>
<rscale>  0 0.20003463E+02</rscale>
<asrwt>0</asrwt>
<pdfrwt beam="1">  1        1 0.17802832E-01 0.20003463E+02</pdfrwt>
<pdfrwt beam="2">  1       -1 0.13299478E-03 0.20003463E+02</pdfrwt>
<totfact> 0.45086632E+06</totfact>
</mgrwt>
</event>
<event>
 5    1  0.9583198E-007  0.2000060E+02  0.7818608E-02  0.1745316E+00
          1   -1    0    0  501    0  0.00000000000E+00  0.00000000000E+00  0.49618163329E+01  0.49618185305E+01  0.46700000000E-02 0.  1.
         -1   -1    0    0    0  501 -0.00000000000E+00 -0.00000000000E+00 -0.20155115099E+02  0.20155115640E+02  0.46700000000E-02 0. -1.
       1023    2    1    2    0    0  0.00000000000E+00  0.00000000000E+00 -0.15193298766E+02  0.25116934171E+02  0.20000601359E+02 0.  0.
        -11    1    3    3    0    0 -0.77337705762E+01  0.63399372295E+01 -0.75948636486E+01  0.12557386890E+02  0.51100000000E-03 0.  1.
         11    1    3    3    0    0  0.77337705762E+01 -0.63399372295E+01 -0.75984351174E+01  0.12559547281E+02  0.51100000000E-03 0. -1.
<mgrwt>
<rscale>  0 0.20000601E+02</rscale>
<asrwt>0</asrwt>
<pdfrwt beam="1">  1        1 0.76335658E-03 0.20000601E+02</pdfrwt>
<pdfrwt beam="2">  1       -1 0.31007871E-02 0.20000601E+02</pdfrwt>
<totfact> 0.37398559E+06</totfact>
</mgrwt>
</event>
<event>
 5    1  0.9583198E-007  0.2000038E+02  0.7818608E-02  0.1745321E+00
         -1   -1    0    0    0  501 -0.00000000000E+00  0.00000000000E+00  0.11738381400E+02  0.11738382329E+02  0.46700000000E-02 0. -1.
          1   -1    0    0  501    0  0.00000000000E+00 -0.00000000000E+00 -0.85193815282E+01  0.85193828082E+01  0.46700000000E-02 0.  1.
       1023    2    1    2    0    0  0.00000000000E+00  0.00000000000E+00  0.32189998714E+01  0.20257765137E+02  0.20000377201E+02 0.  0.
        -11    1    3    3    0    0 -0.47409980532E+00 -0.99887740338E+01  0.15504881875E+01  0.10119505482E+02  0.51100000000E-03 0. -1.
         11    1    3    3    0    0  0.47409980532E+00  0.99887740338E+01  0.16685116839E+01  0.10138259655E+02  0.51100000000E-03 0.  1.
<mgrwt>
<rscale>  0 0.20000377E+02</rscale>
<asrwt>0</asrwt>
<pdfrwt beam="2">  1        1 0.13106742E-02 0.20000377E+02</pdfrwt>
<pdfrwt beam="1">  1       -1 0.18059050E-02 0.20000377E+02</pdfrwt>
<totfact> 0.38369772E+06</totfact>
</mgrwt>
</event>
<event>
 5    1  0.1005272E-006  0.2000172E+02  0.7818608E-02  0.1745294E+00
          1   -1    0    0  501    0  0.00000000000E+00  0.00000000000E+00  0.98451964088E+02  0.98451964199E+02  0.46700000000E-02 0.  1.
         -1   -1    0    0    0  501 -0.00000000000E+00 -0.00000000000E+00 -0.10158931361E+01  0.10159038699E+01  0.46700000000E-02 0. -1.
       1023    2    1    2    0    0  0.00000000000E+00  0.00000000000E+00  0.97436070952E+02  0.99467868069E+02  0.20001721315E+02 0.  0.
        -11    1    3    3    0    0 -0.62873525339E+01  0.77771169129E+01  0.48984183087E+02  0.49994645137E+02  0.51100000000E-03 0.  1.
         11    1    3    3    0    0  0.62873525339E+01 -0.77771169129E+01  0.48451887865E+02  0.49473222932E+02  0.51100000000E-03 0. -1.
<mgrwt>
<rscale>  0 0.20001721E+02</rscale>
<asrwt>0</asrwt>
<pdfrwt beam="1">  1        1 0.15146461E-01 0.20001721E+02</pdfrwt>
<pdfrwt beam="2">  1       -1 0.15629205E-03 0.20001721E+02</pdfrwt>
<totfact> 0.44276992E+06</totfact>
</mgrwt>
</event>
<event>
 5    1  0.9978611E-007  0.2000125E+02  0.7818608E-02  0.1745303E+00
          1   -1    0    0  501    0  0.00000000000E+00  0.00000000000E+00  0.32045317742E+02  0.32045318082E+02  0.46700000000E-02 0.  1.
         -1   -1    0    0    0  501 -0.00000000000E+00 -0.00000000000E+00 -0.31209688899E+01  0.31209723838E+01  0.46700000000E-02 0. -1.
       1023    2    1    2    0    0  0.00000000000E+00  0.00000000000E+00  0.28924348852E+02  0.35166290466E+02  0.20001250677E+02 0.  0.
        -11    1    3    3    0    0 -0.66604197161E+01  0.74597269062E+01  0.14570423130E+02  0.17672180023E+02  0.51100000000E-03 0.  1.
         11    1    3    3    0    0  0.66604197161E+01 -0.74597269062E+01  0.14353925722E+02  0.17494110444E+02  0.51100000000E-03 0. -1.
<mgrwt>
<rscale>  0 0.20001251E+02</rscale>
<asrwt>0</asrwt>
<pdfrwt beam="1">  1        1 0.49300493E-02 0.20001251E+02</pdfrwt>
<pdfrwt beam="2">  1       -1 0.48014934E-03 0.20001251E+02</pdfrwt>
<totfact> 0.40590129E+06</totfact>
</mgrwt>
</event>
<event>
 5    1  0.9583198E-007  0.2000347E+02  0.7818608E-02  0.1745259E+00
          1   -1    0    0  501    0  0.00000000000E+00  0.00000000000E+00  0.14555381406E+02  0.14555382155E+02  0.46700000000E-02 0. -1.
         -1   -1    0    0    0  501 -0.00000000000E+00 -0.00000000000E+00 -0.68726959520E+01  0.68726975387E+01  0.46700000000E-02 0.  1.
       1023    2    1    2    0    0  0.00000000000E+00  0.00000000000E+00  0.76826854539E+01  0.21428079694E+02  0.20003473288E+02 0.  0.
        -11    1    3    3    0    0 -0.45107628910E+01  0.89261761636E+01  0.39543695284E+01  0.10754563747E+02  0.51100000000E-03 0.  1.
         11    1    3    3    0    0  0.45107628910E+01 -0.89261761636E+01  0.37283159255E+01  0.10673515947E+02  0.51100000000E-03 0. -1.
<mgrwt>
<rscale>  0 0.20003473E+02</rscale>
<asrwt>0</asrwt>
<pdfrwt beam="1">  1        1 0.22392896E-02 0.20003473E+02</pdfrwt>
<pdfrwt beam="2">  1       -1 0.10573380E-02 0.20003473E+02</pdfrwt>
<totfact> 0.39182899E+06</totfact>
</mgrwt>
</event>
<event>
 5    1  0.9583198E-007  0.2000122E+02  0.7818608E-02  0.1745304E+00
         -1   -1    0    0    0  501 -0.00000000000E+00  0.00000000000E+00  0.33738334373E+02  0.33738334696E+02  0.46700000000E-02 0.  1.
          1   -1    0    0  501    0  0.00000000000E+00 -0.00000000000E+00 -0.29643463974E+01  0.29643500759E+01  0.46700000000E-02 0. -1.
       1023    2    1    2    0    0  0.00000000000E+00  0.00000000000E+00  0.30773987976E+02  0.36702684772E+02  0.20001218302E+02 0.  0.
        -11    1    3    3    0    0  0.94718593643E+01 -0.32086971302E+01  0.15353859893E+02  0.18323560543E+02  0.51100000000E-03 0.  1.
         11    1    3    3    0    0 -0.94718593643E+01  0.32086971302E+01  0.15420128082E+02  0.18379124229E+02  0.51100000000E-03 0. -1.
<mgrwt>
<rscale>  0 0.20001218E+02</rscale>
<asrwt>0</asrwt>
<pdfrwt beam="2">  1        1 0.45605359E-03 0.20001218E+02</pdfrwt>
<pdfrwt beam="1">  1       -1 0.51905134E-02 0.20001218E+02</pdfrwt>
<totfact> 0.36166225E+06</totfact>
</mgrwt>
</event>
<event>
 5    1  0.9848980E-007  0.2000077E+02  0.7818608E-02  0.1745313E+00
         -1   -1    0    0    0  501 -0.00000000000E+00  0.00000000000E+00  0.12711096446E+01  0.12711182232E+01  0.46700000000E-02 0.  1.
          1   -1    0    0  501    0  0.00000000000E+00 -0.00000000000E+00 -0.78677163935E+02  0.78677164074E+02  0.46700000000E-02 0. -1.
       1023    2    1    2    0    0  0.00000000000E+00  0.00000000000E+00 -0.77406054291E+02  0.79948282297E+02  0.20000765020E+02 0.  0.
        -11    1    3    3    0    0  0.97601010378E+01  0.21779686515E+01 -0.38972075013E+02  0.40234633723E+02  0.51100000000E-03 0. -1.
         11    1    3    3    0    0 -0.97601010378E+01 -0.21779686515E+01 -0.38433979277E+02  0.39713648574E+02  0.51100000000E-03 0.  1.
<mgrwt>
<rscale>  0 0.20000765E+02</rscale>
<asrwt>0</asrwt>
<pdfrwt beam="2">  1        1 0.12104176E-01 0.20000765E+02</pdfrwt>
<pdfrwt beam="1">  1       -1 0.19555606E-03 0.20000765E+02</pdfrwt>
<totfact> 0.43287326E+06</totfact>
</mgrwt>
</event>
<event>
 5    1  0.9583198E-007  0.2000009E+02  0.7818608E-02  0.1745326E+00
          1   -1    0    0  501    0  0.00000000000E+00  0.00000000000E+00  0.14977037778E+01  0.14977110586E+01  0.46700000000E-02 0. -1.
         -1   -1    0    0    0  501 -0.00000000000E+00 -0.00000000000E+00 -0.66769313805E+02  0.66769313968E+02  0.46700000000E-02 0.  1.
       1023    2    1    2    0    0  0.00000000000E+00  0.00000000000E+00 -0.65271610027E+02  0.68267025027E+02  0.20000090762E+02 0.  0.
        -11    1    3    3    0    0  0.59633723637E+01 -0.80273620057E+01 -0.32555273421E+02  0.34056514480E+02  0.51100000000E-03 0. -1.
         11    1    3    3    0    0 -0.59633723637E+01  0.80273620057E+01 -0.32716336606E+02  0.34210510547E+02  0.51100000000E-03 0.  1.
<mgrwt>
<rscale>  0 0.20000091E+02</rscale>
<asrwt>0</asrwt>
<pdfrwt beam="1">  1        1 0.23041659E-03 0.20000091E+02</pdfrwt>
<pdfrwt beam="2">  1       -1 0.10272200E-01 0.20000091E+02</pdfrwt>
<totfact> 0.33803479E+06</totfact>
</mgrwt>
</event>
<event>
 5    1  0.9774181E-007  0.2000162E+02  0.7818608E-02  0.1745296E+00
         -1   -1    0    0    0  501 -0.00000000000E+00  0.00000000000E+00  0.13348047090E+02  0.13348047907E+02  0.46700000000E-02 0. -1.
          1   -1    0    0  501    0  0.00000000000E+00 -0.00000000000E+00 -0.74929448800E+01  0.74929463353E+01  0.46700000000E-02 0.  1.
       1023    2    1    2    0    0  0.00000000000E+00  0.00000000000E+00  0.58551022099E+01  0.20840994242E+02  0.20001620412E+02 0.  0.
        -11    1    3    3    0    0 -0.92412393525E+01  0.38226613992E+01  0.29842360624E+01  0.10436422284E+02  0.51100000000E-03 0.  1.
         11    1    3    3    0    0  0.92412393525E+01 -0.38226613992E+01  0.28708661475E+01  0.10404571959E+02  0.51100000000E-03 0. -1.
<mgrwt>
<rscale>  0 0.20001620E+02</rscale>
<asrwt>0</asrwt>
<pdfrwt beam="2">  1        1 0.11527609E-02 0.20001620E+02</pdfrwt>
<pdfrwt beam="1">  1       -1 0.20535459E-02 0.20001620E+02</pdfrwt>
<totfact> 0.38153630E+06</totfact>
</mgrwt>
</event>
<event>
 5    1  0.9583198E-007  0.2000347E+02  0.7818608E-02  0.1745259E+00
          1   -1    0    0  501    0  0.00000000000E+00  0.00000000000E+00  0.24677258742E+01  0.24677302930E+01  0.46700000000E-02 0. -1.
         -1   -1    0    0    0  501 -0.00000000000E+00 -0.00000000000E+00 -0.40537178918E+02  0.40537179187E+02  0.46700000000E-02 0.  1.
       1023    2    1    2    0    0  0.00000000000E+00  0.00000000000E+00 -0.38069453044E+02  0.43004909480E+02  0.20003474306E+02 0.  0.
        -11    1    3    3    0    0 -0.96149858826E+01 -0.27528844421E+01 -0.18837458376E+02  0.21327826063E+02  0.51100000000E-03 0. -1.
         11    1    3    3    0    0  0.96149858826E+01  0.27528844421E+01 -0.19231994668E+02  0.21677083416E+02  0.51100000000E-03 0.  1.
<mgrwt>
<rscale>  0 0.20003474E+02</rscale>
<asrwt>0</asrwt>
<pdfrwt beam="1">  1        1 0.37965053E-03 0.20003474E+02</pdfrwt>
<pdfrwt beam="2">  1       -1 0.62364889E-02 0.20003474E+02</pdfrwt>
<totfact> 0.35616044E+06</totfact>
</mgrwt>
</event>
<event>
 5    1  0.9583198E-007  0.2000053E+02  0.7818608E-02  0.1745318E+00
         -1   -1    0    0    0  501 -0.00000000000E+00  0.00000000000E+00  0.45000552170E+01  0.45000576402E+01  0.46700000000E-02 0. -1.
          1   -1    0    0  501    0  0.00000000000E+00 -0.00000000000E+00 -0.22223120973E+02  0.22223121464E+02  0.46700000000E-02 0.  1.
       1023    2    1    2    0    0  0.00000000000E+00  0.00000000000E+00 -0.17723065756E+02  0.26723179104E+02  0.20000531034E+02 0.  0.
        -11    1    3    3    0    0 -0.62759260020E+01  0.77856166916E+01 -0.87983567639E+01  0.13319690554E+02  0.51100000000E-03 0.  1.
         11    1    3    3    0    0  0.62759260020E+01 -0.77856166916E+01 -0.89247089922E+01  0.13403488550E+02  0.51100000000E-03 0. -1.
<mgrwt>
<rscale>  0 0.20000531E+02</rscale>
<asrwt>0</asrwt>
<pdfrwt beam="2">  1        1 0.34189418E-02 0.20000531E+02</pdfrwt>
<pdfrwt beam="1">  1       -1 0.69231643E-03 0.20000531E+02</pdfrwt>
<totfact> 0.39884223E+06</totfact>
</mgrwt>
</event>
<event>
 5    1  0.9583198E-007  0.2000043E+02  0.7818608E-02  0.1745320E+00
         -1   -1    0    0    0  501 -0.00000000000E+00  0.00000000000E+00  0.34556132673E+01  0.34556164229E+01  0.46700000000E-02 0. -1.
          1   -1    0    0  501    0  0.00000000000E+00 -0.00000000000E+00 -0.28939646150E+02  0.28939646526E+02  0.46700000000E-02 0.  1.
       1023    2    1    2    0    0  0.00000000000E+00  0.00000000000E+00 -0.25484032882E+02  0.32395262949E+02  0.20000428236E+02 0.  0.
        -11    1    3    3    0    0  0.92036194220E+01  0.39112235800E+01 -0.12739854379E+02  0.16195930668E+02  0.51100000000E-03 0. -1.
         11    1    3    3    0    0 -0.92036194220E+01 -0.39112235800E+01 -0.12744178503E+02  0.16199332281E+02  0.51100000000E-03 0.  1.
<mgrwt>
<rscale>  0 0.20000428E+02</rscale>
<asrwt>0</asrwt>
<pdfrwt beam="2">  1        1 0.44522534E-02 0.20000428E+02</pdfrwt>
<pdfrwt beam="1">  1       -1 0.53163310E-03 0.20000428E+02</pdfrwt>
<totfact> 0.40381214E+06</totfact>
</mgrwt>
</event>
<event>
 5    1  0.9599893E-007  0.2000064E+02  0.7818608E-02  0.1745315E+00
          1   -1    0    0  501    0  0.00000000000E+00  0.00000000000E+00  0.40338442368E+01  0.40338469400E+01  0.46700000000E-02 0.  1.
         -1   -1    0    0    0  501 -0.00000000000E+00 -0.00000000000E+00 -0.24791827830E+02  0.24791828270E+02  0.46700000000E-02 0. -1.
       1023    2    1    2    0    0  0.00000000000E+00  0.00000000000E+00 -0.20757983593E+02  0.28825675210E+02  0.20000641701E+02 0.  0.
        -11    1    3    3    0    0 -0.80428185678E+01 -0.59425196653E+01 -0.10490129477E+02  0.14492870219E+02  0.51100000000E-03 0. -1.
         11    1    3    3    0    0  0.80428185678E+01  0.59425196653E+01 -0.10267854116E+02  0.14332804991E+02  0.51100000000E-03 0.  1.
<mgrwt>
<rscale>  0 0.20000642E+02</rscale>
<asrwt>0</asrwt>
<pdfrwt beam="1">  1        1 0.62059167E-03 0.20000642E+02</pdfrwt>
<pdfrwt beam="2">  1       -1 0.38141275E-02 0.20000642E+02</pdfrwt>
<totfact> 0.36949446E+06</totfact>
</mgrwt>
</event>
<event>
 5    1  0.9583198E-007  0.2000804E+02  0.7818608E-02  0.1745168E+00
         -1   -1    0    0    0  501 -0.00000000000E+00  0.00000000000E+00  0.30650074318E+02  0.30650074674E+02  0.46700000000E-02 0.  1.
          1   -1    0    0  501    0  0.00000000000E+00 -0.00000000000E+00 -0.32652572604E+01  0.32652605999E+01  0.46700000000E-02 0. -1.
       1023    2    1    2    0    0  0.00000000000E+00  0.00000000000E+00  0.27384817058E+02  0.33915335274E+02  0.20008042419E+02 0.  0.
        -11    1    3    3    0    0  0.63486635497E+01  0.77307964839E+01  0.13525488183E+02  0.16822888396E+02  0.51100000000E-03 0.  1.
         11    1    3    3    0    0 -0.63486635497E+01 -0.77307964839E+01  0.13859328875E+02  0.17092446877E+02  0.51100000000E-03 0. -1.
<mgrwt>
<rscale>  0 0.20008042E+02</rscale>
<asrwt>0</asrwt>
<pdfrwt beam="2">  1        1 0.50234756E-03 0.20008042E+02</pdfrwt>
<pdfrwt beam="1">  1       -1 0.47153963E-02 0.20008042E+02</pdfrwt>
<totfact> 0.36398414E+06</totfact>
</mgrwt>
</event>
<event>
 5    1  0.1037285E-006  0.2000125E+02  0.7818608E-02  0.1745303E+00
          1   -1    0    0  501    0  0.00000000000E+00  0.00000000000E+00  0.79894827905E+02  0.79894828042E+02  0.46700000000E-02 0. -1.
         -1   -1    0    0    0  501 -0.00000000000E+00 -0.00000000000E+00 -0.12517970918E+01  0.12518058028E+01  0.46700000000E-02 0.  1.
       1023    2    1    2    0    0  0.00000000000E+00  0.00000000000E+00  0.78643030814E+02  0.81146633845E+02  0.20001247181E+02 0.  0.
        -11    1    3    3    0    0  0.15396759020E+01  0.98808789654E+01  0.38913765427E+02  0.40178147182E+02  0.51100000000E-03 0.  1.
         11    1    3    3    0    0 -0.15396759020E+01 -0.98808789654E+01  0.39729265387E+02  0.40968486663E+02  0.51100000000E-03 0. -1.
<mgrwt>
<rscale>  0 0.20001247E+02</rscale>
<asrwt>0</asrwt>
<pdfrwt beam="1">  1        1 0.12291515E-01 0.20001247E+02</pdfrwt>
<pdfrwt beam="2">  1       -1 0.19258481E-03 0.20001247E+02</pdfrwt>
<totfact> 0.43348005E+06</totfact>
</mgrwt>
</event>
<event>
 4    1  0.9583198E-007  0.2001391E+02  0.7818608E-02  0.1745052E+00
         -1   -1    0    0    0  501 -0.00000000000E+00  0.00000000000E+00  0.23954537989E+01  0.23954583510E+01  0.46700000000E-02 0.  1.
          1   -1    0    0  501    0  0.00000000000E+00 -0.00000000000E+00 -0.41803800457E+02  0.41803800718E+02  0.46700000000E-02 0. -1.
        -11    1    1    2    0    0  0.92162824580E+01  0.38966704070E+01 -0.19431219396E+02  0.21856262033E+02  0.51100000000E-03 0. -1.
         11    1    1    2    0    0 -0.92162824580E+01 -0.38966704070E+01 -0.19977127262E+02  0.22342997035E+02  0.51100000000E-03 0.  1.
<mgrwt>
<rscale>  0 0.20013913E+02</rscale>
<asrwt>0</asrwt>
<pdfrwt beam="2">  1        1 0.64313538E-02 0.20013913E+02</pdfrwt>
<pdfrwt beam="1">  1       -1 0.36853175E-03 0.20013913E+02</pdfrwt>
<totfact> 0.41158623E+06</totfact>
</mgrwt>
</event>
<event>
 5    1  0.9583198E-007  0.2000054E+02  0.7818608E-02  0.1745317E+00
          1   -1    0    0  501    0  0.00000000000E+00  0.00000000000E+00  0.65741257774E+02  0.65741257940E+02  0.46700000000E-02 0.  1.
         -1   -1    0    0    0  501 -0.00000000000E+00 -0.00000000000E+00 -0.15211927891E+01  0.15211999574E+01  0.46700000000E-02 0. -1.
       1023    2    1    2    0    0  0.00000000000E+00  0.00000000000E+00  0.64220064985E+02  0.67262457898E+02  0.20000537386E+02 0.  0.
        -11    1    3    3    0    0  0.99769782396E+01 -0.68202440602E+00  0.32147115215E+02  0.33666634358E+02  0.51100000000E-03 0.  1.
         11    1    3    3    0    0 -0.99769782396E+01  0.68202440602E+00  0.32072949770E+02  0.33595823540E+02  0.51100000000E-03 0. -1.
<mgrwt>
<rscale>  0 0.20000537E+02</rscale>
<asrwt>0</asrwt>
<pdfrwt beam="1">  1        1 0.10114038E-01 0.20000537E+02</pdfrwt>
<pdfrwt beam="2">  1       -1 0.23403027E-03 0.20000537E+02</pdfrwt>
<totfact> 0.42601051E+06</totfact>
</mgrwt>
</event>
<event>
 5    1  0.9792924E-007  0.2000216E+02  0.7818608E-02  0.1745285E+00
          1   -1    0    0  501    0  0.00000000000E+00  0.00000000000E+00  0.20833270893E+02  0.20833271416E+02  0.46700000000E-02 0.  1.
         -1   -1    0    0    0  501 -0.00000000000E+00 -0.00000000000E+00 -0.48010511059E+01  0.48010533772E+01  0.46700000000E-02 0. -1.
       1023    2    1    2    0    0  0.00000000000E+00  0.00000000000E+00  0.16032219787E+02  0.25634324794E+02  0.20002163291E+02 0.  0.
        -11    1    3    3    0    0  0.80447862143E+01  0.59403284010E+01  0.78563126575E+01  0.12717222007E+02  0.51100000000E-03 0.  1.
         11    1    3    3    0    0 -0.80447862143E+01 -0.59403284010E+01  0.81759071297E+01  0.12917102787E+02  0.51100000000E-03 0. -1.
<mgrwt>
<rscale>  0 0.20002163E+02</rscale>
<asrwt>0</asrwt>
<pdfrwt beam="1">  1        1 0.32051188E-02 0.20002163E+02</pdfrwt>
<pdfrwt beam="2">  1       -1 0.73862346E-03 0.20002163E+02</pdfrwt>
<totfact> 0.39765271E+06</totfact>
</mgrwt>
</event>
<event>
 4    1  0.9583198E-007  0.2002532E+02  0.7818608E-02  0.1744825E+00
          1   -1    0    0  501    0  0.00000000000E+00  0.00000000000E+00  0.24279370848E+01  0.24279415761E+01  0.46700000000E-02 0. -1.
         -1   -1    0    0    0  501 -0.00000000000E+00 -0.00000000000E+00 -0.41291534302E+02  0.41291534567E+02  0.46700000000E-02 0.  1.
        -11    1    1    2    0    0 -0.47412589183E+01 -0.88157850527E+01 -0.18916316499E+02  0.21401510049E+02  0.51100000000E-03 0. -1.
         11    1    1    2    0    0  0.47412589183E+01  0.88157850527E+01 -0.19947280719E+02  0.22317966094E+02  0.51100000000E-03 0.  1.
<mgrwt>
<rscale>  0 0.20025319E+02</rscale>
<asrwt>0</asrwt>
<pdfrwt beam="1">  1        1 0.37352918E-03 0.20025319E+02</pdfrwt>
<pdfrwt beam="2">  1       -1 0.63525436E-02 0.20025319E+02</pdfrwt>
<totfact> 0.35472880E+06</totfact>
</mgrwt>
</event>
<event>
 5    1  0.1010153E-006  0.2000163E+02  0.7818608E-02  0.1745296E+00
         -1   -1    0    0    0  501 -0.00000000000E+00  0.00000000000E+00  0.19870885281E+01  0.19870940158E+01  0.46700000000E-02 0. -1.
          1   -1    0    0  501    0  0.00000000000E+00 -0.00000000000E+00 -0.50333010500E+02  0.50333010716E+02  0.46700000000E-02 0.  1.
       1023    2    1    2    0    0  0.00000000000E+00  0.00000000000E+00 -0.48345921972E+02  0.52320104732E+02  0.20001629631E+02 0.  0.
        -11    1    3    3    0    0  0.34936321742E+01 -0.93698957002E+01 -0.24502649538E+02  0.26464698106E+02  0.51100000000E-03 0. -1.
         11    1    3    3    0    0 -0.34936321742E+01  0.93698957002E+01 -0.23843272434E+02  0.25855406627E+02  0.51100000000E-03 0.  1.
<mgrwt>
<rscale>  0 0.20001630E+02</rscale>
<asrwt>0</asrwt>
<pdfrwt beam="2">  1        1 0.77435396E-02 0.20001630E+02</pdfrwt>
<pdfrwt beam="1">  1       -1 0.30570640E-03 0.20001630E+02</pdfrwt>
<totfact> 0.41726780E+06</totfact>
</mgrwt>
</event>
<event>
 5    1  0.1005559E-006  0.2000169E+02  0.7818608E-02  0.1745294E+00
          1   -1    0    0  501    0  0.00000000000E+00  0.00000000000E+00  0.21635010278E+02  0.21635010782E+02  0.46700000000E-02 0.  1.
         -1   -1    0    0    0  501 -0.00000000000E+00 -0.00000000000E+00 -0.46229178440E+01  0.46229202028E+01  0.46700000000E-02 0. -1.
       1023    2    1    2    0    0  0.00000000000E+00  0.00000000000E+00  0.17012092434E+02  0.26257930984E+02  0.20001691194E+02 0.  0.
        -11    1    3    3    0    0 -0.34243962094E+01 -0.93959065099E+01  0.83933923114E+01  0.13055978833E+02  0.51100000000E-03 0. -1.
         11    1    3    3    0    0  0.34243962094E+01  0.93959065099E+01  0.86187001221E+01  0.13201952151E+02  0.51100000000E-03 0.  1.
<mgrwt>
<rscale>  0 0.20001691E+02</rscale>
<asrwt>0</asrwt>
<pdfrwt beam="1">  1        1 0.33284633E-02 0.20001691E+02</pdfrwt>
<pdfrwt beam="2">  1       -1 0.71121836E-03 0.20001691E+02</pdfrwt>
<totfact> 0.39832276E+06</totfact>
</mgrwt>
</event>
<event>
 5    1  0.9583198E-007  0.2001081E+02  0.7818608E-02  0.1745113E+00
         -1   -1    0    0    0  501 -0.00000000000E+00  0.00000000000E+00  0.18501404543E+01  0.18501463482E+01  0.46700000000E-02 0. -1.
          1   -1    0    0  501    0  0.00000000000E+00 -0.00000000000E+00 -0.54108285733E+02  0.54108285934E+02  0.46700000000E-02 0.  1.
       1023    2    1    2    0    0  0.00000000000E+00  0.00000000000E+00 -0.52258145278E+02  0.55958432282E+02  0.20010806969E+02 0.  0.
        -11    1    3    3    0    0  0.31867358034E+01 -0.94842477478E+01 -0.26008527980E+02  0.27866642574E+02  0.51100000000E-03 0. -1.
         11    1    3    3    0    0 -0.31867358034E+01  0.94842477478E+01 -0.26249617299E+02  0.28091789708E+02  0.51100000000E-03 0.  1.
<mgrwt>
<rscale>  0 0.20010807E+02</rscale>
<asrwt>0</asrwt>
<pdfrwt beam="2">  1        1 0.83243509E-02 0.20010807E+02</pdfrwt>
<pdfrwt beam="1">  1       -1 0.28463750E-03 0.20010807E+02</pdfrwt>
<totfact> 0.41902783E+06</totfact>
</mgrwt>
</event>
<event>
 5    1  0.9583198E-007  0.2001022E+02  0.7818608E-02  0.1745125E+00
         -1   -1    0    0    0  501 -0.00000000000E+00  0.00000000000E+00  0.12168663059E+01  0.12168752670E+01  0.46700000000E-02 0.  1.
          1   -1    0    0  501    0  0.00000000000E+00 -0.00000000000E+00 -0.82261951610E+02  0.82261951743E+02  0.46700000000E-02 0. -1.
       1023    2    1    2    0    0  0.00000000000E+00  0.00000000000E+00 -0.81045085305E+02  0.83478827010E+02  0.20010215065E+02 0.  0.
        -11    1    3    3    0    0  0.27167328196E+01 -0.96290637079E+01 -0.40738164030E+02  0.41948748657E+02  0.51100000000E-03 0.  1.
         11    1    3    3    0    0 -0.27167328196E+01  0.96290637079E+01 -0.40306921274E+02  0.41530078353E+02  0.51100000000E-03 0. -1.
<mgrwt>
<rscale>  0 0.20010215E+02</rscale>
<asrwt>0</asrwt>
<pdfrwt beam="2">  1        1 0.12655681E-01 0.20010215E+02</pdfrwt>
<pdfrwt beam="1">  1       -1 0.18721096E-03 0.20010215E+02</pdfrwt>
<totfact> 0.43426636E+06</totfact>
</mgrwt>
</event>
<event>
 5    1  0.9583198E-007  0.2000183E+02  0.7818608E-02  0.1745292E+00
         -1   -1    0    0    0  501 -0.00000000000E+00  0.00000000000E+00  0.76179787537E+02  0.76179787680E+02  0.46700000000E-02 0.  1.
          1   -1    0    0  501    0  0.00000000000E+00 -0.00000000000E+00 -0.13129203222E+01  0.13129286277E+01  0.46700000000E-02 0. -1.
       1023    2    1    2    0    0  0.00000000000E+00  0.00000000000E+00  0.74866867215E+02  0.77492716308E+02  0.20001831771E+02 0.  0.
        -11    1    3    3    0    0 -0.90129301246E+01 -0.43339373413E+01  0.37623074924E+02  0.38929573454E+02  0.51100000000E-03 0. -1.
         11    1    3    3    0    0  0.90129301246E+01  0.43339373413E+01  0.37243792291E+02  0.38563142854E+02  0.51100000000E-03 0.  1.
<mgrwt>
<rscale>  0 0.20001832E+02</rscale>
<asrwt>0</asrwt>
<pdfrwt beam="2">  1        1 0.20198841E-03 0.20001832E+02</pdfrwt>
<pdfrwt beam="1">  1       -1 0.11719967E-01 0.20001832E+02</pdfrwt>
<totfact> 0.33214751E+06</totfact>
</mgrwt>
</event>
<event>
 5    1  0.9583198E-007  0.2000732E+02  0.7818608E-02  0.1745183E+00
          1   -1    0    0  501    0  0.00000000000E+00  0.00000000000E+00  0.22121099101E+02  0.22121099594E+02  0.46700000000E-02 0. -1.
         -1   -1    0    0    0  501 -0.00000000000E+00 -0.00000000000E+00 -0.45238789847E+01  0.45238813951E+01  0.46700000000E-02 0.  1.
       1023    2    1    2    0    0  0.00000000000E+00  0.00000000000E+00  0.17597220116E+02  0.26644980989E+02  0.20007320063E+02 0.  0.
        -11    1    3    3    0    0 -0.23866686644E+01  0.97142942555E+01  0.86687133514E+01  0.13236702445E+02  0.51100000000E-03 0. -1.
         11    1    3    3    0    0  0.23866686644E+01 -0.97142942555E+01  0.89285067650E+01  0.13408278544E+02  0.51100000000E-03 0.  1.
<mgrwt>
<rscale>  0 0.20007320E+02</rscale>
<asrwt>0</asrwt>
<pdfrwt beam="1">  1        1 0.34032462E-02 0.20007320E+02</pdfrwt>
<pdfrwt beam="2">  1       -1 0.69598162E-03 0.20007320E+02</pdfrwt>
<totfact> 0.39845852E+06</totfact>
</mgrwt>
</event>
<event>
 5    1  0.9583198E-007  0.2000108E+02  0.7818608E-02  0.1745307E+00
         -1   -1    0    0    0  501 -0.00000000000E+00  0.00000000000E+00  0.86292534862E+01  0.86292547499E+01  0.46700000000E-02 0.  1.
          1   -1    0    0  501    0  0.00000000000E+00 -0.00000000000E+00 -0.11589737739E+02  0.11589738680E+02  0.46700000000E-02 0. -1.
       1023    2    1    2    0    0  0.00000000000E+00  0.00000000000E+00 -0.29604842527E+01  0.20218993430E+02  0.20001080678E+02 0.  0.
        -11    1    3    3    0    0  0.88804307235E+01 -0.45978981064E+01 -0.15711664059E+01  0.10122809934E+02  0.51100000000E-03 0.  1.
         11    1    3    3    0    0 -0.88804307235E+01  0.45978981064E+01 -0.13893178468E+01  0.10096183495E+02  0.51100000000E-03 0. -1.
<mgrwt>
<rscale>  0 0.20001081E+02</rscale>
<asrwt>0</asrwt>
<pdfrwt beam="2">  1        1 0.17830367E-02 0.20001081E+02</pdfrwt>
<pdfrwt beam="1">  1       -1 0.13275776E-02 0.20001081E+02</pdfrwt>
<totfact> 0.38845703E+06</totfact>
</mgrwt>
</event>
<event>
 5    1  0.9583198E-007  0.2000048E+02  0.7818608E-02  0.1745319E+00
         -1   -1    0    0    0  501 -0.00000000000E+00  0.00000000000E+00  0.19957742540E+02  0.19957743086E+02  0.46700000000E-02 0.  1.
          1   -1    0    0  501    0  0.00000000000E+00 -0.00000000000E+00 -0.50108263204E+01  0.50108284966E+01  0.46700000000E-02 0. -1.
       1023    2    1    2    0    0  0.00000000000E+00  0.00000000000E+00  0.14946916219E+02  0.24968571583E+02  0.20000481555E+02 0.  0.
        -11    1    3    3    0    0  0.99676630807E+01  0.80631746023E+00  0.74971515503E+01  0.12498469377E+02  0.51100000000E-03 0. -1.
         11    1    3    3    0    0 -0.99676630807E+01 -0.80631746023E+00  0.74497646688E+01  0.12470102206E+02  0.51100000000E-03 0.  1.
<mgrwt>
<rscale>  0 0.20000482E+02</rscale>
<asrwt>0</asrwt>
<pdfrwt beam="2">  1        1 0.77089657E-03 0.20000482E+02</pdfrwt>
<pdfrwt beam="1">  1       -1 0.30704221E-02 0.20000482E+02</pdfrwt>
<totfact> 0.37419114E+06</totfact>
</mgrwt>
</event>
<event>
 5    1  0.9583198E-007  0.2000016E+02  0.7818608E-02  0.1745325E+00
          1   -1    0    0  501    0  0.00000000000E+00  0.00000000000E+00  0.77306597437E+02  0.77306597578E+02  0.46700000000E-02 0.  1.
         -1   -1    0    0    0  501 -0.00000000000E+00 -0.00000000000E+00 -0.12935675367E+01  0.12935759664E+01  0.46700000000E-02 0. -1.
       1023    2    1    2    0    0  0.00000000000E+00  0.00000000000E+00  0.76013029901E+02  0.78600173545E+02  0.20000164164E+02 0.  0.
        -11    1    3    3    0    0 -0.79210311500E+01 -0.61039684537E+01  0.38092258892E+02  0.39383008431E+02  0.51100000000E-03 0.  1.
         11    1    3    3    0    0  0.79210311500E+01  0.61039684537E+01  0.37920771009E+02  0.39217165114E+02  0.51100000000E-03 0. -1.
<mgrwt>
<rscale>  0 0.20000164E+02</rscale>
<asrwt>0</asrwt>
<pdfrwt beam="1">  1        1 0.11893331E-01 0.20000164E+02</pdfrwt>
<pdfrwt beam="2">  1       -1 0.19901092E-03 0.20000164E+02</pdfrwt>
<totfact> 0.43218984E+06</totfact>
</mgrwt>
</event>
<event>
 5    1  0.9583198E-007  0.2000353E+02  0.7818608E-02  0.1745258E+00
          1   -1    0    0  501    0  0.00000000000E+00  0.00000000000E+00  0.29650215344E+02  0.29650215712E+02  0.46700000000E-02 0.  1.
         -1   -1    0    0    0  501 -0.00000000000E+00 -0.00000000000E+00 -0.33738462117E+01  0.33738494438E+01  0.46700000000E-02 0. -1.
       1023    2    1    2    0    0  0.00000000000E+00  0.00000000000E+00  0.26276369132E+02  0.33024065156E+02  0.20003532304E+02 0.  0.
        -11    1    3    3    0    0  0.16452698995E+01  0.98655161388E+01  0.13134813941E+02  0.16509350661E+02  0.51100000000E-03 0.  1.
         11    1    3    3    0    0 -0.16452698995E+01 -0.98655161388E+01  0.13141555191E+02  0.16514714494E+02  0.51100000000E-03 0. -1.
<mgrwt>
<rscale>  0 0.20003532E+02</rscale>
<asrwt>0</asrwt>
<pdfrwt beam="1">  1        1 0.45615719E-02 0.20003532E+02</pdfrwt>
<pdfrwt beam="2">  1       -1 0.51905354E-03 0.20003532E+02</pdfrwt>
<totfact> 0.40416596E+06</totfact>
</mgrwt>
</event>
<event>
 5    1  0.9583198E-007  0.2000058E+02  0.7818608E-02  0.1745317E+00
         -1   -1    0    0    0  501 -0.00000000000E+00  0.00000000000E+00  0.44936632399E+02  0.44936632641E+02  0.46700000000E-02 0. -1.
          1   -1    0    0  501    0  0.00000000000E+00 -0.00000000000E+00 -0.22254812347E+01  0.22254861345E+01  0.46700000000E-02 0.  1.
       1023    2    1    2    0    0  0.00000000000E+00  0.00000000000E+00  0.42711151164E+02  0.47162118776E+02  0.20000575333E+02 0.  0.
        -11    1    3    3    0    0 -0.85482388681E+01  0.51897113276E+01  0.21393725318E+02  0.23615608708E+02  0.51100000000E-03 0. -1.
         11    1    3    3    0    0  0.85482388681E+01 -0.51897113276E+01  0.21317425846E+02  0.23546510068E+02  0.51100000000E-03 0.  1.
<mgrwt>
<rscale>  0 0.20000575E+02</rscale>
<asrwt>0</asrwt>
<pdfrwt beam="2">  1        1 0.34238215E-03 0.20000575E+02</pdfrwt>
<pdfrwt beam="1">  1       -1 0.69133279E-02 0.20000575E+02</pdfrwt>
<totfact> 0.35295006E+06</totfact>
</mgrwt>
</event>
<event>
 5    1  0.9668613E-007  0.2000081E+02  0.7818608E-02  0.1745312E+00
         -1   -1    0    0    0  501 -0.00000000000E+00  0.00000000000E+00  0.26788984665E+02  0.26788985072E+02  0.46700000000E-02 0. -1.
          1   -1    0    0  501    0  0.00000000000E+00 -0.00000000000E+00 -0.37331793656E+01  0.37331822866E+01  0.46700000000E-02 0.  1.
       1023    2    1    2    0    0  0.00000000000E+00  0.00000000000E+00  0.23055805299E+02  0.30522167358E+02  0.20000813540E+02 0.  0.
        -11    1    3    3    0    0  0.14707869749E+01 -0.98915734174E+01  0.11465050517E+02  0.15213606496E+02  0.51100000000E-03 0. -1.
         11    1    3    3    0    0 -0.14707869749E+01  0.98915734174E+01  0.11590754782E+02  0.15308560862E+02  0.51100000000E-03 0.  1.
<mgrwt>
<rscale>  0 0.20000814E+02</rscale>
<asrwt>0</asrwt>
<pdfrwt beam="2">  1        1 0.57433556E-03 0.20000814E+02</pdfrwt>
<pdfrwt beam="1">  1       -1 0.41213824E-02 0.20000814E+02</pdfrwt>
<totfact> 0.36766296E+06</totfact>
</mgrwt>
</event>
<event>
 5    1  0.9583198E-007  0.2000398E+02  0.7818608E-02  0.1745249E+00
         -1   -1    0    0    0  501 -0.00000000000E+00  0.00000000000E+00  0.14584109808E+01  0.14584184578E+01  0.46700000000E-02 0. -1.
          1   -1    0    0  501    0  0.00000000000E+00 -0.00000000000E+00 -0.68594885134E+02  0.68594885293E+02  0.46700000000E-02 0.  1.
       1023    2    1    2    0    0  0.00000000000E+00  0.00000000000E+00 -0.67136474153E+02  0.70053303751E+02  0.20003979721E+02 0.  0.
        -11    1    3    3    0    0 -0.66053542109E+01  0.75101733183E+01 -0.33848249737E+02  0.35295005568E+02  0.51100000000E-03 0. -1.
         11    1    3    3    0    0  0.66053542109E+01 -0.75101733183E+01 -0.33288224416E+02  0.34758298182E+02  0.51100000000E-03 0.  1.
<mgrwt>
<rscale>  0 0.20003980E+02</rscale>
<asrwt>0</asrwt>
<pdfrwt beam="2">  1        1 0.10553057E-01 0.20003980E+02</pdfrwt>
<pdfrwt beam="1">  1       -1 0.22437156E-03 0.20003980E+02</pdfrwt>
<totfact> 0.42739491E+06</totfact>
</mgrwt>
</event>
<event>
 5    1  0.9583198E-007  0.2000504E+02  0.7818608E-02  0.1745228E+00
          1   -1    0    0  501    0  0.00000000000E+00  0.00000000000E+00  0.15514201629E+02  0.15514202332E+02  0.46700000000E-02 0.  1.
         -1   -1    0    0    0  501 -0.00000000000E+00 -0.00000000000E+00 -0.64489568906E+01  0.64489585815E+01  0.46700000000E-02 0. -1.
       1023    2    1    2    0    0  0.00000000000E+00  0.00000000000E+00  0.90652447389E+01  0.21963160914E+02  0.20005043743E+02 0.  0.
        -11    1    3    3    0    0  0.92290389972E+01  0.38518070390E+01  0.47490616417E+01  0.11070915275E+02  0.51100000000E-03 0.  1.
         11    1    3    3    0    0 -0.92290389972E+01 -0.38518070390E+01  0.43161830972E+01  0.10892245639E+02  0.51100000000E-03 0. -1.
<mgrwt>
<rscale>  0 0.20005044E+02</rscale>
<asrwt>0</asrwt>
<pdfrwt beam="1">  1        1 0.23868004E-02 0.20005044E+02</pdfrwt>
<pdfrwt beam="2">  1       -1 0.99214740E-03 0.20005044E+02</pdfrwt>
<totfact> 0.39274669E+06</totfact>
</mgrwt>
</event>
<event>
 5    1  0.9583198E-007  0.2000047E+02  0.7818608E-02  0.1745319E+00
          1   -1    0    0  501    0  0.00000000000E+00  0.00000000000E+00  0.49467215368E+01  0.49467237411E+01  0.46700000000E-02 0. -1.
         -1   -1    0    0    0  501 -0.00000000000E+00 -0.00000000000E+00 -0.20216344510E+02  0.20216345050E+02  0.46700000000E-02 0.  1.
       1023    2    1    2    0    0  0.00000000000E+00  0.00000000000E+00 -0.15269622973E+02  0.25163068791E+02  0.20000466125E+02 0.  0.
        -11    1    3    3    0    0 -0.92128935809E+01 -0.38893265976E+01 -0.76597060274E+01  0.12596641068E+02  0.51100000000E-03 0. -1.
         11    1    3    3    0    0  0.92128935809E+01  0.38893265976E+01 -0.76099169461E+01  0.12566427722E+02  0.51100000000E-03 0.  1.
<mgrwt>
<rscale>  0 0.20000466E+02</rscale>
<asrwt>0</asrwt>
<pdfrwt beam="1">  1        1 0.76103430E-03 0.20000466E+02</pdfrwt>
<pdfrwt beam="2">  1       -1 0.31102070E-02 0.20000466E+02</pdfrwt>
<totfact> 0.37392910E+06</totfact>
</mgrwt>
</event>
<event>
 5    1  0.9583198E-007  0.2001024E+02  0.7818608E-02  0.1745125E+00
          1   -1    0    0  501    0  0.00000000000E+00  0.00000000000E+00  0.91848453235E+00  0.91849640449E+00  0.46700000000E-02 0. -1.
         -1   -1    0    0    0  501 -0.00000000000E+00 -0.00000000000E+00 -0.10898578962E+03  0.10898578972E+03  0.46700000000E-02 0.  1.
       1023    2    1    2    0    0  0.00000000000E+00  0.00000000000E+00 -0.10806730509E+03  0.10990428612E+03  0.20010239370E+02 0.  0.
        -11    1    3    3    0    0 -0.74635184202E+01 -0.66584447776E+01 -0.55416883096E+02  0.56312253786E+02  0.51100000000E-03 0. -1.
         11    1    3    3    0    0  0.74635184202E+01  0.66584447776E+01 -0.52650421990E+02  0.53592032337E+02  0.51100000000E-03 0.  1.
<mgrwt>
<rscale>  0 0.20010239E+02</rscale>
<asrwt>0</asrwt>
<pdfrwt beam="1">  1        1 0.14130632E-03 0.20010239E+02</pdfrwt>
<pdfrwt beam="2">  1       -1 0.16767035E-01 0.20010239E+02</pdfrwt>
<totfact> 0.31358891E+06</totfact>
</mgrwt>
</event>
<event>
 5    1  0.9583198E-007  0.2000101E+02  0.7818608E-02  0.1745308E+00
         -1   -1    0    0    0  501 -0.00000000000E+00  0.00000000000E+00  0.82340158675E+02  0.82340158808E+02  0.46700000000E-02 0.  1.
          1   -1    0    0  501    0  0.00000000000E+00 -0.00000000000E+00 -0.12145926578E+01  0.12146016356E+01  0.46700000000E-02 0. -1.
       1023    2    1    2    0    0  0.00000000000E+00  0.00000000000E+00  0.81125566018E+02  0.83554760443E+02  0.20001013251E+02 0.  0.
        -11    1    3    3    0    0 -0.74775086031E+01 -0.66405135096E+01  0.40663211325E+02  0.41874888777E+02  0.51100000000E-03 0. -1.
         11    1    3    3    0    0  0.74775086031E+01  0.66405135096E+01  0.40462354693E+02  0.41679871667E+02  0.51100000000E-03 0.  1.
<mgrwt>
<rscale>  0 0.20001013E+02</rscale>
<asrwt>0</asrwt>
<pdfrwt beam="2">  1        1 0.18686106E-03 0.20001013E+02</pdfrwt>
<pdfrwt beam="1">  1       -1 0.12667720E-01 0.20001013E+02</pdfrwt>
<totfact> 0.32852340E+06</totfact>
</mgrwt>
</event>
<event>
 5    1  0.9798467E-007  0.2000282E+02  0.7818608E-02  0.1745272E+00
         -1   -1    0    0    0  501 -0.00000000000E+00  0.00000000000E+00  0.95323504073E+00  0.95324648007E+00  0.46700000000E-02 0. -1.
          1   -1    0    0  501    0  0.00000000000E+00 -0.00000000000E+00 -0.10493485049E+03  0.10493485059E+03  0.46700000000E-02 0.  1.
       1023    2    1    2    0    0  0.00000000000E+00  0.00000000000E+00 -0.10398161545E+03  0.10588809707E+03  0.20002818564E+02 0.  0.
        -11    1    3    3    0    0  0.81856581418E+01 -0.57447055306E+01 -0.51213765751E+02  0.52180996958E+02  0.51100000000E-03 0. -1.
         11    1    3    3    0    0 -0.81856581418E+01  0.57447055306E+01 -0.52767849695E+02  0.53707100113E+02  0.51100000000E-03 0.  1.
<mgrwt>
<rscale>  0 0.20002819E+02</rscale>
<asrwt>0</asrwt>
<pdfrwt beam="2">  1        1 0.16143815E-01 0.20002819E+02</pdfrwt>
<pdfrwt beam="1">  1       -1 0.14665252E-03 0.20002819E+02</pdfrwt>
<totfact> 0.44584214E+06</totfact>
</mgrwt>
</event>
<event>
 5    1  0.9583198E-007  0.2000147E+02  0.7818608E-02  0.1745299E+00
          1   -1    0    0  501    0  0.00000000000E+00  0.00000000000E+00  0.34664243954E+01  0.34664275412E+01  0.46700000000E-02 0. -1.
         -1   -1    0    0    0  501 -0.00000000000E+00 -0.00000000000E+00 -0.28852393060E+02  0.28852393438E+02  0.46700000000E-02 0.  1.
       1023    2    1    2    0    0  0.00000000000E+00  0.00000000000E+00 -0.25385968665E+02  0.32318820979E+02  0.20001469557E+02 0.  0.
        -11    1    3    3    0    0  0.98938247744E+01  0.14574070143E+01 -0.12779878600E+02  0.16227664686E+02  0.51100000000E-03 0. -1.
         11    1    3    3    0    0 -0.98938247744E+01 -0.14574070143E+01 -0.12606090065E+02  0.16091156293E+02  0.51100000000E-03 0.  1.
<mgrwt>
<rscale>  0 0.20001470E+02</rscale>
<asrwt>0</asrwt>
<pdfrwt beam="1">  1        1 0.53329635E-03 0.20001470E+02</pdfrwt>
<pdfrwt beam="2">  1       -1 0.44388298E-02 0.20001470E+02</pdfrwt>
<totfact> 0.36580405E+06</totfact>
</mgrwt>
</event>
<event>
 5    1  0.9583198E-007  0.2000085E+02  0.7818608E-02  0.1745311E+00
          1   -1    0    0  501    0  0.00000000000E+00  0.00000000000E+00  0.16648593240E+01  0.16648658738E+01  0.46700000000E-02 0. -1.
         -1   -1    0    0    0  501 -0.00000000000E+00 -0.00000000000E+00 -0.60070144334E+02  0.60070144516E+02  0.46700000000E-02 0.  1.
       1023    2    1    2    0    0  0.00000000000E+00  0.00000000000E+00 -0.58405285010E+02  0.61735010389E+02  0.20000854749E+02 0.  0.
        -11    1    3    3    0    0 -0.56446127680E+01  0.82549899905E+01 -0.29063423892E+02  0.30735795445E+02  0.51100000000E-03 0. -1.
         11    1    3    3    0    0  0.56446127680E+01 -0.82549899905E+01 -0.29341861118E+02  0.30999214945E+02  0.51100000000E-03 0.  1.
<mgrwt>
<rscale>  0 0.20000855E+02</rscale>
<asrwt>0</asrwt>
<pdfrwt beam="1">  1        1 0.25613277E-03 0.20000855E+02</pdfrwt>
<pdfrwt beam="2">  1       -1 0.92415595E-02 0.20000855E+02</pdfrwt>
<totfact> 0.34235328E+06</totfact>
</mgrwt>
</event>
<event>
 5    1  0.9583198E-007  0.2000055E+02  0.7818608E-02  0.1745317E+00
         -1   -1    0    0    0  501 -0.00000000000E+00  0.00000000000E+00  0.36714057692E+01  0.36714087393E+01  0.46700000000E-02 0. -1.
          1   -1    0    0  501    0  0.00000000000E+00 -0.00000000000E+00 -0.27238997201E+02  0.27238997601E+02  0.46700000000E-02 0.  1.
       1023    2    1    2    0    0  0.00000000000E+00  0.00000000000E+00 -0.23567591431E+02  0.30910406340E+02  0.20000546349E+02 0.  0.
        -11    1    3    3    0    0  0.57115982221E+01 -0.82087000926E+01 -0.11812784772E+02  0.15477305831E+02  0.51100000000E-03 0. -1.
         11    1    3    3    0    0 -0.57115982221E+01  0.82087000926E+01 -0.11754806659E+02  0.15433100509E+02  0.51100000000E-03 0.  1.
<mgrwt>
<rscale>  0 0.20000546E+02</rscale>
<asrwt>0</asrwt>
<pdfrwt beam="2">  1        1 0.41906151E-02 0.20000546E+02</pdfrwt>
<pdfrwt beam="1">  1       -1 0.56483193E-03 0.20000546E+02</pdfrwt>
<totfact> 0.40260410E+06</totfact>
</mgrwt>
</event>
<event>
 5    1  0.9583198E-007  0.2000671E+02  0.7818608E-02  0.1745195E+00
          1   -1    0    0  501    0  0.00000000000E+00  0.00000000000E+00  0.24173459650E+01  0.24173504759E+01  0.46700000000E-02 0.  1.
         -1   -1    0    0    0  501 -0.00000000000E+00 -0.00000000000E+00 -0.41395382406E+02  0.41395382670E+02  0.46700000000E-02 0. -1.
       1023    2    1    2    0    0  0.00000000000E+00  0.00000000000E+00 -0.38978036441E+02  0.43812733146E+02  0.20006705398E+02 0.  0.
        -11    1    3    3    0    0 -0.97699835329E+01  0.21478269145E+01 -0.19568769996E+02  0.21977317810E+02  0.51100000000E-03 0.  1.
         11    1    3    3    0    0  0.97699835329E+01 -0.21478269145E+01 -0.19409266445E+02  0.21835415336E+02  0.51100000000E-03 0. -1.
<mgrwt>
<rscale>  0 0.20006705E+02</rscale>
<asrwt>0</asrwt>
<pdfrwt beam="1">  1        1 0.37189978E-03 0.20006705E+02</pdfrwt>
<pdfrwt beam="2">  1       -1 0.63685202E-02 0.20006705E+02</pdfrwt>
<totfact> 0.35537571E+06</totfact>
</mgrwt>
</event>
<event>
 4    1  0.9583198E-007  0.2001350E+02  0.7818608E-02  0.1745060E+00
         -1   -1    0    0    0  501 -0.00000000000E+00  0.00000000000E+00  0.16042752288E+02  0.16042752968E+02  0.46700000000E-02 0. -1.
          1   -1    0    0  501    0  0.00000000000E+00 -0.00000000000E+00 -0.62417612046E+01  0.62417629516E+01  0.46700000000E-02 0.  1.
        -11    1    1    2    0    0 -0.88093776596E+01  0.47386847480E+01  0.52050011749E+01  0.11276183103E+02  0.51100000000E-03 0.  1.
         11    1    1    2    0    0  0.88093776596E+01 -0.47386847480E+01  0.45959899089E+01  0.11008332816E+02  0.51100000000E-03 0. -1.
<mgrwt>
<rscale>  0 0.20013501E+02</rscale>
<asrwt>0</asrwt>
<pdfrwt beam="2">  1        1 0.96027118E-03 0.20013501E+02</pdfrwt>
<pdfrwt beam="1">  1       -1 0.24681158E-02 0.20013501E+02</pdfrwt>
<totfact> 0.37783798E+06</totfact>
</mgrwt>
</event>
<event>
 5    1  0.9931962E-007  0.2000117E+02  0.7818608E-02  0.1745305E+00
         -1   -1    0    0    0  501 -0.00000000000E+00  0.00000000000E+00  0.40250441508E+01  0.40250468600E+01  0.46700000000E-02 0. -1.
          1   -1    0    0  501    0  0.00000000000E+00 -0.00000000000E+00 -0.24847351544E+02  0.24847351983E+02  0.46700000000E-02 0.  1.
       1023    2    1    2    0    0  0.00000000000E+00  0.00000000000E+00 -0.20822307393E+02  0.28872398843E+02  0.20001173210E+02 0.  0.
        -11    1    3    3    0    0  0.23700221267E+01  0.97155205654E+01 -0.10495169938E+02  0.14496790577E+02  0.51100000000E-03 0.  1.
         11    1    3    3    0    0 -0.23700221267E+01 -0.97155205654E+01 -0.10327137455E+02  0.14375608266E+02  0.51100000000E-03 0. -1.
<mgrwt>
<rscale>  0 0.20001173E+02</rscale>
<asrwt>0</asrwt>
<pdfrwt beam="2">  1        1 0.38226696E-02 0.20001173E+02</pdfrwt>
<pdfrwt beam="1">  1       -1 0.61923782E-03 0.20001173E+02</pdfrwt>
<totfact> 0.40082688E+06</totfact>
</mgrwt>
</event>
<event>
 5    1  0.9583198E-007  0.2000037E+02  0.7818608E-02  0.1745321E+00
         -1   -1    0    0    0  501 -0.00000000000E+00  0.00000000000E+00  0.56343636735E+01  0.56343656089E+01  0.46700000000E-02 0.  1.
          1   -1    0    0  501    0  0.00000000000E+00 -0.00000000000E+00 -0.17748890539E+02  0.17748891153E+02  0.46700000000E-02 0. -1.
       1023    2    1    2    0    0  0.00000000000E+00  0.00000000000E+00 -0.12114526865E+02  0.23383256762E+02  0.20000373387E+02 0.  0.
        -11    1    3    3    0    0  0.57732705883E+01 -0.81651375799E+01 -0.59870306279E+01  0.11655241782E+02  0.51100000000E-03 0. -1.
         11    1    3    3    0    0 -0.57732705883E+01  0.81651375799E+01 -0.61274962373E+01  0.11728014981E+02  0.51100000000E-03 0.  1.
<mgrwt>
<rscale>  0 0.20000373E+02</rscale>
<asrwt>0</asrwt>
<pdfrwt beam="2">  1        1 0.27305987E-02 0.20000373E+02</pdfrwt>
<pdfrwt beam="1">  1       -1 0.86682539E-03 0.20000373E+02</pdfrwt>
<totfact> 0.39508140E+06</totfact>
</mgrwt>
</event>
<event>
 5    1  0.9583198E-007  0.2000007E+02  0.7818608E-02  0.1745327E+00
          1   -1    0    0  501    0  0.00000000000E+00  0.00000000000E+00  0.43382668389E+02  0.43382668640E+02  0.46700000000E-02 0.  1.
         -1   -1    0    0    0  501 -0.00000000000E+00 -0.00000000000E+00 -0.23050818462E+01  0.23050865768E+01  0.46700000000E-02 0. -1.
       1023    2    1    2    0    0  0.00000000000E+00  0.00000000000E+00  0.41077586543E+02  0.45687755217E+02  0.20000071515E+02 0.  0.
        -11    1    3    3    0    0  0.75530585074E+01  0.65537741307E+01  0.20557452012E+02  0.22860653571E+02  0.51100000000E-03 0. -1.
         11    1    3    3    0    0 -0.75530585074E+01 -0.65537741307E+01  0.20520134530E+02  0.22827101646E+02  0.51100000000E-03 0.  1.
<mgrwt>
<rscale>  0 0.20000072E+02</rscale>
<asrwt>0</asrwt>
<pdfrwt beam="1">  1        1 0.66742579E-02 0.20000072E+02</pdfrwt>
<pdfrwt beam="2">  1       -1 0.35462832E-03 0.20000072E+02</pdfrwt>
<totfact> 0.41318936E+06</totfact>
</mgrwt>
</event>
<event>
 5    1  0.1021446E-006  0.2000136E+02  0.7818608E-02  0.1745301E+00
         -1   -1    0    0    0  501 -0.00000000000E+00  0.00000000000E+00  0.11884972072E+01  0.11885063821E+01  0.46700000000E-02 0. -1.
          1   -1    0    0  501    0  0.00000000000E+00 -0.00000000000E+00 -0.84150999165E+02  0.84150999295E+02  0.46700000000E-02 0.  1.
       1023    2    1    2    0    0  0.00000000000E+00  0.00000000000E+00 -0.82962501958E+02  0.85339505677E+02  0.20001362405E+02 0.  0.
        -11    1    3    3    0    0  0.99596486579E+01 -0.90496316537E+00 -0.41515525925E+02  0.42703073107E+02  0.51100000000E-03 0.  1.
         11    1    3    3    0    0 -0.99596486579E+01  0.90496316537E+00 -0.41446976033E+02  0.42636432570E+02  0.51100000000E-03 0. -1.
<mgrwt>
<rscale>  0 0.20001362E+02</rscale>
<asrwt>0</asrwt>
<pdfrwt beam="2">  1        1 0.12946304E-01 0.20001362E+02</pdfrwt>
<pdfrwt beam="1">  1       -1 0.18284651E-03 0.20001362E+02</pdfrwt>
<totfact> 0.43565586E+06</totfact>
</mgrwt>
</event>
<event>
 5    1  0.9583198E-007  0.2000070E+02  0.7818608E-02  0.1745314E+00
         -1   -1    0    0    0  501 -0.00000000000E+00  0.00000000000E+00  0.10902254423E+03  0.10902254433E+03  0.46700000000E-02 0.  1.
          1   -1    0    0  501    0  0.00000000000E+00 -0.00000000000E+00 -0.91729999469E+00  0.91731188216E+00  0.46700000000E-02 0. -1.
       1023    2    1    2    0    0  0.00000000000E+00  0.00000000000E+00  0.10810524423E+03  0.10993985621E+03  0.20000703807E+02 0.  0.
        -11    1    3    3    0    0  0.99811727480E+01 -0.61713488014E+00  0.53784851425E+02  0.54706625814E+02  0.51100000000E-03 0.  1.
         11    1    3    3    0    0 -0.99811727480E+01  0.61713488014E+00  0.54320392808E+02  0.55233230396E+02  0.51100000000E-03 0. -1.
<mgrwt>
<rscale>  0 0.20000704E+02</rscale>
<asrwt>0</asrwt>
<pdfrwt beam="2">  1        1 0.14112403E-03 0.20000704E+02</pdfrwt>
<pdfrwt beam="1">  1       -1 0.16772697E-01 0.20000704E+02</pdfrwt>
<totfact> 0.31389724E+06</totfact>
</mgrwt>
</event>
<event>
 5    1  0.9730189E-007  0.2000098E+02  0.7818608E-02  0.1745309E+00
         -1   -1    0    0    0  501 -0.00000000000E+00  0.00000000000E+00  0.39518562380E+02  0.39518562656E+02  0.46700000000E-02 0.  1.
          1   -1    0    0  501    0  0.00000000000E+00 -0.00000000000E+00 -0.25307025430E+01  0.25307068519E+01  0.46700000000E-02 0. -1.
       1023    2    1    2    0    0  0.00000000000E+00  0.00000000000E+00  0.36987859837E+02  0.42049269508E+02  0.20000982246E+02 0.  0.
        -11    1    3    3    0    0  0.64506838457E+00  0.99795476719E+01  0.18595573942E+02  0.21114044033E+02  0.51100000000E-03 0.  1.
         11    1    3    3    0    0 -0.64506838457E+00 -0.99795476719E+01  0.18392285895E+02  0.20935225474E+02  0.51100000000E-03 0. -1.
<mgrwt>
<rscale>  0 0.20000982E+02</rscale>
<asrwt>0</asrwt>
<pdfrwt beam="2">  1        1 0.38933923E-03 0.20000982E+02</pdfrwt>
<pdfrwt beam="1">  1       -1 0.60797788E-02 0.20000982E+02</pdfrwt>
<totfact> 0.35704639E+06</totfact>
</mgrwt>
</event>
<event>
 5    1  0.9583198E-007  0.2000084E+02  0.7818608E-02  0.1745311E+00
          1   -1    0    0  501    0  0.00000000000E+00  0.00000000000E+00  0.49433219398E+01  0.49433241457E+01  0.46700000000E-02 0. -1.
         -1   -1    0    0    0  501 -0.00000000000E+00 -0.00000000000E+00 -0.20231002477E+02  0.20231003016E+02  0.46700000000E-02 0.  1.
       1023    2    1    2    0    0  0.00000000000E+00  0.00000000000E+00 -0.15287680537E+02  0.25174327162E+02  0.20000839278E+02 0.  0.
        -11    1    3    3    0    0 -0.20022111502E+00  0.99983974182E+01 -0.76201830482E+01  0.12572797198E+02  0.51100000000E-03 0.  1.
         11    1    3    3    0    0  0.20022111502E+00 -0.99983974182E+01 -0.76674974889E+01  0.12601529964E+02  0.51100000000E-03 0. -1.
<mgrwt>
<rscale>  0 0.20000839E+02</rscale>
<asrwt>0</asrwt>
<pdfrwt beam="1">  1        1 0.76051129E-03 0.20000839E+02</pdfrwt>
<pdfrwt beam="2">  1       -1 0.31124621E-02 0.20000839E+02</pdfrwt>
<totfact> 0.37389892E+06</totfact>
</mgrwt>
</event>
<event>
 5    1  0.9743311E-007  0.2000191E+02  0.7818608E-02  0.1745290E+00
         -1   -1    0    0    0  501 -0.00000000000E+00  0.00000000000E+00  0.37194026094E+01  0.37194055412E+01  0.46700000000E-02 0.  1.
          1   -1    0    0  501    0  0.00000000000E+00 -0.00000000000E+00 -0.26891161469E+02  0.26891161875E+02  0.46700000000E-02 0. -1.
       1023    2    1    2    0    0  0.00000000000E+00  0.00000000000E+00 -0.23171758860E+02  0.30610567416E+02  0.20001910630E+02 0.  0.
        -11    1    3    3    0    0 -0.63894520730E+01 -0.76937156089E+01 -0.11543988009E+02  0.15273572506E+02  0.51100000000E-03 0. -1.
         11    1    3    3    0    0  0.63894520730E+01  0.76937156089E+01 -0.11627770850E+02  0.15336994910E+02  0.51100000000E-03 0.  1.
<mgrwt>
<rscale>  0 0.20001911E+02</rscale>
<asrwt>0</asrwt>
<pdfrwt beam="2">  1        1 0.41371019E-02 0.20001911E+02</pdfrwt>
<pdfrwt beam="1">  1       -1 0.57221606E-03 0.20001911E+02</pdfrwt>
<totfact> 0.40229272E+06</totfact>
</mgrwt>
</event>
<event>
 5    1  0.9583198E-007  0.2000034E+02  0.7818608E-02  0.1745321E+00
         -1   -1    0    0    0  501 -0.00000000000E+00  0.00000000000E+00  0.31085056218E+01  0.31085091297E+01  0.46700000000E-02 0.  1.
          1   -1    0    0  501    0  0.00000000000E+00 -0.00000000000E+00 -0.32170863913E+02  0.32170864252E+02  0.46700000000E-02 0. -1.
       1023    2    1    2    0    0  0.00000000000E+00  0.00000000000E+00 -0.29062358291E+02  0.35279373382E+02  0.20000337916E+02 0.  0.
        -11    1    3    3    0    0  0.86801685363E+00  0.99623745057E+01 -0.14474846827E+02  0.17593281388E+02  0.51100000000E-03 0. -1.
         11    1    3    3    0    0 -0.86801685363E+00 -0.99623745057E+01 -0.14587511464E+02  0.17686091994E+02  0.51100000000E-03 0.  1.
<mgrwt>
<rscale>  0 0.20000338E+02</rscale>
<asrwt>0</asrwt>
<pdfrwt beam="2">  1        1 0.49493637E-02 0.20000338E+02</pdfrwt>
<pdfrwt beam="1">  1       -1 0.47823195E-03 0.20000338E+02</pdfrwt>
<totfact> 0.40602693E+06</totfact>
</mgrwt>
</event>
<event>
 5    1  0.9583198E-007  0.2000215E+02  0.7818608E-02  0.1745285E+00
         -1   -1    0    0    0  501 -0.00000000000E+00  0.00000000000E+00  0.19973679834E+01  0.19973734428E+01  0.46700000000E-02 0.  1.
          1   -1    0    0  501    0  0.00000000000E+00 -0.00000000000E+00 -0.50076553701E+02  0.50076553919E+02  0.46700000000E-02 0. -1.
       1023    2    1    2    0    0  0.00000000000E+00  0.00000000000E+00 -0.48079185718E+02  0.52073927362E+02  0.20002145175E+02 0.  0.
        -11    1    3    3    0    0  0.98277324376E+01  0.18517646138E+01 -0.23805349196E+02  0.25820689527E+02  0.51100000000E-03 0. -1.
         11    1    3    3    0    0 -0.98277324376E+01 -0.18517646138E+01 -0.24273836522E+02  0.26253237835E+02  0.51100000000E-03 0.  1.
<mgrwt>
<rscale>  0 0.20002145E+02</rscale>
<asrwt>0</asrwt>
<pdfrwt beam="2">  1        1 0.77040847E-02 0.20002145E+02</pdfrwt>
<pdfrwt beam="1">  1       -1 0.30728786E-03 0.20002145E+02</pdfrwt>
<totfact> 0.41709375E+06</totfact>
</mgrwt>
</event>
<event>
 5    1  0.9730620E-007  0.2000059E+02  0.7818608E-02  0.1745316E+00
          1   -1    0    0  501    0  0.00000000000E+00  0.00000000000E+00  0.22818575693E+02  0.22818576171E+02  0.46700000000E-02 0. -1.
         -1   -1    0    0    0  501 -0.00000000000E+00 -0.00000000000E+00 -0.43826513853E+01  0.43826538734E+01  0.46700000000E-02 0.  1.
       1023    2    1    2    0    0  0.00000000000E+00  0.00000000000E+00  0.18435924307E+02  0.27201230044E+02  0.20000590262E+02 0.  0.
        -11    1    3    3    0    0 -0.77815464921E+01  0.62809108944E+01  0.92995064728E+01  0.13655882556E+02  0.51100000000E-03 0.  1.
         11    1    3    3    0    0  0.77815464921E+01 -0.62809108944E+01  0.91364178346E+01  0.13545347488E+02  0.51100000000E-03 0. -1.
<mgrwt>
<rscale>  0 0.20000590E+02</rscale>
<asrwt>0</asrwt>
<pdfrwt beam="1">  1        1 0.35105504E-02 0.20000590E+02</pdfrwt>
<pdfrwt beam="2">  1       -1 0.67425428E-03 0.20000590E+02</pdfrwt>
<totfact> 0.39930643E+06</totfact>
</mgrwt>
</event>
<event>
 5    1  0.9583198E-007  0.2000162E+02  0.7818608E-02  0.1745296E+00
          1   -1    0    0  501    0  0.00000000000E+00  0.00000000000E+00  0.49454086020E+01  0.49454108069E+01  0.46700000000E-02 0.  1.
         -1   -1    0    0    0  501 -0.00000000000E+00 -0.00000000000E+00 -0.20224043994E+02  0.20224044533E+02  0.46700000000E-02 0. -1.
       1023    2    1    2    0    0  0.00000000000E+00  0.00000000000E+00 -0.15278635392E+02  0.25169455340E+02  0.20001619501E+02 0.  0.
        -11    1    3    3    0    0 -0.90981327555E+01 -0.41521217453E+01 -0.76295069687E+01  0.12578772256E+02  0.51100000000E-03 0.  1.
         11    1    3    3    0    0  0.90981327555E+01  0.41521217453E+01 -0.76491284232E+01  0.12590683084E+02  0.51100000000E-03 0. -1.
<mgrwt>
<rscale>  0 0.20001620E+02</rscale>
<asrwt>0</asrwt>
<pdfrwt beam="1">  1        1 0.76083232E-03 0.20001620E+02</pdfrwt>
<pdfrwt beam="2">  1       -1 0.31113915E-02 0.20001620E+02</pdfrwt>
<totfact> 0.37387392E+06</totfact>
</mgrwt>
</event>
<event>
 4    1  0.9583198E-007  0.2003257E+02  0.7818608E-02  0.1744681E+00
         -1   -1    0    0    0  501 -0.00000000000E+00  0.00000000000E+00  0.23887724004E+01  0.23887769653E+01  0.46700000000E-02 0. -1.
          1   -1    0    0  501    0  0.00000000000E+00 -0.00000000000E+00 -0.41998912643E+02  0.41998912903E+02  0.46700000000E-02 0.  1.
        -11    1    1    2    0    0 -0.74245753771E+01 -0.67057224619E+01 -0.20879017623E+02  0.23152200984E+02  0.51100000000E-03 0. -1.
         11    1    1    2    0    0  0.74245753771E+01  0.67057224619E+01 -0.18731122620E+02  0.21235488884E+02  0.51100000000E-03 0.  1.
<mgrwt>
<rscale>  0 0.20032569E+02</rscale>
<asrwt>0</asrwt>
<pdfrwt beam="2">  1        1 0.64613710E-02 0.20032569E+02</pdfrwt>
<pdfrwt beam="1">  1       -1 0.36750385E-03 0.20032569E+02</pdfrwt>
<totfact> 0.41085319E+06</totfact>
</mgrwt>
</event>
<event>
 5    1  0.9583198E-007  0.2000611E+02  0.7818608E-02  0.1745207E+00
          1   -1    0    0  501    0  0.00000000000E+00  0.00000000000E+00  0.21550954843E+02  0.21550955349E+02  0.46700000000E-02 0.  1.
         -1   -1    0    0    0  501 -0.00000000000E+00 -0.00000000000E+00 -0.46429985077E+01  0.46430008563E+01  0.46700000000E-02 0. -1.
       1023    2    1    2    0    0  0.00000000000E+00  0.00000000000E+00  0.16907956335E+02  0.26193956205E+02  0.20006107924E+02 0.  0.
        -11    1    3    3    0    0  0.74562628612E+01 -0.66681980265E+01  0.84790786749E+01  0.13113180248E+02  0.51100000000E-03 0. -1.
         11    1    3    3    0    0 -0.74562628612E+01  0.66681980265E+01  0.84288776603E+01  0.13080775957E+02  0.51100000000E-03 0.  1.
<mgrwt>
<rscale>  0 0.20006108E+02</rscale>
<asrwt>0</asrwt>
<pdfrwt beam="1">  1        1 0.33155318E-02 0.20006108E+02</pdfrwt>
<pdfrwt beam="2">  1       -1 0.71430767E-03 0.20006108E+02</pdfrwt>
<totfact> 0.39805836E+06</totfact>
</mgrwt>
</event>
<event>
 5    1  0.9583198E-007  0.2000018E+02  0.7818608E-02  0.1745325E+00
         -1   -1    0    0    0  501 -0.00000000000E+00  0.00000000000E+00  0.18322117248E+01  0.18322176763E+01  0.46700000000E-02 0. -1.
          1   -1    0    0  501    0  0.00000000000E+00 -0.00000000000E+00 -0.54579706657E+02  0.54579706857E+02  0.46700000000E-02 0.  1.
       1023    2    1    2    0    0  0.00000000000E+00  0.00000000000E+00 -0.52747494932E+02  0.56411924533E+02  0.20000175197E+02 0.  0.
        -11    1    3    3    0    0  0.96917343515E+01  0.24638919327E+01 -0.26273091425E+02  0.28111844683E+02  0.51100000000E-03 0. -1.
         11    1    3    3    0    0 -0.96917343515E+01 -0.24638919327E+01 -0.26474403508E+02  0.28300079850E+02  0.51100000000E-03 0.  1.
<mgrwt>
<rscale>  0 0.20000175E+02</rscale>
<asrwt>0</asrwt>
<pdfrwt beam="2">  1        1 0.83968772E-02 0.20000175E+02</pdfrwt>
<pdfrwt beam="1">  1       -1 0.28187924E-03 0.20000175E+02</pdfrwt>
<totfact> 0.41979282E+06</totfact>
</mgrwt>
</event>
<event>
 5    1  0.9583198E-007  0.2000080E+02  0.7818608E-02  0.1745312E+00
         -1   -1    0    0    0  501 -0.00000000000E+00  0.00000000000E+00  0.90345496929E+01  0.90345508998E+01  0.46700000000E-02 0.  1.
          1   -1    0    0  501    0  0.00000000000E+00 -0.00000000000E+00 -0.11069506201E+02  0.11069507186E+02  0.46700000000E-02 0. -1.
       1023    2    1    2    0    0  0.00000000000E+00  0.00000000000E+00 -0.20349565077E+01  0.20104058085E+02  0.20000802572E+02 0.  0.
        -11    1    3    3    0    0  0.36685836164E+01  0.93031963084E+01 -0.10098024674E+01  0.10051252091E+02  0.51100000000E-03 0.  1.
         11    1    3    3    0    0 -0.36685836164E+01 -0.93031963084E+01 -0.10251540403E+01  0.10052805995E+02  0.51100000000E-03 0. -1.
<mgrwt>
<rscale>  0 0.20000803E+02</rscale>
<asrwt>0</asrwt>
<pdfrwt beam="2">  1        1 0.17030011E-02 0.20000803E+02</pdfrwt>
<pdfrwt beam="1">  1       -1 0.13899309E-02 0.20000803E+02</pdfrwt>
<totfact> 0.38776824E+06</totfact>
</mgrwt>
</event>
<event>
 5    1  0.9583198E-007  0.2000415E+02  0.7818608E-02  0.1745245E+00
          1   -1    0    0  501    0  0.00000000000E+00  0.00000000000E+00  0.47711181653E+02  0.47711181881E+02  0.46700000000E-02 0. -1.
         -1   -1    0    0    0  501 -0.00000000000E+00 -0.00000000000E+00 -0.20968127841E+01  0.20968179846E+01  0.46700000000E-02 0.  1.
       1023    2    1    2    0    0  0.00000000000E+00  0.00000000000E+00  0.45614368868E+02  0.49807999866E+02  0.20004154652E+02 0.  0.
        -11    1    3    3    0    0 -0.62562159684E+01 -0.78018872815E+01  0.23251662900E+02  0.25311055120E+02  0.51100000000E-03 0.  1.
         11    1    3    3    0    0  0.62562159684E+01  0.78018872815E+01  0.22362705968E+02  0.24496944746E+02  0.51100000000E-03 0. -1.
<mgrwt>
<rscale>  0 0.20004155E+02</rscale>
<asrwt>0</asrwt>
<pdfrwt beam="1">  1        1 0.73401814E-02 0.20004155E+02</pdfrwt>
<pdfrwt beam="2">  1       -1 0.32258704E-03 0.20004155E+02</pdfrwt>
<totfact> 0.41560581E+06</totfact>
</mgrwt>
</event>
<event>
 5    1  0.9583198E-007  0.2000046E+02  0.7818608E-02  0.1745319E+00
          1   -1    0    0  501    0  0.00000000000E+00  0.00000000000E+00  0.15537134115E+02  0.15537134817E+02  0.46700000000E-02 0. -1.
         -1   -1    0    0    0  501 -0.00000000000E+00 -0.00000000000E+00 -0.64364864818E+01  0.64364881759E+01  0.46700000000E-02 0.  1.
       1023    2    1    2    0    0  0.00000000000E+00  0.00000000000E+00  0.91006476331E+01  0.21973622993E+02  0.20000457997E+02 0.  0.
        -11    1    3    3    0    0  0.89010543497E+01  0.45576249717E+01  0.44820139155E+01  0.10958520106E+02  0.51100000000E-03 0. -1.
         11    1    3    3    0    0 -0.89010543497E+01 -0.45576249717E+01  0.46186337176E+01  0.11015102886E+02  0.51100000000E-03 0.  1.
<mgrwt>
<rscale>  0 0.20000458E+02</rscale>
<asrwt>0</asrwt>
<pdfrwt beam="1">  1        1 0.23903285E-02 0.20000458E+02</pdfrwt>
<pdfrwt beam="2">  1       -1 0.99022887E-03 0.20000458E+02</pdfrwt>
<totfact> 0.39297231E+06</totfact>
</mgrwt>
</event>
<event>
 5    1  0.9583198E-007  0.2001165E+02  0.7818608E-02  0.1745096E+00
         -1   -1    0    0    0  501 -0.00000000000E+00  0.00000000000E+00  0.13510410211E+01  0.13510490923E+01  0.46700000000E-02 0. -1.
          1   -1    0    0  501    0  0.00000000000E+00 -0.00000000000E+00 -0.74103043792E+02  0.74103043939E+02  0.46700000000E-02 0.  1.
       1023    2    1    2    0    0  0.00000000000E+00  0.00000000000E+00 -0.72752002771E+02  0.75454093032E+02  0.20011652806E+02 0.  0.
        -11    1    3    3    0    0  0.98490028171E+01 -0.17373161400E+01 -0.37540825208E+02  0.38850156775E+02  0.51100000000E-03 0. -1.
         11    1    3    3    0    0 -0.98490028171E+01  0.17373161400E+01 -0.35211177563E+02  0.36603936257E+02  0.51100000000E-03 0.  1.
<mgrwt>
<rscale>  0 0.20011653E+02</rscale>
<asrwt>0</asrwt>
<pdfrwt beam="2">  1        1 0.11400466E-01 0.20011653E+02</pdfrwt>
<pdfrwt beam="1">  1       -1 0.20785315E-03 0.20011653E+02</pdfrwt>
<totfact> 0.42996456E+06</totfact>
</mgrwt>
</event>
<event>
 5    1  0.1004362E-006  0.2000101E+02  0.7818608E-02  0.1745308E+00
         -1   -1    0    0    0  501 -0.00000000000E+00  0.00000000000E+00  0.41125686408E+01  0.41125712923E+01  0.46700000000E-02 0. -1.
          1   -1    0    0  501    0  0.00000000000E+00 -0.00000000000E+00 -0.24318152538E+02  0.24318152986E+02  0.46700000000E-02 0.  1.
       1023    2    1    2    0    0  0.00000000000E+00  0.00000000000E+00 -0.20205583897E+02  0.28430724279E+02  0.20001011534E+02 0.  0.
        -11    1    3    3    0    0 -0.31318063625E+01  0.94970914571E+01 -0.99825281818E+01  0.14129891238E+02  0.51100000000E-03 0. -1.
         11    1    3    3    0    0  0.31318063625E+01 -0.94970914571E+01 -0.10223055715E+02  0.14300833041E+02  0.51100000000E-03 0.  1.
<mgrwt>
<rscale>  0 0.20001012E+02</rscale>
<asrwt>0</asrwt>
<pdfrwt beam="2">  1        1 0.37412544E-02 0.20001012E+02</pdfrwt>
<pdfrwt beam="1">  1       -1 0.63270312E-03 0.20001012E+02</pdfrwt>
<totfact> 0.40043681E+06</totfact>
</mgrwt>
</event>
<event>
 5    1  0.9583198E-007  0.2000075E+02  0.7818608E-02  0.1745313E+00
          1   -1    0    0  501    0  0.00000000000E+00  0.00000000000E+00  0.13936579479E+01  0.13936657722E+01  0.46700000000E-02 0. -1.
         -1   -1    0    0    0  501 -0.00000000000E+00 -0.00000000000E+00 -0.71758758542E+02  0.71758758694E+02  0.46700000000E-02 0.  1.
       1023    2    1    2    0    0  0.00000000000E+00  0.00000000000E+00 -0.70365100594E+02  0.73152424466E+02  0.20000745578E+02 0.  0.
        -11    1    3    3    0    0 -0.17915157970E+01 -0.98385393329E+01 -0.35062877458E+02  0.36461099283E+02  0.51100000000E-03 0. -1.
         11    1    3    3    0    0  0.17915157970E+01  0.98385393329E+01 -0.35302223137E+02  0.36691325183E+02  0.51100000000E-03 0.  1.
<mgrwt>
<rscale>  0 0.20000746E+02</rscale>
<asrwt>0</asrwt>
<pdfrwt beam="1">  1        1 0.21440959E-03 0.20000746E+02</pdfrwt>
<pdfrwt beam="2">  1       -1 0.11039807E-01 0.20000746E+02</pdfrwt>
<totfact> 0.33488558E+06</totfact>
</mgrwt>
</event>
<event>
 5    1  0.9583198E-007  0.2000021E+02  0.7818608E-02  0.1745324E+00
          1   -1    0    0  501    0  0.00000000000E+00  0.00000000000E+00  0.20321564705E+01  0.20321618365E+01  0.46700000000E-02 0.  1.
         -1   -1    0    0    0  501 -0.00000000000E+00 -0.00000000000E+00 -0.49209759098E+02  0.49209759319E+02  0.46700000000E-02 0. -1.
       1023    2    1    2    0    0  0.00000000000E+00  0.00000000000E+00 -0.47177602627E+02  0.51241921156E+02  0.20000207351E+02 0.  0.
        -11    1    3    3    0    0 -0.83339796660E+01 -0.55268491425E+01 -0.23516573529E+02  0.25554461632E+02  0.51100000000E-03 0. -1.
         11    1    3    3    0    0  0.83339796660E+01  0.55268491425E+01 -0.23661029098E+02  0.25687459523E+02  0.51100000000E-03 0.  1.
<mgrwt>
<rscale>  0 0.20000207E+02</rscale>
<asrwt>0</asrwt>
<pdfrwt beam="1">  1        1 0.31263993E-03 0.20000207E+02</pdfrwt>
<pdfrwt beam="2">  1       -1 0.75707316E-02 0.20000207E+02</pdfrwt>
<totfact> 0.34985220E+06</totfact>
</mgrwt>
</event>
<event>
 5    1  0.9583198E-007  0.2000285E+02  0.7818608E-02  0.1745271E+00
          1   -1    0    0  501    0  0.00000000000E+00  0.00000000000E+00  0.93619925062E+01  0.93619936710E+01  0.46700000000E-02 0.  1.
         -1   -1    0    0    0  501 -0.00000000000E+00 -0.00000000000E+00 -0.10684524318E+02  0.10684525338E+02  0.46700000000E-02 0. -1.
       1023    2    1    2    0    0  0.00000000000E+00  0.00000000000E+00 -0.13225318117E+01  0.20046519009E+02  0.20002845648E+02 0.  0.
        -11    1    3    3    0    0  0.80803062298E+01  0.58937212539E+01 -0.62714376620E+00  0.10021008360E+02  0.51100000000E-03 0.  1.
         11    1    3    3    0    0 -0.80803062298E+01 -0.58937212539E+01 -0.69538804546E+00  0.10025510649E+02  0.51100000000E-03 0. -1.
<mgrwt>
<rscale>  0 0.20002846E+02</rscale>
<asrwt>0</asrwt>
<pdfrwt beam="1">  1        1 0.14403067E-02 0.20002846E+02</pdfrwt>
<pdfrwt beam="2">  1       -1 0.16437731E-02 0.20002846E+02</pdfrwt>
<totfact> 0.38508762E+06</totfact>
</mgrwt>
</event>
<event>
 5    1  0.9583198E-007  0.2000435E+02  0.7818608E-02  0.1745242E+00
          1   -1    0    0  501    0  0.00000000000E+00  0.00000000000E+00  0.17343003737E+02  0.17343004365E+02  0.46700000000E-02 0.  1.
         -1   -1    0    0    0  501 -0.00000000000E+00 -0.00000000000E+00 -0.57685185813E+01  0.57685204717E+01  0.46700000000E-02 0. -1.
       1023    2    1    2    0    0  0.00000000000E+00  0.00000000000E+00  0.11574485155E+02  0.23111524837E+02  0.20004346370E+02 0.  0.
        -11    1    3    3    0    0  0.92525205954E+01  0.37964244094E+01  0.56178682241E+01  0.11470938031E+02  0.51100000000E-03 0. -1.
         11    1    3    3    0    0 -0.92525205954E+01 -0.37964244094E+01  0.59566169312E+01  0.11640586806E+02  0.51100000000E-03 0.  1.
<mgrwt>
<rscale>  0 0.20004346E+02</rscale>
<asrwt>0</asrwt>
<pdfrwt beam="1">  1        1 0.26681546E-02 0.20004346E+02</pdfrwt>
<pdfrwt beam="2">  1       -1 0.88746460E-03 0.20004346E+02</pdfrwt>
<totfact> 0.39453398E+06</totfact>
</mgrwt>
</event>
<event>
 5    1  0.9583198E-007  0.2000402E+02  0.7818608E-02  0.1745248E+00
         -1   -1    0    0    0  501 -0.00000000000E+00  0.00000000000E+00  0.10946891095E+02  0.10946892092E+02  0.46700000000E-02 0. -1.
          1   -1    0    0  501    0  0.00000000000E+00 -0.00000000000E+00 -0.91386879124E+01  0.91386891056E+01  0.46700000000E-02 0.  1.
       1023    2    1    2    0    0  0.00000000000E+00  0.00000000000E+00  0.18082031831E+01  0.20085581197E+02  0.20004023927E+02 0.  0.
        -11    1    3    3    0    0  0.99487433793E+01 -0.10287793726E+01  0.83779270943E+00  0.10036821146E+02  0.51100000000E-03 0. -1.
         11    1    3    3    0    0 -0.99487433793E+01  0.10287793726E+01  0.97041047364E+00  0.10048760052E+02  0.51100000000E-03 0.  1.
<mgrwt>
<rscale>  0 0.20004024E+02</rscale>
<asrwt>0</asrwt>
<pdfrwt beam="2">  1        1 0.14059522E-02 0.20004024E+02</pdfrwt>
<pdfrwt beam="1">  1       -1 0.16841373E-02 0.20004024E+02</pdfrwt>
<totfact> 0.38465649E+06</totfact>
</mgrwt>
</event>
<event>
 5    1  0.9589020E-007  0.2000174E+02  0.7818608E-02  0.1745293E+00
          1   -1    0    0  501    0  0.00000000000E+00  0.00000000000E+00  0.88803880833E+01  0.88803893112E+01  0.46700000000E-02 0.  1.
         -1   -1    0    0    0  501 -0.00000000000E+00 -0.00000000000E+00 -0.11262730258E+02  0.11262731226E+02  0.46700000000E-02 0. -1.
       1023    2    1    2    0    0  0.00000000000E+00  0.00000000000E+00 -0.23823421746E+01  0.20143120537E+02  0.20001743692E+02 0.  0.
        -11    1    3    3    0    0  0.47691200111E+01 -0.87900596272E+01 -0.12800187859E+01  0.10082068353E+02  0.51100000000E-03 0. -1.
         11    1    3    3    0    0 -0.47691200111E+01  0.87900596272E+01 -0.11023233886E+01  0.10061052184E+02  0.51100000000E-03 0.  1.
<mgrwt>
<rscale>  0 0.20001744E+02</rscale>
<asrwt>0</asrwt>
<pdfrwt beam="1">  1        1 0.13662137E-02 0.20001744E+02</pdfrwt>
<pdfrwt beam="2">  1       -1 0.17327279E-02 0.20001744E+02</pdfrwt>
<totfact> 0.38430192E+06</totfact>
</mgrwt>
</event>
<event>
 5    1  0.9685258E-007  0.2000068E+02  0.7818608E-02  0.1745315E+00
         -1   -1    0    0    0  501 -0.00000000000E+00  0.00000000000E+00  0.39364358631E+01  0.39364386332E+01  0.46700000000E-02 0.  1.
          1   -1    0    0  501    0  0.00000000000E+00 -0.00000000000E+00 -0.25405408223E+02  0.25405408653E+02  0.46700000000E-02 0. -1.
       1023    2    1    2    0    0  0.00000000000E+00  0.00000000000E+00 -0.21468972360E+02  0.29341847286E+02  0.20000680687E+02 0.  0.
        -11    1    3    3    0    0 -0.43571336185E+01 -0.90012328358E+01 -0.10733183091E+02  0.14669970193E+02  0.51100000000E-03 0.  1.
         11    1    3    3    0    0  0.43571336185E+01  0.90012328358E+01 -0.10735789269E+02  0.14671877093E+02  0.51100000000E-03 0. -1.
<mgrwt>
<rscale>  0 0.20000681E+02</rscale>
<asrwt>0</asrwt>
<pdfrwt beam="2">  1        1 0.39085245E-02 0.20000681E+02</pdfrwt>
<pdfrwt beam="1">  1       -1 0.60560578E-03 0.20000681E+02</pdfrwt>
<totfact> 0.40126367E+06</totfact>
</mgrwt>
</event>
<event>
 5    1  0.9639443E-007  0.2000045E+02  0.7818608E-02  0.1745319E+00
          1   -1    0    0  501    0  0.00000000000E+00  0.00000000000E+00  0.76750604401E+02  0.76750604543E+02  0.46700000000E-02 0. -1.
         -1   -1    0    0    0  501 -0.00000000000E+00 -0.00000000000E+00 -0.13029750259E+01  0.13029833947E+01  0.46700000000E-02 0.  1.
       1023    2    1    2    0    0  0.00000000000E+00  0.00000000000E+00  0.75447629375E+02  0.78053587937E+02  0.20000445286E+02 0.  0.
        -11    1    3    3    0    0 -0.80181052644E+01 -0.59761247463E+01  0.37648379159E+02  0.38953876990E+02  0.51100000000E-03 0. -1.
         11    1    3    3    0    0  0.80181052644E+01  0.59761247463E+01  0.37799250216E+02  0.39099710947E+02  0.51100000000E-03 0.  1.
<mgrwt>
<rscale>  0 0.20000445E+02</rscale>
<asrwt>0</asrwt>
<pdfrwt beam="1">  1        1 0.11807790E-01 0.20000445E+02</pdfrwt>
<pdfrwt beam="2">  1       -1 0.20045827E-03 0.20000445E+02</pdfrwt>
<totfact> 0.43188648E+06</totfact>
</mgrwt>
</event>
<event>
 5    1  0.9583198E-007  0.2000269E+02  0.7818608E-02  0.1745275E+00
         -1   -1    0    0    0  501 -0.00000000000E+00  0.00000000000E+00  0.78167308631E+01  0.78167322581E+01  0.46700000000E-02 0.  1.
          1   -1    0    0  501    0  0.00000000000E+00 -0.00000000000E+00 -0.12796504556E+02  0.12796505408E+02  0.46700000000E-02 0. -1.
       1023    2    1    2    0    0  0.00000000000E+00  0.00000000000E+00 -0.49797736930E+01  0.20613237666E+02  0.20002685346E+02 0.  0.
        -11    1    3    3    0    0  0.50095489117E+01 -0.86559575133E+01 -0.25675136163E+01  0.10325372013E+02  0.51100000000E-03 0.  1.
         11    1    3    3    0    0 -0.50095489117E+01  0.86559575133E+01 -0.24122600767E+01  0.10287865654E+02  0.51100000000E-03 0. -1.
<mgrwt>
<rscale>  0 0.20002685E+02</rscale>
<asrwt>0</asrwt>
<pdfrwt beam="2">  1        1 0.19686932E-02 0.20002685E+02</pdfrwt>
<pdfrwt beam="1">  1       -1 0.12025742E-02 0.20002685E+02</pdfrwt>
<totfact> 0.38989512E+06</totfact>
</mgrwt>
</event>
<event>
 5    1  0.9583198E-007  0.2000171E+02  0.7818608E-02  0.1745294E+00
          1   -1    0    0  501    0  0.00000000000E+00  0.00000000000E+00  0.30116506825E+01  0.30116543033E+01  0.46700000000E-02 0. -1.
         -1   -1    0    0    0  501 -0.00000000000E+00 -0.00000000000E+00 -0.33210046622E+02  0.33210046950E+02  0.46700000000E-02 0.  1.
       1023    2    1    2    0    0  0.00000000000E+00  0.00000000000E+00 -0.30198395939E+02  0.36221701253E+02  0.20001713036E+02 0.  0.
        -11    1    3    3    0    0  0.52597562117E+01 -0.85058603197E+01 -0.15188571521E+02  0.18185362254E+02  0.51100000000E-03 0.  1.
         11    1    3    3    0    0 -0.52597562117E+01  0.85058603197E+01 -0.15009824418E+02  0.18036339000E+02  0.51100000000E-03 0. -1.
<mgrwt>
<rscale>  0 0.20001713E+02</rscale>
<asrwt>0</asrwt>
<pdfrwt beam="1">  1        1 0.46333120E-03 0.20001713E+02</pdfrwt>
<pdfrwt beam="2">  1       -1 0.51092380E-02 0.20001713E+02</pdfrwt>
<totfact> 0.36207984E+06</totfact>
</mgrwt>
</event>
<event>
 4    1  0.1139234E-006  0.2373861E+02  0.7818608E-02  0.1679810E+00
          1   -1    0    0  501    0  0.00000000000E+00  0.00000000000E+00  0.96566939200E+02  0.96566939313E+02  0.46700000000E-02 0. -1.
         -1   -1    0    0    0  501 -0.00000000000E+00 -0.00000000000E+00 -0.14588849415E+01  0.14588924160E+01  0.46700000000E-02 0.  1.
        -11    1    1    2    0    0 -0.90341161900E+01 -0.75380457730E+01  0.54008341519E+02  0.55275115045E+02  0.51100000000E-03 0. -1.
         11    1    1    2    0    0  0.90341161900E+01  0.75380457730E+01  0.41099712740E+02  0.42750716683E+02  0.51100000000E-03 0.  1.
<mgrwt>
<rscale>  0 0.23738612E+02</rscale>
<asrwt>0</asrwt>
<pdfrwt beam="1">  1        1 0.14856456E-01 0.23738612E+02</pdfrwt>
<pdfrwt beam="2">  1       -1 0.22444438E-03 0.23738612E+02</pdfrwt>
<totfact> 0.30103763E+06</totfact>
</mgrwt>
</event>
<event>
 5    1  0.9583198E-007  0.2000258E+02  0.7818608E-02  0.1745277E+00
         -1   -1    0    0    0  501 -0.00000000000E+00  0.00000000000E+00  0.79876797413E+02  0.79876797549E+02  0.46700000000E-02 0.  1.
          1   -1    0    0  501    0  0.00000000000E+00 -0.00000000000E+00 -0.12522470590E+01  0.12522557668E+01  0.46700000000E-02 0. -1.
       1023    2    1    2    0    0  0.00000000000E+00  0.00000000000E+00  0.78624550354E+02  0.81129053316E+02  0.20002584174E+02 0.  0.
        -11    1    3    3    0    0 -0.88039697356E+01  0.47433302291E+01  0.39837645228E+02  0.41073678218E+02  0.51100000000E-03 0. -1.
         11    1    3    3    0    0  0.88039697356E+01 -0.47433302291E+01  0.38786905126E+02  0.40055375098E+02  0.51100000000E-03 0.  1.
<mgrwt>
<rscale>  0 0.20002584E+02</rscale>
<asrwt>0</asrwt>
<pdfrwt beam="2">  1        1 0.19265411E-03 0.20002584E+02</pdfrwt>
<pdfrwt beam="1">  1       -1 0.12288737E-01 0.20002584E+02</pdfrwt>
<totfact> 0.32991346E+06</totfact>
</mgrwt>
</event>
<event>
 5    1  0.9583198E-007  0.2000171E+02  0.7818608E-02  0.1745294E+00
          1   -1    0    0  501    0  0.00000000000E+00  0.00000000000E+00  0.89028827657E+01  0.89028839906E+01  0.46700000000E-02 0. -1.
         -1   -1    0    0    0  501 -0.00000000000E+00 -0.00000000000E+00 -0.11234235977E+02  0.11234236947E+02  0.46700000000E-02 0.  1.
       1023    2    1    2    0    0  0.00000000000E+00  0.00000000000E+00 -0.23313532111E+01  0.20137120938E+02  0.20001710724E+02 0.  0.
        -11    1    3    3    0    0  0.28480281546E+01  0.95864742315E+01 -0.12393508964E+01  0.10077090030E+02  0.51100000000E-03 0.  1.
         11    1    3    3    0    0 -0.28480281546E+01 -0.95864742315E+01 -0.10920023147E+01  0.10060030908E+02  0.51100000000E-03 0. -1.
<mgrwt>
<rscale>  0 0.20001711E+02</rscale>
<asrwt>0</asrwt>
<pdfrwt beam="1">  1        1 0.13696744E-02 0.20001711E+02</pdfrwt>
<pdfrwt beam="2">  1       -1 0.17283442E-02 0.20001711E+02</pdfrwt>
<totfact> 0.38434359E+06</totfact>
</mgrwt>
</event>
<event>
 5    1  0.1013421E-006  0.2000116E+02  0.7818608E-02  0.1745305E+00
         -1   -1    0    0    0  501 -0.00000000000E+00  0.00000000000E+00  0.29432744479E+01  0.29432781528E+01  0.46700000000E-02 0. -1.
          1   -1    0    0  501    0  0.00000000000E+00 -0.00000000000E+00 -0.33979684071E+02  0.33979684392E+02  0.46700000000E-02 0.  1.
       1023    2    1    2    0    0  0.00000000000E+00  0.00000000000E+00 -0.31036409623E+02  0.36922962545E+02  0.20001160986E+02 0.  0.
        -11    1    3    3    0    0 -0.28772222991E+00  0.99961842151E+01 -0.15386022701E+02  0.18350372687E+02  0.51100000000E-03 0. -1.
         11    1    3    3    0    0  0.28772222991E+00 -0.99961842151E+01 -0.15650386922E+02  0.18572589857E+02  0.51100000000E-03 0.  1.
<mgrwt>
<rscale>  0 0.20001161E+02</rscale>
<asrwt>0</asrwt>
<pdfrwt beam="2">  1        1 0.52276437E-02 0.20001161E+02</pdfrwt>
<pdfrwt beam="1">  1       -1 0.45281179E-03 0.20001161E+02</pdfrwt>
<totfact> 0.40719160E+06</totfact>
</mgrwt>
</event>
<event>
 5    1  0.9583198E-007  0.2000101E+02  0.7818608E-02  0.1745308E+00
         -1   -1    0    0    0  501 -0.00000000000E+00  0.00000000000E+00  0.35556174921E+02  0.35556175227E+02  0.46700000000E-02 0. -1.
          1   -1    0    0  501    0  0.00000000000E+00 -0.00000000000E+00 -0.28127330062E+01  0.28127368830E+01  0.46700000000E-02 0.  1.
       1023    2    1    2    0    0  0.00000000000E+00  0.00000000000E+00  0.32743441914E+02  0.38368912110E+02  0.20001010678E+02 0.  0.
        -11    1    3    3    0    0 -0.30912341663E+01 -0.95107021025E+01  0.16313420243E+02  0.19134703118E+02  0.51100000000E-03 0.  1.
         11    1    3    3    0    0  0.30912341663E+01  0.95107021025E+01  0.16430021672E+02  0.19234208992E+02  0.51100000000E-03 0. -1.
<mgrwt>
<rscale>  0 0.20001011E+02</rscale>
<asrwt>0</asrwt>
<pdfrwt beam="2">  1        1 0.43272849E-03 0.20001011E+02</pdfrwt>
<pdfrwt beam="1">  1       -1 0.54701809E-02 0.20001011E+02</pdfrwt>
<totfact> 0.36018570E+06</totfact>
</mgrwt>
</event>
<event>
 5    1  0.9583198E-007  0.2000158E+02  0.7818608E-02  0.1745297E+00
          1   -1    0    0  501    0  0.00000000000E+00  0.00000000000E+00  0.25193075156E+01  0.25193118439E+01  0.46700000000E-02 0. -1.
         -1   -1    0    0    0  501 -0.00000000000E+00 -0.00000000000E+00 -0.39699669480E+02  0.39699669755E+02  0.46700000000E-02 0.  1.
       1023    2    1    2    0    0  0.00000000000E+00  0.00000000000E+00 -0.37180361964E+02  0.42218981599E+02  0.20001577223E+02 0.  0.
        -11    1    3    3    0    0  0.33421899278E+01 -0.94257867346E+01 -0.18570891367E+02  0.21092503301E+02  0.51100000000E-03 0.  1.
         11    1    3    3    0    0 -0.33421899278E+01  0.94257867346E+01 -0.18609470598E+02  0.21126478298E+02  0.51100000000E-03 0. -1.
<mgrwt>
<rscale>  0 0.20001577E+02</rscale>
<asrwt>0</asrwt>
<pdfrwt beam="1">  1        1 0.38758616E-03 0.20001577E+02</pdfrwt>
<pdfrwt beam="2">  1       -1 0.61076413E-02 0.20001577E+02</pdfrwt>
<totfact> 0.35688241E+06</totfact>
</mgrwt>
</event>
<event>
 5    1  0.9583198E-007  0.2000074E+02  0.7818608E-02  0.1745313E+00
          1   -1    0    0  501    0  0.00000000000E+00  0.00000000000E+00  0.45207527442E+01  0.45207551563E+01  0.46700000000E-02 0.  1.
         -1   -1    0    0    0  501 -0.00000000000E+00 -0.00000000000E+00 -0.22121837907E+02  0.22121838400E+02  0.46700000000E-02 0. -1.
       1023    2    1    2    0    0  0.00000000000E+00  0.00000000000E+00 -0.17601085163E+02  0.26642593557E+02  0.20000739799E+02 0.  0.
        -11    1    3    3    0    0 -0.95523616179E+01 -0.29596723592E+01 -0.88154304573E+01  0.13331132261E+02  0.51100000000E-03 0. -1.
         11    1    3    3    0    0  0.95523616179E+01  0.29596723592E+01 -0.87856547060E+01  0.13311461296E+02  0.51100000000E-03 0.  1.
<mgrwt>
<rscale>  0 0.20000740E+02</rscale>
<asrwt>0</asrwt>
<pdfrwt beam="1">  1        1 0.69550066E-03 0.20000740E+02</pdfrwt>
<pdfrwt beam="2">  1       -1 0.34033599E-02 0.20000740E+02</pdfrwt>
<totfact> 0.37202668E+06</totfact>
</mgrwt>
</event>
<event>
 5    1  0.9583198E-007  0.2000121E+02  0.7818608E-02  0.1745304E+00
         -1   -1    0    0    0  501 -0.00000000000E+00  0.00000000000E+00  0.10927982960E+03  0.10927982970E+03  0.46700000000E-02 0. -1.
          1   -1    0    0  501    0  0.00000000000E+00 -0.00000000000E+00 -0.91518654987E+00  0.91519846479E+00  0.46700000000E-02 0.  1.
       1023    2    1    2    0    0  0.00000000000E+00  0.00000000000E+00  0.10836464305E+03  0.11019502816E+03  0.20001209183E+02 0.  0.
        -11    1    3    3    0    0  0.57863534162E+01  0.81565890104E+01  0.54093178394E+02  0.55009851656E+02  0.51100000000E-03 0.  1.
         11    1    3    3    0    0 -0.57863534162E+01 -0.81565890104E+01  0.54271464653E+02  0.55185176506E+02  0.51100000000E-03 0. -1.
<mgrwt>
<rscale>  0 0.20001209E+02</rscale>
<asrwt>0</asrwt>
<pdfrwt beam="2">  1        1 0.14079891E-03 0.20001209E+02</pdfrwt>
<pdfrwt beam="1">  1       -1 0.16812276E-01 0.20001209E+02</pdfrwt>
<totfact> 0.31374683E+06</totfact>
</mgrwt>
</event>
<event>
 5    1  0.9583198E-007  0.2000425E+02  0.7818608E-02  0.1745244E+00
         -1   -1    0    0    0  501 -0.00000000000E+00  0.00000000000E+00  0.10804653885E+03  0.10804653895E+03  0.46700000000E-02 0.  1.
          1   -1    0    0  501    0  0.00000000000E+00 -0.00000000000E+00 -0.92591484343E+00  0.92592662031E+00  0.46700000000E-02 0. -1.
       1023    2    1    2    0    0  0.00000000000E+00  0.00000000000E+00  0.10712062400E+03  0.10897246557E+03  0.20004253675E+02 0.  0.
        -11    1    3    3    0    0 -0.11901411524E+01 -0.99291496794E+01  0.52497125205E+02  0.53441113427E+02  0.51100000000E-03 0. -1.
         11    1    3    3    0    0  0.11901411524E+01  0.99291496794E+01  0.54623498798E+02  0.55531352140E+02  0.51100000000E-03 0.  1.
<mgrwt>
<rscale>  0 0.20004254E+02</rscale>
<asrwt>0</asrwt>
<pdfrwt beam="2">  1        1 0.14244934E-03 0.20004254E+02</pdfrwt>
<pdfrwt beam="1">  1       -1 0.16622547E-01 0.20004254E+02</pdfrwt>
<totfact> 0.31428118E+06</totfact>
</mgrwt>
</event>
<event>
 5    1  0.9642173E-007  0.2000126E+02  0.7818608E-02  0.1745303E+00
         -1   -1    0    0    0  501 -0.00000000000E+00  0.00000000000E+00  0.24836416767E+02  0.24836417206E+02  0.46700000000E-02 0. -1.
          1   -1    0    0  501    0  0.00000000000E+00 -0.00000000000E+00 -0.40268506445E+01  0.40268533524E+01  0.46700000000E-02 0.  1.
       1023    2    1    2    0    0  0.00000000000E+00  0.00000000000E+00  0.20809566122E+02  0.28863270558E+02  0.20001258588E+02 0.  0.
        -11    1    3    3    0    0  0.96086643338E+01 -0.27723365388E+01  0.10430020493E+02  0.14449830722E+02  0.51100000000E-03 0. -1.
         11    1    3    3    0    0 -0.96086643338E+01  0.27723365388E+01  0.10379545629E+02  0.14413439836E+02  0.51100000000E-03 0.  1.
<mgrwt>
<rscale>  0 0.20001259E+02</rscale>
<asrwt>0</asrwt>
<pdfrwt beam="2">  1        1 0.61951573E-03 0.20001259E+02</pdfrwt>
<pdfrwt beam="1">  1       -1 0.38209874E-02 0.20001259E+02</pdfrwt>
<totfact> 0.36942804E+06</totfact>
</mgrwt>
</event>
<event>
 5    1  0.9583198E-007  0.2000031E+02  0.7818608E-02  0.1745322E+00
          1   -1    0    0  501    0  0.00000000000E+00  0.00000000000E+00  0.44404977337E+02  0.44404977582E+02  0.46700000000E-02 0. -1.
         -1   -1    0    0    0  501 -0.00000000000E+00 -0.00000000000E+00 -0.22520669378E+01  0.22520717798E+01  0.46700000000E-02 0.  1.
       1023    2    1    2    0    0  0.00000000000E+00  0.00000000000E+00  0.42152910399E+02  0.46657049362E+02  0.20000310000E+02 0.  0.
        -11    1    3    3    0    0  0.72090024801E+01 -0.69305669415E+01  0.21018140888E+02  0.23275839868E+02  0.51100000000E-03 0.  1.
         11    1    3    3    0    0 -0.72090024801E+01  0.69305669415E+01  0.21134769511E+02  0.23381209495E+02  0.51100000000E-03 0. -1.
<mgrwt>
<rscale>  0 0.20000310E+02</rscale>
<asrwt>0</asrwt>
<pdfrwt beam="1">  1        1 0.68315349E-02 0.20000310E+02</pdfrwt>
<pdfrwt beam="2">  1       -1 0.34647225E-03 0.20000310E+02</pdfrwt>
<totfact> 0.41380011E+06</totfact>
</mgrwt>
</event>
<event>
 5    1  0.9583198E-007  0.2000283E+02  0.7818608E-02  0.1745272E+00
         -1   -1    0    0    0  501 -0.00000000000E+00  0.00000000000E+00  0.20304868821E+01  0.20304922524E+01  0.46700000000E-02 0.  1.
          1   -1    0    0  501    0  0.00000000000E+00 -0.00000000000E+00 -0.49263156445E+02  0.49263156667E+02  0.46700000000E-02 0. -1.
       1023    2    1    2    0    0  0.00000000000E+00  0.00000000000E+00 -0.47232669563E+02  0.51293648919E+02  0.20002833433E+02 0.  0.
        -11    1    3    3    0    0  0.92519183392E+01  0.37987282022E+01 -0.23609467793E+02  0.25640501139E+02  0.51100000000E-03 0.  1.
         11    1    3    3    0    0 -0.92519183392E+01 -0.37987282022E+01 -0.23623201770E+02  0.25653147781E+02  0.51100000000E-03 0. -1.
<mgrwt>
<rscale>  0 0.20002833E+02</rscale>
<asrwt>0</asrwt>
<pdfrwt beam="2">  1        1 0.75789467E-02 0.20002833E+02</pdfrwt>
<pdfrwt beam="1">  1       -1 0.31238306E-03 0.20002833E+02</pdfrwt>
<totfact> 0.41658425E+06</totfact>
</mgrwt>
</event>
<event>
 5    1  0.9583198E-007  0.2000048E+02  0.7818608E-02  0.1745318E+00
         -1   -1    0    0    0  501 -0.00000000000E+00  0.00000000000E+00  0.41920638986E+02  0.41920639246E+02  0.46700000000E-02 0. -1.
          1   -1    0    0  501    0  0.00000000000E+00 -0.00000000000E+00 -0.23855728581E+01  0.23855774291E+01  0.46700000000E-02 0.  1.
       1023    2    1    2    0    0  0.00000000000E+00  0.00000000000E+00  0.39535066128E+02  0.44306216675E+02  0.20000484552E+02 0.  0.
        -11    1    3    3    0    0  0.39408345705E+01 -0.91909738478E+01  0.19710280877E+02  0.22102021399E+02  0.51100000000E-03 0.  1.
         11    1    3    3    0    0 -0.39408345705E+01  0.91909738478E+01  0.19824785250E+02  0.22204195276E+02  0.51100000000E-03 0. -1.
<mgrwt>
<rscale>  0 0.20000485E+02</rscale>
<asrwt>0</asrwt>
<pdfrwt beam="2">  1        1 0.36701161E-03 0.20000485E+02</pdfrwt>
<pdfrwt beam="1">  1       -1 0.64493289E-02 0.20000485E+02</pdfrwt>
<totfact> 0.35521822E+06</totfact>
</mgrwt>
</event>
<event>
 5    1  0.9583198E-007  0.2000045E+02  0.7818608E-02  0.1745319E+00
         -1   -1    0    0    0  501 -0.00000000000E+00  0.00000000000E+00  0.31080350717E+01  0.31080385802E+01  0.46700000000E-02 0.  1.
          1   -1    0    0  501    0  0.00000000000E+00 -0.00000000000E+00 -0.32176090147E+02  0.32176090486E+02  0.46700000000E-02 0. -1.
       1023    2    1    2    0    0  0.00000000000E+00  0.00000000000E+00 -0.29068055076E+02  0.35284129066E+02  0.20000448447E+02 0.  0.
        -11    1    3    3    0    0 -0.93585498110E+01 -0.35244413106E+01 -0.14501347682E+02  0.17615141951E+02  0.51100000000E-03 0.  1.
         11    1    3    3    0    0  0.93585498110E+01  0.35244413106E+01 -0.14566707394E+02  0.17668987115E+02  0.51100000000E-03 0. -1.
<mgrwt>
<rscale>  0 0.20000448E+02</rscale>
<asrwt>0</asrwt>
<pdfrwt beam="2">  1        1 0.49501678E-02 0.20000448E+02</pdfrwt>
<pdfrwt beam="1">  1       -1 0.47815956E-03 0.20000448E+02</pdfrwt>
<totfact> 0.40602543E+06</totfact>
</mgrwt>
</event>
<event>
 5    1  0.9583198E-007  0.2000110E+02  0.7818608E-02  0.1745306E+00
         -1   -1    0    0    0  501 -0.00000000000E+00  0.00000000000E+00  0.49298846598E+01  0.49298868717E+01  0.46700000000E-02 0. -1.
          1   -1    0    0  501    0  0.00000000000E+00 -0.00000000000E+00 -0.20286674845E+02  0.20286675383E+02  0.46700000000E-02 0.  1.
       1023    2    1    2    0    0  0.00000000000E+00  0.00000000000E+00 -0.15356790186E+02  0.25216562255E+02  0.20001100148E+02 0.  0.
        -11    1    3    3    0    0  0.90416077356E+01  0.42731598699E+01 -0.76520755921E+01  0.12592252652E+02  0.51100000000E-03 0.  1.
         11    1    3    3    0    0 -0.90416077356E+01 -0.42731598699E+01 -0.77047145936E+01  0.12624309603E+02  0.51100000000E-03 0. -1.
<mgrwt>
<rscale>  0 0.20001100E+02</rscale>
<asrwt>0</asrwt>
<pdfrwt beam="2">  1        1 0.31210271E-02 0.20001100E+02</pdfrwt>
<pdfrwt beam="1">  1       -1 0.75844401E-03 0.20001100E+02</pdfrwt>
<totfact> 0.39724934E+06</totfact>
</mgrwt>
</event>
<event>
 5    1  0.9583198E-007  0.2000035E+02  0.7818608E-02  0.1745321E+00
         -1   -1    0    0    0  501 -0.00000000000E+00  0.00000000000E+00  0.98915166501E+01  0.98915177525E+01  0.46700000000E-02 0. -1.
          1   -1    0    0  501    0  0.00000000000E+00 -0.00000000000E+00 -0.10110020857E+02  0.10110021935E+02  0.46700000000E-02 0.  1.
       1023    2    1    2    0    0  0.00000000000E+00  0.00000000000E+00 -0.21850420654E+00  0.20001539688E+02  0.20000346142E+02 0.  0.
        -11    1    3    3    0    0 -0.95613109983E+01  0.29297825296E+01 -0.14342296831E+00  0.10001143139E+02  0.51100000000E-03 0.  1.
         11    1    3    3    0    0  0.95613109983E+01 -0.29297825296E+01 -0.75081238225E-01  0.10000396549E+02  0.51100000000E-03 0. -1.
<mgrwt>
<rscale>  0 0.20000346E+02</rscale>
<asrwt>0</asrwt>
<pdfrwt beam="2">  1        1 0.15553880E-02 0.20000346E+02</pdfrwt>
<pdfrwt beam="1">  1       -1 0.15217720E-02 0.20000346E+02</pdfrwt>
<totfact> 0.38639387E+06</totfact>
</mgrwt>
</event>
<event>
 5    1  0.9583198E-007  0.2000063E+02  0.7818608E-02  0.1745316E+00
          1   -1    0    0  501    0  0.00000000000E+00  0.00000000000E+00  0.11693249148E+01  0.11693342402E+01  0.46700000000E-02 0. -1.
         -1   -1    0    0    0  501 -0.00000000000E+00 -0.00000000000E+00 -0.85524427088E+02  0.85524427216E+02  0.46700000000E-02 0.  1.
       1023    2    1    2    0    0  0.00000000000E+00  0.00000000000E+00 -0.84355102173E+02  0.86693761456E+02  0.20000625307E+02 0.  0.
        -11    1    3    3    0    0 -0.67849279692E+01 -0.73462701664E+01 -0.42427305841E+02  0.43589898074E+02  0.51100000000E-03 0.  1.
         11    1    3    3    0    0  0.67849279692E+01  0.73462701664E+01 -0.41927796332E+02  0.43103863381E+02  0.51100000000E-03 0. -1.
<mgrwt>
<rscale>  0 0.20000625E+02</rscale>
<asrwt>0</asrwt>
<pdfrwt beam="1">  1        1 0.17989694E-03 0.20000625E+02</pdfrwt>
<pdfrwt beam="2">  1       -1 0.13157600E-01 0.20000625E+02</pdfrwt>
<totfact> 0.32669334E+06</totfact>
</mgrwt>
</event>
<event>
 5    1  0.9583198E-007  0.2000681E+02  0.7818608E-02  0.1745193E+00
          1   -1    0    0  501    0  0.00000000000E+00  0.00000000000E+00  0.28407399201E+02  0.28407399584E+02  0.46700000000E-02 0.  1.
         -1   -1    0    0    0  501 -0.00000000000E+00 -0.00000000000E+00 -0.35226065009E+01  0.35226095965E+01  0.46700000000E-02 0. -1.
       1023    2    1    2    0    0  0.00000000000E+00  0.00000000000E+00  0.24884792700E+02  0.31930009181E+02  0.20006813304E+02 0.  0.
        -11    1    3    3    0    0 -0.97911145773E+01  0.20455639140E+01  0.12655849189E+02  0.16131359997E+02  0.51100000000E-03 0.  1.
         11    1    3    3    0    0  0.97911145773E+01 -0.20455639140E+01  0.12228943511E+02  0.15798649184E+02  0.51100000000E-03 0. -1.
<mgrwt>
<rscale>  0 0.20006813E+02</rscale>
<asrwt>0</asrwt>
<pdfrwt beam="1">  1        1 0.43703694E-02 0.20006813E+02</pdfrwt>
<pdfrwt beam="2">  1       -1 0.54193973E-03 0.20006813E+02</pdfrwt>
<totfact> 0.40315134E+06</totfact>
</mgrwt>
</event>
<event>
 4    1  0.9583198E-007  0.2005269E+02  0.7818608E-02  0.1744282E+00
          1   -1    0    0  501    0  0.00000000000E+00  0.00000000000E+00  0.21396854947E+02  0.21396855456E+02  0.46700000000E-02 0. -1.
         -1   -1    0    0    0  501 -0.00000000000E+00 -0.00000000000E+00 -0.46982410005E+01  0.46982433214E+01  0.46700000000E-02 0.  1.
        -11    1    1    2    0    0  0.35481894356E+01  0.93775230613E+01  0.83420818982E+01  0.13042925964E+02  0.51100000000E-03 0. -1.
         11    1    1    2    0    0 -0.35481894356E+01 -0.93775230613E+01  0.83565320480E+01  0.13052172814E+02  0.51100000000E-03 0.  1.
<mgrwt>
<rscale>  0 0.20052692E+02</rscale>
<asrwt>0</asrwt>
<pdfrwt beam="1">  1        1 0.32918240E-02 0.20052692E+02</pdfrwt>
<pdfrwt beam="2">  1       -1 0.72280654E-03 0.20052692E+02</pdfrwt>
<totfact> 0.39586534E+06</totfact>
</mgrwt>
</event>
<event>
 5    1  0.1008852E-006  0.2000078E+02  0.7818608E-02  0.1745313E+00
         -1   -1    0    0    0  501 -0.00000000000E+00  0.00000000000E+00  0.16809106282E+01  0.16809171154E+01  0.46700000000E-02 0.  1.
          1   -1    0    0  501    0  0.00000000000E+00 -0.00000000000E+00 -0.59496094850E+02  0.59496095034E+02  0.46700000000E-02 0. -1.
       1023    2    1    2    0    0  0.00000000000E+00  0.00000000000E+00 -0.57815184222E+02  0.61177012149E+02  0.20000782206E+02 0.  0.
        -11    1    3    3    0    0  0.12882291680E+01 -0.99170656617E+01 -0.28937595756E+02  0.30616860945E+02  0.51100000000E-03 0. -1.
         11    1    3    3    0    0 -0.12882291680E+01  0.99170656617E+01 -0.28877588466E+02  0.30560151204E+02  0.51100000000E-03 0.  1.
<mgrwt>
<rscale>  0 0.20000782E+02</rscale>
<asrwt>0</asrwt>
<pdfrwt beam="2">  1        1 0.91532443E-02 0.20000782E+02</pdfrwt>
<pdfrwt beam="1">  1       -1 0.25860219E-03 0.20000782E+02</pdfrwt>
<totfact> 0.42254754E+06</totfact>
</mgrwt>
</event>
<event>
 5    1  0.9583198E-007  0.2000046E+02  0.7818608E-02  0.1745319E+00
          1   -1    0    0  501    0  0.00000000000E+00  0.00000000000E+00  0.35662650722E+01  0.35662681298E+01  0.46700000000E-02 0. -1.
         -1   -1    0    0    0  501 -0.00000000000E+00 -0.00000000000E+00 -0.28041818926E+02  0.28041819315E+02  0.46700000000E-02 0.  1.
       1023    2    1    2    0    0  0.00000000000E+00  0.00000000000E+00 -0.24475553854E+02  0.31608087445E+02  0.20000461381E+02 0.  0.
        -11    1    3    3    0    0  0.93156671999E+01  0.36363241703E+01 -0.12253951788E+02  0.15816568639E+02  0.51100000000E-03 0.  1.
         11    1    3    3    0    0 -0.93156671999E+01 -0.36363241703E+01 -0.12221602066E+02  0.15791518805E+02  0.51100000000E-03 0. -1.
<mgrwt>
<rscale>  0 0.20000461E+02</rscale>
<asrwt>0</asrwt>
<pdfrwt beam="1">  1        1 0.54865645E-03 0.20000461E+02</pdfrwt>
<pdfrwt beam="2">  1       -1 0.43141261E-02 0.20000461E+02</pdfrwt>
<totfact> 0.36655883E+06</totfact>
</mgrwt>
</event>
<event>
 5    1  0.9583198E-007  0.2000022E+02  0.7818608E-02  0.1745324E+00
         -1   -1    0    0    0  501 -0.00000000000E+00  0.00000000000E+00  0.99318501799E+02  0.99318501909E+02  0.46700000000E-02 0. -1.
          1   -1    0    0  501    0  0.00000000000E+00 -0.00000000000E+00 -0.10068780827E+01  0.10068889126E+01  0.46700000000E-02 0.  1.
       1023    2    1    2    0    0  0.00000000000E+00  0.00000000000E+00  0.98311623716E+02  0.10032539082E+03  0.20000217142E+02 0.  0.
        -11    1    3    3    0    0  0.99463241140E+01 -0.10357592241E+01  0.49172161464E+02  0.50178716841E+02  0.51100000000E-03 0.  1.
         11    1    3    3    0    0 -0.99463241140E+01  0.10357592241E+01  0.49139462253E+02  0.50146673981E+02  0.51100000000E-03 0. -1.
<mgrwt>
<rscale>  0 0.20000217E+02</rscale>
<asrwt>0</asrwt>
<pdfrwt beam="2">  1        1 0.15490518E-03 0.20000217E+02</pdfrwt>
<pdfrwt beam="1">  1       -1 0.15279768E-01 0.20000217E+02</pdfrwt>
<totfact> 0.31903697E+06</totfact>
</mgrwt>
</event>
<event>
 5    1  0.9583198E-007  0.2000030E+02  0.7818608E-02  0.1745322E+00
         -1   -1    0    0    0  501 -0.00000000000E+00  0.00000000000E+00  0.10079954367E+01  0.10080062546E+01  0.46700000000E-02 0. -1.
          1   -1    0    0  501    0  0.00000000000E+00 -0.00000000000E+00 -0.99209199140E+02  0.99209199250E+02  0.46700000000E-02 0.  1.
       1023    2    1    2    0    0  0.00000000000E+00  0.00000000000E+00 -0.98201203703E+02  0.10021720550E+03  0.20000296757E+02 0.  0.
        -11    1    3    3    0    0  0.33794705346E+01  0.94116749807E+01 -0.49352155801E+02  0.50355096361E+02  0.51100000000E-03 0.  1.
         11    1    3    3    0    0 -0.33794705346E+01 -0.94116749807E+01 -0.48849047902E+02  0.49862109143E+02  0.51100000000E-03 0. -1.
<mgrwt>
<rscale>  0 0.20000297E+02</rscale>
<asrwt>0</asrwt>
<pdfrwt beam="2">  1        1 0.15262947E-01 0.20000297E+02</pdfrwt>
<pdfrwt beam="1">  1       -1 0.15507714E-03 0.20000297E+02</pdfrwt>
<totfact> 0.44320813E+06</totfact>
</mgrwt>
</event>
<event>
 5    1  0.9583198E-007  0.2000024E+02  0.7818608E-02  0.1745323E+00
          1   -1    0    0  501    0  0.00000000000E+00  0.00000000000E+00  0.10521374341E+01  0.10521477981E+01  0.46700000000E-02 0. -1.
         -1   -1    0    0    0  501 -0.00000000000E+00 -0.00000000000E+00 -0.95046400535E+02  0.95046400649E+02  0.46700000000E-02 0.  1.
       1023    2    1    2    0    0  0.00000000000E+00  0.00000000000E+00 -0.93994263101E+02  0.96098548448E+02  0.20000237946E+02 0.  0.
        -11    1    3    3    0    0 -0.99553210354E+01 -0.94542690336E+00 -0.47051971642E+02  0.48102913473E+02  0.51100000000E-03 0. -1.
         11    1    3    3    0    0  0.99553210354E+01  0.94542690336E+00 -0.46942291459E+02  0.47995634974E+02  0.51100000000E-03 0.  1.
<mgrwt>
<rscale>  0 0.20000238E+02</rscale>
<asrwt>0</asrwt>
<pdfrwt beam="1">  1        1 0.16186818E-03 0.20000238E+02</pdfrwt>
<pdfrwt beam="2">  1       -1 0.14622517E-01 0.20000238E+02</pdfrwt>
<totfact> 0.32135949E+06</totfact>
</mgrwt>
</event>
<event>
 5    1  0.9763716E-007  0.2000092E+02  0.7818608E-02  0.1745310E+00
          1   -1    0    0  501    0  0.00000000000E+00  0.00000000000E+00  0.40058013029E+02  0.40058013301E+02  0.46700000000E-02 0.  1.
         -1   -1    0    0    0  501 -0.00000000000E+00 -0.00000000000E+00 -0.24966078155E+01  0.24966121832E+01  0.46700000000E-02 0. -1.
       1023    2    1    2    0    0  0.00000000000E+00  0.00000000000E+00  0.37561405213E+02  0.42554625484E+02  0.20000924691E+02 0.  0.
        -11    1    3    3    0    0  0.94599654576E+01  0.32431582174E+01  0.18812629876E+02  0.21305493770E+02  0.51100000000E-03 0.  1.
         11    1    3    3    0    0 -0.94599654576E+01 -0.32431582174E+01  0.18748775337E+02  0.21249131714E+02  0.51100000000E-03 0. -1.
<mgrwt>
<rscale>  0 0.20000925E+02</rscale>
<asrwt>0</asrwt>
<pdfrwt beam="1">  1        1 0.61627716E-02 0.20000925E+02</pdfrwt>
<pdfrwt beam="2">  1       -1 0.38409387E-03 0.20000925E+02</pdfrwt>
<totfact> 0.41109774E+06</totfact>
</mgrwt>
</event>
<event>
 5    1  0.9583198E-007  0.2000033E+02  0.7818608E-02  0.1745321E+00
          1   -1    0    0  501    0  0.00000000000E+00  0.00000000000E+00  0.87005465667E+00  0.87006718965E+00  0.46700000000E-02 0.  1.
         -1   -1    0    0    0  501 -0.00000000000E+00 -0.00000000000E+00 -0.11493831550E+03  0.11493831559E+03  0.46700000000E-02 0. -1.
       1023    2    1    2    0    0  0.00000000000E+00  0.00000000000E+00 -0.11406826084E+03  0.11580838278E+03  0.20000334781E+02 0.  0.
        -11    1    3    3    0    0 -0.17482598208E+01 -0.98461634711E+01 -0.57035693080E+02  0.57905730571E+02  0.51100000000E-03 0.  1.
         11    1    3    3    0    0  0.17482598208E+01  0.98461634711E+01 -0.57032567761E+02  0.57902652212E+02  0.51100000000E-03 0. -1.
<mgrwt>
<rscale>  0 0.20000335E+02</rscale>
<asrwt>0</asrwt>
<pdfrwt beam="1">  1        1 0.13385563E-03 0.20000335E+02</pdfrwt>
<pdfrwt beam="2">  1       -1 0.17682807E-01 0.20000335E+02</pdfrwt>
<totfact> 0.31088545E+06</totfact>
</mgrwt>
</event>
<event>
 5    1  0.1038065E-006  0.2000223E+02  0.7818608E-02  0.1745284E+00
         -1   -1    0    0    0  501 -0.00000000000E+00  0.00000000000E+00  0.97598188586E+00  0.97599305859E+00  0.46700000000E-02 0.  1.
          1   -1    0    0  501    0  0.00000000000E+00 -0.00000000000E+00 -0.10248313209E+03  0.10248313219E+03  0.46700000000E-02 0. -1.
       1023    2    1    2    0    0  0.00000000000E+00  0.00000000000E+00 -0.10150715020E+03  0.10345912525E+03  0.20002226275E+02 0.  0.
        -11    1    3    3    0    0  0.21299709775E+01 -0.97708356833E+01 -0.51413077134E+02  0.52376621760E+02  0.51100000000E-03 0.  1.
         11    1    3    3    0    0 -0.21299709775E+01  0.97708356833E+01 -0.50094073066E+02  0.51082503491E+02  0.51100000000E-03 0. -1.
<mgrwt>
<rscale>  0 0.20002226E+02</rscale>
<asrwt>0</asrwt>
<pdfrwt beam="2">  1        1 0.15766628E-01 0.20002226E+02</pdfrwt>
<pdfrwt beam="1">  1       -1 0.15015201E-03 0.20002226E+02</pdfrwt>
<totfact> 0.44469738E+06</totfact>
</mgrwt>
</event>
<event>
 5    1  0.9583198E-007  0.2000040E+02  0.7818608E-02  0.1745320E+00
          1   -1    0    0  501    0  0.00000000000E+00  0.00000000000E+00  0.73408307362E+01  0.73408322216E+01  0.46700000000E-02 0.  1.
         -1   -1    0    0    0  501 -0.00000000000E+00 -0.00000000000E+00 -0.13622984056E+02  0.13622984857E+02  0.46700000000E-02 0. -1.
       1023    2    1    2    0    0  0.00000000000E+00  0.00000000000E+00 -0.62821533202E+01  0.20963817078E+02  0.20000404400E+02 0.  0.
        -11    1    3    3    0    0 -0.73845075818E+01  0.67431079134E+01 -0.32038551281E+01  0.10500721142E+02  0.51100000000E-03 0. -1.
         11    1    3    3    0    0  0.73845075818E+01 -0.67431079134E+01 -0.30782981920E+01  0.10463095937E+02  0.51100000000E-03 0.  1.
<mgrwt>
<rscale>  0 0.20000404E+02</rscale>
<asrwt>0</asrwt>
<pdfrwt beam="1">  1        1 0.11293588E-02 0.20000404E+02</pdfrwt>
<pdfrwt beam="2">  1       -1 0.20958439E-02 0.20000404E+02</pdfrwt>
<totfact> 0.38124327E+06</totfact>
</mgrwt>
</event>
<event>
 5    1  0.9583198E-007  0.2000002E+02  0.7818608E-02  0.1745328E+00
          1   -1    0    0  501    0  0.00000000000E+00  0.00000000000E+00  0.49933163160E+01  0.49933184998E+01  0.46700000000E-02 0. -1.
         -1   -1    0    0    0  501 -0.00000000000E+00 -0.00000000000E+00 -0.20026805864E+02  0.20026806408E+02  0.46700000000E-02 0.  1.
       1023    2    1    2    0    0  0.00000000000E+00  0.00000000000E+00 -0.15033489548E+02  0.25020124908E+02  0.20000021061E+02 0.  0.
        -11    1    3    3    0    0 -0.16303639781E+01  0.98662067922E+01 -0.75050640936E+01  0.12503044048E+02  0.51100000000E-03 0.  1.
         11    1    3    3    0    0  0.16303639781E+01 -0.98662067922E+01 -0.75284254543E+01  0.12517080860E+02  0.51100000000E-03 0. -1.
<mgrwt>
<rscale>  0 0.20000021E+02</rscale>
<asrwt>0</asrwt>
<pdfrwt beam="1">  1        1 0.76820273E-03 0.20000021E+02</pdfrwt>
<pdfrwt beam="2">  1       -1 0.30810472E-02 0.20000021E+02</pdfrwt>
<totfact> 0.37413976E+06</totfact>
</mgrwt>
</event>
<event>
 5    1  0.9583198E-007  0.2000008E+02  0.7818608E-02  0.1745326E+00
         -1   -1    0    0    0  501 -0.00000000000E+00  0.00000000000E+00  0.17211500734E+02  0.17211501367E+02  0.46700000000E-02 0.  1.
          1   -1    0    0  501    0  0.00000000000E+00 -0.00000000000E+00 -0.58101132557E+01  0.58101151325E+01  0.46700000000E-02 0. -1.
       1023    2    1    2    0    0  0.00000000000E+00  0.00000000000E+00  0.11401387478E+02  0.23021616500E+02  0.20000079746E+02 0.  0.
        -11    1    3    3    0    0 -0.76228474237E+01  0.64724279721E+01  0.56708877756E+01  0.11496046935E+02  0.51100000000E-03 0. -1.
         11    1    3    3    0    0  0.76228474237E+01 -0.64724279721E+01  0.57304997023E+01  0.11525569565E+02  0.51100000000E-03 0.  1.
<mgrwt>
<rscale>  0 0.20000080E+02</rscale>
<asrwt>0</asrwt>
<pdfrwt beam="2">  1        1 0.89386378E-03 0.20000080E+02</pdfrwt>
<pdfrwt beam="1">  1       -1 0.26479234E-02 0.20000080E+02</pdfrwt>
<totfact> 0.37709712E+06</totfact>
</mgrwt>
</event>
<event>
 5    1  0.9583198E-007  0.2000348E+02  0.7818608E-02  0.1745259E+00
          1   -1    0    0  501    0  0.00000000000E+00  0.00000000000E+00  0.25463696761E+02  0.25463697189E+02  0.46700000000E-02 0. -1.
         -1   -1    0    0    0  501 -0.00000000000E+00 -0.00000000000E+00 -0.39285238441E+01  0.39285266198E+01  0.46700000000E-02 0.  1.
       1023    2    1    2    0    0  0.00000000000E+00  0.00000000000E+00  0.21535172917E+02  0.29392223809E+02  0.20003478395E+02 0.  0.
        -11    1    3    3    0    0  0.84248547639E+01 -0.53901014363E+01  0.10681714916E+02  0.14633195314E+02  0.51100000000E-03 0. -1.
         11    1    3    3    0    0 -0.84248547639E+01  0.53901014363E+01  0.10853458001E+02  0.14759028496E+02  0.51100000000E-03 0.  1.
<mgrwt>
<rscale>  0 0.20003478E+02</rscale>
<asrwt>0</asrwt>
<pdfrwt beam="1">  1        1 0.39174922E-02 0.20003478E+02</pdfrwt>
<pdfrwt beam="2">  1       -1 0.60438851E-03 0.20003478E+02</pdfrwt>
<totfact> 0.40118120E+06</totfact>
</mgrwt>
</event>
<event>
 4    1  0.9583198E-007  0.2006973E+02  0.7818608E-02  0.1743945E+00
         -1   -1    0    0    0  501 -0.00000000000E+00  0.00000000000E+00  0.98828902459E+02  0.98828902569E+02  0.46700000000E-02 0.  1.
          1   -1    0    0  501    0  0.00000000000E+00 -0.00000000000E+00 -0.10189118984E+01  0.10189226004E+01  0.46700000000E-02 0. -1.
        -11    1    1    2    0    0  0.97042971257E+01 -0.25528169114E+01  0.48453737270E+02  0.49481864481E+02  0.51100000000E-03 0. -1.
         11    1    1    2    0    0 -0.97042971257E+01  0.25528169114E+01  0.49356253291E+02  0.50365960688E+02  0.51100000000E-03 0.  1.
<mgrwt>
<rscale>  0 0.20069727E+02</rscale>
<asrwt>0</asrwt>
<pdfrwt beam="2">  1        1 0.15675644E-03 0.20069727E+02</pdfrwt>
<pdfrwt beam="1">  1       -1 0.15204454E-01 0.20069727E+02</pdfrwt>
<totfact> 0.31688273E+06</totfact>
</mgrwt>
</event>
<event>
 5    1  0.9583198E-007  0.2000054E+02  0.7818608E-02  0.1745317E+00
         -1   -1    0    0    0  501 -0.00000000000E+00  0.00000000000E+00  0.29618822228E+01  0.29618859044E+01  0.46700000000E-02 0.  1.
          1   -1    0    0  501    0  0.00000000000E+00 -0.00000000000E+00 -0.33764124354E+02  0.33764124677E+02  0.46700000000E-02 0. -1.
       1023    2    1    2    0    0  0.00000000000E+00  0.00000000000E+00 -0.30802242131E+02  0.36726010581E+02  0.20000543315E+02 0.  0.
        -11    1    3    3    0    0 -0.74183162021E+01  0.67062231788E+01 -0.15445661746E+02  0.18400361726E+02  0.51100000000E-03 0. -1.
         11    1    3    3    0    0  0.74183162021E+01 -0.67062231788E+01 -0.15356580385E+02  0.18325648855E+02  0.51100000000E-03 0.  1.
<mgrwt>
<rscale>  0 0.20000543E+02</rscale>
<asrwt>0</asrwt>
<pdfrwt beam="2">  1        1 0.51944807E-02 0.20000543E+02</pdfrwt>
<pdfrwt beam="1">  1       -1 0.45567452E-03 0.20000543E+02</pdfrwt>
<totfact> 0.40707757E+06</totfact>
</mgrwt>
</event>
<event>
 5    1  0.9583198E-007  0.2000022E+02  0.7818608E-02  0.1745324E+00
          1   -1    0    0  501    0  0.00000000000E+00  0.00000000000E+00  0.42403086553E+02  0.42403086810E+02  0.46700000000E-02 0. -1.
         -1   -1    0    0    0  501 -0.00000000000E+00 -0.00000000000E+00 -0.23583688444E+01  0.23583734681E+01  0.46700000000E-02 0.  1.
       1023    2    1    2    0    0  0.00000000000E+00  0.00000000000E+00  0.40044717709E+02  0.44761460278E+02  0.20000222746E+02 0.  0.
        -11    1    3    3    0    0 -0.96656222605E+01 -0.25644527035E+01  0.19934080480E+02  0.22301754106E+02  0.51100000000E-03 0. -1.
         11    1    3    3    0    0  0.96656222605E+01  0.25644527035E+01  0.20110637228E+02  0.22459706172E+02  0.51100000000E-03 0.  1.
<mgrwt>
<rscale>  0 0.20000223E+02</rscale>
<asrwt>0</asrwt>
<pdfrwt beam="1">  1        1 0.65235519E-02 0.20000223E+02</pdfrwt>
<pdfrwt beam="2">  1       -1 0.36282636E-03 0.20000223E+02</pdfrwt>
<totfact> 0.41258265E+06</totfact>
</mgrwt>
</event>
<event>
 5    1  0.9583198E-007  0.2000295E+02  0.7818608E-02  0.1745269E+00
          1   -1    0    0  501    0  0.00000000000E+00  0.00000000000E+00  0.10452397007E+01  0.10452501332E+01  0.46700000000E-02 0.  1.
         -1   -1    0    0    0  501 -0.00000000000E+00 -0.00000000000E+00 -0.95699552511E+02  0.95699552625E+02  0.46700000000E-02 0. -1.
       1023    2    1    2    0    0  0.00000000000E+00  0.00000000000E+00 -0.94654312810E+02  0.96744802758E+02  0.20002947961E+02 0.  0.
        -11    1    3    3    0    0  0.87757820106E+01 -0.47947212798E+01 -0.46550604211E+02  0.47612629152E+02  0.51100000000E-03 0. -1.
         11    1    3    3    0    0 -0.87757820106E+01  0.47947212798E+01 -0.48103708599E+02  0.49132173607E+02  0.51100000000E-03 0.  1.
<mgrwt>
<rscale>  0 0.20002948E+02</rscale>
<asrwt>0</asrwt>
<pdfrwt beam="1">  1        1 0.16080699E-03 0.20002948E+02</pdfrwt>
<pdfrwt beam="2">  1       -1 0.14723002E-01 0.20002948E+02</pdfrwt>
<totfact> 0.32090611E+06</totfact>
</mgrwt>
</event>
<event>
 4    1  0.9583198E-007  0.2001574E+02  0.7818608E-02  0.1745015E+00
          1   -1    0    0  501    0  0.00000000000E+00  0.00000000000E+00  0.31537184013E+01  0.31537218589E+01  0.46700000000E-02 0.  1.
         -1   -1    0    0    0  501 -0.00000000000E+00 -0.00000000000E+00 -0.31758500385E+02  0.31758500728E+02  0.46700000000E-02 0. -1.
        -11    1    1    2    0    0  0.33324459489E-01 -0.10007812839E+02 -0.14298564745E+02  0.17452976318E+02  0.51100000000E-03 0.  1.
         11    1    1    2    0    0 -0.33324459489E-01  0.10007812839E+02 -0.14306217239E+02  0.17459246269E+02  0.51100000000E-03 0. -1.
<mgrwt>
<rscale>  0 0.20015737E+02</rscale>
<asrwt>0</asrwt>
<pdfrwt beam="1">  1        1 0.48518776E-03 0.20015737E+02</pdfrwt>
<pdfrwt beam="2">  1       -1 0.48859232E-02 0.20015737E+02</pdfrwt>
<totfact> 0.36273545E+06</totfact>
</mgrwt>
</event>
<event>
 5    1  0.9583198E-007  0.2000335E+02  0.7818608E-02  0.1745261E+00
          1   -1    0    0  501    0  0.00000000000E+00  0.00000000000E+00  0.31939088910E+02  0.31939089251E+02  0.46700000000E-02 0. -1.
         -1   -1    0    0    0  501 -0.00000000000E+00 -0.00000000000E+00 -0.31320065968E+01  0.31320100784E+01  0.46700000000E-02 0.  1.
       1023    2    1    2    0    0  0.00000000000E+00  0.00000000000E+00  0.28807082313E+02  0.35071099330E+02  0.20003350139E+02 0.  0.
        -11    1    3    3    0    0  0.74242678506E+01 -0.67016040616E+01  0.14486776277E+02  0.17603918237E+02  0.51100000000E-03 0. -1.
         11    1    3    3    0    0 -0.74242678506E+01  0.67016040616E+01  0.14320306036E+02  0.17467181093E+02  0.51100000000E-03 0.  1.
<mgrwt>
<rscale>  0 0.20003350E+02</rscale>
<asrwt>0</asrwt>
<pdfrwt beam="1">  1        1 0.49137065E-02 0.20003350E+02</pdfrwt>
<pdfrwt beam="2">  1       -1 0.48184744E-03 0.20003350E+02</pdfrwt>
<totfact> 0.40573481E+06</totfact>
</mgrwt>
</event>
<event>
 5    1  0.9583198E-007  0.2000079E+02  0.7818608E-02  0.1745312E+00
         -1   -1    0    0    0  501 -0.00000000000E+00  0.00000000000E+00  0.85172009502E+00  0.85173289778E+00  0.46700000000E-02 0. -1.
          1   -1    0    0  501    0  0.00000000000E+00 -0.00000000000E+00 -0.11741787177E+03  0.11741787186E+03  0.46700000000E-02 0.  1.
       1023    2    1    2    0    0  0.00000000000E+00  0.00000000000E+00 -0.11656615168E+03  0.11826960476E+03  0.20000792333E+02 0.  0.
        -11    1    3    3    0    0  0.37844456750E+00  0.99930949188E+01 -0.58593556386E+02  0.59440811035E+02  0.51100000000E-03 0. -1.
         11    1    3    3    0    0 -0.37844456750E+00 -0.99930949188E+01 -0.57972595290E+02  0.58828793726E+02  0.51100000000E-03 0.  1.
<mgrwt>
<rscale>  0 0.20000792E+02</rscale>
<asrwt>0</asrwt>
<pdfrwt beam="2">  1        1 0.18064276E-01 0.20000792E+02</pdfrwt>
<pdfrwt beam="1">  1       -1 0.13103495E-03 0.20000792E+02</pdfrwt>
<totfact> 0.45178158E+06</totfact>
</mgrwt>
</event>
<event>
 5    1  0.9583198E-007  0.2000146E+02  0.7818608E-02  0.1745299E+00
          1   -1    0    0  501    0  0.00000000000E+00  0.00000000000E+00  0.19226923769E+01  0.19226980483E+01  0.46700000000E-02 0.  1.
         -1   -1    0    0    0  501 -0.00000000000E+00 -0.00000000000E+00 -0.52017934801E+02  0.52017935011E+02  0.46700000000E-02 0. -1.
       1023    2    1    2    0    0  0.00000000000E+00  0.00000000000E+00 -0.50095242424E+02  0.53940633059E+02  0.20001464478E+02 0.  0.
        -11    1    3    3    0    0  0.43791990233E+01  0.89909283665E+01 -0.25105967623E+02  0.27024503465E+02  0.51100000000E-03 0.  1.
         11    1    3    3    0    0 -0.43791990233E+01 -0.89909283665E+01 -0.24989274801E+02  0.26916129594E+02  0.51100000000E-03 0. -1.
<mgrwt>
<rscale>  0 0.20001464E+02</rscale>
<asrwt>0</asrwt>
<pdfrwt beam="1">  1        1 0.29579932E-03 0.20001464E+02</pdfrwt>
<pdfrwt beam="2">  1       -1 0.80027586E-02 0.20001464E+02</pdfrwt>
<totfact> 0.34781499E+06</totfact>
</mgrwt>
</event>
<event>
 5    1  0.9583198E-007  0.2000024E+02  0.7818608E-02  0.1745323E+00
          1   -1    0    0  501    0  0.00000000000E+00  0.00000000000E+00  0.83319763170E+01  0.83319776257E+01  0.46700000000E-02 0.  1.
         -1   -1    0    0    0  501 -0.00000000000E+00 -0.00000000000E+00 -0.12002242977E+02  0.12002243886E+02  0.46700000000E-02 0. -1.
       1023    2    1    2    0    0  0.00000000000E+00  0.00000000000E+00 -0.36702666600E+01  0.20334221511E+02  0.20000242676E+02 0.  0.
        -11    1    3    3    0    0 -0.64834764483E+01 -0.76134572304E+01 -0.18831303566E+01  0.10175774077E+02  0.51100000000E-03 0.  1.
         11    1    3    3    0    0  0.64834764483E+01  0.76134572304E+01 -0.17871363034E+01  0.10158447435E+02  0.51100000000E-03 0. -1.
<mgrwt>
<rscale>  0 0.20000243E+02</rscale>
<asrwt>0</asrwt>
<pdfrwt beam="1">  1        1 0.12818427E-02 0.20000243E+02</pdfrwt>
<pdfrwt beam="2">  1       -1 0.18464991E-02 0.20000243E+02</pdfrwt>
<totfact> 0.38334466E+06</totfact>
</mgrwt>
</event>
<event>
 5    1  0.1009155E-006  0.2000042E+02  0.7818608E-02  0.1745320E+00
          1   -1    0    0  501    0  0.00000000000E+00  0.00000000000E+00  0.10888384038E+03  0.10888384048E+03  0.46700000000E-02 0.  1.
         -1   -1    0    0    0  501 -0.00000000000E+00 -0.00000000000E+00 -0.91844208632E+00  0.91845395901E+00  0.46700000000E-02 0. -1.
       1023    2    1    2    0    0  0.00000000000E+00  0.00000000000E+00  0.10796539830E+03  0.10980229444E+03  0.20000415881E+02 0.  0.
        -11    1    3    3    0    0  0.88934869842E+01  0.45725406108E+01  0.54223272365E+02  0.55137695859E+02  0.51100000000E-03 0. -1.
         11    1    3    3    0    0 -0.88934869842E+01 -0.45725406108E+01  0.53742125932E+02  0.54664598584E+02  0.51100000000E-03 0.  1.
<mgrwt>
<rscale>  0 0.20000416E+02</rscale>
<asrwt>0</asrwt>
<pdfrwt beam="1">  1        1 0.16751354E-01 0.20000416E+02</pdfrwt>
<pdfrwt beam="2">  1       -1 0.14129977E-03 0.20000416E+02</pdfrwt>
<totfact> 0.44783098E+06</totfact>
</mgrwt>
</event>
<event>
 5    1  0.9583198E-007  0.2000571E+02  0.7818608E-02  0.1745215E+00
         -1   -1    0    0    0  501 -0.00000000000E+00  0.00000000000E+00  0.10728962800E+03  0.10728962810E+03  0.46700000000E-02 0.  1.
          1   -1    0    0  501    0  0.00000000000E+00 -0.00000000000E+00 -0.93258264736E+00  0.93259434003E+00  0.46700000000E-02 0. -1.
       1023    2    1    2    0    0  0.00000000000E+00  0.00000000000E+00  0.10635704535E+03  0.10822222244E+03  0.20005707537E+02 0.  0.
        -11    1    3    3    0    0  0.97617026331E+01 -0.21750666736E+01  0.54195318811E+02  0.55110383183E+02  0.51100000000E-03 0. -1.
         11    1    3    3    0    0 -0.97617026331E+01  0.21750666736E+01  0.52161726541E+02  0.53111839258E+02  0.51100000000E-03 0.  1.
<mgrwt>
<rscale>  0 0.20005708E+02</rscale>
<asrwt>0</asrwt>
<pdfrwt beam="2">  1        1 0.14347519E-03 0.20005708E+02</pdfrwt>
<pdfrwt beam="1">  1       -1 0.16506094E-01 0.20005708E+02</pdfrwt>
<totfact> 0.31462488E+06</totfact>
</mgrwt>
</event>
<event>
 5    1  0.9583198E-007  0.2000302E+02  0.7818608E-02  0.1745268E+00
          1   -1    0    0  501    0  0.00000000000E+00  0.00000000000E+00  0.27042900032E+01  0.27042940355E+01  0.46700000000E-02 0.  1.
         -1   -1    0    0    0  501 -0.00000000000E+00 -0.00000000000E+00 -0.36989415058E+02  0.36989415353E+02  0.46700000000E-02 0. -1.
       1023    2    1    2    0    0  0.00000000000E+00  0.00000000000E+00 -0.34285125055E+02  0.39693709389E+02  0.20003018897E+02 0.  0.
        -11    1    3    3    0    0 -0.68715694015E+00 -0.99776135953E+01 -0.16999009420E+02  0.19722861842E+02  0.51100000000E-03 0.  1.
         11    1    3    3    0    0  0.68715694015E+00  0.99776135953E+01 -0.17286115635E+02  0.19970847547E+02  0.51100000000E-03 0. -1.
<mgrwt>
<rscale>  0 0.20003019E+02</rscale>
<asrwt>0</asrwt>
<pdfrwt beam="1">  1        1 0.41604498E-03 0.20003019E+02</pdfrwt>
<pdfrwt beam="2">  1       -1 0.56906792E-02 0.20003019E+02</pdfrwt>
<totfact> 0.35895596E+06</totfact>
</mgrwt>
</event>
<event>
 5    1  0.9583198E-007  0.2000039E+02  0.7818608E-02  0.1745320E+00
         -1   -1    0    0    0  501 -0.00000000000E+00  0.00000000000E+00  0.21120942630E+02  0.21120943146E+02  0.46700000000E-02 0. -1.
          1   -1    0    0  501    0  0.00000000000E+00 -0.00000000000E+00 -0.47348209351E+01  0.47348232381E+01  0.46700000000E-02 0.  1.
       1023    2    1    2    0    0  0.00000000000E+00  0.00000000000E+00  0.16386121695E+02  0.25855766385E+02  0.20000391774E+02 0.  0.
        -11    1    3    3    0    0  0.64923472872E+01 -0.76061208774E+01  0.81718413709E+01  0.12914435325E+02  0.51100000000E-03 0.  1.
         11    1    3    3    0    0 -0.64923472872E+01  0.76061208774E+01  0.82142803242E+01  0.12941331060E+02  0.51100000000E-03 0. -1.
<mgrwt>
<rscale>  0 0.20000392E+02</rscale>
<asrwt>0</asrwt>
<pdfrwt beam="2">  1        1 0.72843421E-03 0.20000392E+02</pdfrwt>
<pdfrwt beam="1">  1       -1 0.32493760E-02 0.20000392E+02</pdfrwt>
<totfact> 0.37302495E+06</totfact>
</mgrwt>
</event>
<event>
 5    1  0.1008999E-006  0.2000071E+02  0.7818608E-02  0.1745314E+00
          1   -1    0    0  501    0  0.00000000000E+00  0.00000000000E+00  0.51547040542E+02  0.51547040754E+02  0.46700000000E-02 0.  1.
         -1   -1    0    0    0  501 -0.00000000000E+00 -0.00000000000E+00 -0.19401110561E+01  0.19401166766E+01  0.46700000000E-02 0. -1.
       1023    2    1    2    0    0  0.00000000000E+00  0.00000000000E+00  0.49606929486E+02  0.53487157430E+02  0.20000713911E+02 0.  0.
        -11    1    3    3    0    0  0.47584478795E+00 -0.99890105902E+01  0.24855467963E+02  0.26791809360E+02  0.51100000000E-03 0.  1.
         11    1    3    3    0    0 -0.47584478795E+00  0.99890105902E+01  0.24751461523E+02  0.26695348070E+02  0.51100000000E-03 0. -1.
<mgrwt>
<rscale>  0 0.20000714E+02</rscale>
<asrwt>0</asrwt>
<pdfrwt beam="1">  1        1 0.79303127E-02 0.20000714E+02</pdfrwt>
<pdfrwt beam="2">  1       -1 0.29847914E-03 0.20000714E+02</pdfrwt>
<totfact> 0.41801834E+06</totfact>
</mgrwt>
</event>
<event>
 4    1  0.9583198E-007  0.2031821E+02  0.7818608E-02  0.1739073E+00
         -1   -1    0    0    0  501 -0.00000000000E+00  0.00000000000E+00  0.15392472606E+02  0.15392473314E+02  0.46700000000E-02 0. -1.
          1   -1    0    0  501    0  0.00000000000E+00 -0.00000000000E+00 -0.67050567728E+01  0.67050583991E+01  0.46700000000E-02 0.  1.
        -11    1    1    2    0    0  0.66783607130E+01  0.76414959142E+01  0.38400471340E+01  0.10850756834E+02  0.51100000000E-03 0.  1.
         11    1    1    2    0    0 -0.66783607130E+01 -0.76414959142E+01  0.48473686991E+01  0.11246774879E+02  0.51100000000E-03 0. -1.
<mgrwt>
<rscale>  0 0.20318211E+02</rscale>
<asrwt>0</asrwt>
<pdfrwt beam="2">  1        1 0.10315474E-02 0.20318211E+02</pdfrwt>
<pdfrwt beam="1">  1       -1 0.23680729E-02 0.20318211E+02</pdfrwt>
<totfact> 0.36621279E+06</totfact>
</mgrwt>
</event>
<event>
 5    1  0.1003045E-006  0.2000086E+02  0.7818608E-02  0.1745311E+00
          1   -1    0    0  501    0  0.00000000000E+00  0.00000000000E+00  0.59562777077E+02  0.59562777260E+02  0.46700000000E-02 0. -1.
         -1   -1    0    0    0  501 -0.00000000000E+00 -0.00000000000E+00 -0.16790423287E+01  0.16790488231E+01  0.46700000000E-02 0.  1.
       1023    2    1    2    0    0  0.00000000000E+00  0.00000000000E+00  0.57883734748E+02  0.61241826083E+02  0.20000862821E+02 0.  0.
        -11    1    3    3    0    0 -0.75718389490E+01  0.65321135908E+01  0.29204823611E+02  0.30869450521E+02  0.51100000000E-03 0. -1.
         11    1    3    3    0    0  0.75718389490E+01 -0.65321135908E+01  0.28678911137E+02  0.30372375562E+02  0.51100000000E-03 0.  1.
<mgrwt>
<rscale>  0 0.20000863E+02</rscale>
<asrwt>0</asrwt>
<pdfrwt beam="1">  1        1 0.91635036E-02 0.20000863E+02</pdfrwt>
<pdfrwt beam="2">  1       -1 0.25831475E-03 0.20000863E+02</pdfrwt>
<totfact> 0.42258111E+06</totfact>
</mgrwt>
</event>
<event>
 5    1  0.9583198E-007  0.2000220E+02  0.7818608E-02  0.1745284E+00
         -1   -1    0    0    0  501 -0.00000000000E+00  0.00000000000E+00  0.57988289908E+02  0.57988290096E+02  0.46700000000E-02 0. -1.
          1   -1    0    0  501    0  0.00000000000E+00 -0.00000000000E+00 -0.17248624263E+01  0.17248687482E+01  0.46700000000E-02 0.  1.
       1023    2    1    2    0    0  0.00000000000E+00  0.00000000000E+00  0.56263427482E+02  0.59713158844E+02  0.20002201558E+02 0.  0.
        -11    1    3    3    0    0 -0.74401618987E+01  0.66832238553E+01  0.28200204440E+02  0.29921113296E+02  0.51100000000E-03 0.  1.
         11    1    3    3    0    0  0.74401618987E+01 -0.66832238553E+01  0.28063223042E+02  0.29792045548E+02  0.51100000000E-03 0. -1.
<mgrwt>
<rscale>  0 0.20002202E+02</rscale>
<asrwt>0</asrwt>
<pdfrwt beam="2">  1        1 0.26536394E-03 0.20002202E+02</pdfrwt>
<pdfrwt beam="1">  1       -1 0.89212761E-02 0.20002202E+02</pdfrwt>
<totfact> 0.34369187E+06</totfact>
</mgrwt>
</event>
<event>
 4    1  0.9583198E-007  0.2004855E+02  0.7818608E-02  0.1744364E+00
          1   -1    0    0  501    0  0.00000000000E+00  0.00000000000E+00  0.39111305599E+02  0.39111305878E+02  0.46700000000E-02 0. -1.
         -1   -1    0    0    0  501 -0.00000000000E+00 -0.00000000000E+00 -0.25692309925E+01  0.25692352367E+01  0.46700000000E-02 0.  1.
        -11    1    1    2    0    0  0.86585447272E+01  0.50392802084E+01  0.17546875278E+02  0.20205384780E+02  0.51100000000E-03 0. -1.
         11    1    1    2    0    0 -0.86585447272E+01 -0.50392802084E+01  0.18995199328E+02  0.21475156334E+02  0.51100000000E-03 0.  1.
<mgrwt>
<rscale>  0 0.20048548E+02</rscale>
<asrwt>0</asrwt>
<pdfrwt beam="1">  1        1 0.60171243E-02 0.20048548E+02</pdfrwt>
<pdfrwt beam="2">  1       -1 0.39526665E-03 0.20048548E+02</pdfrwt>
<totfact> 0.40833459E+06</totfact>
</mgrwt>
</event>
<event>
 5    1  0.9583198E-007  0.2000318E+02  0.7818608E-02  0.1745265E+00
          1   -1    0    0  501    0  0.00000000000E+00  0.00000000000E+00  0.12026780906E+03  0.12026780915E+03  0.46700000000E-02 0. -1.
         -1   -1    0    0    0  501 -0.00000000000E+00 -0.00000000000E+00 -0.83173556327E+00  0.83174867365E+00  0.46700000000E-02 0.  1.
       1023    2    1    2    0    0  0.00000000000E+00  0.00000000000E+00  0.11943607349E+03  0.12109955782E+03  0.20003181070E+02 0.  0.
        -11    1    3    3    0    0  0.90959074715E+01  0.41586710848E+01  0.59970210036E+02  0.60798488221E+02  0.51100000000E-03 0. -1.
         11    1    3    3    0    0 -0.90959074715E+01 -0.41586710848E+01  0.59465863457E+02  0.60301069599E+02  0.51100000000E-03 0.  1.
<mgrwt>
<rscale>  0 0.20003181E+02</rscale>
<asrwt>0</asrwt>
<pdfrwt beam="1">  1        1 0.18502740E-01 0.20003181E+02</pdfrwt>
<pdfrwt beam="2">  1       -1 0.12796034E-03 0.20003181E+02</pdfrwt>
<totfact> 0.45296654E+06</totfact>
</mgrwt>
</event>
<event>
 5    1  0.9583198E-007  0.2000005E+02  0.7818608E-02  0.1745327E+00
         -1   -1    0    0    0  501 -0.00000000000E+00  0.00000000000E+00  0.64577419870E+01  0.64577436756E+01  0.46700000000E-02 0.  1.
          1   -1    0    0  501    0  0.00000000000E+00 -0.00000000000E+00 -0.15485356211E+02  0.15485356915E+02  0.46700000000E-02 0. -1.
       1023    2    1    2    0    0  0.00000000000E+00  0.00000000000E+00 -0.90276142240E+01  0.21943100591E+02  0.20000046124E+02 0.  0.
        -11    1    3    3    0    0  0.29681019427E+01  0.95493810025E+01 -0.45001782286E+01  0.10965943235E+02  0.51100000000E-03 0.  1.
         11    1    3    3    0    0 -0.29681019427E+01 -0.95493810025E+01 -0.45274359954E+01  0.10977157356E+02  0.51100000000E-03 0. -1.
<mgrwt>
<rscale>  0 0.20000046E+02</rscale>
<asrwt>0</asrwt>
<pdfrwt beam="2">  1        1 0.23823627E-02 0.20000046E+02</pdfrwt>
<pdfrwt beam="1">  1       -1 0.99349896E-03 0.20000046E+02</pdfrwt>
<totfact> 0.39293855E+06</totfact>
</mgrwt>
</event>
<event>
 5    1  0.9583198E-007  0.2000180E+02  0.7818608E-02  0.1745292E+00
         -1   -1    0    0    0  501 -0.00000000000E+00  0.00000000000E+00  0.73992609660E+02  0.73992609808E+02  0.46700000000E-02 0. -1.
          1   -1    0    0  501    0  0.00000000000E+00 -0.00000000000E+00 -0.13517260461E+01  0.13517341131E+01  0.46700000000E-02 0.  1.
       1023    2    1    2    0    0  0.00000000000E+00  0.00000000000E+00  0.72640883614E+02  0.75344343921E+02  0.20001804634E+02 0.  0.
        -11    1    3    3    0    0  0.77467635670E+01 -0.63248046326E+01  0.36130317642E+02  0.37488869716E+02  0.51100000000E-03 0.  1.
         11    1    3    3    0    0 -0.77467635670E+01  0.63248046326E+01  0.36510565972E+02  0.37855474205E+02  0.51100000000E-03 0. -1.
<mgrwt>
<rscale>  0 0.20001805E+02</rscale>
<asrwt>0</asrwt>
<pdfrwt beam="2">  1        1 0.20795847E-03 0.20001805E+02</pdfrwt>
<pdfrwt beam="1">  1       -1 0.11383480E-01 0.20001805E+02</pdfrwt>
<totfact> 0.33347504E+06</totfact>
</mgrwt>
</event>
<event>
 5    1  0.9683921E-007  0.2000116E+02  0.7818608E-02  0.1745305E+00
         -1   -1    0    0    0  501 -0.00000000000E+00  0.00000000000E+00  0.13297135691E+02  0.13297136511E+02  0.46700000000E-02 0.  1.
          1   -1    0    0  501    0  0.00000000000E+00 -0.00000000000E+00 -0.75212864993E+01  0.75212879491E+01  0.46700000000E-02 0. -1.
       1023    2    1    2    0    0  0.00000000000E+00  0.00000000000E+00  0.57758491916E+01  0.20818424460E+02  0.20001159044E+02 0.  0.
        -11    1    3    3    0    0  0.39660609414E+01  0.91803787467E+01  0.29409696494E+01  0.10423929013E+02  0.51100000000E-03 0. -1.
         11    1    3    3    0    0 -0.39660609414E+01 -0.91803787467E+01  0.28348795423E+01  0.10394495447E+02  0.51100000000E-03 0.  1.
<mgrwt>
<rscale>  0 0.20001159E+02</rscale>
<asrwt>0</asrwt>
<pdfrwt beam="2">  1        1 0.11571212E-02 0.20001159E+02</pdfrwt>
<pdfrwt beam="1">  1       -1 0.20457134E-02 0.20001159E+02</pdfrwt>
<totfact> 0.38161976E+06</totfact>
</mgrwt>
</event>
<event>
 5    1  0.9590748E-007  0.2000221E+02  0.7818608E-02  0.1745284E+00
         -1   -1    0    0    0  501 -0.00000000000E+00  0.00000000000E+00  0.96559378121E+01  0.96559389414E+01  0.46700000000E-02 0.  1.
          1   -1    0    0  501    0  0.00000000000E+00 -0.00000000000E+00 -0.10358603422E+02  0.10358604475E+02  0.46700000000E-02 0. -1.
       1023    2    1    2    0    0  0.00000000000E+00  0.00000000000E+00 -0.70266560984E+00  0.20014543416E+02  0.20002205108E+02 0.  0.
        -11    1    3    3    0    0  0.20731890497E+01  0.97830465047E+01 -0.47766553962E+00  0.10011706966E+02  0.51100000000E-03 0. -1.
         11    1    3    3    0    0 -0.20731890497E+01 -0.97830465047E+01 -0.22500007022E+00  0.10002836450E+02  0.51100000000E-03 0.  1.
<mgrwt>
<rscale>  0 0.20002205E+02</rscale>
<asrwt>0</asrwt>
<pdfrwt beam="2">  1        1 0.15936315E-02 0.20002205E+02</pdfrwt>
<pdfrwt beam="1">  1       -1 0.14855291E-02 0.20002205E+02</pdfrwt>
<totfact> 0.38668758E+06</totfact>
</mgrwt>
</event>
<event>
 5    1  0.1000771E-006  0.2000127E+02  0.7818608E-02  0.1745303E+00
          1   -1    0    0  501    0  0.00000000000E+00  0.00000000000E+00  0.13031252455E+02  0.13031253292E+02  0.46700000000E-02 0.  1.
         -1   -1    0    0    0  501 -0.00000000000E+00 -0.00000000000E+00 -0.76748299000E+01  0.76748313208E+01  0.46700000000E-02 0. -1.
       1023    2    1    2    0    0  0.00000000000E+00  0.00000000000E+00  0.53564225550E+01  0.20706084613E+02  0.20001266895E+02 0.  0.
        -11    1    3    3    0    0 -0.22360744769E-01 -0.10000273165E+02  0.27629852740E+01  0.10374972350E+02  0.51100000000E-03 0.  1.
         11    1    3    3    0    0  0.22360744769E-01  0.10000273165E+02  0.25934372811E+01  0.10331112262E+02  0.51100000000E-03 0. -1.
<mgrwt>
<rscale>  0 0.20001267E+02</rscale>
<asrwt>0</asrwt>
<pdfrwt beam="1">  1        1 0.20048082E-02 0.20001267E+02</pdfrwt>
<pdfrwt beam="2">  1       -1 0.11807432E-02 0.20001267E+02</pdfrwt>
<totfact> 0.39023465E+06</totfact>
</mgrwt>
</event>
<event>
 5    1  0.9583198E-007  0.2001114E+02  0.7818608E-02  0.1745107E+00
          1   -1    0    0  501    0  0.00000000000E+00  0.00000000000E+00  0.10996727184E+01  0.10996826344E+01  0.46700000000E-02 0.  1.
         -1   -1    0    0    0  501 -0.00000000000E+00 -0.00000000000E+00 -0.91037083697E+02  0.91037083817E+02  0.46700000000E-02 0. -1.
       1023    2    1    2    0    0  0.00000000000E+00  0.00000000000E+00 -0.89937410979E+02  0.92136766451E+02  0.20011142859E+02 0.  0.
        -11    1    3    3    0    0 -0.97661650575E+01 -0.21579571160E+01 -0.46243852494E+02  0.47313091768E+02  0.51100000000E-03 0. -1.
         11    1    3    3    0    0  0.97661650575E+01  0.21579571160E+01 -0.43693558485E+02  0.44823674684E+02  0.51100000000E-03 0.  1.
<mgrwt>
<rscale>  0 0.20011143E+02</rscale>
<asrwt>0</asrwt>
<pdfrwt beam="1">  1        1 0.16918126E-03 0.20011143E+02</pdfrwt>
<pdfrwt beam="2">  1       -1 0.14005700E-01 0.20011143E+02</pdfrwt>
<totfact> 0.32319531E+06</totfact>
</mgrwt>
</event>
<event>
 5    1  0.9701339E-007  0.2000132E+02  0.7818608E-02  0.1745302E+00
         -1   -1    0    0    0  501 -0.00000000000E+00  0.00000000000E+00  0.20176334817E+02  0.20176335357E+02  0.46700000000E-02 0. -1.
          1   -1    0    0  501    0  0.00000000000E+00 -0.00000000000E+00 -0.49569543741E+01  0.49569565739E+01  0.46700000000E-02 0.  1.
       1023    2    1    2    0    0  0.00000000000E+00  0.00000000000E+00  0.15219380443E+02  0.25133291931E+02  0.20001320512E+02 0.  0.
        -11    1    3    3    0    0  0.72611437162E+00 -0.99738051458E+01  0.77300477236E+01  0.12639528047E+02  0.51100000000E-03 0. -1.
         11    1    3    3    0    0 -0.72611437162E+00  0.99738051458E+01  0.74893327190E+01  0.12493763885E+02  0.51100000000E-03 0.  1.
<mgrwt>
<rscale>  0 0.20001321E+02</rscale>
<asrwt>0</asrwt>
<pdfrwt beam="2">  1        1 0.76260856E-03 0.20001321E+02</pdfrwt>
<pdfrwt beam="1">  1       -1 0.31040518E-02 0.20001321E+02</pdfrwt>
<totfact> 0.37393453E+06</totfact>
</mgrwt>
</event>
<event>
 5    1  0.9756159E-007  0.2000174E+02  0.7818608E-02  0.1745294E+00
          1   -1    0    0  501    0  0.00000000000E+00  0.00000000000E+00  0.17113003393E+02  0.17113004031E+02  0.46700000000E-02 0. -1.
         -1   -1    0    0    0  501 -0.00000000000E+00 -0.00000000000E+00 -0.58445222755E+01  0.58445241412E+01  0.46700000000E-02 0.  1.
       1023    2    1    2    0    0  0.00000000000E+00  0.00000000000E+00  0.11268481118E+02  0.22957528172E+02  0.20001735751E+02 0.  0.
        -11    1    3    3    0    0  0.82956745172E+01 -0.55842766759E+01  0.57747966637E+01  0.11547754693E+02  0.51100000000E-03 0.  1.
         11    1    3    3    0    0 -0.82956745172E+01  0.55842766759E+01  0.54936844542E+01  0.11409773479E+02  0.51100000000E-03 0. -1.
<mgrwt>
<rscale>  0 0.20001736E+02</rscale>
<asrwt>0</asrwt>
<pdfrwt beam="1">  1        1 0.26327699E-02 0.20001736E+02</pdfrwt>
<pdfrwt beam="2">  1       -1 0.89915748E-03 0.20001736E+02</pdfrwt>
<totfact> 0.39443653E+06</totfact>
</mgrwt>
</event>
<event>
 5    1  0.9874860E-007  0.2000149E+02  0.7818608E-02  0.1745298E+00
          1   -1    0    0  501    0  0.00000000000E+00  0.00000000000E+00  0.13402289084E+02  0.13402289898E+02  0.46700000000E-02 0. -1.
         -1   -1    0    0    0  501 -0.00000000000E+00 -0.00000000000E+00 -0.74625236730E+01  0.74625251343E+01  0.46700000000E-02 0.  1.
       1023    2    1    2    0    0  0.00000000000E+00  0.00000000000E+00  0.59397654110E+01  0.20864815032E+02  0.20001492274E+02 0.  0.
        -11    1    3    3    0    0  0.23319687485E+01  0.97249351655E+01  0.29179250574E+01  0.10417616288E+02  0.51100000000E-03 0.  1.
         11    1    3    3    0    0 -0.23319687485E+01 -0.97249351655E+01  0.30218403535E+01  0.10447198744E+02  0.51100000000E-03 0. -1.
<mgrwt>
<rscale>  0 0.20001492E+02</rscale>
<asrwt>0</asrwt>
<pdfrwt beam="1">  1        1 0.20618908E-02 0.20001492E+02</pdfrwt>
<pdfrwt beam="2">  1       -1 0.11480808E-02 0.20001492E+02</pdfrwt>
<totfact> 0.39065251E+06</totfact>
</mgrwt>
</event>
<event>
 5    1  0.9754632E-007  0.2000180E+02  0.7818608E-02  0.1745292E+00
         -1   -1    0    0    0  501 -0.00000000000E+00  0.00000000000E+00  0.35801009992E+01  0.35801040451E+01  0.46700000000E-02 0.  1.
          1   -1    0    0  501    0  0.00000000000E+00 -0.00000000000E+00 -0.27937184576E+02  0.27937184967E+02  0.46700000000E-02 0. -1.
       1023    2    1    2    0    0  0.00000000000E+00  0.00000000000E+00 -0.24357083577E+02  0.31517289012E+02  0.20001799576E+02 0.  0.
        -11    1    3    3    0    0  0.87114204907E+01 -0.49115800389E+01 -0.12295727915E+02  0.15849207888E+02  0.51100000000E-03 0. -1.
         11    1    3    3    0    0 -0.87114204907E+01  0.49115800389E+01 -0.12061355662E+02  0.15668081124E+02  0.51100000000E-03 0.  1.
<mgrwt>
<rscale>  0 0.20001800E+02</rscale>
<asrwt>0</asrwt>
<pdfrwt beam="2">  1        1 0.42980285E-02 0.20001800E+02</pdfrwt>
<pdfrwt beam="1">  1       -1 0.55078505E-03 0.20001800E+02</pdfrwt>
<totfact> 0.40304517E+06</totfact>
</mgrwt>
</event>
<event>
 5    1  0.9583198E-007  0.2000028E+02  0.7818608E-02  0.1745323E+00
         -1   -1    0    0    0  501 -0.00000000000E+00  0.00000000000E+00  0.86155369487E+00  0.86156635150E+00  0.46700000000E-02 0.  1.
          1   -1    0    0  501    0  0.00000000000E+00 -0.00000000000E+00 -0.11607172596E+03  0.11607172605E+03  0.46700000000E-02 0. -1.
       1023    2    1    2    0    0  0.00000000000E+00  0.00000000000E+00 -0.11521017226E+03  0.11693329240E+03  0.20000276983E+02 0.  0.
        -11    1    3    3    0    0  0.34454709619E+01 -0.93878038508E+01 -0.57457374258E+02  0.58321110999E+02  0.51100000000E-03 0. -1.
         11    1    3    3    0    0 -0.34454709619E+01  0.93878038508E+01 -0.57752798006E+02  0.58612181405E+02  0.51100000000E-03 0.  1.
<mgrwt>
<rscale>  0 0.20000277E+02</rscale>
<asrwt>0</asrwt>
<pdfrwt beam="2">  1        1 0.17857177E-01 0.20000277E+02</pdfrwt>
<pdfrwt beam="1">  1       -1 0.13254780E-03 0.20000277E+02</pdfrwt>
<totfact> 0.45118757E+06</totfact>
</mgrwt>
</event>
<event>
 5    1  0.9583198E-007  0.2000379E+02  0.7818608E-02  0.1745253E+00
         -1   -1    0    0    0  501 -0.00000000000E+00  0.00000000000E+00  0.44847227445E+02  0.44847227688E+02  0.46700000000E-02 0. -1.
          1   -1    0    0  501    0  0.00000000000E+00 -0.00000000000E+00 -0.22306343656E+01  0.22306392541E+01  0.46700000000E-02 0.  1.
       1023    2    1    2    0    0  0.00000000000E+00  0.00000000000E+00  0.42616593080E+02  0.47077866943E+02  0.20003788395E+02 0.  0.
        -11    1    3    3    0    0  0.71968942437E+01  0.69430999517E+01  0.21754605881E+02  0.23942948878E+02  0.51100000000E-03 0. -1.
         11    1    3    3    0    0 -0.71968942437E+01 -0.69430999517E+01  0.20861987199E+02  0.23134918064E+02  0.51100000000E-03 0.  1.
<mgrwt>
<rscale>  0 0.20003788E+02</rscale>
<asrwt>0</asrwt>
<pdfrwt beam="2">  1        1 0.34317490E-03 0.20003788E+02</pdfrwt>
<pdfrwt beam="1">  1       -1 0.68995741E-02 0.20003788E+02</pdfrwt>
<totfact> 0.35289168E+06</totfact>
</mgrwt>
</event>
<event>
 4    1  0.9583198E-007  0.2001393E+02  0.7818608E-02  0.1745051E+00
         -1   -1    0    0    0  501 -0.00000000000E+00  0.00000000000E+00  0.64380957997E+02  0.64380958166E+02  0.46700000000E-02 0. -1.
          1   -1    0    0  501    0  0.00000000000E+00 -0.00000000000E+00 -0.15554158176E+01  0.15554228282E+01  0.46700000000E-02 0.  1.
        -11    1    1    2    0    0 -0.69625979853E+01  0.71871308031E+01  0.31141557832E+02  0.32709772918E+02  0.51100000000E-03 0.  1.
         11    1    1    2    0    0  0.69625979853E+01 -0.71871308031E+01  0.31683984348E+02  0.33226608077E+02  0.51100000000E-03 0. -1.
<mgrwt>
<rscale>  0 0.20013935E+02</rscale>
<asrwt>0</asrwt>
<pdfrwt beam="2">  1        1 0.23929527E-03 0.20013935E+02</pdfrwt>
<pdfrwt beam="1">  1       -1 0.99047643E-02 0.20013935E+02</pdfrwt>
<totfact> 0.33904822E+06</totfact>
</mgrwt>
</event>
<event>
 5    1  0.9583198E-007  0.2000176E+02  0.7818608E-02  0.1745293E+00
          1   -1    0    0  501    0  0.00000000000E+00  0.00000000000E+00  0.10778926345E+01  0.10779027509E+01  0.46700000000E-02 0. -1.
         -1   -1    0    0    0  501 -0.00000000000E+00 -0.00000000000E+00 -0.92789489784E+02  0.92789489902E+02  0.46700000000E-02 0.  1.
       1023    2    1    2    0    0  0.00000000000E+00  0.00000000000E+00 -0.91711597150E+02  0.93867392653E+02  0.20001758714E+02 0.  0.
        -11    1    3    3    0    0  0.69007259001E+01 -0.72385709396E+01 -0.45735192826E+02  0.46815860457E+02  0.51100000000E-03 0. -1.
         11    1    3    3    0    0 -0.69007259001E+01  0.72385709396E+01 -0.45976404324E+02  0.47051532196E+02  0.51100000000E-03 0.  1.
<mgrwt>
<rscale>  0 0.20001759E+02</rscale>
<asrwt>0</asrwt>
<pdfrwt beam="1">  1        1 0.16583050E-03 0.20001759E+02</pdfrwt>
<pdfrwt beam="2">  1       -1 0.14275301E-01 0.20001759E+02</pdfrwt>
<totfact> 0.32255150E+06</totfact>
</mgrwt>
</event>
<event>
 5    1  0.9584998E-007  0.2000094E+02  0.7818608E-02  0.1745309E+00
          1   -1    0    0  501    0  0.00000000000E+00  0.00000000000E+00  0.56847069946E+01  0.56847089128E+01  0.46700000000E-02 0.  1.
         -1   -1    0    0    0  501 -0.00000000000E+00 -0.00000000000E+00 -0.17592698603E+02  0.17592699223E+02  0.46700000000E-02 0. -1.
       1023    2    1    2    0    0  0.00000000000E+00  0.00000000000E+00 -0.11907991609E+02  0.23277408136E+02  0.20000936612E+02 0.  0.
        -11    1    3    3    0    0  0.99962029253E+01 -0.28878388842E+00 -0.60046856177E+01  0.11664635386E+02  0.51100000000E-03 0.  1.
         11    1    3    3    0    0 -0.99962029253E+01  0.28878388842E+00 -0.59033059910E+01  0.11612772750E+02  0.51100000000E-03 0. -1.
<mgrwt>
<rscale>  0 0.20000937E+02</rscale>
<asrwt>0</asrwt>
<pdfrwt beam="1">  1        1 0.87457051E-03 0.20000937E+02</pdfrwt>
<pdfrwt beam="2">  1       -1 0.27065692E-02 0.20000937E+02</pdfrwt>
<totfact> 0.37664831E+06</totfact>
</mgrwt>
</event>
<event>
 5    1  0.9583198E-007  0.2000043E+02  0.7818608E-02  0.1745319E+00
          1   -1    0    0  501    0  0.00000000000E+00  0.00000000000E+00  0.37418320759E+02  0.37418321051E+02  0.46700000000E-02 0. -1.
         -1   -1    0    0    0  501 -0.00000000000E+00 -0.00000000000E+00 -0.26726014900E+01  0.26726055701E+01  0.46700000000E-02 0.  1.
       1023    2    1    2    0    0  0.00000000000E+00  0.00000000000E+00  0.34745719269E+02  0.40090926621E+02  0.20000434740E+02 0.  0.
        -11    1    3    3    0    0 -0.65829495102E+01 -0.75278605204E+01  0.17330864724E+02  0.20009067460E+02  0.51100000000E-03 0.  1.
         11    1    3    3    0    0  0.65829495102E+01  0.75278605204E+01  0.17414854545E+02  0.20081859161E+02  0.51100000000E-03 0. -1.
<mgrwt>
<rscale>  0 0.20000435E+02</rscale>
<asrwt>0</asrwt>
<pdfrwt beam="1">  1        1 0.57566650E-02 0.20000435E+02</pdfrwt>
<pdfrwt beam="2">  1       -1 0.41116980E-03 0.20000435E+02</pdfrwt>
<totfact> 0.40945350E+06</totfact>
</mgrwt>
</event>
<event>
 5    1  0.9583198E-007  0.2000418E+02  0.7818608E-02  0.1745245E+00
          1   -1    0    0  501    0  0.00000000000E+00  0.00000000000E+00  0.67453730235E+01  0.67453746400E+01  0.46700000000E-02 0. -1.
         -1   -1    0    0    0  501 -0.00000000000E+00 -0.00000000000E+00 -0.14831174457E+02  0.14831175192E+02  0.46700000000E-02 0.  1.
       1023    2    1    2    0    0  0.00000000000E+00  0.00000000000E+00 -0.80858014334E+01  0.21576549832E+02  0.20004182509E+02 0.  0.
        -11    1    3    3    0    0  0.99159043194E+01 -0.13093755528E+01 -0.40935650239E+01  0.10807261340E+02  0.51100000000E-03 0. -1.
         11    1    3    3    0    0 -0.99159043194E+01  0.13093755528E+01 -0.39922364095E+01  0.10769288492E+02  0.51100000000E-03 0.  1.
<mgrwt>
<rscale>  0 0.20004183E+02</rscale>
<asrwt>0</asrwt>
<pdfrwt beam="1">  1        1 0.10377499E-02 0.20004183E+02</pdfrwt>
<pdfrwt beam="2">  1       -1 0.22817193E-02 0.20004183E+02</pdfrwt>
<totfact> 0.37962308E+06</totfact>
</mgrwt>
</event>
<event>
 5    1  0.9583198E-007  0.2000105E+02  0.7818608E-02  0.1745307E+00
         -1   -1    0    0    0  501 -0.00000000000E+00  0.00000000000E+00  0.10563381723E+03  0.10563381733E+03  0.46700000000E-02 0. -1.
          1   -1    0    0  501    0  0.00000000000E+00 -0.00000000000E+00 -0.94675964244E+00  0.94677116003E+00  0.46700000000E-02 0.  1.
       1023    2    1    2    0    0  0.00000000000E+00  0.00000000000E+00  0.10468705759E+03  0.10658058849E+03  0.20001045403E+02 0.  0.
        -11    1    3    3    0    0 -0.20406549929E+01 -0.97896969002E+01  0.51866438953E+02  0.52821680474E+02  0.51100000000E-03 0. -1.
         11    1    3    3    0    0  0.20406549929E+01  0.97896969002E+01  0.52820618634E+02  0.53758908019E+02  0.51100000000E-03 0.  1.
<mgrwt>
<rscale>  0 0.20001045E+02</rscale>
<asrwt>0</asrwt>
<pdfrwt beam="2">  1        1 0.14565632E-03 0.20001045E+02</pdfrwt>
<pdfrwt beam="1">  1       -1 0.16251346E-01 0.20001045E+02</pdfrwt>
<totfact> 0.31565153E+06</totfact>
</mgrwt>
</event>
<event>
 5    1  0.9583198E-007  0.2000065E+02  0.7818608E-02  0.1745315E+00
         -1   -1    0    0    0  501 -0.00000000000E+00  0.00000000000E+00  0.28577274476E+01  0.28577312634E+01  0.46700000000E-02 0. -1.
          1   -1    0    0  501    0  0.00000000000E+00 -0.00000000000E+00 -0.34995099362E+02  0.34995099674E+02  0.46700000000E-02 0.  1.
       1023    2    1    2    0    0  0.00000000000E+00  0.00000000000E+00 -0.32137371915E+02  0.37852830937E+02  0.20000653399E+02 0.  0.
        -11    1    3    3    0    0 -0.39980234463E+01 -0.91663665115E+01 -0.16084216035E+02  0.18939600635E+02  0.51100000000E-03 0.  1.
         11    1    3    3    0    0  0.39980234463E+01  0.91663665115E+01 -0.16053155880E+02  0.18913230302E+02  0.51100000000E-03 0. -1.
<mgrwt>
<rscale>  0 0.20000653E+02</rscale>
<asrwt>0</asrwt>
<pdfrwt beam="2">  1        1 0.53838614E-02 0.20000653E+02</pdfrwt>
<pdfrwt beam="1">  1       -1 0.43965072E-03 0.20000653E+02</pdfrwt>
<totfact> 0.40788029E+06</totfact>
</mgrwt>
</event>
<event>
 5    1  0.9583198E-007  0.2000448E+02  0.7818608E-02  0.1745239E+00
          1   -1    0    0  501    0  0.00000000000E+00  0.00000000000E+00  0.80598626042E+01  0.80598639572E+01  0.46700000000E-02 0. -1.
         -1   -1    0    0    0  501 -0.00000000000E+00 -0.00000000000E+00 -0.12412709457E+02  0.12412710335E+02  0.46700000000E-02 0.  1.
       1023    2    1    2    0    0  0.00000000000E+00  0.00000000000E+00 -0.43528468525E+01  0.20472574292E+02  0.20004475060E+02 0.  0.
        -11    1    3    3    0    0 -0.11915353282E+01  0.99298427043E+01 -0.20204673257E+01  0.10203128003E+02  0.51100000000E-03 0. -1.
         11    1    3    3    0    0  0.11915353282E+01 -0.99298427043E+01 -0.23323795268E+01  0.10269446289E+02  0.51100000000E-03 0.  1.
<mgrwt>
<rscale>  0 0.20004475E+02</rscale>
<asrwt>0</asrwt>
<pdfrwt beam="1">  1        1 0.12399790E-02 0.20004475E+02</pdfrwt>
<pdfrwt beam="2">  1       -1 0.19096478E-02 0.20004475E+02</pdfrwt>
<totfact> 0.38262013E+06</totfact>
</mgrwt>
</event>
<event>
 5    1  0.9989602E-007  0.2000068E+02  0.7818608E-02  0.1745315E+00
         -1   -1    0    0    0  501 -0.00000000000E+00  0.00000000000E+00  0.12904502151E+01  0.12904586652E+01  0.46700000000E-02 0.  1.
          1   -1    0    0  501    0  0.00000000000E+00 -0.00000000000E+00 -0.77497313637E+02  0.77497313778E+02  0.46700000000E-02 0. -1.
       1023    2    1    2    0    0  0.00000000000E+00  0.00000000000E+00 -0.76206863422E+02  0.78787772443E+02  0.20000676336E+02 0.  0.
        -11    1    3    3    0    0  0.22035331768E+01  0.97542912302E+01 -0.37824679567E+02  0.39124265367E+02  0.51100000000E-03 0. -1.
         11    1    3    3    0    0 -0.22035331768E+01 -0.97542912302E+01 -0.38382183854E+02  0.39663507076E+02  0.51100000000E-03 0.  1.
<mgrwt>
<rscale>  0 0.20000676E+02</rscale>
<asrwt>0</asrwt>
<pdfrwt beam="2">  1        1 0.11922661E-01 0.20000676E+02</pdfrwt>
<pdfrwt beam="1">  1       -1 0.19853152E-03 0.20000676E+02</pdfrwt>
<totfact> 0.43226463E+06</totfact>
</mgrwt>
</event>
<event>
 5    1  0.9679883E-007  0.2000137E+02  0.7818608E-02  0.1745301E+00
          1   -1    0    0  501    0  0.00000000000E+00  0.00000000000E+00  0.87817144230E+01  0.87817156647E+01  0.46700000000E-02 0. -1.
         -1   -1    0    0    0  501 -0.00000000000E+00 -0.00000000000E+00 -0.11388857275E+02  0.11388858232E+02  0.46700000000E-02 0.  1.
       1023    2    1    2    0    0  0.00000000000E+00  0.00000000000E+00 -0.26071428517E+01  0.20170573897E+02  0.20001371390E+02 0.  0.
        -11    1    3    3    0    0 -0.70354601620E+01  0.71071871354E+01 -0.12405492392E+01  0.10077141030E+02  0.51100000000E-03 0.  1.
         11    1    3    3    0    0  0.70354601620E+01 -0.71071871354E+01 -0.13665936125E+01  0.10093432867E+02  0.51100000000E-03 0. -1.
<mgrwt>
<rscale>  0 0.20001371E+02</rscale>
<asrwt>0</asrwt>
<pdfrwt beam="1">  1        1 0.13510332E-02 0.20001371E+02</pdfrwt>
<pdfrwt beam="2">  1       -1 0.17521320E-02 0.20001371E+02</pdfrwt>
<totfact> 0.38414016E+06</totfact>
</mgrwt>
</event>
<event>
 5    1  0.9583198E-007  0.2000769E+02  0.7818608E-02  0.1745175E+00
          1   -1    0    0  501    0  0.00000000000E+00  0.00000000000E+00  0.90028320685E+01  0.90028332797E+01  0.46700000000E-02 0.  1.
         -1   -1    0    0    0  501 -0.00000000000E+00 -0.00000000000E+00 -0.11116152128E+02  0.11116153109E+02  0.46700000000E-02 0. -1.
       1023    2    1    2    0    0  0.00000000000E+00  0.00000000000E+00 -0.21133200595E+01  0.20118986389E+02  0.20007685814E+02 0.  0.
        -11    1    3    3    0    0 -0.71970960908E+01  0.69463974307E+01 -0.89376119390E+00  0.10042382125E+02  0.51100000000E-03 0.  1.
         11    1    3    3    0    0  0.71970960908E+01 -0.69463974307E+01 -0.12195588656E+01  0.10076604264E+02  0.51100000000E-03 0. -1.
<mgrwt>
<rscale>  0 0.20007686E+02</rscale>
<asrwt>0</asrwt>
<pdfrwt beam="1">  1        1 0.13850513E-02 0.20007686E+02</pdfrwt>
<pdfrwt beam="2">  1       -1 0.17101774E-02 0.20007686E+02</pdfrwt>
<totfact> 0.38426014E+06</totfact>
</mgrwt>
</event>
<event>
 5    1  0.9583198E-007  0.2000047E+02  0.7818608E-02  0.1745319E+00
         -1   -1    0    0    0  501 -0.00000000000E+00  0.00000000000E+00  0.62863442452E+01  0.62863459798E+01  0.46700000000E-02 0. -1.
          1   -1    0    0  501    0  0.00000000000E+00 -0.00000000000E+00 -0.15908238116E+02  0.15908238802E+02  0.46700000000E-02 0.  1.
       1023    2    1    2    0    0  0.00000000000E+00  0.00000000000E+00 -0.96218938710E+01  0.22194584781E+02  0.20000468793E+02 0.  0.
        -11    1    3    3    0    0 -0.54716364327E+01 -0.83703759603E+01 -0.47534052189E+01  0.11072346653E+02  0.51100000000E-03 0.  1.
         11    1    3    3    0    0  0.54716364327E+01  0.83703759603E+01 -0.48684886521E+01  0.11122238128E+02  0.51100000000E-03 0. -1.
<mgrwt>
<rscale>  0 0.20000469E+02</rscale>
<asrwt>0</asrwt>
<pdfrwt beam="2">  1        1 0.24474214E-02 0.20000469E+02</pdfrwt>
<pdfrwt beam="1">  1       -1 0.96713008E-03 0.20000469E+02</pdfrwt>
<totfact> 0.39334031E+06</totfact>
</mgrwt>
</event>
<event>
 5    1  0.9583198E-007  0.2000590E+02  0.7818608E-02  0.1745211E+00
         -1   -1    0    0    0  501 -0.00000000000E+00  0.00000000000E+00  0.60433132082E+02  0.60433132263E+02  0.46700000000E-02 0. -1.
          1   -1    0    0  501    0  0.00000000000E+00 -0.00000000000E+00 -0.16556950409E+01  0.16557016270E+01  0.46700000000E-02 0.  1.
       1023    2    1    2    0    0  0.00000000000E+00  0.00000000000E+00  0.58777437041E+02  0.62088833890E+02  0.20005903844E+02 0.  0.
        -11    1    3    3    0    0  0.23431210557E+01  0.97246506178E+01  0.29385649435E+02  0.31041511543E+02  0.51100000000E-03 0.  1.
         11    1    3    3    0    0 -0.23431210557E+01 -0.97246506178E+01  0.29391787607E+02  0.31047322347E+02  0.51100000000E-03 0. -1.
<mgrwt>
<rscale>  0 0.20005904E+02</rscale>
<asrwt>0</asrwt>
<pdfrwt beam="2">  1        1 0.25472287E-03 0.20005904E+02</pdfrwt>
<pdfrwt beam="1">  1       -1 0.92974042E-02 0.20005904E+02</pdfrwt>
<totfact> 0.34192336E+06</totfact>
</mgrwt>
</event>
<event>
 5    1  0.9583198E-007  0.2000041E+02  0.7818608E-02  0.1745320E+00
         -1   -1    0    0    0  501 -0.00000000000E+00  0.00000000000E+00  0.37746426739E+01  0.37746455628E+01  0.46700000000E-02 0. -1.
          1   -1    0    0  501    0  0.00000000000E+00 -0.00000000000E+00 -0.26493648642E+02  0.26493649054E+02  0.46700000000E-02 0.  1.
       1023    2    1    2    0    0  0.00000000000E+00  0.00000000000E+00 -0.22719005968E+02  0.30268294616E+02  0.20000410666E+02 0.  0.
        -11    1    3    3    0    0 -0.88954633020E+01 -0.45687620828E+01 -0.11305951579E+02  0.15093952289E+02  0.51100000000E-03 0.  1.
         11    1    3    3    0    0  0.88954633020E+01  0.45687620828E+01 -0.11413054389E+02  0.15174342327E+02  0.51100000000E-03 0. -1.
<mgrwt>
<rscale>  0 0.20000411E+02</rscale>
<asrwt>0</asrwt>
<pdfrwt beam="2">  1        1 0.40759461E-02 0.20000411E+02</pdfrwt>
<pdfrwt beam="1">  1       -1 0.58071453E-03 0.20000411E+02</pdfrwt>
<totfact> 0.40207271E+06</totfact>
</mgrwt>
</event>
<event>
 5    1  0.9583198E-007  0.2000046E+02  0.7818608E-02  0.1745319E+00
          1   -1    0    0  501    0  0.00000000000E+00  0.00000000000E+00  0.75903784766E+01  0.75903799132E+01  0.46700000000E-02 0.  1.
         -1   -1    0    0    0  501 -0.00000000000E+00 -0.00000000000E+00 -0.13175174630E+02  0.13175175457E+02  0.46700000000E-02 0. -1.
       1023    2    1    2    0    0  0.00000000000E+00  0.00000000000E+00 -0.55847961531E+01  0.20765555370E+02  0.20000458539E+02 0.  0.
        -11    1    3    3    0    0  0.95442359792E+01 -0.29850663163E+01 -0.28329278161E+01  0.10393677964E+02  0.51100000000E-03 0.  1.
         11    1    3    3    0    0 -0.95442359792E+01  0.29850663163E+01 -0.27518683370E+01  0.10371877407E+02  0.51100000000E-03 0. -1.
<mgrwt>
<rscale>  0 0.20000459E+02</rscale>
<asrwt>0</asrwt>
<pdfrwt beam="1">  1        1 0.11677507E-02 0.20000459E+02</pdfrwt>
<pdfrwt beam="2">  1       -1 0.20269501E-02 0.20000459E+02</pdfrwt>
<totfact> 0.38180341E+06</totfact>
</mgrwt>
</event>
<event>
 5    1  0.1000818E-006  0.2000147E+02  0.7818608E-02  0.1745299E+00
          1   -1    0    0  501    0  0.00000000000E+00  0.00000000000E+00  0.18086382446E+02  0.18086383049E+02  0.46700000000E-02 0.  1.
         -1   -1    0    0    0  501 -0.00000000000E+00 -0.00000000000E+00 -0.55298312122E+01  0.55298331842E+01  0.46700000000E-02 0. -1.
       1023    2    1    2    0    0  0.00000000000E+00  0.00000000000E+00  0.12556551234E+02  0.23616216233E+02  0.20001467203E+02 0.  0.
        -11    1    3    3    0    0  0.20675808665E+01  0.97844129422E+01  0.63621406734E+01  0.11852698489E+02  0.51100000000E-03 0.  1.
         11    1    3    3    0    0 -0.20675808665E+01 -0.97844129422E+01  0.61944105603E+01  0.11763517744E+02  0.51100000000E-03 0. -1.
<mgrwt>
<rscale>  0 0.20001467E+02</rscale>
<asrwt>0</asrwt>
<pdfrwt beam="1">  1        1 0.27825205E-02 0.20001467E+02</pdfrwt>
<pdfrwt beam="2">  1       -1 0.85074347E-03 0.20001467E+02</pdfrwt>
<totfact> 0.39533716E+06</totfact>
</mgrwt>
</event>
<event>
 5    1  0.9583198E-007  0.2000318E+02  0.7818608E-02  0.1745265E+00
         -1   -1    0    0    0  501 -0.00000000000E+00  0.00000000000E+00  0.12057611405E+03  0.12057611414E+03  0.46700000000E-02 0.  1.
          1   -1    0    0  501    0  0.00000000000E+00 -0.00000000000E+00 -0.82960851029E+00  0.82962165428E+00  0.46700000000E-02 0. -1.
       1023    2    1    2    0    0  0.00000000000E+00  0.00000000000E+00  0.11974650554E+03  0.12140573580E+03  0.20003177120E+02 0.  0.
        -11    1    3    3    0    0  0.61068606397E+01 -0.79206584487E+01  0.59663327158E+02  0.60495811301E+02  0.51100000000E-03 0. -1.
         11    1    3    3    0    0 -0.61068606397E+01  0.79206584487E+01  0.60083178384E+02  0.60909924496E+02  0.51100000000E-03 0.  1.
<mgrwt>
<rscale>  0 0.20003177E+02</rscale>
<asrwt>0</asrwt>
<pdfrwt beam="2">  1        1 0.12763310E-03 0.20003177E+02</pdfrwt>
<pdfrwt beam="1">  1       -1 0.18550172E-01 0.20003177E+02</pdfrwt>
<totfact> 0.30797313E+06</totfact>
</mgrwt>
</event>
<event>
 5    1  0.9583198E-007  0.2000020E+02  0.7818608E-02  0.1745324E+00
         -1   -1    0    0    0  501 -0.00000000000E+00  0.00000000000E+00  0.44789300942E+01  0.44789325288E+01  0.46700000000E-02 0.  1.
          1   -1    0    0  501    0  0.00000000000E+00 -0.00000000000E+00 -0.22327202716E+02  0.22327203204E+02  0.46700000000E-02 0. -1.
       1023    2    1    2    0    0  0.00000000000E+00  0.00000000000E+00 -0.17848272622E+02  0.26806135733E+02  0.20000201933E+02 0.  0.
        -11    1    3    3    0    0  0.99772181045E+01 -0.67485018207E+00 -0.89796445947E+01  0.13440026830E+02  0.51100000000E-03 0.  1.
         11    1    3    3    0    0 -0.99772181045E+01  0.67485018207E+00 -0.88686280270E+01  0.13366108903E+02  0.51100000000E-03 0. -1.
<mgrwt>
<rscale>  0 0.20000202E+02</rscale>
<asrwt>0</asrwt>
<pdfrwt beam="2">  1        1 0.34349544E-02 0.20000202E+02</pdfrwt>
<pdfrwt beam="1">  1       -1 0.68906641E-03 0.20000202E+02</pdfrwt>
<totfact> 0.39893900E+06</totfact>
</mgrwt>
</event>
<event>
 5    1  0.9583198E-007  0.2000227E+02  0.7818608E-02  0.1745283E+00
         -1   -1    0    0    0  501 -0.00000000000E+00  0.00000000000E+00  0.70625704361E+02  0.70625704516E+02  0.46700000000E-02 0.  1.
          1   -1    0    0  501    0  0.00000000000E+00 -0.00000000000E+00 -0.14162327385E+01  0.14162404381E+01  0.46700000000E-02 0. -1.
       1023    2    1    2    0    0  0.00000000000E+00  0.00000000000E+00  0.69209471623E+02  0.72041944954E+02  0.20002271632E+02 0.  0.
        -11    1    3    3    0    0  0.96437466261E+01 -0.26491273851E+01  0.34407711480E+02  0.35831694552E+02  0.51100000000E-03 0.  1.
         11    1    3    3    0    0 -0.96437466261E+01  0.26491273851E+01  0.34801760143E+02  0.36210250402E+02  0.51100000000E-03 0. -1.
<mgrwt>
<rscale>  0 0.20002272E+02</rscale>
<asrwt>0</asrwt>
<pdfrwt beam="2">  1        1 0.21788263E-03 0.20002272E+02</pdfrwt>
<pdfrwt beam="1">  1       -1 0.10865490E-01 0.20002272E+02</pdfrwt>
<totfact> 0.33553130E+06</totfact>
</mgrwt>
</event>
<event>
 5    1  0.9583198E-007  0.2000205E+02  0.7818608E-02  0.1745287E+00
          1   -1    0    0  501    0  0.00000000000E+00  0.00000000000E+00  0.33620316551E+01  0.33620348985E+01  0.46700000000E-02 0. -1.
         -1   -1    0    0    0  501 -0.00000000000E+00 -0.00000000000E+00 -0.29749995829E+02  0.29749996195E+02  0.46700000000E-02 0.  1.
       1023    2    1    2    0    0  0.00000000000E+00  0.00000000000E+00 -0.26387964174E+02  0.33112031094E+02  0.20002048643E+02 0.  0.
        -11    1    3    3    0    0 -0.99514072179E+01 -0.98633935179E+00 -0.13410560972E+02  0.16728613714E+02  0.51100000000E-03 0.  1.
         11    1    3    3    0    0  0.99514072179E+01  0.98633935179E+00 -0.12977403202E+02  0.16383417380E+02  0.51100000000E-03 0. -1.
<mgrwt>
<rscale>  0 0.20002049E+02</rscale>
<asrwt>0</asrwt>
<pdfrwt beam="1">  1        1 0.51723594E-03 0.20002049E+02</pdfrwt>
<pdfrwt beam="2">  1       -1 0.45769225E-02 0.20002049E+02</pdfrwt>
<totfact> 0.36499897E+06</totfact>
</mgrwt>
</event>
<event>
 5    1  0.9749240E-007  0.2000069E+02  0.7818608E-02  0.1745314E+00
          1   -1    0    0  501    0  0.00000000000E+00  0.00000000000E+00  0.16481898055E+02  0.16481898717E+02  0.46700000000E-02 0.  1.
         -1   -1    0    0    0  501 -0.00000000000E+00 -0.00000000000E+00 -0.60676767281E+01  0.60676785253E+01  0.46700000000E-02 0. -1.
       1023    2    1    2    0    0  0.00000000000E+00  0.00000000000E+00  0.10414221327E+02  0.22549577242E+02  0.20000685687E+02 0.  0.
        -11    1    3    3    0    0 -0.93369544827E+01  0.35816326635E+01  0.52146887887E+01  0.11278288477E+02  0.51100000000E-03 0.  1.
         11    1    3    3    0    0  0.93369544827E+01 -0.35816326635E+01  0.51995325386E+01  0.11271288765E+02  0.51100000000E-03 0. -1.
<mgrwt>
<rscale>  0 0.20000686E+02</rscale>
<asrwt>0</asrwt>
<pdfrwt beam="1">  1        1 0.25356768E-02 0.20000686E+02</pdfrwt>
<pdfrwt beam="2">  1       -1 0.93348891E-03 0.20000686E+02</pdfrwt>
<totfact> 0.39388731E+06</totfact>
</mgrwt>
</event>
<event>
 4    1  0.9583198E-007  0.2001557E+02  0.7818608E-02  0.1745019E+00
         -1   -1    0    0    0  501 -0.00000000000E+00  0.00000000000E+00  0.28738855728E+01  0.28738893671E+01  0.46700000000E-02 0. -1.
          1   -1    0    0  501    0  0.00000000000E+00 -0.00000000000E+00 -0.34850285216E+02  0.34850285528E+02  0.46700000000E-02 0.  1.
        -11    1    1    2    0    0  0.68734015059E+01 -0.72740105997E+01 -0.15930703435E+02  0.18813351393E+02  0.51100000000E-03 0. -1.
         11    1    1    2    0    0 -0.68734015059E+01  0.72740105997E+01 -0.16045696208E+02  0.18910823502E+02  0.51100000000E-03 0.  1.
<mgrwt>
<rscale>  0 0.20015575E+02</rscale>
<asrwt>0</asrwt>
<pdfrwt beam="2">  1        1 0.53615824E-02 0.20015575E+02</pdfrwt>
<pdfrwt beam="1">  1       -1 0.44213658E-03 0.20015575E+02</pdfrwt>
<totfact> 0.40710808E+06</totfact>
</mgrwt>
</event>
<event>
 5    1  0.9583198E-007  0.2000029E+02  0.7818608E-02  0.1745322E+00
         -1   -1    0    0    0  501 -0.00000000000E+00  0.00000000000E+00  0.45891613336E+01  0.45891637097E+01  0.46700000000E-02 0. -1.
          1   -1    0    0  501    0  0.00000000000E+00 -0.00000000000E+00 -0.21791102892E+02  0.21791103392E+02  0.46700000000E-02 0.  1.
       1023    2    1    2    0    0  0.00000000000E+00  0.00000000000E+00 -0.17201941558E+02  0.26380267102E+02  0.20000292473E+02 0.  0.
        -11    1    3    3    0    0  0.39235685654E+01  0.91982861487E+01 -0.85902450263E+01  0.13183139544E+02  0.51100000000E-03 0.  1.
         11    1    3    3    0    0 -0.39235685654E+01 -0.91982861487E+01 -0.86116965316E+01  0.13197127558E+02  0.51100000000E-03 0. -1.
<mgrwt>
<rscale>  0 0.20000292E+02</rscale>
<asrwt>0</asrwt>
<pdfrwt beam="2">  1        1 0.33524775E-02 0.20000292E+02</pdfrwt>
<pdfrwt beam="1">  1       -1 0.70602505E-03 0.20000292E+02</pdfrwt>
<totfact> 0.39850998E+06</totfact>
</mgrwt>
</event>
<event>
 5    1  0.9708817E-007  0.2000064E+02  0.7818608E-02  0.1745315E+00
         -1   -1    0    0    0  501 -0.00000000000E+00  0.00000000000E+00  0.28202359291E+01  0.28202397956E+01  0.46700000000E-02 0. -1.
          1   -1    0    0  501    0  0.00000000000E+00 -0.00000000000E+00 -0.35460271763E+02  0.35460272070E+02  0.46700000000E-02 0.  1.
       1023    2    1    2    0    0  0.00000000000E+00  0.00000000000E+00 -0.32640035834E+02  0.38280511866E+02  0.20000641227E+02 0.  0.
        -11    1    3    3    0    0 -0.61554542978E+01 -0.78811992994E+01 -0.16433121749E+02  0.19236694380E+02  0.51100000000E-03 0.  1.
         11    1    3    3    0    0  0.61554542978E+01  0.78811992994E+01 -0.16206914085E+02  0.19043817486E+02  0.51100000000E-03 0. -1.
<mgrwt>
<rscale>  0 0.20000641E+02</rscale>
<asrwt>0</asrwt>
<pdfrwt beam="2">  1        1 0.54554264E-02 0.20000641E+02</pdfrwt>
<pdfrwt beam="1">  1       -1 0.43388280E-03 0.20000641E+02</pdfrwt>
<totfact> 0.40818361E+06</totfact>
</mgrwt>
</event>
<event>
 5    1  0.9583198E-007  0.2000342E+02  0.7818608E-02  0.1745260E+00
         -1   -1    0    0    0  501 -0.00000000000E+00  0.00000000000E+00  0.52482790155E+01  0.52482810932E+01  0.46700000000E-02 0.  1.
          1   -1    0    0  501    0  0.00000000000E+00 -0.00000000000E+00 -0.19060375173E+02  0.19060375745E+02  0.46700000000E-02 0. -1.
       1023    2    1    2    0    0  0.00000000000E+00  0.00000000000E+00 -0.13812096157E+02  0.24308656838E+02  0.20003419633E+02 0.  0.
        -11    1    3    3    0    0  0.95767622398E+01  0.28801569330E+01 -0.67157575162E+01  0.12046205968E+02  0.51100000000E-03 0. -1.
         11    1    3    3    0    0 -0.95767622398E+01 -0.28801569330E+01 -0.70963386408E+01  0.12262450869E+02  0.51100000000E-03 0.  1.
<mgrwt>
<rscale>  0 0.20003420E+02</rscale>
<asrwt>0</asrwt>
<pdfrwt beam="2">  1        1 0.29323656E-02 0.20003420E+02</pdfrwt>
<pdfrwt beam="1">  1       -1 0.80742775E-03 0.20003420E+02</pdfrwt>
<totfact> 0.39610756E+06</totfact>
</mgrwt>
</event>
<event>
 5    1  0.9583198E-007  0.2000270E+02  0.7818608E-02  0.1745274E+00
          1   -1    0    0  501    0  0.00000000000E+00  0.00000000000E+00  0.10457801578E+02  0.10457802621E+02  0.46700000000E-02 0. -1.
         -1   -1    0    0    0  501 -0.00000000000E+00 -0.00000000000E+00 -0.95648221608E+01  0.95648233009E+01  0.46700000000E-02 0.  1.
       1023    2    1    2    0    0  0.00000000000E+00  0.00000000000E+00  0.89297941753E+00  0.20022625922E+02  0.20002703232E+02 0.  0.
        -11    1    3    3    0    0  0.57607766403E+01  0.81754547998E+01  0.39719435271E+00  0.10009114461E+02  0.51100000000E-03 0. -1.
         11    1    3    3    0    0 -0.57607766403E+01 -0.81754547998E+01  0.49578506482E+00  0.10013511461E+02  0.51100000000E-03 0.  1.
<mgrwt>
<rscale>  0 0.20002703E+02</rscale>
<asrwt>0</asrwt>
<pdfrwt beam="1">  1        1 0.16088927E-02 0.20002703E+02</pdfrwt>
<pdfrwt beam="2">  1       -1 0.14715113E-02 0.20002703E+02</pdfrwt>
<totfact> 0.38681259E+06</totfact>
</mgrwt>
</event>
<event>
 5    1  0.9583198E-007  0.2000269E+02  0.7818608E-02  0.1745275E+00
          1   -1    0    0  501    0  0.00000000000E+00  0.00000000000E+00  0.34120824997E+02  0.34120825317E+02  0.46700000000E-02 0.  1.
         -1   -1    0    0    0  501 -0.00000000000E+00 -0.00000000000E+00 -0.29315472983E+01  0.29315510180E+01  0.46700000000E-02 0. -1.
       1023    2    1    2    0    0  0.00000000000E+00  0.00000000000E+00  0.31189277699E+02  0.37052376335E+02  0.20002688536E+02 0.  0.
        -11    1    3    3    0    0 -0.25026635697E+01  0.96819430956E+01  0.15878842470E+02  0.18765419939E+02  0.51100000000E-03 0.  1.
         11    1    3    3    0    0  0.25026635697E+01 -0.96819430956E+01  0.15310435229E+02  0.18286956396E+02  0.51100000000E-03 0. -1.
<mgrwt>
<rscale>  0 0.20002689E+02</rscale>
<asrwt>0</asrwt>
<pdfrwt beam="1">  1        1 0.52493581E-02 0.20002689E+02</pdfrwt>
<pdfrwt beam="2">  1       -1 0.45100758E-03 0.20002689E+02</pdfrwt>
<totfact> 0.40721514E+06</totfact>
</mgrwt>
</event>
<event>
 5    1  0.9583198E-007  0.2000018E+02  0.7818608E-02  0.1745325E+00
          1   -1    0    0  501    0  0.00000000000E+00  0.00000000000E+00  0.12242793908E+01  0.12242882976E+01  0.46700000000E-02 0. -1.
         -1   -1    0    0    0  501 -0.00000000000E+00 -0.00000000000E+00 -0.81681828914E+02  0.81681829048E+02  0.46700000000E-02 0.  1.
       1023    2    1    2    0    0  0.00000000000E+00  0.00000000000E+00 -0.80457549523E+02  0.82906117345E+02  0.20000175448E+02 0.  0.
        -11    1    3    3    0    0 -0.28365837705E+01  0.95893401032E+01 -0.40186679536E+02  0.41412206697E+02  0.51100000000E-03 0. -1.
         11    1    3    3    0    0  0.28365837705E+01 -0.95893401032E+01 -0.40270869987E+02  0.41493910648E+02  0.51100000000E-03 0.  1.
<mgrwt>
<rscale>  0 0.20000175E+02</rscale>
<asrwt>0</asrwt>
<pdfrwt beam="1">  1        1 0.18835144E-03 0.20000175E+02</pdfrwt>
<pdfrwt beam="2">  1       -1 0.12566432E-01 0.20000175E+02</pdfrwt>
<totfact> 0.32893851E+06</totfact>
</mgrwt>
</event>
<event>
 5    1  0.9737080E-007  0.2000041E+02  0.7818608E-02  0.1745320E+00
         -1   -1    0    0    0  501 -0.00000000000E+00  0.00000000000E+00  0.12202748658E+01  0.12202838018E+01  0.46700000000E-02 0.  1.
          1   -1    0    0  501    0  0.00000000000E+00 -0.00000000000E+00 -0.81951838350E+02  0.81951838483E+02  0.46700000000E-02 0. -1.
       1023    2    1    2    0    0  0.00000000000E+00  0.00000000000E+00 -0.80731563484E+02  0.83172122285E+02  0.20000414565E+02 0.  0.
        -11    1    3    3    0    0  0.57699468659E+01 -0.81676290715E+01 -0.40194626986E+02  0.41419928661E+02  0.51100000000E-03 0.  1.
         11    1    3    3    0    0 -0.57699468659E+01  0.81676290715E+01 -0.40536936499E+02  0.41752193624E+02  0.51100000000E-03 0. -1.
<mgrwt>
<rscale>  0 0.20000415E+02</rscale>
<asrwt>0</asrwt>
<pdfrwt beam="2">  1        1 0.12607972E-01 0.20000415E+02</pdfrwt>
<pdfrwt beam="1">  1       -1 0.18773536E-03 0.20000415E+02</pdfrwt>
<totfact> 0.43457805E+06</totfact>
</mgrwt>
</event>
<event>
 5    1  0.9583198E-007  0.2000079E+02  0.7818608E-02  0.1745312E+00
         -1   -1    0    0    0  501 -0.00000000000E+00  0.00000000000E+00  0.44854317182E+02  0.44854317425E+02  0.46700000000E-02 0.  1.
          1   -1    0    0  501    0  0.00000000000E+00 -0.00000000000E+00 -0.22296135943E+01  0.22296184850E+01  0.46700000000E-02 0. -1.
       1023    2    1    2    0    0  0.00000000000E+00  0.00000000000E+00  0.42624703588E+02  0.47083935910E+02  0.20000791606E+02 0.  0.
        -11    1    3    3    0    0 -0.47029157081E-01  0.99999382677E+01  0.21508448080E+02  0.23719492325E+02  0.51100000000E-03 0.  1.
         11    1    3    3    0    0  0.47029157081E-01 -0.99999382677E+01  0.21116255508E+02  0.23364443585E+02  0.51100000000E-03 0. -1.
<mgrwt>
<rscale>  0 0.20000792E+02</rscale>
<asrwt>0</asrwt>
<pdfrwt beam="2">  1        1 0.34301786E-03 0.20000792E+02</pdfrwt>
<pdfrwt beam="1">  1       -1 0.69006648E-02 0.20000792E+02</pdfrwt>
<totfact> 0.35300269E+06</totfact>
</mgrwt>
</event>
<event>
 5    1  0.9850580E-007  0.2000093E+02  0.7818608E-02  0.1745310E+00
          1   -1    0    0  501    0  0.00000000000E+00  0.00000000000E+00  0.16282186487E+02  0.16282187157E+02  0.46700000000E-02 0. -1.
         -1   -1    0    0    0  501 -0.00000000000E+00 -0.00000000000E+00 -0.61422502021E+01  0.61422519774E+01  0.46700000000E-02 0.  1.
       1023    2    1    2    0    0  0.00000000000E+00  0.00000000000E+00  0.10139936285E+02  0.22424439134E+02  0.20000929044E+02 0.  0.
        -11    1    3    3    0    0  0.75139569451E+01 -0.65989057018E+01  0.51424980389E+01  0.11245016308E+02  0.51100000000E-03 0.  1.
         11    1    3    3    0    0 -0.75139569451E+01  0.65989057018E+01  0.49974382461E+01  0.11179422826E+02  0.51100000000E-03 0. -1.
<mgrwt>
<rscale>  0 0.20000929E+02</rscale>
<asrwt>0</asrwt>
<pdfrwt beam="1">  1        1 0.25049519E-02 0.20000929E+02</pdfrwt>
<pdfrwt beam="2">  1       -1 0.94496177E-03 0.20000929E+02</pdfrwt>
<totfact> 0.39368450E+06</totfact>
</mgrwt>
</event>
<event>
 5    1  0.9748927E-007  0.2000168E+02  0.7818608E-02  0.1745295E+00
          1   -1    0    0  501    0  0.00000000000E+00  0.00000000000E+00  0.13426852355E+02  0.13426853167E+02  0.46700000000E-02 0.  1.
         -1   -1    0    0    0  501 -0.00000000000E+00 -0.00000000000E+00 -0.74490148108E+01  0.74490162747E+01  0.46700000000E-02 0. -1.
       1023    2    1    2    0    0  0.00000000000E+00  0.00000000000E+00  0.59778375444E+01  0.20875869442E+02  0.20001684510E+02 0.  0.
        -11    1    3    3    0    0 -0.23115891096E+01  0.97298921532E+01  0.29356997440E+01  0.10422695370E+02  0.51100000000E-03 0. -1.
         11    1    3    3    0    0  0.23115891096E+01 -0.97298921532E+01  0.30421378004E+01  0.10453174072E+02  0.51100000000E-03 0.  1.
<mgrwt>
<rscale>  0 0.20001685E+02</rscale>
<asrwt>0</asrwt>
<pdfrwt beam="1">  1        1 0.20656697E-02 0.20001685E+02</pdfrwt>
<pdfrwt beam="2">  1       -1 0.11460025E-02 0.20001685E+02</pdfrwt>
<totfact> 0.39067197E+06</totfact>
</mgrwt>
</event>
<event>
 5    1  0.9583198E-007  0.2000054E+02  0.7818608E-02  0.1745317E+00
          1   -1    0    0  501    0  0.00000000000E+00  0.00000000000E+00  0.22545799823E+01  0.22545848189E+01  0.46700000000E-02 0. -1.
         -1   -1    0    0    0  501 -0.00000000000E+00 -0.00000000000E+00 -0.44356480888E+02  0.44356481134E+02  0.46700000000E-02 0.  1.
       1023    2    1    2    0    0  0.00000000000E+00  0.00000000000E+00 -0.42101900906E+02  0.46611065953E+02  0.20000535227E+02 0.  0.
        -11    1    3    3    0    0 -0.98006746551E+01 -0.19879503673E+01 -0.21082366856E+02  0.23333910150E+02  0.51100000000E-03 0. -1.
         11    1    3    3    0    0  0.98006746551E+01  0.19879503673E+01 -0.21019534050E+02  0.23277155803E+02  0.51100000000E-03 0.  1.
<mgrwt>
<rscale>  0 0.20000535E+02</rscale>
<asrwt>0</asrwt>
<pdfrwt beam="1">  1        1 0.34685888E-03 0.20000535E+02</pdfrwt>
<pdfrwt beam="2">  1       -1 0.68240737E-02 0.20000535E+02</pdfrwt>
<totfact> 0.35338265E+06</totfact>
</mgrwt>
</event>
<event>
 5    1  0.9973174E-007  0.2000245E+02  0.7818608E-02  0.1745279E+00
          1   -1    0    0  501    0  0.00000000000E+00  0.00000000000E+00  0.23158609579E+02  0.23158610050E+02  0.46700000000E-02 0. -1.
         -1   -1    0    0    0  501 -0.00000000000E+00 -0.00000000000E+00 -0.43191026008E+01  0.43191051255E+01  0.46700000000E-02 0.  1.
       1023    2    1    2    0    0  0.00000000000E+00  0.00000000000E+00  0.18839506978E+02  0.27477715175E+02  0.20002445052E+02 0.  0.
        -11    1    3    3    0    0 -0.19054100873E+01 -0.98175370905E+01  0.92835569042E+01  0.13645477316E+02  0.51100000000E-03 0.  1.
         11    1    3    3    0    0  0.19054100873E+01  0.98175370905E+01  0.95559500737E+01  0.13832237859E+02  0.51100000000E-03 0. -1.
<mgrwt>
<rscale>  0 0.20002445E+02</rscale>
<asrwt>0</asrwt>
<pdfrwt beam="1">  1        1 0.35628632E-02 0.20002445E+02</pdfrwt>
<pdfrwt beam="2">  1       -1 0.66447755E-03 0.20002445E+02</pdfrwt>
<totfact> 0.39948723E+06</totfact>
</mgrwt>
</event>
<event>
 5    1  0.9583198E-007  0.2000010E+02  0.7818608E-02  0.1745326E+00
         -1   -1    0    0    0  501 -0.00000000000E+00  0.00000000000E+00  0.61072784804E+01  0.61072802659E+01  0.46700000000E-02 0.  1.
          1   -1    0    0  501    0  0.00000000000E+00 -0.00000000000E+00 -0.16374058599E+02  0.16374059265E+02  0.46700000000E-02 0. -1.
       1023    2    1    2    0    0  0.00000000000E+00  0.00000000000E+00 -0.10266780119E+02  0.22481339531E+02  0.20000096327E+02 0.  0.
        -11    1    3    3    0    0 -0.26839751713E+01  0.96330968835E+01 -0.51628037195E+01  0.11254102398E+02  0.51100000000E-03 0. -1.
         11    1    3    3    0    0  0.26839751713E+01 -0.96330968835E+01 -0.51039763992E+01  0.11227237133E+02  0.51100000000E-03 0.  1.
<mgrwt>
<rscale>  0 0.20000096E+02</rscale>
<asrwt>0</asrwt>
<pdfrwt beam="2">  1        1 0.25190861E-02 0.20000096E+02</pdfrwt>
<pdfrwt beam="1">  1       -1 0.93958150E-03 0.20000096E+02</pdfrwt>
<totfact> 0.39380992E+06</totfact>
</mgrwt>
</event>
<event>
 5    1  0.9583198E-007  0.2000220E+02  0.7818608E-02  0.1745284E+00
         -1   -1    0    0    0  501 -0.00000000000E+00  0.00000000000E+00  0.37197281643E+02  0.37197281936E+02  0.46700000000E-02 0. -1.
          1   -1    0    0  501    0  0.00000000000E+00 -0.00000000000E+00 -0.26889585833E+01  0.26889626386E+01  0.46700000000E-02 0.  1.
       1023    2    1    2    0    0  0.00000000000E+00  0.00000000000E+00  0.34508323060E+02  0.39886244575E+02  0.20002203526E+02 0.  0.
        -11    1    3    3    0    0 -0.72218250967E+01  0.69186105606E+01  0.17274730123E+02  0.19960917587E+02  0.51100000000E-03 0. -1.
         11    1    3    3    0    0  0.72218250967E+01 -0.69186105606E+01  0.17233592937E+02  0.19925326988E+02  0.51100000000E-03 0.  1.
<mgrwt>
<rscale>  0 0.20002204E+02</rscale>
<asrwt>0</asrwt>
<pdfrwt beam="2">  1        1 0.41368630E-03 0.20002204E+02</pdfrwt>
<pdfrwt beam="1">  1       -1 0.57226587E-02 0.20002204E+02</pdfrwt>
<totfact> 0.35882273E+06</totfact>
</mgrwt>
</event>
<event>
 5    1  0.9583198E-007  0.2000215E+02  0.7818608E-02  0.1745285E+00
         -1   -1    0    0    0  501 -0.00000000000E+00  0.00000000000E+00  0.52894863166E+02  0.52894863372E+02  0.46700000000E-02 0. -1.
          1   -1    0    0  501    0  0.00000000000E+00 -0.00000000000E+00 -0.18909465337E+01  0.18909523004E+01  0.46700000000E-02 0.  1.
       1023    2    1    2    0    0  0.00000000000E+00  0.00000000000E+00  0.51003916632E+02  0.54785815672E+02  0.20002152061E+02 0.  0.
        -11    1    3    3    0    0  0.38815373430E+01 -0.92166271063E+01  0.25761428779E+02  0.27634466891E+02  0.51100000000E-03 0. -1.
         11    1    3    3    0    0 -0.38815373430E+01  0.92166271063E+01  0.25242487853E+02  0.27151348781E+02  0.51100000000E-03 0.  1.
<mgrwt>
<rscale>  0 0.20002152E+02</rscale>
<asrwt>0</asrwt>
<pdfrwt beam="2">  1        1 0.29091533E-03 0.20002152E+02</pdfrwt>
<pdfrwt beam="1">  1       -1 0.81376711E-02 0.20002152E+02</pdfrwt>
<totfact> 0.34717622E+06</totfact>
</mgrwt>
</event>
<event>
 5    1  0.9583198E-007  0.2000751E+02  0.7818608E-02  0.1745179E+00
          1   -1    0    0  501    0  0.00000000000E+00  0.00000000000E+00  0.47372606791E+01  0.47372629809E+01  0.46700000000E-02 0.  1.
         -1   -1    0    0    0  501 -0.00000000000E+00 -0.00000000000E+00 -0.21125100633E+02  0.21125101150E+02  0.46700000000E-02 0. -1.
       1023    2    1    2    0    0  0.00000000000E+00  0.00000000000E+00 -0.16387839954E+02  0.25862364130E+02  0.20007513090E+02 0.  0.
        -11    1    3    3    0    0  0.78501319503E+01  0.61982274936E+01 -0.79607115295E+01  0.12783408153E+02  0.51100000000E-03 0. -1.
         11    1    3    3    0    0 -0.78501319503E+01 -0.61982274936E+01 -0.84271284247E+01  0.13078955977E+02  0.51100000000E-03 0.  1.
<mgrwt>
<rscale>  0 0.20007513E+02</rscale>
<asrwt>0</asrwt>
<pdfrwt beam="1">  1        1 0.72880957E-03 0.20007513E+02</pdfrwt>
<pdfrwt beam="2">  1       -1 0.32500156E-02 0.20007513E+02</pdfrwt>
<totfact> 0.37272907E+06</totfact>
</mgrwt>
</event>
<event>
 5    1  0.9583198E-007  0.2000073E+02  0.7818608E-02  0.1745314E+00
         -1   -1    0    0    0  501 -0.00000000000E+00  0.00000000000E+00  0.35511277061E+02  0.35511277368E+02  0.46700000000E-02 0.  1.
          1   -1    0    0  501    0  0.00000000000E+00 -0.00000000000E+00 -0.28162110112E+01  0.28162148832E+01  0.46700000000E-02 0. -1.
       1023    2    1    2    0    0  0.00000000000E+00  0.00000000000E+00  0.32695066049E+02  0.38327492251E+02  0.20000732943E+02 0.  0.
        -11    1    3    3    0    0 -0.49720754342E+01  0.86763792256E+01  0.16196172668E+02  0.19034628967E+02  0.51100000000E-03 0. -1.
         11    1    3    3    0    0  0.49720754342E+01 -0.86763792256E+01  0.16498893382E+02  0.19292863284E+02  0.51100000000E-03 0.  1.
<mgrwt>
<rscale>  0 0.20000733E+02</rscale>
<asrwt>0</asrwt>
<pdfrwt beam="2">  1        1 0.43326356E-03 0.20000733E+02</pdfrwt>
<pdfrwt beam="1">  1       -1 0.54632736E-02 0.20000733E+02</pdfrwt>
<totfact> 0.36023302E+06</totfact>
</mgrwt>
</event>
<event>
 5    1  0.9973968E-007  0.2000073E+02  0.7818608E-02  0.1745313E+00
          1   -1    0    0  501    0  0.00000000000E+00  0.00000000000E+00  0.80428053906E+02  0.80428054041E+02  0.46700000000E-02 0. -1.
         -1   -1    0    0    0  501 -0.00000000000E+00 -0.00000000000E+00 -0.12434340164E+01  0.12434427859E+01  0.46700000000E-02 0.  1.
       1023    2    1    2    0    0  0.00000000000E+00  0.00000000000E+00  0.79184619889E+02  0.81671496827E+02  0.20000734161E+02 0.  0.
        -11    1    3    3    0    0 -0.26712709651E+01  0.96367634438E+01  0.39320118401E+02  0.40571845035E+02  0.51100000000E-03 0. -1.
         11    1    3    3    0    0  0.26712709651E+01 -0.96367634438E+01  0.39864501488E+02  0.41099651792E+02  0.51100000000E-03 0.  1.
<mgrwt>
<rscale>  0 0.20000734E+02</rscale>
<asrwt>0</asrwt>
<pdfrwt beam="1">  1        1 0.12373550E-01 0.20000734E+02</pdfrwt>
<pdfrwt beam="2">  1       -1 0.19129818E-03 0.20000734E+02</pdfrwt>
<totfact> 0.43377964E+06</totfact>
</mgrwt>
</event>
<event>
 5    1  0.9583198E-007  0.2000091E+02  0.7818608E-02  0.1745310E+00
         -1   -1    0    0    0  501 -0.00000000000E+00  0.00000000000E+00  0.17128262235E+02  0.17128262871E+02  0.46700000000E-02 0. -1.
          1   -1    0    0  501    0  0.00000000000E+00 -0.00000000000E+00 -0.58388342885E+01  0.58388361561E+01  0.46700000000E-02 0.  1.
       1023    2    1    2    0    0  0.00000000000E+00  0.00000000000E+00  0.11289427946E+02  0.22967099027E+02  0.20000911339E+02 0.  0.
        -11    1    3    3    0    0  0.96044699749E+01  0.27862301798E+01  0.56288348740E+01  0.11475744177E+02  0.51100000000E-03 0.  1.
         11    1    3    3    0    0 -0.96044699749E+01 -0.27862301798E+01  0.56605930722E+01  0.11491354851E+02  0.51100000000E-03 0. -1.
<mgrwt>
<rscale>  0 0.20000911E+02</rscale>
<asrwt>0</asrwt>
<pdfrwt beam="2">  1        1 0.89828240E-03 0.20000911E+02</pdfrwt>
<pdfrwt beam="1">  1       -1 0.26351174E-02 0.20000911E+02</pdfrwt>
<totfact> 0.37715357E+06</totfact>
</mgrwt>
</event>
<event>
 5    1  0.9583198E-007  0.2000016E+02  0.7818608E-02  0.1745325E+00
          1   -1    0    0  501    0  0.00000000000E+00  0.00000000000E+00  0.18970546673E+02  0.18970547248E+02  0.46700000000E-02 0. -1.
         -1   -1    0    0    0  501 -0.00000000000E+00 -0.00000000000E+00 -0.52714144787E+01  0.52714165473E+01  0.46700000000E-02 0.  1.
       1023    2    1    2    0    0  0.00000000000E+00  0.00000000000E+00  0.13699132195E+02  0.24241963795E+02  0.20000164644E+02 0.  0.
        -11    1    3    3    0    0 -0.63892157664E+01  0.76928146674E+01  0.68653961013E+01  0.12129927432E+02  0.51100000000E-03 0. -1.
         11    1    3    3    0    0  0.63892157664E+01 -0.76928146674E+01  0.68337360932E+01  0.12112036363E+02  0.51100000000E-03 0.  1.
<mgrwt>
<rscale>  0 0.20000165E+02</rscale>
<asrwt>0</asrwt>
<pdfrwt beam="1">  1        1 0.29185458E-02 0.20000165E+02</pdfrwt>
<pdfrwt beam="2">  1       -1 0.81098705E-03 0.20000165E+02</pdfrwt>
<totfact> 0.39617451E+06</totfact>
</mgrwt>
</event>
<event>
 5    1  0.9619324E-007  0.2000190E+02  0.7818608E-02  0.1745290E+00
         -1   -1    0    0    0  501 -0.00000000000E+00  0.00000000000E+00  0.21001510414E+01  0.21001562336E+01  0.46700000000E-02 0.  1.
          1   -1    0    0  501    0  0.00000000000E+00 -0.00000000000E+00 -0.47624608125E+02  0.47624608354E+02  0.46700000000E-02 0. -1.
       1023    2    1    2    0    0  0.00000000000E+00  0.00000000000E+00 -0.45524457084E+02  0.49724764588E+02  0.20001900423E+02 0.  0.
        -11    1    3    3    0    0  0.82159986594E+01  0.57010607450E+01 -0.22465182178E+02  0.24590427775E+02  0.51100000000E-03 0.  1.
         11    1    3    3    0    0 -0.82159986594E+01 -0.57010607450E+01 -0.23059274905E+02  0.25134336813E+02  0.51100000000E-03 0. -1.
<mgrwt>
<rscale>  0 0.20001900E+02</rscale>
<asrwt>0</asrwt>
<pdfrwt beam="2">  1        1 0.73268624E-02 0.20001900E+02</pdfrwt>
<pdfrwt beam="1">  1       -1 0.32310061E-03 0.20001900E+02</pdfrwt>
<totfact> 0.41565854E+06</totfact>
</mgrwt>
</event>
<event>
 5    1  0.9583198E-007  0.2000029E+02  0.7818608E-02  0.1745322E+00
         -1   -1    0    0    0  501 -0.00000000000E+00  0.00000000000E+00  0.10852500186E+02  0.10852501191E+02  0.46700000000E-02 0. -1.
          1   -1    0    0  501    0  0.00000000000E+00 -0.00000000000E+00 -0.92147298527E+01  0.92147310361E+01  0.46700000000E-02 0.  1.
       1023    2    1    2    0    0  0.00000000000E+00  0.00000000000E+00  0.16377703336E+01  0.20067232227E+02  0.20000287938E+02 0.  0.
        -11    1    3    3    0    0 -0.40665022042E+01 -0.91359588640E+01  0.84532855671E+00  0.10035774269E+02  0.51100000000E-03 0.  1.
         11    1    3    3    0    0  0.40665022042E+01  0.91359588640E+01  0.79244177688E+00  0.10031457959E+02  0.51100000000E-03 0. -1.
<mgrwt>
<rscale>  0 0.20000288E+02</rscale>
<asrwt>0</asrwt>
<pdfrwt beam="2">  1        1 0.14176509E-02 0.20000288E+02</pdfrwt>
<pdfrwt beam="1">  1       -1 0.16696156E-02 0.20000288E+02</pdfrwt>
<totfact> 0.38495017E+06</totfact>
</mgrwt>
</event>
<event>
 5    1  0.9583198E-007  0.2000490E+02  0.7818608E-02  0.1745231E+00
         -1   -1    0    0    0  501 -0.00000000000E+00  0.00000000000E+00  0.29418538742E+01  0.29418575809E+01  0.46700000000E-02 0. -1.
          1   -1    0    0  501    0  0.00000000000E+00 -0.00000000000E+00 -0.34008799099E+02  0.34008799420E+02  0.46700000000E-02 0.  1.
       1023    2    1    2    0    0  0.00000000000E+00  0.00000000000E+00 -0.31066945225E+02  0.36950657000E+02  0.20004898579E+02 0.  0.
        -11    1    3    3    0    0 -0.34652309158E+01  0.93823795525E+01 -0.15736820695E+02  0.18646297145E+02  0.51100000000E-03 0.  1.
         11    1    3    3    0    0  0.34652309158E+01 -0.93823795525E+01 -0.15330124530E+02  0.18304359856E+02  0.51100000000E-03 0. -1.
<mgrwt>
<rscale>  0 0.20004899E+02</rscale>
<asrwt>0</asrwt>
<pdfrwt beam="2">  1        1 0.52321230E-02 0.20004899E+02</pdfrwt>
<pdfrwt beam="1">  1       -1 0.45259324E-03 0.20004899E+02</pdfrwt>
<totfact> 0.40704109E+06</totfact>
</mgrwt>
</event>
<event>
 5    1  0.9583198E-007  0.2000071E+02  0.7818608E-02  0.1745314E+00
         -1   -1    0    0    0  501 -0.00000000000E+00  0.00000000000E+00  0.10263918093E+02  0.10263919155E+02  0.46700000000E-02 0.  1.
          1   -1    0    0  501    0  0.00000000000E+00 -0.00000000000E+00 -0.97435608551E+01  0.97435619742E+01  0.46700000000E-02 0. -1.
       1023    2    1    2    0    0  0.00000000000E+00  0.00000000000E+00  0.52035723794E+00  0.20007481130E+02  0.20000713225E+02 0.  0.
        -11    1    3    3    0    0 -0.73883116897E+01 -0.67394232647E+01  0.27269480231E+00  0.10004066087E+02  0.51100000000E-03 0.  1.
         11    1    3    3    0    0  0.73883116897E+01  0.67394232647E+01  0.24766243563E+00  0.10003415042E+02  0.51100000000E-03 0. -1.
<mgrwt>
<rscale>  0 0.20000713E+02</rscale>
<asrwt>0</asrwt>
<pdfrwt beam="2">  1        1 0.14990095E-02 0.20000713E+02</pdfrwt>
<pdfrwt beam="1">  1       -1 0.15790645E-02 0.20000713E+02</pdfrwt>
<totfact> 0.38580497E+06</totfact>
</mgrwt>
</event>
<event>
 5    1  0.9583198E-007  0.2000014E+02  0.7818608E-02  0.1745325E+00
          1   -1    0    0  501    0  0.00000000000E+00  0.00000000000E+00  0.33294284682E+01  0.33294317434E+01  0.46700000000E-02 0. -1.
         -1   -1    0    0    0  501 -0.00000000000E+00 -0.00000000000E+00 -0.30035598840E+02  0.30035599203E+02  0.46700000000E-02 0.  1.
       1023    2    1    2    0    0  0.00000000000E+00  0.00000000000E+00 -0.26706170372E+02  0.33365030946E+02  0.20000143853E+02 0.  0.
        -11    1    3    3    0    0 -0.18212980701E+01  0.98327735799E+01 -0.13303728524E+02  0.16643009218E+02  0.51100000000E-03 0.  1.
         11    1    3    3    0    0  0.18212980701E+01 -0.98327735799E+01 -0.13402441848E+02  0.16722021728E+02  0.51100000000E-03 0. -1.
<mgrwt>
<rscale>  0 0.20000144E+02</rscale>
<asrwt>0</asrwt>
<pdfrwt beam="1">  1        1 0.51222006E-03 0.20000144E+02</pdfrwt>
<pdfrwt beam="2">  1       -1 0.46208615E-02 0.20000144E+02</pdfrwt>
<totfact> 0.36482855E+06</totfact>
</mgrwt>
</event>
<event>
 5    1  0.9583198E-007  0.2000126E+02  0.7818608E-02  0.1745303E+00
         -1   -1    0    0    0  501 -0.00000000000E+00  0.00000000000E+00  0.34267968325E+02  0.34267968643E+02  0.46700000000E-02 0. -1.
          1   -1    0    0  501    0  0.00000000000E+00 -0.00000000000E+00 -0.29185430190E+01  0.29185467552E+01  0.46700000000E-02 0.  1.
       1023    2    1    2    0    0  0.00000000000E+00  0.00000000000E+00  0.31349425306E+02  0.37186515399E+02  0.20001261472E+02 0.  0.
        -11    1    3    3    0    0 -0.40582185833E+01  0.91401429288E+01  0.15608611983E+02  0.18537532714E+02  0.51100000000E-03 0. -1.
         11    1    3    3    0    0  0.40582185833E+01 -0.91401429288E+01  0.15740813323E+02  0.18648982684E+02  0.51100000000E-03 0.  1.
<mgrwt>
<rscale>  0 0.20001261E+02</rscale>
<asrwt>0</asrwt>
<pdfrwt beam="2">  1        1 0.44900690E-03 0.20001261E+02</pdfrwt>
<pdfrwt beam="1">  1       -1 0.52719957E-02 0.20001261E+02</pdfrwt>
<totfact> 0.36122483E+06</totfact>
</mgrwt>
</event>
<event>
 4    1  0.9583198E-007  0.2074423E+02  0.7818608E-02  0.1730921E+00
         -1   -1    0    0    0  501 -0.00000000000E+00  0.00000000000E+00  0.56415072229E+02  0.56415072423E+02  0.46700000000E-02 0.  1.
          1   -1    0    0  501    0  0.00000000000E+00 -0.00000000000E+00 -0.19069473401E+01  0.19069530584E+01  0.46700000000E-02 0. -1.
        -11    1    1    2    0    0 -0.80929934224E+01  0.64571046663E+01  0.25498290492E+02  0.27520057439E+02  0.51100000000E-03 0.  1.
         11    1    1    2    0    0  0.80929934224E+01 -0.64571046663E+01  0.29009834398E+02  0.30801968042E+02  0.51100000000E-03 0. -1.
<mgrwt>
<rscale>  0 0.20744228E+02</rscale>
<asrwt>0</asrwt>
<pdfrwt beam="2">  1        1 0.29337697E-03 0.20744228E+02</pdfrwt>
<pdfrwt beam="1">  1       -1 0.86792424E-02 0.20744228E+02</pdfrwt>
<totfact> 0.31814245E+06</totfact>
</mgrwt>
</event>
<event>
 5    1  0.9749106E-007  0.2000188E+02  0.7818608E-02  0.1745291E+00
          1   -1    0    0  501    0  0.00000000000E+00  0.00000000000E+00  0.16353803650E+02  0.16353804317E+02  0.46700000000E-02 0. -1.
         -1   -1    0    0    0  501 -0.00000000000E+00 -0.00000000000E+00 -0.61159338609E+01  0.61159356439E+01  0.46700000000E-02 0.  1.
       1023    2    1    2    0    0  0.00000000000E+00  0.00000000000E+00  0.10237869789E+02  0.22469739961E+02  0.20001880814E+02 0.  0.
        -11    1    3    3    0    0 -0.89262336610E+01 -0.45082894505E+01  0.49746881008E+01  0.11169146928E+02  0.51100000000E-03 0.  1.
         11    1    3    3    0    0  0.89262336610E+01  0.45082894505E+01  0.52631816883E+01  0.11300593033E+02  0.51100000000E-03 0. -1.
<mgrwt>
<rscale>  0 0.20001881E+02</rscale>
<asrwt>0</asrwt>
<pdfrwt beam="1">  1        1 0.25159699E-02 0.20001881E+02</pdfrwt>
<pdfrwt beam="2">  1       -1 0.94091311E-03 0.20001881E+02</pdfrwt>
<totfact> 0.39371145E+06</totfact>
</mgrwt>
</event>
<event>
 5    1  0.9583198E-007  0.2000032E+02  0.7818608E-02  0.1745322E+00
          1   -1    0    0  501    0  0.00000000000E+00  0.00000000000E+00  0.34435097513E+01  0.34435129179E+01  0.46700000000E-02 0.  1.
         -1   -1    0    0    0  501 -0.00000000000E+00 -0.00000000000E+00 -0.29041057492E+02  0.29041057868E+02  0.46700000000E-02 0. -1.
       1023    2    1    2    0    0  0.00000000000E+00  0.00000000000E+00 -0.25597547741E+02  0.32484570785E+02  0.20000322217E+02 0.  0.
        -11    1    3    3    0    0 -0.50094259430E+01  0.86549886426E+01 -0.12809699492E+02  0.16250894684E+02  0.51100000000E-03 0.  1.
         11    1    3    3    0    0  0.50094259430E+01 -0.86549886426E+01 -0.12787848249E+02  0.16233676102E+02  0.51100000000E-03 0. -1.
<mgrwt>
<rscale>  0 0.20000322E+02</rscale>
<asrwt>0</asrwt>
<pdfrwt beam="1">  1        1 0.52977102E-03 0.20000322E+02</pdfrwt>
<pdfrwt beam="2">  1       -1 0.44678551E-02 0.20000322E+02</pdfrwt>
<totfact> 0.36568509E+06</totfact>
</mgrwt>
</event>
<event>
 5    1  0.9583198E-007  0.2000133E+02  0.7818608E-02  0.1745302E+00
          1   -1    0    0  501    0  0.00000000000E+00  0.00000000000E+00  0.10141627358E+01  0.10141734879E+01  0.46700000000E-02 0.  1.
         -1   -1    0    0    0  501 -0.00000000000E+00 -0.00000000000E+00 -0.98616126278E+02  0.98616126389E+02  0.46700000000E-02 0. -1.
       1023    2    1    2    0    0  0.00000000000E+00  0.00000000000E+00 -0.97601963542E+02  0.99630299876E+02  0.20001334110E+02 0.  0.
        -11    1    3    3    0    0  0.58618105840E+00  0.99834439975E+01 -0.48681122613E+02  0.49697730949E+02  0.51100000000E-03 0.  1.
         11    1    3    3    0    0 -0.58618105840E+00 -0.99834439975E+01 -0.48920840929E+02  0.49932568928E+02  0.51100000000E-03 0. -1.
<mgrwt>
<rscale>  0 0.20001334E+02</rscale>
<asrwt>0</asrwt>
<pdfrwt beam="1">  1        1 0.15602595E-03 0.20001334E+02</pdfrwt>
<pdfrwt beam="2">  1       -1 0.15171705E-01 0.20001334E+02</pdfrwt>
<totfact> 0.31937683E+06</totfact>
</mgrwt>
</event>
<event>
 5    1  0.9583198E-007  0.2000050E+02  0.7818608E-02  0.1745318E+00
          1   -1    0    0  501    0  0.00000000000E+00  0.00000000000E+00  0.65863806562E+01  0.65863823118E+01  0.46700000000E-02 0.  1.
         -1   -1    0    0    0  501 -0.00000000000E+00 -0.00000000000E+00 -0.15183599338E+02  0.15183600056E+02  0.46700000000E-02 0. -1.
       1023    2    1    2    0    0  0.00000000000E+00  0.00000000000E+00 -0.85972186820E+01  0.21769982368E+02  0.20000499075E+02 0.  0.
        -11    1    3    3    0    0  0.99885860291E+01 -0.47856459585E+00 -0.42287805183E+01  0.10857414972E+02  0.51100000000E-03 0.  1.
         11    1    3    3    0    0 -0.99885860291E+01  0.47856459585E+00 -0.43684381637E+01  0.10912567397E+02  0.51100000000E-03 0. -1.
<mgrwt>
<rscale>  0 0.20000499E+02</rscale>
<asrwt>0</asrwt>
<pdfrwt beam="1">  1        1 0.10132895E-02 0.20000499E+02</pdfrwt>
<pdfrwt beam="2">  1       -1 0.23359385E-02 0.20000499E+02</pdfrwt>
<totfact> 0.37936307E+06</totfact>
</mgrwt>
</event>
<event>
 5    1  0.9672578E-007  0.2000301E+02  0.7818608E-02  0.1745268E+00
         -1   -1    0    0    0  501 -0.00000000000E+00  0.00000000000E+00  0.97103093103E+00  0.97104216073E+00  0.46700000000E-02 0.  1.
          1   -1    0    0  501    0  0.00000000000E+00 -0.00000000000E+00 -0.10301371149E+03  0.10301371160E+03  0.46700000000E-02 0. -1.
       1023    2    1    2    0    0  0.00000000000E+00  0.00000000000E+00 -0.10204268056E+03  0.10398475376E+03  0.20003008728E+02 0.  0.
        -11    1    3    3    0    0 -0.19506716261E+01 -0.98093660751E+01 -0.50833425499E+02  0.51807971692E+02  0.51100000000E-03 0. -1.
         11    1    3    3    0    0  0.19506716261E+01  0.98093660751E+01 -0.51209255062E+02  0.52176782067E+02  0.51100000000E-03 0.  1.
<mgrwt>
<rscale>  0 0.20003009E+02</rscale>
<asrwt>0</asrwt>
<pdfrwt beam="2">  1        1 0.15848256E-01 0.20003009E+02</pdfrwt>
<pdfrwt beam="1">  1       -1 0.14939033E-03 0.20003009E+02</pdfrwt>
<totfact> 0.44491411E+06</totfact>
</mgrwt>
</event>
<event>
 5    1  0.9583198E-007  0.2000112E+02  0.7818608E-02  0.1745306E+00
         -1   -1    0    0    0  501 -0.00000000000E+00  0.00000000000E+00  0.42241071870E+02  0.42241072128E+02  0.46700000000E-02 0.  1.
          1   -1    0    0  501    0  0.00000000000E+00 -0.00000000000E+00 -0.23676272605E+01  0.23676318661E+01  0.46700000000E-02 0. -1.
       1023    2    1    2    0    0  0.00000000000E+00  0.00000000000E+00  0.39873444609E+02  0.44608703994E+02  0.20001122144E+02 0.  0.
        -11    1    3    3    0    0 -0.99673390055E+01  0.81440006787E+00  0.19911570954E+02  0.22281870488E+02  0.51100000000E-03 0.  1.
         11    1    3    3    0    0  0.99673390055E+01 -0.81440006787E+00  0.19961873656E+02  0.22326833506E+02  0.51100000000E-03 0. -1.
<mgrwt>
<rscale>  0 0.20001122E+02</rscale>
<asrwt>0</asrwt>
<pdfrwt beam="2">  1        1 0.36425072E-03 0.20001122E+02</pdfrwt>
<pdfrwt beam="1">  1       -1 0.64986269E-02 0.20001122E+02</pdfrwt>
<totfact> 0.35494987E+06</totfact>
</mgrwt>
</event>
<event>
 5    1  0.9583198E-007  0.2000002E+02  0.7818608E-02  0.1745328E+00
         -1   -1    0    0    0  501 -0.00000000000E+00  0.00000000000E+00  0.23188798408E+02  0.23188798878E+02  0.46700000000E-02 0. -1.
          1   -1    0    0  501    0  0.00000000000E+00 -0.00000000000E+00 -0.43124352444E+01  0.43124377730E+01  0.46700000000E-02 0.  1.
       1023    2    1    2    0    0  0.00000000000E+00  0.00000000000E+00  0.18876363164E+02  0.27501236651E+02  0.20000023277E+02 0.  0.
        -11    1    3    3    0    0 -0.56761594271E+01 -0.82329388255E+01  0.94205207865E+01  0.13738496268E+02  0.51100000000E-03 0. -1.
         11    1    3    3    0    0  0.56761594271E+01  0.82329388255E+01  0.94558423772E+01  0.13762740384E+02  0.51100000000E-03 0.  1.
<mgrwt>
<rscale>  0 0.20000023E+02</rscale>
<asrwt>0</asrwt>
<pdfrwt beam="2">  1        1 0.66345182E-03 0.20000023E+02</pdfrwt>
<pdfrwt beam="1">  1       -1 0.35675076E-02 0.20000023E+02</pdfrwt>
<totfact> 0.37102781E+06</totfact>
</mgrwt>
</event>
<event>
 5    1  0.9583198E-007  0.2000022E+02  0.7818608E-02  0.1745324E+00
         -1   -1    0    0    0  501 -0.00000000000E+00  0.00000000000E+00  0.96734473632E+02  0.96734473745E+02  0.46700000000E-02 0.  1.
          1   -1    0    0  501    0  0.00000000000E+00 -0.00000000000E+00 -0.10337753481E+01  0.10337858962E+01  0.46700000000E-02 0. -1.
       1023    2    1    2    0    0  0.00000000000E+00  0.00000000000E+00  0.95700698284E+02  0.97768259641E+02  0.20000223529E+02 0.  0.
        -11    1    3    3    0    0 -0.90634821353E+01  0.42254365466E+01  0.47680123825E+02  0.48717504355E+02  0.51100000000E-03 0.  1.
         11    1    3    3    0    0  0.90634821353E+01 -0.42254365466E+01  0.48020574460E+02  0.49050755286E+02  0.51100000000E-03 0. -1.
<mgrwt>
<rscale>  0 0.20000224E+02</rscale>
<asrwt>0</asrwt>
<pdfrwt beam="2">  1        1 0.15904318E-03 0.20000224E+02</pdfrwt>
<pdfrwt beam="1">  1       -1 0.14882227E-01 0.20000224E+02</pdfrwt>
<totfact> 0.32043662E+06</totfact>
</mgrwt>
</event>
<event>
 5    1  0.9899756E-007  0.2000080E+02  0.7818608E-02  0.1745312E+00
          1   -1    0    0  501    0  0.00000000000E+00  0.00000000000E+00  0.76278276834E+02  0.76278276977E+02  0.46700000000E-02 0. -1.
         -1   -1    0    0    0  501 -0.00000000000E+00 -0.00000000000E+00 -0.13110894802E+01  0.13110977973E+01  0.46700000000E-02 0.  1.
       1023    2    1    2    0    0  0.00000000000E+00  0.00000000000E+00  0.74967187354E+02  0.77589374774E+02  0.20000797437E+02 0.  0.
        -11    1    3    3    0    0 -0.99737623853E+01  0.72662536351E+00  0.37730585513E+02  0.39033331961E+02  0.51100000000E-03 0. -1.
         11    1    3    3    0    0  0.99737623853E+01 -0.72662536351E+00  0.37236601841E+02  0.38556042814E+02  0.51100000000E-03 0.  1.
<mgrwt>
<rscale>  0 0.20000797E+02</rscale>
<asrwt>0</asrwt>
<pdfrwt beam="1">  1        1 0.11735121E-01 0.20000797E+02</pdfrwt>
<pdfrwt beam="2">  1       -1 0.20170672E-03 0.20000797E+02</pdfrwt>
<totfact> 0.43162292E+06</totfact>
</mgrwt>
</event>
<event>
 5    1  0.9583198E-007  0.2000360E+02  0.7818608E-02  0.1745256E+00
          1   -1    0    0  501    0  0.00000000000E+00  0.00000000000E+00  0.17782081620E+01  0.17782142942E+01  0.46700000000E-02 0.  1.
         -1   -1    0    0    0  501 -0.00000000000E+00 -0.00000000000E+00 -0.56256552637E+02  0.56256552831E+02  0.46700000000E-02 0. -1.
       1023    2    1    2    0    0  0.00000000000E+00  0.00000000000E+00 -0.54478344475E+02  0.58034767125E+02  0.20003604138E+02 0.  0.
        -11    1    3    3    0    0 -0.58677542885E+01 -0.80983632099E+01 -0.26808683289E+02  0.28613275363E+02  0.51100000000E-03 0.  1.
         11    1    3    3    0    0  0.58677542885E+01  0.80983632099E+01 -0.27669661187E+02  0.29421491762E+02  0.51100000000E-03 0. -1.
<mgrwt>
<rscale>  0 0.20003604E+02</rscale>
<asrwt>0</asrwt>
<pdfrwt beam="1">  1        1 0.27357102E-03 0.20003604E+02</pdfrwt>
<pdfrwt beam="2">  1       -1 0.86548533E-02 0.20003604E+02</pdfrwt>
<totfact> 0.34480889E+06</totfact>
</mgrwt>
</event>
<event>
 5    1  0.9831288E-007  0.2000213E+02  0.7818608E-02  0.1745286E+00
         -1   -1    0    0    0  501 -0.00000000000E+00  0.00000000000E+00  0.99875240662E+00  0.99876332463E+00  0.46700000000E-02 0.  1.
          1   -1    0    0  501    0  0.00000000000E+00 -0.00000000000E+00 -0.10014569572E+03  0.10014569583E+03  0.46700000000E-02 0. -1.
       1023    2    1    2    0    0  0.00000000000E+00  0.00000000000E+00 -0.99146943315E+02  0.10114445915E+03  0.20002131113E+02 0.  0.
        -11    1    3    3    0    0  0.49577623361E+01 -0.86857074072E+01 -0.49473423139E+02  0.50474156931E+02  0.51100000000E-03 0.  1.
         11    1    3    3    0    0 -0.49577623361E+01  0.86857074072E+01 -0.49673520175E+02  0.50670302223E+02  0.51100000000E-03 0. -1.
<mgrwt>
<rscale>  0 0.20002131E+02</rscale>
<asrwt>0</asrwt>
<pdfrwt beam="2">  1        1 0.15407023E-01 0.20002131E+02</pdfrwt>
<pdfrwt beam="1">  1       -1 0.15365514E-03 0.20002131E+02</pdfrwt>
<totfact> 0.44357308E+06</totfact>
</mgrwt>
</event>
<event>
 5    1  0.9583198E-007  0.2000059E+02  0.7818608E-02  0.1745316E+00
          1   -1    0    0  501    0  0.00000000000E+00  0.00000000000E+00  0.27536339053E+01  0.27536378653E+01  0.46700000000E-02 0. -1.
         -1   -1    0    0    0  501 -0.00000000000E+00 -0.00000000000E+00 -0.36317773863E+02  0.36317774163E+02  0.46700000000E-02 0.  1.
       1023    2    1    2    0    0  0.00000000000E+00  0.00000000000E+00 -0.33564139958E+02  0.39071412029E+02  0.20000593661E+02 0.  0.
        -11    1    3    3    0    0  0.98677673789E+01  0.16226639170E+01 -0.16797844951E+02  0.19549257441E+02  0.51100000000E-03 0. -1.
         11    1    3    3    0    0 -0.98677673789E+01 -0.16226639170E+01 -0.16766295006E+02  0.19522154587E+02  0.51100000000E-03 0.  1.
<mgrwt>
<rscale>  0 0.20000594E+02</rscale>
<asrwt>0</asrwt>
<pdfrwt beam="1">  1        1 0.42363634E-03 0.20000594E+02</pdfrwt>
<pdfrwt beam="2">  1       -1 0.55873498E-02 0.20000594E+02</pdfrwt>
<totfact> 0.35958872E+06</totfact>
</mgrwt>
</event>
<event>
 5    1  0.9583198E-007  0.2000020E+02  0.7818608E-02  0.1745324E+00
          1   -1    0    0  501    0  0.00000000000E+00  0.00000000000E+00  0.33115211476E+02  0.33115211805E+02  0.46700000000E-02 0. -1.
         -1   -1    0    0    0  501 -0.00000000000E+00 -0.00000000000E+00 -0.30198188525E+01  0.30198224635E+01  0.46700000000E-02 0.  1.
       1023    2    1    2    0    0  0.00000000000E+00  0.00000000000E+00  0.30095392624E+02  0.36135034269E+02  0.20000201110E+02 0.  0.
        -11    1    3    3    0    0  0.99456549965E+01 -0.10414217710E+01  0.15115255464E+02  0.18123784390E+02  0.51100000000E-03 0. -1.
         11    1    3    3    0    0 -0.99456549965E+01  0.10414217710E+01  0.14980137160E+02  0.18011249879E+02  0.51100000000E-03 0.  1.
<mgrwt>
<rscale>  0 0.20000201E+02</rscale>
<asrwt>0</asrwt>
<pdfrwt beam="1">  1        1 0.50946480E-02 0.20000201E+02</pdfrwt>
<pdfrwt beam="2">  1       -1 0.46458784E-03 0.20000201E+02</pdfrwt>
<totfact> 0.40666355E+06</totfact>
</mgrwt>
</event>
<event>
 5    1  0.9583198E-007  0.2000076E+02  0.7818608E-02  0.1745313E+00
         -1   -1    0    0    0  501 -0.00000000000E+00  0.00000000000E+00  0.94754447559E+02  0.94754447675E+02  0.46700000000E-02 0.  1.
          1   -1    0    0  501    0  0.00000000000E+00 -0.00000000000E+00 -0.10554342239E+01  0.10554445556E+01  0.46700000000E-02 0. -1.
       1023    2    1    2    0    0  0.00000000000E+00  0.00000000000E+00  0.93699013336E+02  0.95809892230E+02  0.20000758713E+02 0.  0.
        -11    1    3    3    0    0 -0.95431769924E+01  0.29891204704E+01  0.46740405195E+02  0.47798248361E+02  0.51100000000E-03 0. -1.
         11    1    3    3    0    0  0.95431769924E+01 -0.29891204704E+01  0.46958608141E+02  0.48011643869E+02  0.51100000000E-03 0.  1.
<mgrwt>
<rscale>  0 0.20000759E+02</rscale>
<asrwt>0</asrwt>
<pdfrwt beam="2">  1        1 0.16237532E-03 0.20000759E+02</pdfrwt>
<pdfrwt beam="1">  1       -1 0.14577606E-01 0.20000759E+02</pdfrwt>
<totfact> 0.32150155E+06</totfact>
</mgrwt>
</event>
<event>
 5    1  0.9645568E-007  0.2000170E+02  0.7818608E-02  0.1745294E+00
          1   -1    0    0  501    0  0.00000000000E+00  0.00000000000E+00  0.63875906968E+01  0.63875924040E+01  0.46700000000E-02 0.  1.
         -1   -1    0    0    0  501 -0.00000000000E+00 -0.00000000000E+00 -0.15658019272E+02  0.15658019969E+02  0.46700000000E-02 0. -1.
       1023    2    1    2    0    0  0.00000000000E+00  0.00000000000E+00 -0.92704285756E+01  0.22045612373E+02  0.20001704400E+02 0.  0.
        -11    1    3    3    0    0 -0.93534323581E+01 -0.35385746180E+01 -0.47388272445E+01  0.11066376603E+02  0.51100000000E-03 0.  1.
         11    1    3    3    0    0  0.93534323581E+01  0.35385746180E+01 -0.45316013311E+01  0.10979235770E+02  0.51100000000E-03 0. -1.
<mgrwt>
<rscale>  0 0.20001704E+02</rscale>
<asrwt>0</asrwt>
<pdfrwt beam="1">  1        1 0.98270645E-03 0.20001704E+02</pdfrwt>
<pdfrwt beam="2">  1       -1 0.24089262E-02 0.20001704E+02</pdfrwt>
<totfact> 0.37876495E+06</totfact>
</mgrwt>
</event>
<event>
 4    1  0.9583198E-007  0.2013813E+02  0.7818608E-02  0.1742595E+00
          1   -1    0    0  501    0  0.00000000000E+00  0.00000000000E+00  0.88571686066E+01  0.88571698377E+01  0.46700000000E-02 0.  1.
         -1   -1    0    0    0  501 -0.00000000000E+00 -0.00000000000E+00 -0.11446781299E+02  0.11446782252E+02  0.46700000000E-02 0. -1.
        -11    1    1    2    0    0 -0.46624089725E+01  0.88642266108E+01 -0.25016533071E+00  0.10018740130E+02  0.51100000000E-03 0. -1.
         11    1    1    2    0    0  0.46624089725E+01 -0.88642266108E+01 -0.23394473618E+01  0.10285211960E+02  0.51100000000E-03 0.  1.
<mgrwt>
<rscale>  0 0.20138132E+02</rscale>
<asrwt>0</asrwt>
<pdfrwt beam="1">  1        1 0.13626415E-02 0.20138132E+02</pdfrwt>
<pdfrwt beam="2">  1       -1 0.17610434E-02 0.20138132E+02</pdfrwt>
<totfact> 0.37837133E+06</totfact>
</mgrwt>
</event>
<event>
 5    1  0.9583198E-007  0.2000222E+02  0.7818608E-02  0.1745284E+00
         -1   -1    0    0    0  501 -0.00000000000E+00  0.00000000000E+00  0.26437097601E+02  0.26437098013E+02  0.46700000000E-02 0. -1.
          1   -1    0    0  501    0  0.00000000000E+00 -0.00000000000E+00 -0.37834019941E+01  0.37834048762E+01  0.46700000000E-02 0.  1.
       1023    2    1    2    0    0  0.00000000000E+00  0.00000000000E+00  0.22653695606E+02  0.30220502889E+02  0.20002221633E+02 0.  0.
        -11    1    3    3    0    0  0.93752893702E+01 -0.34822593837E+01  0.11317768714E+02  0.15103445637E+02  0.51100000000E-03 0. -1.
         11    1    3    3    0    0 -0.93752893702E+01  0.34822593837E+01  0.11335926892E+02  0.15117057252E+02  0.51100000000E-03 0.  1.
<mgrwt>
<rscale>  0 0.20002222E+02</rscale>
<asrwt>0</asrwt>
<pdfrwt beam="2">  1        1 0.58206211E-03 0.20002222E+02</pdfrwt>
<pdfrwt beam="1">  1       -1 0.40672460E-02 0.20002222E+02</pdfrwt>
<totfact> 0.36792342E+06</totfact>
</mgrwt>
</event>
<event>
 5    1  0.9583198E-007  0.2000194E+02  0.7818608E-02  0.1745289E+00
         -1   -1    0    0    0  501 -0.00000000000E+00  0.00000000000E+00  0.10954459336E+03  0.10954459346E+03  0.46700000000E-02 0.  1.
          1   -1    0    0  501    0  0.00000000000E+00 -0.00000000000E+00 -0.91304140362E+00  0.91305334654E+00  0.46700000000E-02 0. -1.
       1023    2    1    2    0    0  0.00000000000E+00  0.00000000000E+00  0.10863155195E+03  0.11045764680E+03  0.20001941343E+02 0.  0.
        -11    1    3    3    0    0  0.40115483167E+01  0.91610222191E+01  0.54595520339E+02  0.55503943007E+02  0.51100000000E-03 0.  1.
         11    1    3    3    0    0 -0.40115483167E+01 -0.91610222191E+01  0.54036031613E+02  0.54953703795E+02  0.51100000000E-03 0. -1.
<mgrwt>
<rscale>  0 0.20001941E+02</rscale>
<asrwt>0</asrwt>
<pdfrwt beam="2">  1        1 0.14046882E-03 0.20001941E+02</pdfrwt>
<pdfrwt beam="1">  1       -1 0.16853017E-01 0.20001941E+02</pdfrwt>
<totfact> 0.31358490E+06</totfact>
</mgrwt>
</event>
<event>
 4    1  0.9583198E-007  0.2003468E+02  0.7818608E-02  0.1744639E+00
         -1   -1    0    0    0  501 -0.00000000000E+00  0.00000000000E+00  0.76965742564E+01  0.76965756732E+01  0.46700000000E-02 0. -1.
          1   -1    0    0  501    0  0.00000000000E+00 -0.00000000000E+00 -0.13037893238E+02  0.13037894074E+02  0.46700000000E-02 0.  1.
        -11    1    1    2    0    0 -0.87662966605E+01  0.48335498589E+01 -0.22890314745E+01  0.10268925296E+02  0.51100000000E-03 0.  1.
         11    1    1    2    0    0  0.87662966605E+01 -0.48335498589E+01 -0.30522875066E+01  0.10465544451E+02  0.51100000000E-03 0. -1.
<mgrwt>
<rscale>  0 0.20034684E+02</rscale>
<asrwt>0</asrwt>
<pdfrwt beam="2">  1        1 0.20058299E-02 0.20034684E+02</pdfrwt>
<pdfrwt beam="1">  1       -1 0.11840885E-02 0.20034684E+02</pdfrwt>
<totfact> 0.38877572E+06</totfact>
</mgrwt>
</event>
<event>
 5    1  0.9583198E-007  0.2000046E+02  0.7818608E-02  0.1745319E+00
          1   -1    0    0  501    0  0.00000000000E+00  0.00000000000E+00  0.97940694062E+02  0.97940694173E+02  0.46700000000E-02 0. -1.
         -1   -1    0    0    0  501 -0.00000000000E+00 -0.00000000000E+00 -0.10210677907E+01  0.10210784701E+01  0.46700000000E-02 0.  1.
       1023    2    1    2    0    0  0.00000000000E+00  0.00000000000E+00  0.96919626271E+02  0.98961772643E+02  0.20000462199E+02 0.  0.
        -11    1    3    3    0    0  0.50097752573E+01  0.86548385358E+01  0.48575173319E+02  0.49593865966E+02  0.51100000000E-03 0.  1.
         11    1    3    3    0    0 -0.50097752573E+01 -0.86548385358E+01  0.48344452952E+02  0.49367906677E+02  0.51100000000E-03 0. -1.
<mgrwt>
<rscale>  0 0.20000462E+02</rscale>
<asrwt>0</asrwt>
<pdfrwt beam="1">  1        1 0.15067807E-01 0.20000462E+02</pdfrwt>
<pdfrwt beam="2">  1       -1 0.15708811E-03 0.20000462E+02</pdfrwt>
<totfact> 0.44258204E+06</totfact>
</mgrwt>
</event>
<event>
 5    1  0.9897144E-007  0.2000093E+02  0.7818608E-02  0.1745310E+00
         -1   -1    0    0    0  501 -0.00000000000E+00  0.00000000000E+00  0.30901967606E+01  0.30902002893E+01  0.46700000000E-02 0. -1.
          1   -1    0    0  501    0  0.00000000000E+00 -0.00000000000E+00 -0.32363396055E+02  0.32363396392E+02  0.46700000000E-02 0.  1.
       1023    2    1    2    0    0  0.00000000000E+00  0.00000000000E+00 -0.29273199295E+02  0.35453596682E+02  0.20000932996E+02 0.  0.
        -11    1    3    3    0    0  0.57931210184E+01  0.81516162359E+01 -0.14663571463E+02  0.17749068334E+02  0.51100000000E-03 0. -1.
         11    1    3    3    0    0 -0.57931210184E+01 -0.81516162359E+01 -0.14609627832E+02  0.17704528348E+02  0.51100000000E-03 0.  1.
<mgrwt>
<rscale>  0 0.20000933E+02</rscale>
<asrwt>0</asrwt>
<pdfrwt beam="2">  1        1 0.49789841E-02 0.20000933E+02</pdfrwt>
<pdfrwt beam="1">  1       -1 0.47541521E-03 0.20000933E+02</pdfrwt>
<totfact> 0.40612902E+06</totfact>
</mgrwt>
</event>
<event>
 5    1  0.9583198E-007  0.2000021E+02  0.7818608E-02  0.1745324E+00
         -1   -1    0    0    0  501 -0.00000000000E+00  0.00000000000E+00  0.14303614817E+01  0.14303691053E+01  0.46700000000E-02 0.  1.
          1   -1    0    0  501    0  0.00000000000E+00 -0.00000000000E+00 -0.69913656820E+02  0.69913656976E+02  0.46700000000E-02 0. -1.
       1023    2    1    2    0    0  0.00000000000E+00  0.00000000000E+00 -0.68483295338E+02  0.71344026081E+02  0.20000207926E+02 0.  0.
        -11    1    3    3    0    0  0.51127927860E+01 -0.85942504386E+01 -0.34302219856E+02  0.35730156423E+02  0.51100000000E-03 0. -1.
         11    1    3    3    0    0 -0.51127927860E+01  0.85942504386E+01 -0.34181075482E+02  0.35613869658E+02  0.51100000000E-03 0.  1.
<mgrwt>
<rscale>  0 0.20000208E+02</rscale>
<asrwt>0</asrwt>
<pdfrwt beam="2">  1        1 0.10755945E-01 0.20000208E+02</pdfrwt>
<pdfrwt beam="1">  1       -1 0.22005627E-03 0.20000208E+02</pdfrwt>
<totfact> 0.42828263E+06</totfact>
</mgrwt>
</event>
<event>
 5    1  0.9583198E-007  0.2000279E+02  0.7818608E-02  0.1745273E+00
         -1   -1    0    0    0  501 -0.00000000000E+00  0.00000000000E+00  0.42207473397E+02  0.42207473655E+02  0.46700000000E-02 0.  1.
          1   -1    0    0  501    0  0.00000000000E+00 -0.00000000000E+00 -0.23699078440E+01  0.23699124452E+01  0.46700000000E-02 0. -1.
       1023    2    1    2    0    0  0.00000000000E+00  0.00000000000E+00  0.39837565553E+02  0.44577386100E+02  0.20002792864E+02 0.  0.
        -11    1    3    3    0    0 -0.91765865324E+01  0.39762948219E+01  0.20108791792E+02  0.22458498803E+02  0.51100000000E-03 0. -1.
         11    1    3    3    0    0  0.91765865324E+01 -0.39762948219E+01  0.19728773761E+02  0.22118887298E+02  0.51100000000E-03 0.  1.
<mgrwt>
<rscale>  0 0.20002793E+02</rscale>
<asrwt>0</asrwt>
<pdfrwt beam="2">  1        1 0.36460158E-03 0.20002793E+02</pdfrwt>
<pdfrwt beam="1">  1       -1 0.64934579E-02 0.20002793E+02</pdfrwt>
<totfact> 0.35491017E+06</totfact>
</mgrwt>
</event>
<event>
 5    1  0.9583198E-007  0.2000049E+02  0.7818608E-02  0.1745318E+00
          1   -1    0    0  501    0  0.00000000000E+00  0.00000000000E+00  0.74329642108E+01  0.74329656779E+01  0.46700000000E-02 0. -1.
         -1   -1    0    0    0  501 -0.00000000000E+00 -0.00000000000E+00 -0.13454240000E+02  0.13454240810E+02  0.46700000000E-02 0.  1.
       1023    2    1    2    0    0  0.00000000000E+00  0.00000000000E+00 -0.60212757890E+01  0.20887206488E+02  0.20000490813E+02 0.  0.
        -11    1    3    3    0    0 -0.10222154322E+01 -0.99477125205E+01 -0.29534454641E+01  0.10427116052E+02  0.51100000000E-03 0. -1.
         11    1    3    3    0    0  0.10222154322E+01  0.99477125205E+01 -0.30678303249E+01  0.10460090437E+02  0.51100000000E-03 0.  1.
<mgrwt>
<rscale>  0 0.20000491E+02</rscale>
<asrwt>0</asrwt>
<pdfrwt beam="1">  1        1 0.11435331E-02 0.20000491E+02</pdfrwt>
<pdfrwt beam="2">  1       -1 0.20698832E-02 0.20000491E+02</pdfrwt>
<totfact> 0.38145019E+06</totfact>
</mgrwt>
</event>
<event>
 4    1  0.9583198E-007  0.2002812E+02  0.7818608E-02  0.1744769E+00
         -1   -1    0    0    0  501 -0.00000000000E+00  0.00000000000E+00  0.11102709845E+01  0.11102808059E+01  0.46700000000E-02 0.  1.
          1   -1    0    0  501    0  0.00000000000E+00 -0.00000000000E+00 -0.90321136623E+02  0.90321136743E+02  0.46700000000E-02 0. -1.
        -11    1    1    2    0    0 -0.10002200827E+02 -0.46108094605E+00 -0.43886881556E+02  0.45014608629E+02  0.51100000000E-03 0. -1.
         11    1    1    2    0    0  0.10002200827E+02  0.46108094605E+00 -0.45323984082E+02  0.46416808920E+02  0.51100000000E-03 0.  1.
<mgrwt>
<rscale>  0 0.20028119E+02</rscale>
<asrwt>0</asrwt>
<pdfrwt beam="2">  1        1 0.13895554E-01 0.20028119E+02</pdfrwt>
<pdfrwt beam="1">  1       -1 0.17081176E-03 0.20028119E+02</pdfrwt>
<totfact> 0.43747946E+06</totfact>
</mgrwt>
</event>
<event>
 5    1  0.9583198E-007  0.2000835E+02  0.7818608E-02  0.1745162E+00
          1   -1    0    0  501    0  0.00000000000E+00  0.00000000000E+00  0.19014160841E+02  0.19014161415E+02  0.46700000000E-02 0.  1.
         -1   -1    0    0    0  501 -0.00000000000E+00 -0.00000000000E+00 -0.52636271110E+01  0.52636291827E+01  0.46700000000E-02 0. -1.
       1023    2    1    2    0    0  0.00000000000E+00  0.00000000000E+00  0.13750533730E+02  0.24277790597E+02  0.20008346719E+02 0.  0.
        -11    1    3    3    0    0 -0.84687511910E+01 -0.53193020945E+01  0.71934483123E+01  0.12319107938E+02  0.51100000000E-03 0. -1.
         11    1    3    3    0    0  0.84687511910E+01  0.53193020945E+01  0.65570854179E+01  0.11958682659E+02  0.51100000000E-03 0.  1.
<mgrwt>
<rscale>  0 0.20008347E+02</rscale>
<asrwt>0</asrwt>
<pdfrwt beam="1">  1        1 0.29252557E-02 0.20008347E+02</pdfrwt>
<pdfrwt beam="2">  1       -1 0.80978898E-03 0.20008347E+02</pdfrwt>
<totfact> 0.39584879E+06</totfact>
</mgrwt>
</event>
<event>
 4    1  0.9583198E-007  0.2004020E+02  0.7818608E-02  0.1744530E+00
          1   -1    0    0  501    0  0.00000000000E+00  0.00000000000E+00  0.77413399301E+02  0.77413399442E+02  0.46700000000E-02 0. -1.
         -1   -1    0    0    0  501 -0.00000000000E+00 -0.00000000000E+00 -0.12969594674E+01  0.12969678751E+01  0.46700000000E-02 0.  1.
        -11    1    1    2    0    0  0.97573592530E+01 -0.22587278368E+01  0.36851050242E+02  0.38187796680E+02  0.51100000000E-03 0. -1.
         11    1    1    2    0    0 -0.97573592530E+01  0.22587278368E+01  0.39265389591E+02  0.40522570637E+02  0.51100000000E-03 0.  1.
<mgrwt>
<rscale>  0 0.20040197E+02</rscale>
<asrwt>0</asrwt>
<pdfrwt beam="1">  1        1 0.11909759E-01 0.20040197E+02</pdfrwt>
<pdfrwt beam="2">  1       -1 0.19953280E-03 0.20040197E+02</pdfrwt>
<totfact> 0.43033746E+06</totfact>
</mgrwt>
</event>
<event>
 5    1  0.9785099E-007  0.2000221E+02  0.7818608E-02  0.1745284E+00
         -1   -1    0    0    0  501 -0.00000000000E+00  0.00000000000E+00  0.69979288392E+01  0.69979303974E+01  0.46700000000E-02 0. -1.
          1   -1    0    0  501    0  0.00000000000E+00 -0.00000000000E+00 -0.14293098127E+02  0.14293098890E+02  0.46700000000E-02 0.  1.
       1023    2    1    2    0    0  0.00000000000E+00  0.00000000000E+00 -0.72951692880E+01  0.21291029288E+02  0.20002210707E+02 0.  0.
        -11    1    3    3    0    0  0.81503055509E+01  0.57946724374E+01 -0.37838937130E+01  0.10692219654E+02  0.51100000000E-03 0. -1.
         11    1    3    3    0    0 -0.81503055509E+01 -0.57946724374E+01 -0.35112755750E+01  0.10598809634E+02  0.51100000000E-03 0.  1.
<mgrwt>
<rscale>  0 0.20002211E+02</rscale>
<asrwt>0</asrwt>
<pdfrwt beam="2">  1        1 0.21989383E-02 0.20002211E+02</pdfrwt>
<pdfrwt beam="1">  1       -1 0.10766046E-02 0.20002211E+02</pdfrwt>
<totfact> 0.39160517E+06</totfact>
</mgrwt>
</event>
<event>
 5    1  0.9583198E-007  0.2000048E+02  0.7818608E-02  0.1745319E+00
          1   -1    0    0  501    0  0.00000000000E+00  0.00000000000E+00  0.17819764844E+01  0.17819826037E+01  0.46700000000E-02 0. -1.
         -1   -1    0    0    0  501 -0.00000000000E+00 -0.00000000000E+00 -0.56120036978E+02  0.56120037172E+02  0.46700000000E-02 0.  1.
       1023    2    1    2    0    0  0.00000000000E+00  0.00000000000E+00 -0.54338060493E+02  0.57902019776E+02  0.20000476892E+02 0.  0.
        -11    1    3    3    0    0 -0.82828468387E+01 -0.56034835869E+01 -0.27208794206E+02  0.28988326314E+02  0.51100000000E-03 0. -1.
         11    1    3    3    0    0  0.82828468387E+01  0.56034835869E+01 -0.27129266287E+02  0.28913693462E+02  0.51100000000E-03 0.  1.
<mgrwt>
<rscale>  0 0.20000477E+02</rscale>
<asrwt>0</asrwt>
<pdfrwt beam="1">  1        1 0.27415076E-03 0.20000477E+02</pdfrwt>
<pdfrwt beam="2">  1       -1 0.86338510E-02 0.20000477E+02</pdfrwt>
<totfact> 0.34502021E+06</totfact>
</mgrwt>
</event>
<event>
 5    1  0.9583198E-007  0.2000046E+02  0.7818608E-02  0.1745319E+00
         -1   -1    0    0    0  501 -0.00000000000E+00  0.00000000000E+00  0.23853166254E+01  0.23853211969E+01  0.46700000000E-02 0. -1.
          1   -1    0    0  501    0  0.00000000000E+00 -0.00000000000E+00 -0.41925049813E+02  0.41925050073E+02  0.46700000000E-02 0.  1.
       1023    2    1    2    0    0  0.00000000000E+00  0.00000000000E+00 -0.39539733188E+02  0.44310371270E+02  0.20000462533E+02 0.  0.
        -11    1    3    3    0    0  0.69018968525E+01 -0.72364611407E+01 -0.19668944287E+02  0.22065129042E+02  0.51100000000E-03 0.  1.
         11    1    3    3    0    0 -0.69018968525E+01  0.72364611407E+01 -0.19870788900E+02  0.22245242228E+02  0.51100000000E-03 0. -1.
<mgrwt>
<rscale>  0 0.20000463E+02</rscale>
<asrwt>0</asrwt>
<pdfrwt beam="2">  1        1 0.64500075E-02 0.20000463E+02</pdfrwt>
<pdfrwt beam="1">  1       -1 0.36697219E-03 0.20000463E+02</pdfrwt>
<totfact> 0.41227749E+06</totfact>
</mgrwt>
</event>
<event>
 5    1  0.9583198E-007  0.2000243E+02  0.7818608E-02  0.1745280E+00
          1   -1    0    0  501    0  0.00000000000E+00  0.00000000000E+00  0.51992962120E+01  0.51992983093E+01  0.46700000000E-02 0. -1.
         -1   -1    0    0    0  501 -0.00000000000E+00 -0.00000000000E+00 -0.19238036157E+02  0.19238036723E+02  0.46700000000E-02 0.  1.
       1023    2    1    2    0    0  0.00000000000E+00  0.00000000000E+00 -0.14038739944E+02  0.24437335033E+02  0.20002427959E+02 0.  0.
        -11    1    3    3    0    0 -0.97438803719E+00 -0.99526333023E+01 -0.68468561072E+01  0.12119561894E+02  0.51100000000E-03 0.  1.
         11    1    3    3    0    0  0.97438803719E+00  0.99526333023E+01 -0.71918838373E+01  0.12317773138E+02  0.51100000000E-03 0. -1.
<mgrwt>
<rscale>  0 0.20002428E+02</rscale>
<asrwt>0</asrwt>
<pdfrwt beam="1">  1        1 0.79989194E-03 0.20002428E+02</pdfrwt>
<pdfrwt beam="2">  1       -1 0.29596980E-02 0.20002428E+02</pdfrwt>
<totfact> 0.37485033E+06</totfact>
</mgrwt>
</event>
<event>
 5    1  0.9583198E-007  0.2000040E+02  0.7818608E-02  0.1745320E+00
          1   -1    0    0  501    0  0.00000000000E+00  0.00000000000E+00  0.11111618251E+01  0.11111716386E+01  0.46700000000E-02 0.  1.
         -1   -1    0    0    0  501 -0.00000000000E+00 -0.00000000000E+00 -0.89999081862E+02  0.89999081983E+02  0.46700000000E-02 0. -1.
       1023    2    1    2    0    0  0.00000000000E+00  0.00000000000E+00 -0.88887920037E+02  0.91110253622E+02  0.20000399659E+02 0.  0.
        -11    1    3    3    0    0 -0.78047584488E+01 -0.62520624473E+01 -0.44617848468E+02  0.45724773826E+02  0.51100000000E-03 0.  1.
         11    1    3    3    0    0  0.78047584488E+01  0.62520624473E+01 -0.44270071569E+02  0.45385479795E+02  0.51100000000E-03 0. -1.
<mgrwt>
<rscale>  0 0.20000400E+02</rscale>
<asrwt>0</asrwt>
<pdfrwt beam="1">  1        1 0.17094881E-03 0.20000400E+02</pdfrwt>
<pdfrwt beam="2">  1       -1 0.13846008E-01 0.20000400E+02</pdfrwt>
<totfact> 0.32415806E+06</totfact>
</mgrwt>
</event>
<event>
 5    1  0.9583198E-007  0.2000034E+02  0.7818608E-02  0.1745321E+00
          1   -1    0    0  501    0  0.00000000000E+00  0.00000000000E+00  0.23003799438E+01  0.23003846841E+01  0.46700000000E-02 0.  1.
         -1   -1    0    0    0  501 -0.00000000000E+00 -0.00000000000E+00 -0.43472522510E+02  0.43472522761E+02  0.46700000000E-02 0. -1.
       1023    2    1    2    0    0  0.00000000000E+00  0.00000000000E+00 -0.41172142566E+02  0.45772907445E+02  0.20000343309E+02 0.  0.
        -11    1    3    3    0    0  0.30951155090E+01  0.95089597205E+01 -0.20453058615E+02  0.22766810535E+02  0.51100000000E-03 0. -1.
         11    1    3    3    0    0 -0.30951155090E+01 -0.95089597205E+01 -0.20719083952E+02  0.23006096910E+02  0.51100000000E-03 0.  1.
<mgrwt>
<rscale>  0 0.20000343E+02</rscale>
<asrwt>0</asrwt>
<pdfrwt beam="1">  1        1 0.35390502E-03 0.20000343E+02</pdfrwt>
<pdfrwt beam="2">  1       -1 0.66880802E-02 0.20000343E+02</pdfrwt>
<totfact> 0.35405102E+06</totfact>
</mgrwt>
</event>
<event>
 5    1  0.9583198E-007  0.2000036E+02  0.7818608E-02  0.1745321E+00
          1   -1    0    0  501    0  0.00000000000E+00  0.00000000000E+00  0.75594879723E+02  0.75594879867E+02  0.46700000000E-02 0. -1.
         -1   -1    0    0    0  501 -0.00000000000E+00 -0.00000000000E+00 -0.13228847538E+01  0.13228929967E+01  0.46700000000E-02 0.  1.
       1023    2    1    2    0    0  0.00000000000E+00  0.00000000000E+00  0.74271994969E+02  0.76917772864E+02  0.20000363638E+02 0.  0.
        -11    1    3    3    0    0 -0.95855147199E+01 -0.28497741750E+01  0.37066043954E+02  0.38391339127E+02  0.51100000000E-03 0. -1.
         11    1    3    3    0    0  0.95855147199E+01  0.28497741750E+01  0.37205951015E+02  0.38526433737E+02  0.51100000000E-03 0.  1.
<mgrwt>
<rscale>  0 0.20000364E+02</rscale>
<asrwt>0</asrwt>
<pdfrwt beam="1">  1        1 0.11629983E-01 0.20000364E+02</pdfrwt>
<pdfrwt beam="2">  1       -1 0.20352137E-03 0.20000364E+02</pdfrwt>
<totfact> 0.43128589E+06</totfact>
</mgrwt>
</event>
<event>
 5    1  0.9769924E-007  0.2000181E+02  0.7818608E-02  0.1745292E+00
         -1   -1    0    0    0  501 -0.00000000000E+00  0.00000000000E+00  0.24097691949E+01  0.24097737200E+01  0.46700000000E-02 0. -1.
          1   -1    0    0  501    0  0.00000000000E+00 -0.00000000000E+00 -0.41505232107E+02  0.41505232370E+02  0.46700000000E-02 0.  1.
       1023    2    1    2    0    0  0.00000000000E+00  0.00000000000E+00 -0.39095462912E+02  0.43915006090E+02  0.20001813407E+02 0.  0.
        -11    1    3    3    0    0 -0.95563653592E+01  0.29460932457E+01 -0.19282893583E+02  0.21721730352E+02  0.51100000000E-03 0.  1.
         11    1    3    3    0    0  0.95563653592E+01 -0.29460932457E+01 -0.19812569329E+02  0.22193275737E+02  0.51100000000E-03 0. -1.
<mgrwt>
<rscale>  0 0.20001813E+02</rscale>
<asrwt>0</asrwt>
<pdfrwt beam="2">  1        1 0.63854202E-02 0.20001813E+02</pdfrwt>
<pdfrwt beam="1">  1       -1 0.37073412E-03 0.20001813E+02</pdfrwt>
<totfact> 0.41195639E+06</totfact>
</mgrwt>
</event>
<event>
 5    1  0.9583198E-007  0.2000041E+02  0.7818608E-02  0.1745320E+00
          1   -1    0    0  501    0  0.00000000000E+00  0.00000000000E+00  0.11737674699E+01  0.11737767600E+01  0.46700000000E-02 0.  1.
         -1   -1    0    0    0  501 -0.00000000000E+00 -0.00000000000E+00 -0.85198860410E+02  0.85198860538E+02  0.46700000000E-02 0. -1.
       1023    2    1    2    0    0  0.00000000000E+00  0.00000000000E+00 -0.84025092940E+02  0.86372637298E+02  0.20000405751E+02 0.  0.
        -11    1    3    3    0    0 -0.36758942055E+01 -0.93000998130E+01 -0.42019444116E+02  0.43193028822E+02  0.51100000000E-03 0. -1.
         11    1    3    3    0    0  0.36758942055E+01  0.93000998130E+01 -0.42005648824E+02  0.43179608476E+02  0.51100000000E-03 0.  1.
<mgrwt>
<rscale>  0 0.20000406E+02</rscale>
<asrwt>0</asrwt>
<pdfrwt beam="1">  1        1 0.18058040E-03 0.20000406E+02</pdfrwt>
<pdfrwt beam="2">  1       -1 0.13107513E-01 0.20000406E+02</pdfrwt>
<totfact> 0.32688845E+06</totfact>
</mgrwt>
</event>
<event>
 4    1  0.9583198E-007  0.2001898E+02  0.7818608E-02  0.1744951E+00
         -1   -1    0    0    0  501 -0.00000000000E+00  0.00000000000E+00  0.21730818543E+02  0.21730819045E+02  0.46700000000E-02 0. -1.
          1   -1    0    0  501    0  0.00000000000E+00 -0.00000000000E+00 -0.46104943528E+01  0.46104967180E+01  0.46700000000E-02 0.  1.
        -11    1    1    2    0    0 -0.99748699744E+01  0.73400089448E+00  0.80453674210E+01  0.12836071265E+02  0.51100000000E-03 0. -1.
         11    1    1    2    0    0  0.99748699744E+01 -0.73400089448E+00  0.90749567690E+01  0.13505244498E+02  0.51100000000E-03 0.  1.
<mgrwt>
<rscale>  0 0.20018976E+02</rscale>
<asrwt>0</asrwt>
<pdfrwt beam="2">  1        1 0.70930702E-03 0.20018976E+02</pdfrwt>
<pdfrwt beam="1">  1       -1 0.33432032E-02 0.20018976E+02</pdfrwt>
<totfact> 0.37166341E+06</totfact>
</mgrwt>
</event>
<event>
 5    1  0.9966384E-007  0.2000098E+02  0.7818608E-02  0.1745309E+00
         -1   -1    0    0    0  501 -0.00000000000E+00  0.00000000000E+00  0.72026464083E+01  0.72026479222E+01  0.46700000000E-02 0. -1.
          1   -1    0    0  501    0  0.00000000000E+00 -0.00000000000E+00 -0.13885148678E+02  0.13885149464E+02  0.46700000000E-02 0.  1.
       1023    2    1    2    0    0  0.00000000000E+00  0.00000000000E+00 -0.66825022700E+01  0.21087797386E+02  0.20000984026E+02 0.  0.
        -11    1    3    3    0    0  0.76636262940E+01 -0.64241650907E+01 -0.32424852061E+01  0.10512600804E+02  0.51100000000E-03 0. -1.
         11    1    3    3    0    0 -0.76636262940E+01  0.64241650907E+01 -0.34400170639E+01  0.10575196582E+02  0.51100000000E-03 0.  1.
<mgrwt>
<rscale>  0 0.20000984E+02</rscale>
<asrwt>0</asrwt>
<pdfrwt beam="2">  1        1 0.21361769E-02 0.20000984E+02</pdfrwt>
<pdfrwt beam="1">  1       -1 0.11080996E-02 0.20000984E+02</pdfrwt>
<totfact> 0.39121548E+06</totfact>
</mgrwt>
</event>
<event>
 5    1  0.9583198E-007  0.2000010E+02  0.7818608E-02  0.1745326E+00
          1   -1    0    0  501    0  0.00000000000E+00  0.00000000000E+00  0.18251634273E+02  0.18251634871E+02  0.46700000000E-02 0. -1.
         -1   -1    0    0    0  501 -0.00000000000E+00 -0.00000000000E+00 -0.54790143127E+01  0.54790163030E+01  0.46700000000E-02 0.  1.
       1023    2    1    2    0    0  0.00000000000E+00  0.00000000000E+00  0.12772619961E+02  0.23730651174E+02  0.20000099612E+02 0.  0.
        -11    1    3    3    0    0  0.92581583055E+01  0.37798108622E+01  0.63589813672E+01  0.11850616425E+02  0.51100000000E-03 0.  1.
         11    1    3    3    0    0 -0.92581583055E+01 -0.37798108622E+01  0.64136385935E+01  0.11880034749E+02  0.51100000000E-03 0. -1.
<mgrwt>
<rscale>  0 0.20000100E+02</rscale>
<asrwt>0</asrwt>
<pdfrwt beam="1">  1        1 0.28079439E-02 0.20000100E+02</pdfrwt>
<pdfrwt beam="2">  1       -1 0.84292549E-03 0.20000100E+02</pdfrwt>
<totfact> 0.39554546E+06</totfact>
</mgrwt>
</event>
<event>
 5    1  0.9711586E-007  0.2000184E+02  0.7818608E-02  0.1745291E+00
         -1   -1    0    0    0  501 -0.00000000000E+00  0.00000000000E+00  0.13809265044E+02  0.13809265833E+02  0.46700000000E-02 0. -1.
          1   -1    0    0  501    0  0.00000000000E+00 -0.00000000000E+00 -0.72428477172E+01  0.72428492227E+01  0.46700000000E-02 0.  1.
       1023    2    1    2    0    0  0.00000000000E+00  0.00000000000E+00  0.65664173263E+01  0.21052115056E+02  0.20001842711E+02 0.  0.
        -11    1    3    3    0    0 -0.77855588093E+01  0.62769427674E+01  0.33453977398E+01  0.10545455077E+02  0.51100000000E-03 0. -1.
         11    1    3    3    0    0  0.77855588093E+01 -0.62769427674E+01  0.32210195865E+01  0.10506659979E+02  0.51100000000E-03 0.  1.
<mgrwt>
<rscale>  0 0.20001843E+02</rscale>
<asrwt>0</asrwt>
<pdfrwt beam="2">  1        1 0.11142844E-02 0.20001843E+02</pdfrwt>
<pdfrwt beam="1">  1       -1 0.21245025E-02 0.20001843E+02</pdfrwt>
<totfact> 0.38095267E+06</totfact>
</mgrwt>
</event>
<event>
 5    1  0.9583198E-007  0.2000031E+02  0.7818608E-02  0.1745322E+00
         -1   -1    0    0    0  501 -0.00000000000E+00  0.00000000000E+00  0.85102824050E+01  0.85102836863E+01  0.46700000000E-02 0.  1.
          1   -1    0    0  501    0  0.00000000000E+00 -0.00000000000E+00 -0.11750855181E+02  0.11750856109E+02  0.46700000000E-02 0. -1.
       1023    2    1    2    0    0  0.00000000000E+00  0.00000000000E+00 -0.32405727760E+01  0.20261139795E+02  0.20000311845E+02 0.  0.
        -11    1    3    3    0    0  0.99940640200E+01 -0.34833571379E+00 -0.15984458950E+01  0.10127076723E+02  0.51100000000E-03 0. -1.
         11    1    3    3    0    0 -0.99940640200E+01  0.34833571379E+00 -0.16421268810E+01  0.10134063073E+02  0.51100000000E-03 0.  1.
<mgrwt>
<rscale>  0 0.20000312E+02</rscale>
<asrwt>0</asrwt>
<pdfrwt beam="2">  1        1 0.18078240E-02 0.20000312E+02</pdfrwt>
<pdfrwt beam="1">  1       -1 0.13092744E-02 0.20000312E+02</pdfrwt>
<totfact> 0.38870116E+06</totfact>
</mgrwt>
</event>
<event>
 5    1  0.9583198E-007  0.2000068E+02  0.7818608E-02  0.1745315E+00
         -1   -1    0    0    0  501 -0.00000000000E+00  0.00000000000E+00  0.27843364884E+02  0.27843365276E+02  0.46700000000E-02 0. -1.
          1   -1    0    0  501    0  0.00000000000E+00 -0.00000000000E+00 -0.35917605862E+01  0.35917636222E+01  0.46700000000E-02 0.  1.
       1023    2    1    2    0    0  0.00000000000E+00  0.00000000000E+00  0.24251604298E+02  0.31435128898E+02  0.20000675434E+02 0.  0.
        -11    1    3    3    0    0 -0.80606077692E+01 -0.59183809269E+01  0.12248795203E+02  0.15812451252E+02  0.51100000000E-03 0.  1.
         11    1    3    3    0    0  0.80606077692E+01  0.59183809269E+01  0.12002809094E+02  0.15622677646E+02  0.51100000000E-03 0. -1.
<mgrwt>
<rscale>  0 0.20000675E+02</rscale>
<asrwt>0</asrwt>
<pdfrwt beam="2">  1        1 0.55257881E-03 0.20000675E+02</pdfrwt>
<pdfrwt beam="1">  1       -1 0.42835949E-02 0.20000675E+02</pdfrwt>
<totfact> 0.36672627E+06</totfact>
</mgrwt>
</event>
<event>
 5    1  0.9583198E-007  0.2000268E+02  0.7818608E-02  0.1745275E+00
         -1   -1    0    0    0  501 -0.00000000000E+00  0.00000000000E+00  0.19455418612E+01  0.19455474660E+01  0.46700000000E-02 0. -1.
          1   -1    0    0  501    0  0.00000000000E+00 -0.00000000000E+00 -0.51413273480E+02  0.51413273692E+02  0.46700000000E-02 0.  1.
       1023    2    1    2    0    0  0.00000000000E+00  0.00000000000E+00 -0.49467731619E+02  0.53358821158E+02  0.20002682917E+02 0.  0.
        -11    1    3    3    0    0  0.14676968288E+01  0.98930615756E+01 -0.24748326924E+02  0.26692817144E+02  0.51100000000E-03 0. -1.
         11    1    3    3    0    0 -0.14676968288E+01 -0.98930615756E+01 -0.24719404696E+02  0.26666004014E+02  0.51100000000E-03 0.  1.
<mgrwt>
<rscale>  0 0.20002683E+02</rscale>
<asrwt>0</asrwt>
<pdfrwt beam="2">  1        1 0.79097338E-02 0.20002683E+02</pdfrwt>
<pdfrwt beam="1">  1       -1 0.29931462E-03 0.20002683E+02</pdfrwt>
<totfact> 0.41784915E+06</totfact>
</mgrwt>
</event>
<event>
 5    1  0.9997085E-007  0.2000151E+02  0.7818608E-02  0.1745298E+00
          1   -1    0    0  501    0  0.00000000000E+00  0.00000000000E+00  0.14910673714E+02  0.14910674446E+02  0.46700000000E-02 0. -1.
         -1   -1    0    0    0  501 -0.00000000000E+00 -0.00000000000E+00 -0.67076173336E+01  0.67076189593E+01  0.46700000000E-02 0.  1.
       1023    2    1    2    0    0  0.00000000000E+00  0.00000000000E+00  0.82030563809E+01  0.21618293405E+02  0.20001511837E+02 0.  0.
        -11    1    3    3    0    0  0.62602298533E+01 -0.77988671569E+01  0.40495589786E+01  0.10789426997E+02  0.51100000000E-03 0. -1.
         11    1    3    3    0    0 -0.62602298533E+01  0.77988671569E+01  0.41534974022E+01  0.10828866408E+02  0.51100000000E-03 0.  1.
<mgrwt>
<rscale>  0 0.20001512E+02</rscale>
<asrwt>0</asrwt>
<pdfrwt beam="1">  1        1 0.22939500E-02 0.20001512E+02</pdfrwt>
<pdfrwt beam="2">  1       -1 0.10319413E-02 0.20001512E+02</pdfrwt>
<totfact> 0.39228743E+06</totfact>
</mgrwt>
</event>
<event>
 5    1  0.9583198E-007  0.2000024E+02  0.7818608E-02  0.1745323E+00
         -1   -1    0    0    0  501 -0.00000000000E+00  0.00000000000E+00  0.41235229396E+02  0.41235229661E+02  0.46700000000E-02 0.  1.
          1   -1    0    0  501    0  0.00000000000E+00 -0.00000000000E+00 -0.24251660380E+01  0.24251705344E+01  0.46700000000E-02 0. -1.
       1023    2    1    2    0    0  0.00000000000E+00  0.00000000000E+00  0.38810063358E+02  0.43660400195E+02  0.20000238182E+02 0.  0.
        -11    1    3    3    0    0 -0.99076426356E+01 -0.13560263166E+01  0.19302835759E+02  0.21739357363E+02  0.51100000000E-03 0. -1.
         11    1    3    3    0    0  0.99076426356E+01  0.13560263166E+01  0.19507227599E+02  0.21921042832E+02  0.51100000000E-03 0.  1.
<mgrwt>
<rscale>  0 0.20000238E+02</rscale>
<asrwt>0</asrwt>
<pdfrwt beam="2">  1        1 0.37310286E-03 0.20000238E+02</pdfrwt>
<pdfrwt beam="1">  1       -1 0.63438814E-02 0.20000238E+02</pdfrwt>
<totfact> 0.35575101E+06</totfact>
</mgrwt>
</event>
<event>
 5    1  0.9583198E-007  0.2000053E+02  0.7818608E-02  0.1745318E+00
          1   -1    0    0  501    0  0.00000000000E+00  0.00000000000E+00  0.75701263078E+01  0.75701277483E+01  0.46700000000E-02 0.  1.
         -1   -1    0    0    0  501 -0.00000000000E+00 -0.00000000000E+00 -0.13210515549E+02  0.13210516374E+02  0.46700000000E-02 0. -1.
       1023    2    1    2    0    0  0.00000000000E+00  0.00000000000E+00 -0.56403892408E+01  0.20780644122E+02  0.20000529477E+02 0.  0.
        -11    1    3    3    0    0 -0.71805476049E+01 -0.69602183278E+01 -0.27996365080E+01  0.10384742073E+02  0.51100000000E-03 0.  1.
         11    1    3    3    0    0  0.71805476049E+01  0.69602183278E+01 -0.28407527328E+01  0.10395902050E+02  0.51100000000E-03 0. -1.
<mgrwt>
<rscale>  0 0.20000529E+02</rscale>
<asrwt>0</asrwt>
<pdfrwt beam="1">  1        1 0.11646350E-02 0.20000529E+02</pdfrwt>
<pdfrwt beam="2">  1       -1 0.20323872E-02 0.20000529E+02</pdfrwt>
<totfact> 0.38175562E+06</totfact>
</mgrwt>
</event>
<event>
 5    1  0.9583198E-007  0.2000685E+02  0.7818608E-02  0.1745192E+00
         -1   -1    0    0    0  501 -0.00000000000E+00  0.00000000000E+00  0.82741529655E+01  0.82741542834E+01  0.46700000000E-02 0.  1.
          1   -1    0    0  501    0  0.00000000000E+00 -0.00000000000E+00 -0.12094104686E+02  0.12094105588E+02  0.46700000000E-02 0. -1.
       1023    2    1    2    0    0  0.00000000000E+00  0.00000000000E+00 -0.38199517206E+01  0.20368259871E+02  0.20006848303E+02 0.  0.
        -11    1    3    3    0    0  0.36816522809E-01  0.10002623592E+02 -0.20332428792E+01  0.10207247966E+02  0.51100000000E-03 0. -1.
         11    1    3    3    0    0 -0.36816522809E-01 -0.10002623592E+02 -0.17867088414E+01  0.10161011905E+02  0.51100000000E-03 0.  1.
<mgrwt>
<rscale>  0 0.20006848E+02</rscale>
<asrwt>0</asrwt>
<pdfrwt beam="2">  1        1 0.18606317E-02 0.20006848E+02</pdfrwt>
<pdfrwt beam="1">  1       -1 0.12729468E-02 0.20006848E+02</pdfrwt>
<totfact> 0.38885265E+06</totfact>
</mgrwt>
</event>
<event>
 5    1  0.9583198E-007  0.2000011E+02  0.7818608E-02  0.1745326E+00
          1   -1    0    0  501    0  0.00000000000E+00  0.00000000000E+00  0.10196568318E+01  0.10196675260E+01  0.46700000000E-02 0. -1.
         -1   -1    0    0    0  501 -0.00000000000E+00 -0.00000000000E+00 -0.98072720220E+02  0.98072720331E+02  0.46700000000E-02 0.  1.
       1023    2    1    2    0    0  0.00000000000E+00  0.00000000000E+00 -0.97053063388E+02  0.99092387857E+02  0.20000105455E+02 0.  0.
        -11    1    3    3    0    0 -0.17298106279E+01  0.98492976956E+01 -0.48466997439E+02  0.49487884891E+02  0.51100000000E-03 0. -1.
         11    1    3    3    0    0  0.17298106279E+01 -0.98492976956E+01 -0.48586065949E+02  0.49604502967E+02  0.51100000000E-03 0.  1.
<mgrwt>
<rscale>  0 0.20000105E+02</rscale>
<asrwt>0</asrwt>
<pdfrwt beam="1">  1        1 0.15687119E-03 0.20000105E+02</pdfrwt>
<pdfrwt beam="2">  1       -1 0.15088104E-01 0.20000105E+02</pdfrwt>
<totfact> 0.31971377E+06</totfact>
</mgrwt>
</event>
<event>
 5    1  0.9583198E-007  0.2000288E+02  0.7818608E-02  0.1745271E+00
          1   -1    0    0  501    0  0.00000000000E+00  0.00000000000E+00  0.28410890318E+01  0.28410928699E+01  0.46700000000E-02 0.  1.
         -1   -1    0    0    0  501 -0.00000000000E+00 -0.00000000000E+00 -0.35207890022E+02  0.35207890332E+02  0.46700000000E-02 0. -1.
       1023    2    1    2    0    0  0.00000000000E+00  0.00000000000E+00 -0.32366800990E+02  0.38048983201E+02  0.20002882701E+02 0.  0.
        -11    1    3    3    0    0 -0.66594202954E+01  0.74618912911E+01 -0.16119500122E+02  0.18970134021E+02  0.51100000000E-03 0.  1.
         11    1    3    3    0    0  0.66594202954E+01 -0.74618912911E+01 -0.16247300868E+02  0.19078849181E+02  0.51100000000E-03 0. -1.
<mgrwt>
<rscale>  0 0.20002883E+02</rscale>
<asrwt>0</asrwt>
<pdfrwt beam="1">  1        1 0.43709097E-03 0.20002883E+02</pdfrwt>
<pdfrwt beam="2">  1       -1 0.54165985E-02 0.20002883E+02</pdfrwt>
<totfact> 0.36039370E+06</totfact>
</mgrwt>
</event>
<event>
 5    1  0.9583198E-007  0.2000024E+02  0.7818608E-02  0.1745323E+00
         -1   -1    0    0    0  501 -0.00000000000E+00  0.00000000000E+00  0.34291231286E+01  0.34291263085E+01  0.46700000000E-02 0.  1.
          1   -1    0    0  501    0  0.00000000000E+00 -0.00000000000E+00 -0.29162645319E+02  0.29162645693E+02  0.46700000000E-02 0. -1.
       1023    2    1    2    0    0  0.00000000000E+00  0.00000000000E+00 -0.25733522190E+02  0.32591772001E+02  0.20000235945E+02 0.  0.
        -11    1    3    3    0    0  0.99605093995E+01 -0.88832360660E+00 -0.12929724050E+02  0.16345599732E+02  0.51100000000E-03 0.  1.
         11    1    3    3    0    0 -0.99605093995E+01  0.88832360660E+00 -0.12803798141E+02  0.16246172270E+02  0.51100000000E-03 0. -1.
<mgrwt>
<rscale>  0 0.20000236E+02</rscale>
<asrwt>0</asrwt>
<pdfrwt beam="2">  1        1 0.44865609E-02 0.20000236E+02</pdfrwt>
<pdfrwt beam="1">  1       -1 0.52755770E-03 0.20000236E+02</pdfrwt>
<totfact> 0.40397634E+06</totfact>
</mgrwt>
</event>
<event>
 5    1  0.9583198E-007  0.2000212E+02  0.7818608E-02  0.1745286E+00
         -1   -1    0    0    0  501 -0.00000000000E+00  0.00000000000E+00  0.22177258733E+02  0.22177259224E+02  0.46700000000E-02 0. -1.
          1   -1    0    0  501    0  0.00000000000E+00 -0.00000000000E+00 -0.45100769488E+01  0.45100793666E+01  0.46700000000E-02 0.  1.
       1023    2    1    2    0    0  0.00000000000E+00  0.00000000000E+00  0.17667181784E+02  0.26687338591E+02  0.20002118110E+02 0.  0.
        -11    1    3    3    0    0  0.99978325699E+01 -0.23548003448E+00  0.87064887199E+01  0.13259526878E+02  0.51100000000E-03 0.  1.
         11    1    3    3    0    0 -0.99978325699E+01  0.23548003448E+00  0.89606930639E+01  0.13427811713E+02  0.51100000000E-03 0. -1.
<mgrwt>
<rscale>  0 0.20002118E+02</rscale>
<asrwt>0</asrwt>
<pdfrwt beam="2">  1        1 0.69385821E-03 0.20002118E+02</pdfrwt>
<pdfrwt beam="1">  1       -1 0.34118862E-02 0.20002118E+02</pdfrwt>
<totfact> 0.37191642E+06</totfact>
</mgrwt>
</event>
<event>
 5    1  0.9832435E-007  0.2000080E+02  0.7818608E-02  0.1745312E+00
         -1   -1    0    0    0  501 -0.00000000000E+00  0.00000000000E+00  0.70877142214E+01  0.70877157599E+01  0.46700000000E-02 0. -1.
          1   -1    0    0  501    0  0.00000000000E+00 -0.00000000000E+00 -0.14110047594E+02  0.14110048367E+02  0.46700000000E-02 0.  1.
       1023    2    1    2    0    0  0.00000000000E+00  0.00000000000E+00 -0.70223333728E+01  0.21197764127E+02  0.20000800934E+02 0.  0.
        -11    1    3    3    0    0  0.32245267506E+01  0.94662492648E+01 -0.35362768943E+01  0.10607200500E+02  0.51100000000E-03 0. -1.
         11    1    3    3    0    0 -0.32245267506E+01 -0.94662492648E+01 -0.34860564785E+01  0.10590563627E+02  0.51100000000E-03 0.  1.
<mgrwt>
<rscale>  0 0.20000801E+02</rscale>
<asrwt>0</asrwt>
<pdfrwt beam="2">  1        1 0.21707767E-02 0.20000801E+02</pdfrwt>
<pdfrwt beam="1">  1       -1 0.10904177E-02 0.20000801E+02</pdfrwt>
<totfact> 0.39146960E+06</totfact>
</mgrwt>
</event>
<event>
 5    1  0.1010895E-006  0.2000225E+02  0.7818608E-02  0.1745283E+00
         -1   -1    0    0    0  501 -0.00000000000E+00  0.00000000000E+00  0.20417554584E+01  0.20417607991E+01  0.46700000000E-02 0. -1.
          1   -1    0    0  501    0  0.00000000000E+00 -0.00000000000E+00 -0.48988412026E+02  0.48988412248E+02  0.46700000000E-02 0.  1.
       1023    2    1    2    0    0  0.00000000000E+00  0.00000000000E+00 -0.46946656567E+02  0.51030173048E+02  0.20002249833E+02 0.  0.
        -11    1    3    3    0    0  0.82455429949E+00  0.99668044591E+01 -0.23285533097E+02  0.25342319010E+02  0.51100000000E-03 0. -1.
         11    1    3    3    0    0 -0.82455429949E+00 -0.99668044591E+01 -0.23661123470E+02  0.25687854037E+02  0.51100000000E-03 0.  1.
<mgrwt>
<rscale>  0 0.20002250E+02</rscale>
<asrwt>0</asrwt>
<pdfrwt beam="2">  1        1 0.75366783E-02 0.20002250E+02</pdfrwt>
<pdfrwt beam="1">  1       -1 0.31411669E-03 0.20002250E+02</pdfrwt>
<totfact> 0.41644944E+06</totfact>
</mgrwt>
</event>
<event>
 5    1  0.9583198E-007  0.2000998E+02  0.7818608E-02  0.1745130E+00
          1   -1    0    0  501    0  0.00000000000E+00  0.00000000000E+00  0.16315525046E+02  0.16315525714E+02  0.46700000000E-02 0.  1.
         -1   -1    0    0    0  501 -0.00000000000E+00 -0.00000000000E+00 -0.61352498993E+01  0.61352516766E+01  0.46700000000E-02 0. -1.
       1023    2    1    2    0    0  0.00000000000E+00  0.00000000000E+00  0.10180275146E+02  0.22450777391E+02  0.20009982593E+02 0.  0.
        -11    1    3    3    0    0 -0.47456801876E+01  0.88072885225E+01  0.49777209864E+01  0.11174413544E+02  0.51100000000E-03 0.  1.
         11    1    3    3    0    0  0.47456801876E+01 -0.88072885225E+01  0.52025541599E+01  0.11276363847E+02  0.51100000000E-03 0. -1.
<mgrwt>
<rscale>  0 0.20009983E+02</rscale>
<asrwt>0</asrwt>
<pdfrwt beam="1">  1        1 0.25100809E-02 0.20009983E+02</pdfrwt>
<pdfrwt beam="2">  1       -1 0.94388480E-03 0.20009983E+02</pdfrwt>
<totfact> 0.39331629E+06</totfact>
</mgrwt>
</event>
<event>
 5    1  0.9583198E-007  0.2000016E+02  0.7818608E-02  0.1745325E+00
          1   -1    0    0  501    0  0.00000000000E+00  0.00000000000E+00  0.51876611499E+02  0.51876611709E+02  0.46700000000E-02 0. -1.
         -1   -1    0    0    0  501 -0.00000000000E+00 -0.00000000000E+00 -0.19276791209E+01  0.19276847777E+01  0.46700000000E-02 0.  1.
       1023    2    1    2    0    0  0.00000000000E+00  0.00000000000E+00  0.49948932378E+02  0.53804296487E+02  0.20000161868E+02 0.  0.
        -11    1    3    3    0    0 -0.83723179315E+01 -0.54686281241E+01  0.24963270838E+02  0.26891755099E+02  0.51100000000E-03 0. -1.
         11    1    3    3    0    0  0.83723179315E+01  0.54686281241E+01  0.24985661541E+02  0.26912541388E+02  0.51100000000E-03 0.  1.
<mgrwt>
<rscale>  0 0.20000162E+02</rscale>
<asrwt>0</asrwt>
<pdfrwt beam="1">  1        1 0.79810158E-02 0.20000162E+02</pdfrwt>
<pdfrwt beam="2">  1       -1 0.29656654E-03 0.20000162E+02</pdfrwt>
<totfact> 0.41823542E+06</totfact>
</mgrwt>
</event>
<event>
 5    1  0.9583198E-007  0.2000037E+02  0.7818608E-02  0.1745321E+00
         -1   -1    0    0    0  501 -0.00000000000E+00  0.00000000000E+00  0.76460953130E+01  0.76460967391E+01  0.46700000000E-02 0.  1.
          1   -1    0    0  501    0  0.00000000000E+00 -0.00000000000E+00 -0.13079054646E+02  0.13079055479E+02  0.46700000000E-02 0. -1.
       1023    2    1    2    0    0  0.00000000000E+00  0.00000000000E+00 -0.54329593326E+01  0.20725152218E+02  0.20000372181E+02 0.  0.
        -11    1    3    3    0    0 -0.94294122130E+01  0.33301335131E+01 -0.27277209564E+01  0.10365522938E+02  0.51100000000E-03 0.  1.
         11    1    3    3    0    0  0.94294122130E+01 -0.33301335131E+01 -0.27052383763E+01  0.10359629281E+02  0.51100000000E-03 0. -1.
<mgrwt>
<rscale>  0 0.20000372E+02</rscale>
<asrwt>0</asrwt>
<pdfrwt beam="2">  1        1 0.20121624E-02 0.20000372E+02</pdfrwt>
<pdfrwt beam="1">  1       -1 0.11763225E-02 0.20000372E+02</pdfrwt>
<totfact> 0.39032984E+06</totfact>
</mgrwt>
</event>
<event>
 5    1  0.9583198E-007  0.2000040E+02  0.7818608E-02  0.1745320E+00
          1   -1    0    0  501    0  0.00000000000E+00  0.00000000000E+00  0.34809612022E+01  0.34809643348E+01  0.46700000000E-02 0. -1.
         -1   -1    0    0    0  501 -0.00000000000E+00 -0.00000000000E+00 -0.28728842107E+02  0.28728842487E+02  0.46700000000E-02 0.  1.
       1023    2    1    2    0    0  0.00000000000E+00  0.00000000000E+00 -0.25247880905E+02  0.32209806821E+02  0.20000404128E+02 0.  0.
        -11    1    3    3    0    0 -0.11765235054E+01  0.99305982755E+01 -0.12534979724E+02  0.16035170926E+02  0.51100000000E-03 0. -1.
         11    1    3    3    0    0  0.11765235054E+01 -0.99305982755E+01 -0.12712901181E+02  0.16174635896E+02  0.51100000000E-03 0.  1.
<mgrwt>
<rscale>  0 0.20000404E+02</rscale>
<asrwt>0</asrwt>
<pdfrwt beam="1">  1        1 0.53553278E-03 0.20000404E+02</pdfrwt>
<pdfrwt beam="2">  1       -1 0.44198220E-02 0.20000404E+02</pdfrwt>
<totfact> 0.36595527E+06</totfact>
</mgrwt>
</event>
<event>
 5    1  0.9583198E-007  0.2000075E+02  0.7818608E-02  0.1745313E+00
          1   -1    0    0  501    0  0.00000000000E+00  0.00000000000E+00  0.89019069838E+00  0.89020294786E+00  0.46700000000E-02 0.  1.
         -1   -1    0    0    0  501 -0.00000000000E+00 -0.00000000000E+00 -0.11234316019E+03  0.11234316029E+03  0.46700000000E-02 0. -1.
       1023    2    1    2    0    0  0.00000000000E+00  0.00000000000E+00 -0.11145296949E+03  0.11323336324E+03  0.20000753511E+02 0.  0.
        -11    1    3    3    0    0  0.89271800594E+01 -0.45067935070E+01 -0.55486058651E+02  0.56380035797E+02  0.51100000000E-03 0. -1.
         11    1    3    3    0    0 -0.89271800594E+01  0.45067935070E+01 -0.55966910844E+02  0.56853327441E+02  0.51100000000E-03 0.  1.
<mgrwt>
<rscale>  0 0.20000754E+02</rscale>
<asrwt>0</asrwt>
<pdfrwt beam="1">  1        1 0.13695345E-03 0.20000754E+02</pdfrwt>
<pdfrwt beam="2">  1       -1 0.17283553E-01 0.20000754E+02</pdfrwt>
<totfact> 0.31218897E+06</totfact>
</mgrwt>
</event>
<event>
 5    1  0.9583198E-007  0.2000052E+02  0.7818608E-02  0.1745318E+00
          1   -1    0    0  501    0  0.00000000000E+00  0.00000000000E+00  0.14698987524E+02  0.14698988266E+02  0.46700000000E-02 0. -1.
         -1   -1    0    0    0  501 -0.00000000000E+00 -0.00000000000E+00 -0.68035416194E+01  0.68035432222E+01  0.46700000000E-02 0.  1.
       1023    2    1    2    0    0  0.00000000000E+00  0.00000000000E+00  0.78954459042E+01  0.21502531488E+02  0.20000519852E+02 0.  0.
        -11    1    3    3    0    0  0.96717549257E+01  0.25420597493E+01  0.39659431345E+01  0.10757955954E+02  0.51100000000E-03 0.  1.
         11    1    3    3    0    0 -0.96717549257E+01 -0.25420597493E+01  0.39295027698E+01  0.10744575533E+02  0.51100000000E-03 0. -1.
<mgrwt>
<rscale>  0 0.20000520E+02</rscale>
<asrwt>0</asrwt>
<pdfrwt beam="1">  1        1 0.22613828E-02 0.20000520E+02</pdfrwt>
<pdfrwt beam="2">  1       -1 0.10466989E-02 0.20000520E+02</pdfrwt>
<totfact> 0.39211053E+06</totfact>
</mgrwt>
</event>
<event>
 5    1  0.9583198E-007  0.2000347E+02  0.7818608E-02  0.1745259E+00
          1   -1    0    0  501    0  0.00000000000E+00  0.00000000000E+00  0.37948849330E+01  0.37948878064E+01  0.46700000000E-02 0.  1.
         -1   -1    0    0    0  501 -0.00000000000E+00 -0.00000000000E+00 -0.26360397908E+02  0.26360398322E+02  0.46700000000E-02 0. -1.
       1023    2    1    2    0    0  0.00000000000E+00  0.00000000000E+00 -0.22565512975E+02  0.30155286128E+02  0.20003472340E+02 0.  0.
        -11    1    3    3    0    0  0.51144134095E+01  0.85946826619E+01 -0.11140286992E+02  0.14971031664E+02  0.51100000000E-03 0. -1.
         11    1    3    3    0    0 -0.51144134095E+01 -0.85946826619E+01 -0.11425225983E+02  0.15184254463E+02  0.51100000000E-03 0.  1.
<mgrwt>
<rscale>  0 0.20003472E+02</rscale>
<asrwt>0</asrwt>
<pdfrwt beam="1">  1        1 0.58382872E-03 0.20003472E+02</pdfrwt>
<pdfrwt beam="2">  1       -1 0.40554460E-02 0.20003472E+02</pdfrwt>
<totfact> 0.36794222E+06</totfact>
</mgrwt>
</event>
<event>
 5    1  0.9583198E-007  0.2000980E+02  0.7818608E-02  0.1745133E+00
          1   -1    0    0  501    0  0.00000000000E+00  0.00000000000E+00  0.37618596192E+01  0.37618625179E+01  0.46700000000E-02 0.  1.
         -1   -1    0    0    0  501 -0.00000000000E+00 -0.00000000000E+00 -0.26608636664E+02  0.26608637074E+02  0.46700000000E-02 0. -1.
       1023    2    1    2    0    0  0.00000000000E+00  0.00000000000E+00 -0.22846777045E+02  0.30370499592E+02  0.20009798203E+02 0.  0.
        -11    1    3    3    0    0 -0.41136736094E+01  0.91163003088E+01 -0.11025382695E+02  0.14885842459E+02  0.51100000000E-03 0. -1.
         11    1    3    3    0    0  0.41136736094E+01 -0.91163003088E+01 -0.11821394350E+02  0.15484657133E+02  0.51100000000E-03 0.  1.
<mgrwt>
<rscale>  0 0.20009798E+02</rscale>
<asrwt>0</asrwt>
<pdfrwt beam="1">  1        1 0.57874791E-03 0.20009798E+02</pdfrwt>
<pdfrwt beam="2">  1       -1 0.40936365E-02 0.20009798E+02</pdfrwt>
<totfact> 0.36746230E+06</totfact>
</mgrwt>
</event>
<event>
 4    1  0.9583198E-007  0.2025763E+02  0.7818608E-02  0.1740253E+00
          1   -1    0    0  501    0  0.00000000000E+00  0.00000000000E+00  0.94996952220E+01  0.94996963698E+01  0.46700000000E-02 0.  1.
         -1   -1    0    0    0  501 -0.00000000000E+00 -0.00000000000E+00 -0.10799593396E+02  0.10799594406E+02  0.46700000000E-02 0. -1.
        -11    1    1    2    0    0  0.30767980434E+01  0.96307231599E+01 -0.36028745988E-01  0.10110331998E+02  0.51100000000E-03 0.  1.
         11    1    1    2    0    0 -0.30767980434E+01 -0.96307231599E+01 -0.12638694285E+01  0.10188958778E+02  0.51100000000E-03 0. -1.
<mgrwt>
<rscale>  0 0.20257627E+02</rscale>
<asrwt>0</asrwt>
<pdfrwt beam="1">  1        1 0.14614917E-02 0.20257627E+02</pdfrwt>
<pdfrwt beam="2">  1       -1 0.16614761E-02 0.20257627E+02</pdfrwt>
<totfact> 0.37439821E+06</totfact>
</mgrwt>
</event>
<event>
 5    1  0.9633576E-007  0.2000253E+02  0.7818608E-02  0.1745278E+00
         -1   -1    0    0    0  501 -0.00000000000E+00  0.00000000000E+00  0.27180565334E+01  0.27180605453E+01  0.46700000000E-02 0. -1.
          1   -1    0    0  501    0  0.00000000000E+00 -0.00000000000E+00 -0.36800264277E+02  0.36800264573E+02  0.46700000000E-02 0.  1.
       1023    2    1    2    0    0  0.00000000000E+00  0.00000000000E+00 -0.34082207744E+02  0.39518325119E+02  0.20002528228E+02 0.  0.
        -11    1    3    3    0    0 -0.98136418657E+01 -0.19229149710E+01 -0.16760900591E+02  0.19517503875E+02  0.51100000000E-03 0.  1.
         11    1    3    3    0    0  0.98136418657E+01  0.19229149710E+01 -0.17321307153E+02  0.20000821243E+02  0.51100000000E-03 0. -1.
<mgrwt>
<rscale>  0 0.20002528E+02</rscale>
<asrwt>0</asrwt>
<pdfrwt beam="2">  1        1 0.56615791E-02 0.20002528E+02</pdfrwt>
<pdfrwt beam="1">  1       -1 0.41816290E-03 0.20002528E+02</pdfrwt>
<totfact> 0.40896256E+06</totfact>
</mgrwt>
</event>
<event>
 4    1  0.9583198E-007  0.2001984E+02  0.7818608E-02  0.1744934E+00
          1   -1    0    0  501    0  0.00000000000E+00  0.00000000000E+00  0.75688626649E+02  0.75688626793E+02  0.46700000000E-02 0. -1.
         -1   -1    0    0    0  501 -0.00000000000E+00 -0.00000000000E+00 -0.13238212090E+01  0.13238294460E+01  0.46700000000E-02 0.  1.
        -11    1    1    2    0    0  0.35657342007E+01  0.93523146642E+01  0.37702529213E+02  0.39008472917E+02  0.51100000000E-03 0.  1.
         11    1    1    2    0    0 -0.35657342007E+01 -0.93523146642E+01  0.36662276227E+02  0.38003983323E+02  0.51100000000E-03 0. -1.
<mgrwt>
<rscale>  0 0.20019843E+02</rscale>
<asrwt>0</asrwt>
<pdfrwt beam="1">  1        1 0.11644406E-01 0.20019843E+02</pdfrwt>
<pdfrwt beam="2">  1       -1 0.20366543E-03 0.20019843E+02</pdfrwt>
<totfact> 0.43040691E+06</totfact>
</mgrwt>
</event>
<event>
 5    1  0.9740235E-007  0.2000193E+02  0.7818608E-02  0.1745290E+00
         -1   -1    0    0    0  501 -0.00000000000E+00  0.00000000000E+00  0.48502187179E+01  0.48502209662E+01  0.46700000000E-02 0. -1.
          1   -1    0    0  501    0  0.00000000000E+00 -0.00000000000E+00 -0.20621597298E+02  0.20621597827E+02  0.46700000000E-02 0.  1.
       1023    2    1    2    0    0  0.00000000000E+00  0.00000000000E+00 -0.15771378580E+02  0.25471818793E+02  0.20001929165E+02 0.  0.
        -11    1    3    3    0    0  0.64792170440E+01  0.76179789359E+01 -0.79795789011E+01  0.12794042999E+02  0.51100000000E-03 0.  1.
         11    1    3    3    0    0 -0.64792170440E+01 -0.76179789359E+01 -0.77917996789E+01  0.12677775793E+02  0.51100000000E-03 0. -1.
<mgrwt>
<rscale>  0 0.20001929E+02</rscale>
<asrwt>0</asrwt>
<pdfrwt beam="2">  1        1 0.31725536E-02 0.20001929E+02</pdfrwt>
<pdfrwt beam="1">  1       -1 0.74618772E-03 0.20001929E+02</pdfrwt>
<totfact> 0.39748943E+06</totfact>
</mgrwt>
</event>
<event>
 5    1  0.9868053E-007  0.2000052E+02  0.7818608E-02  0.1745318E+00
          1   -1    0    0  501    0  0.00000000000E+00  0.00000000000E+00  0.10450983954E+03  0.10450983965E+03  0.46700000000E-02 0. -1.
         -1   -1    0    0    0  501 -0.00000000000E+00 -0.00000000000E+00 -0.95689187338E+00  0.95690326901E+00  0.46700000000E-02 0.  1.
       1023    2    1    2    0    0  0.00000000000E+00  0.00000000000E+00  0.10355294767E+03  0.10546674291E+03  0.20000522251E+02 0.  0.
        -11    1    3    3    0    0 -0.92151789086E+01  0.38839281044E+01  0.51627094448E+02  0.52586702703E+02  0.51100000000E-03 0.  1.
         11    1    3    3    0    0  0.92151789086E+01 -0.38839281044E+01  0.51925853220E+02  0.52880040211E+02  0.51100000000E-03 0. -1.
<mgrwt>
<rscale>  0 0.20000522E+02</rscale>
<asrwt>0</asrwt>
<pdfrwt beam="1">  1        1 0.16078431E-01 0.20000522E+02</pdfrwt>
<pdfrwt beam="2">  1       -1 0.14721508E-03 0.20000522E+02</pdfrwt>
<totfact> 0.44575235E+06</totfact>
</mgrwt>
</event>
<event>
 5    1  0.9583198E-007  0.2000073E+02  0.7818608E-02  0.1745314E+00
         -1   -1    0    0    0  501 -0.00000000000E+00  0.00000000000E+00  0.46669129819E+02  0.46669130052E+02  0.46700000000E-02 0.  1.
          1   -1    0    0  501    0  0.00000000000E+00 -0.00000000000E+00 -0.21428978662E+01  0.21429029548E+01  0.46700000000E-02 0. -1.
       1023    2    1    2    0    0  0.00000000000E+00  0.00000000000E+00  0.44526231953E+02  0.48812033007E+02  0.20000730847E+02 0.  0.
        -11    1    3    3    0    0  0.93726443285E+01  0.34872404042E+01  0.22260683971E+02  0.24403798034E+02  0.51100000000E-03 0.  1.
         11    1    3    3    0    0 -0.93726443285E+01 -0.34872404042E+01  0.22265547982E+02  0.24408234974E+02  0.51100000000E-03 0. -1.
<mgrwt>
<rscale>  0 0.20000731E+02</rscale>
<asrwt>0</asrwt>
<pdfrwt beam="2">  1        1 0.32967703E-03 0.20000731E+02</pdfrwt>
<pdfrwt beam="1">  1       -1 0.71798660E-02 0.20000731E+02</pdfrwt>
<totfact> 0.35166927E+06</totfact>
</mgrwt>
</event>
<event>
 5    1  0.9583198E-007  0.2000160E+02  0.7818608E-02  0.1745296E+00
          1   -1    0    0  501    0  0.00000000000E+00  0.00000000000E+00  0.54142056470E+01  0.54142076610E+01  0.46700000000E-02 0. -1.
         -1   -1    0    0    0  501 -0.00000000000E+00 -0.00000000000E+00 -0.18472872922E+02  0.18472873512E+02  0.46700000000E-02 0.  1.
       1023    2    1    2    0    0  0.00000000000E+00  0.00000000000E+00 -0.13058667275E+02  0.23887081173E+02  0.20001596336E+02 0.  0.
        -11    1    3    3    0    0  0.51539133224E+01  0.85703652102E+01 -0.64761742021E+01  0.11914479213E+02  0.51100000000E-03 0. -1.
         11    1    3    3    0    0 -0.51539133224E+01 -0.85703652102E+01 -0.65824930726E+01  0.11972601960E+02  0.51100000000E-03 0.  1.
<mgrwt>
<rscale>  0 0.20001596E+02</rscale>
<asrwt>0</asrwt>
<pdfrwt beam="1">  1        1 0.83295492E-03 0.20001596E+02</pdfrwt>
<pdfrwt beam="2">  1       -1 0.28419806E-02 0.20001596E+02</pdfrwt>
<totfact> 0.37568333E+06</totfact>
</mgrwt>
</event>
<event>
 4    1  0.9583198E-007  0.2001804E+02  0.7818608E-02  0.1744970E+00
          1   -1    0    0  501    0  0.00000000000E+00  0.00000000000E+00  0.32912215015E+01  0.32912248147E+01  0.46700000000E-02 0.  1.
         -1   -1    0    0    0  501 -0.00000000000E+00 -0.00000000000E+00 -0.30438680662E+02  0.30438681021E+02  0.46700000000E-02 0. -1.
        -11    1    1    2    0    0 -0.26061247857E+01  0.96548467384E+01 -0.14273653768E+02  0.17428285748E+02  0.51100000000E-03 0. -1.
         11    1    1    2    0    0  0.26061247857E+01 -0.96548467384E+01 -0.12873805392E+02  0.16301620088E+02  0.51100000000E-03 0.  1.
<mgrwt>
<rscale>  0 0.20018042E+02</rscale>
<asrwt>0</asrwt>
<pdfrwt beam="1">  1        1 0.50634207E-03 0.20018042E+02</pdfrwt>
<pdfrwt beam="2">  1       -1 0.46828740E-02 0.20018042E+02</pdfrwt>
<totfact> 0.36376517E+06</totfact>
</mgrwt>
</event>
<event>
 4    1  0.9583198E-007  0.2002670E+02  0.7818608E-02  0.1744798E+00
         -1   -1    0    0    0  501 -0.00000000000E+00  0.00000000000E+00  0.84882528915E+02  0.84882529044E+02  0.46700000000E-02 0.  1.
          1   -1    0    0  501    0  0.00000000000E+00 -0.00000000000E+00 -0.11812416622E+01  0.11812508935E+01  0.46700000000E-02 0. -1.
        -11    1    1    2    0    0  0.10000517866E+02 -0.24419363022E+00  0.43758992596E+02  0.44887853830E+02  0.51100000000E-03 0.  1.
         11    1    1    2    0    0 -0.10000517866E+02  0.24419363022E+00  0.39942294657E+02  0.41175926108E+02  0.51100000000E-03 0. -1.
<mgrwt>
<rscale>  0 0.20026700E+02</rscale>
<asrwt>0</asrwt>
<pdfrwt beam="2">  1        1 0.18173014E-03 0.20026700E+02</pdfrwt>
<pdfrwt beam="1">  1       -1 0.13058856E-01 0.20026700E+02</pdfrwt>
<totfact> 0.32612983E+06</totfact>
</mgrwt>
</event>
<event>
 5    1  0.9583198E-007  0.2000047E+02  0.7818608E-02  0.1745319E+00
         -1   -1    0    0    0  501 -0.00000000000E+00  0.00000000000E+00  0.28401951572E+01  0.28401989966E+01  0.46700000000E-02 0.  1.
          1   -1    0    0  501    0  0.00000000000E+00 -0.00000000000E+00 -0.35210479065E+02  0.35210479374E+02  0.46700000000E-02 0. -1.
       1023    2    1    2    0    0  0.00000000000E+00  0.00000000000E+00 -0.32370283907E+02  0.38050678371E+02  0.20000471100E+02 0.  0.
        -11    1    3    3    0    0  0.70723701295E+01  0.70699742222E+01 -0.16264866166E+02  0.19093161771E+02  0.51100000000E-03 0.  1.
         11    1    3    3    0    0 -0.70723701295E+01 -0.70699742222E+01 -0.16105417742E+02  0.18957516600E+02  0.51100000000E-03 0. -1.
<mgrwt>
<rscale>  0 0.20000471E+02</rscale>
<asrwt>0</asrwt>
<pdfrwt beam="2">  1        1 0.54169968E-02 0.20000471E+02</pdfrwt>
<pdfrwt beam="1">  1       -1 0.43695344E-03 0.20000471E+02</pdfrwt>
<totfact> 0.40802894E+06</totfact>
</mgrwt>
</event>
<event>
 5    1  0.9683994E-007  0.2000058E+02  0.7818608E-02  0.1745317E+00
          1   -1    0    0  501    0  0.00000000000E+00  0.00000000000E+00  0.14991740356E+02  0.14991741083E+02  0.46700000000E-02 0. -1.
         -1   -1    0    0    0  501 -0.00000000000E+00 -0.00000000000E+00 -0.66707241925E+01  0.66707258272E+01  0.46700000000E-02 0.  1.
       1023    2    1    2    0    0  0.00000000000E+00  0.00000000000E+00  0.83210161636E+01  0.21662466911E+02  0.20000579058E+02 0.  0.
        -11    1    3    3    0    0 -0.94555671175E+01  0.32551454025E+01  0.41112387242E+01  0.10812308043E+02  0.51100000000E-03 0. -1.
         11    1    3    3    0    0  0.94555671175E+01 -0.32551454025E+01  0.42097774394E+01  0.10850158868E+02  0.51100000000E-03 0.  1.
<mgrwt>
<rscale>  0 0.20000579E+02</rscale>
<asrwt>0</asrwt>
<pdfrwt beam="1">  1        1 0.23064218E-02 0.20000579E+02</pdfrwt>
<pdfrwt beam="2">  1       -1 0.10262655E-02 0.20000579E+02</pdfrwt>
<totfact> 0.39241244E+06</totfact>
</mgrwt>
</event>
<event>
 5    1  0.9583198E-007  0.2001122E+02  0.7818608E-02  0.1745105E+00
         -1   -1    0    0    0  501 -0.00000000000E+00  0.00000000000E+00  0.15267822562E+01  0.15267893983E+01  0.46700000000E-02 0.  1.
          1   -1    0    0  501    0  0.00000000000E+00 -0.00000000000E+00 -0.65570599123E+02  0.65570599290E+02  0.46700000000E-02 0. -1.
       1023    2    1    2    0    0  0.00000000000E+00  0.00000000000E+00 -0.64043816867E+02  0.67097388688E+02  0.20011224096E+02 0.  0.
        -11    1    3    3    0    0 -0.98788730447E-01 -0.10005069486E+02 -0.32132991559E+02  0.33654722127E+02  0.51100000000E-03 0. -1.
         11    1    3    3    0    0  0.98788730447E-01  0.10005069486E+02 -0.31910825308E+02  0.33442666561E+02  0.51100000000E-03 0.  1.
<mgrwt>
<rscale>  0 0.20011224E+02</rscale>
<asrwt>0</asrwt>
<pdfrwt beam="2">  1        1 0.10087783E-01 0.20011224E+02</pdfrwt>
<pdfrwt beam="1">  1       -1 0.23489019E-03 0.20011224E+02</pdfrwt>
<totfact> 0.42541347E+06</totfact>
</mgrwt>
</event>
<event>
 5    1  0.9583198E-007  0.2000066E+02  0.7818608E-02  0.1745315E+00
          1   -1    0    0  501    0  0.00000000000E+00  0.00000000000E+00  0.12071727936E+01  0.12071818266E+01  0.46700000000E-02 0.  1.
         -1   -1    0    0    0  501 -0.00000000000E+00 -0.00000000000E+00 -0.82843313754E+02  0.82843313886E+02  0.46700000000E-02 0. -1.
       1023    2    1    2    0    0  0.00000000000E+00  0.00000000000E+00 -0.81636140961E+02  0.84050495712E+02  0.20000657953E+02 0.  0.
        -11    1    3    3    0    0 -0.68473948767E+01  0.72883299893E+01 -0.40830500562E+02  0.42037320883E+02  0.51100000000E-03 0. -1.
         11    1    3    3    0    0  0.68473948767E+01 -0.72883299893E+01 -0.40805640399E+02  0.42013174829E+02  0.51100000000E-03 0.  1.
<mgrwt>
<rscale>  0 0.20000658E+02</rscale>
<asrwt>0</asrwt>
<pdfrwt beam="1">  1        1 0.18571966E-03 0.20000658E+02</pdfrwt>
<pdfrwt beam="2">  1       -1 0.12745121E-01 0.20000658E+02</pdfrwt>
<totfact> 0.32824293E+06</totfact>
</mgrwt>
</event>
<event>
 5    1  0.9583198E-007  0.2000294E+02  0.7818608E-02  0.1745270E+00
         -1   -1    0    0    0  501 -0.00000000000E+00  0.00000000000E+00  0.11643514061E+02  0.11643514997E+02  0.46700000000E-02 0. -1.
          1   -1    0    0  501    0  0.00000000000E+00 -0.00000000000E+00 -0.85909972749E+01  0.85909985442E+01  0.46700000000E-02 0.  1.
       1023    2    1    2    0    0  0.00000000000E+00  0.00000000000E+00  0.30525167859E+01  0.20234513542E+02  0.20002941772E+02 0.  0.
        -11    1    3    3    0    0 -0.52760182894E-01  0.10000718730E+02  0.14142476805E+01  0.10100359178E+02  0.51100000000E-03 0.  1.
         11    1    3    3    0    0  0.52760182894E-01 -0.10000718730E+02  0.16382691054E+01  0.10134154364E+02  0.51100000000E-03 0. -1.
<mgrwt>
<rscale>  0 0.20002942E+02</rscale>
<asrwt>0</asrwt>
<pdfrwt beam="2">  1        1 0.13216921E-02 0.20002942E+02</pdfrwt>
<pdfrwt beam="1">  1       -1 0.17913100E-02 0.20002942E+02</pdfrwt>
<totfact> 0.38372038E+06</totfact>
</mgrwt>
</event>
<event>
 4    1  0.9583198E-007  0.2003467E+02  0.7818608E-02  0.1744640E+00
          1   -1    0    0  501    0  0.00000000000E+00  0.00000000000E+00  0.38765855185E+02  0.38765855466E+02  0.46700000000E-02 0. -1.
         -1   -1    0    0    0  501 -0.00000000000E+00 -0.00000000000E+00 -0.25885380091E+01  0.25885422217E+01  0.46700000000E-02 0.  1.
        -11    1    1    2    0    0 -0.76161780361E+01  0.65021606148E+01  0.17571708587E+02  0.20224964857E+02  0.51100000000E-03 0. -1.
         11    1    1    2    0    0  0.76161780361E+01 -0.65021606148E+01  0.18605608589E+02  0.21129432831E+02  0.51100000000E-03 0.  1.
<mgrwt>
<rscale>  0 0.20034668E+02</rscale>
<asrwt>0</asrwt>
<pdfrwt beam="1">  1        1 0.59639781E-02 0.20034668E+02</pdfrwt>
<pdfrwt beam="2">  1       -1 0.39823696E-03 0.20034668E+02</pdfrwt>
<totfact> 0.40874822E+06</totfact>
</mgrwt>
</event>
<event>
 5    1  0.9583198E-007  0.2000199E+02  0.7818608E-02  0.1745289E+00
          1   -1    0    0  501    0  0.00000000000E+00  0.00000000000E+00  0.54452030596E+02  0.54452030797E+02  0.46700000000E-02 0.  1.
         -1   -1    0    0    0  501 -0.00000000000E+00 -0.00000000000E+00 -0.18368411412E+01  0.18368470777E+01  0.46700000000E-02 0. -1.
       1023    2    1    2    0    0  0.00000000000E+00  0.00000000000E+00  0.52615189455E+02  0.56288877874E+02  0.20001990175E+02 0.  0.
        -11    1    3    3    0    0 -0.12893528455E+01  0.99174868479E+01  0.26221943484E+02  0.28064377714E+02  0.51100000000E-03 0.  1.
         11    1    3    3    0    0  0.12893528455E+01 -0.99174868479E+01  0.26393245971E+02  0.28224500160E+02  0.51100000000E-03 0. -1.
<mgrwt>
<rscale>  0 0.20001990E+02</rscale>
<asrwt>0</asrwt>
<pdfrwt beam="1">  1        1 0.83772356E-02 0.20001990E+02</pdfrwt>
<pdfrwt beam="2">  1       -1 0.28259143E-03 0.20001990E+02</pdfrwt>
<totfact> 0.41963515E+06</totfact>
</mgrwt>
</event>
<event>
 5    1  0.9771591E-007  0.2000055E+02  0.7818608E-02  0.1745317E+00
         -1   -1    0    0    0  501 -0.00000000000E+00  0.00000000000E+00  0.11025863942E+01  0.11025962840E+01  0.46700000000E-02 0. -1.
          1   -1    0    0  501    0  0.00000000000E+00 -0.00000000000E+00 -0.90700429491E+02  0.90700429612E+02  0.46700000000E-02 0.  1.
       1023    2    1    2    0    0  0.00000000000E+00  0.00000000000E+00 -0.89597843097E+02  0.91803025896E+02  0.20000551891E+02 0.  0.
        -11    1    3    3    0    0 -0.89321227412E+01  0.44969560017E+01 -0.44842169196E+02  0.45943721752E+02  0.51100000000E-03 0.  1.
         11    1    3    3    0    0  0.89321227412E+01 -0.44969560017E+01 -0.44755673901E+02  0.45859304144E+02  0.51100000000E-03 0. -1.
<mgrwt>
<rscale>  0 0.20000552E+02</rscale>
<asrwt>0</asrwt>
<pdfrwt beam="2">  1        1 0.13953907E-01 0.20000552E+02</pdfrwt>
<pdfrwt beam="1">  1       -1 0.16962952E-03 0.20000552E+02</pdfrwt>
<totfact> 0.43900205E+06</totfact>
</mgrwt>
</event>
<event>
 5    1  0.9772749E-007  0.2000157E+02  0.7818608E-02  0.1745297E+00
          1   -1    0    0  501    0  0.00000000000E+00  0.00000000000E+00  0.13433993114E+02  0.13433993926E+02  0.46700000000E-02 0.  1.
         -1   -1    0    0    0  501 -0.00000000000E+00 -0.00000000000E+00 -0.74449728843E+01  0.74449743490E+01  0.46700000000E-02 0. -1.
       1023    2    1    2    0    0  0.00000000000E+00  0.00000000000E+00  0.59890202300E+01  0.20878968275E+02  0.20001573761E+02 0.  0.
        -11    1    3    3    0    0 -0.25748274384E+01  0.96636122881E+01  0.30200619267E+01  0.10446813538E+02  0.51100000000E-03 0. -1.
         11    1    3    3    0    0  0.25748274384E+01 -0.96636122881E+01  0.29689583033E+01  0.10432154737E+02  0.51100000000E-03 0.  1.
<mgrwt>
<rscale>  0 0.20001574E+02</rscale>
<asrwt>0</asrwt>
<pdfrwt beam="1">  1        1 0.20667683E-02 0.20001574E+02</pdfrwt>
<pdfrwt beam="2">  1       -1 0.11453806E-02 0.20001574E+02</pdfrwt>
<totfact> 0.39068495E+06</totfact>
</mgrwt>
</event>
<event>
 5    1  0.9583198E-007  0.2000656E+02  0.7818608E-02  0.1745198E+00
          1   -1    0    0  501    0  0.00000000000E+00  0.00000000000E+00  0.42073833153E+01  0.42073859070E+01  0.46700000000E-02 0. -1.
         -1   -1    0    0    0  501 -0.00000000000E+00 -0.00000000000E+00 -0.23783337097E+02  0.23783337555E+02  0.46700000000E-02 0.  1.
       1023    2    1    2    0    0  0.00000000000E+00  0.00000000000E+00 -0.19575953782E+02  0.27990723462E+02  0.20006564760E+02 0.  0.
        -11    1    3    3    0    0  0.11123101356E+01  0.99399145742E+01 -0.95601268696E+01  0.13836009598E+02  0.51100000000E-03 0. -1.
         11    1    3    3    0    0 -0.11123101356E+01 -0.99399145742E+01 -0.10015826912E+02  0.14154713864E+02  0.51100000000E-03 0.  1.
<mgrwt>
<rscale>  0 0.20006565E+02</rscale>
<asrwt>0</asrwt>
<pdfrwt beam="1">  1        1 0.64728999E-03 0.20006565E+02</pdfrwt>
<pdfrwt beam="2">  1       -1 0.36589751E-02 0.20006565E+02</pdfrwt>
<totfact> 0.37019727E+06</totfact>
</mgrwt>
</event>
<event>
 5    1  0.9583198E-007  0.2000030E+02  0.7818608E-02  0.1745322E+00
          1   -1    0    0  501    0  0.00000000000E+00  0.00000000000E+00  0.11898585981E+01  0.11898677625E+01  0.46700000000E-02 0. -1.
         -1   -1    0    0    0  501 -0.00000000000E+00 -0.00000000000E+00 -0.84045773906E+02  0.84045774036E+02  0.46700000000E-02 0.  1.
       1023    2    1    2    0    0  0.00000000000E+00  0.00000000000E+00 -0.82855915308E+02  0.85235641799E+02  0.20000298279E+02 0.  0.
        -11    1    3    3    0    0 -0.60754559672E+01 -0.79429548559E+01 -0.41275158617E+02  0.42469287917E+02  0.51100000000E-03 0.  1.
         11    1    3    3    0    0  0.60754559672E+01  0.79429548559E+01 -0.41580756691E+02  0.42766353882E+02  0.51100000000E-03 0. -1.
<mgrwt>
<rscale>  0 0.20000298E+02</rscale>
<asrwt>0</asrwt>
<pdfrwt beam="1">  1        1 0.18305595E-03 0.20000298E+02</pdfrwt>
<pdfrwt beam="2">  1       -1 0.12930115E-01 0.20000298E+02</pdfrwt>
<totfact> 0.32755794E+06</totfact>
</mgrwt>
</event>
<event>
 5    1  0.9583198E-007  0.2000184E+02  0.7818608E-02  0.1745292E+00
          1   -1    0    0  501    0  0.00000000000E+00  0.00000000000E+00  0.40832037900E+01  0.40832064606E+01  0.46700000000E-02 0.  1.
         -1   -1    0    0    0  501 -0.00000000000E+00 -0.00000000000E+00 -0.24495060681E+02  0.24495061126E+02  0.46700000000E-02 0. -1.
       1023    2    1    2    0    0  0.00000000000E+00  0.00000000000E+00 -0.20411856891E+02  0.28578267586E+02  0.20001836829E+02 0.  0.
        -11    1    3    3    0    0  0.86708060224E+01  0.49822009508E+01 -0.10369868208E+02  0.14406226789E+02  0.51100000000E-03 0. -1.
         11    1    3    3    0    0 -0.86708060224E+01 -0.49822009508E+01 -0.10041988683E+02  0.14172040797E+02  0.51100000000E-03 0.  1.
<mgrwt>
<rscale>  0 0.20001837E+02</rscale>
<asrwt>0</asrwt>
<pdfrwt beam="1">  1        1 0.62818546E-03 0.20001837E+02</pdfrwt>
<pdfrwt beam="2">  1       -1 0.37684710E-02 0.20001837E+02</pdfrwt>
<totfact> 0.36972198E+06</totfact>
</mgrwt>
</event>
<event>
 5    1  0.9583198E-007  0.2000056E+02  0.7818608E-02  0.1745317E+00
         -1   -1    0    0    0  501 -0.00000000000E+00  0.00000000000E+00  0.93641681600E+01  0.93641693244E+01  0.46700000000E-02 0.  1.
          1   -1    0    0  501    0  0.00000000000E+00 -0.00000000000E+00 -0.10679604910E+02  0.10679605931E+02  0.46700000000E-02 0. -1.
       1023    2    1    2    0    0  0.00000000000E+00  0.00000000000E+00 -0.13154367504E+01  0.20043775256E+02  0.20000563809E+02 0.  0.
        -11    1    3    3    0    0  0.37251312238E+01 -0.92805648820E+01 -0.64541419294E+00  0.10021080127E+02  0.51100000000E-03 0.  1.
         11    1    3    3    0    0 -0.37251312238E+01  0.92805648820E+01 -0.67002255747E+00  0.10022695129E+02  0.51100000000E-03 0. -1.
<mgrwt>
<rscale>  0 0.20000564E+02</rscale>
<asrwt>0</asrwt>
<pdfrwt beam="2">  1        1 0.16430163E-02 0.20000564E+02</pdfrwt>
<pdfrwt beam="1">  1       -1 0.14406414E-02 0.20000564E+02</pdfrwt>
<totfact> 0.38722898E+06</totfact>
</mgrwt>
</event>
<event>
 5    1  0.9583198E-007  0.2000924E+02  0.7818608E-02  0.1745144E+00
          1   -1    0    0  501    0  0.00000000000E+00  0.00000000000E+00  0.10647516088E+02  0.10647517112E+02  0.46700000000E-02 0. -1.
         -1   -1    0    0    0  501 -0.00000000000E+00 -0.00000000000E+00 -0.94005426289E+01  0.94005437889E+01  0.46700000000E-02 0.  1.
       1023    2    1    2    0    0  0.00000000000E+00  0.00000000000E+00  0.12469734591E+01  0.20048060901E+02  0.20009242941E+02 0.  0.
        -11    1    3    3    0    0 -0.81278260219E+01 -0.58326487383E+01  0.51790980725E+00  0.10017463650E+02  0.51100000000E-03 0.  1.
         11    1    3    3    0    0  0.81278260219E+01  0.58326487383E+01  0.72906365180E+00  0.10030597251E+02  0.51100000000E-03 0. -1.
<mgrwt>
<rscale>  0 0.20009243E+02</rscale>
<asrwt>0</asrwt>
<pdfrwt beam="1">  1        1 0.16380796E-02 0.20009243E+02</pdfrwt>
<pdfrwt beam="2">  1       -1 0.14462375E-02 0.20009243E+02</pdfrwt>
<totfact> 0.38680278E+06</totfact>
</mgrwt>
</event>
<event>
 5    1  0.9897866E-007  0.2000096E+02  0.7818608E-02  0.1745309E+00
          1   -1    0    0  501    0  0.00000000000E+00  0.00000000000E+00  0.33172375710E+02  0.33172376038E+02  0.46700000000E-02 0. -1.
         -1   -1    0    0    0  501 -0.00000000000E+00 -0.00000000000E+00 -0.30148450352E+01  0.30148486521E+01  0.46700000000E-02 0.  1.
       1023    2    1    2    0    0  0.00000000000E+00  0.00000000000E+00  0.30157530674E+02  0.36187224691E+02  0.20000964337E+02 0.  0.
        -11    1    3    3    0    0 -0.32431768407E+01  0.94598918118E+01  0.15157509969E+02  0.18159236158E+02  0.51100000000E-03 0. -1.
         11    1    3    3    0    0  0.32431768407E+01 -0.94598918118E+01  0.15000020706E+02  0.18027988533E+02  0.51100000000E-03 0.  1.
<mgrwt>
<rscale>  0 0.20000964E+02</rscale>
<asrwt>0</asrwt>
<pdfrwt beam="1">  1        1 0.51034428E-02 0.20000964E+02</pdfrwt>
<pdfrwt beam="2">  1       -1 0.46382261E-03 0.20000964E+02</pdfrwt>
<totfact> 0.40666689E+06</totfact>
</mgrwt>
</event>
<event>
 5    1  0.9583198E-007  0.2000051E+02  0.7818608E-02  0.1745318E+00
         -1   -1    0    0    0  501 -0.00000000000E+00  0.00000000000E+00  0.15846942460E+02  0.15846943148E+02  0.46700000000E-02 0. -1.
          1   -1    0    0  501    0  0.00000000000E+00 -0.00000000000E+00 -0.63106874752E+01  0.63106892031E+01  0.46700000000E-02 0.  1.
       1023    2    1    2    0    0  0.00000000000E+00  0.00000000000E+00  0.95362549844E+01  0.22157632351E+02  0.20000512800E+02 0.  0.
        -11    1    3    3    0    0  0.73678373398E+01 -0.67614665071E+01  0.47108673092E+01  0.11054172400E+02  0.51100000000E-03 0. -1.
         11    1    3    3    0    0 -0.73678373398E+01  0.67614665071E+01  0.48253876752E+01  0.11103459950E+02  0.51100000000E-03 0.  1.
<mgrwt>
<rscale>  0 0.20000513E+02</rscale>
<asrwt>0</asrwt>
<pdfrwt beam="2">  1        1 0.97087520E-03 0.20000513E+02</pdfrwt>
<pdfrwt beam="1">  1       -1 0.24379913E-02 0.20000513E+02</pdfrwt>
<totfact> 0.37859880E+06</totfact>
</mgrwt>
</event>
<event>
 4    1  0.9583198E-007  0.2002222E+02  0.7818608E-02  0.1744887E+00
         -1   -1    0    0    0  501 -0.00000000000E+00  0.00000000000E+00  0.32502885071E+01  0.32502918620E+01  0.46700000000E-02 0.  1.
          1   -1    0    0  501    0  0.00000000000E+00 -0.00000000000E+00 -0.30834867120E+02  0.30834867474E+02  0.46700000000E-02 0. -1.
        -11    1    1    2    0    0  0.85347133242E+00 -0.99746107948E+01 -0.13846212642E+02  0.17086218968E+02  0.51100000000E-03 0. -1.
         11    1    1    2    0    0 -0.85347133242E+00  0.99746107948E+01 -0.13738365970E+02  0.16998940368E+02  0.51100000000E-03 0.  1.
<mgrwt>
<rscale>  0 0.20022215E+02</rscale>
<asrwt>0</asrwt>
<pdfrwt beam="2">  1        1 0.47438258E-02 0.20022215E+02</pdfrwt>
<pdfrwt beam="1">  1       -1 0.50004469E-03 0.20022215E+02</pdfrwt>
<totfact> 0.40413581E+06</totfact>
</mgrwt>
</event>
<event>
 5    1  0.1003030E-006  0.2000040E+02  0.7818608E-02  0.1745320E+00
          1   -1    0    0  501    0  0.00000000000E+00  0.00000000000E+00  0.10705556285E+03  0.10705556296E+03  0.46700000000E-02 0.  1.
         -1   -1    0    0    0  501 -0.00000000000E+00 -0.00000000000E+00 -0.93412612029E+00  0.93413779364E+00  0.46700000000E-02 0. -1.
       1023    2    1    2    0    0  0.00000000000E+00  0.00000000000E+00  0.10612143673E+03  0.10798970075E+03  0.20000403334E+02 0.  0.
        -11    1    3    3    0    0 -0.99681312844E+01 -0.79988372522E+00  0.53190511098E+02  0.54122397641E+02  0.51100000000E-03 0. -1.
         11    1    3    3    0    0  0.99681312844E+01  0.79988372522E+00  0.52930925636E+02  0.53867303109E+02  0.51100000000E-03 0.  1.
<mgrwt>
<rscale>  0 0.20000403E+02</rscale>
<asrwt>0</asrwt>
<pdfrwt beam="1">  1        1 0.16470093E-01 0.20000403E+02</pdfrwt>
<pdfrwt beam="2">  1       -1 0.14371257E-03 0.20000403E+02</pdfrwt>
<totfact> 0.44696829E+06</totfact>
</mgrwt>
</event>
<event>
 5    1  0.9583198E-007  0.2000411E+02  0.7818608E-02  0.1745246E+00
          1   -1    0    0  501    0  0.00000000000E+00  0.00000000000E+00  0.25762786720E+01  0.25762829047E+01  0.46700000000E-02 0.  1.
         -1   -1    0    0    0  501 -0.00000000000E+00 -0.00000000000E+00 -0.38831599841E+02  0.38831600122E+02  0.46700000000E-02 0. -1.
       1023    2    1    2    0    0  0.00000000000E+00  0.00000000000E+00 -0.36255321169E+02  0.41407883027E+02  0.20004111169E+02 0.  0.
        -11    1    3    3    0    0  0.71118433737E+01 -0.70318143311E+01 -0.17862682782E+02  0.20471936044E+02  0.51100000000E-03 0.  1.
         11    1    3    3    0    0 -0.71118433737E+01  0.70318143311E+01 -0.18392638387E+02  0.20935946983E+02  0.51100000000E-03 0. -1.
<mgrwt>
<rscale>  0 0.20004111E+02</rscale>
<asrwt>0</asrwt>
<pdfrwt beam="1">  1        1 0.39635094E-03 0.20004111E+02</pdfrwt>
<pdfrwt beam="2">  1       -1 0.59740922E-02 0.20004111E+02</pdfrwt>
<totfact> 0.35745904E+06</totfact>
</mgrwt>
</event>
<event>
 5    1  0.9583198E-007  0.2000040E+02  0.7818608E-02  0.1745320E+00
          1   -1    0    0  501    0  0.00000000000E+00  0.00000000000E+00  0.23883495075E+01  0.23883540732E+01  0.46700000000E-02 0. -1.
         -1   -1    0    0    0  501 -0.00000000000E+00 -0.00000000000E+00 -0.41871528209E+02  0.41871528469E+02  0.46700000000E-02 0.  1.
       1023    2    1    2    0    0  0.00000000000E+00  0.00000000000E+00 -0.39483178701E+02  0.44259882542E+02  0.20000395054E+02 0.  0.
        -11    1    3    3    0    0 -0.97614655448E+01 -0.21713289973E+01 -0.19618952744E+02  0.22020540099E+02  0.51100000000E-03 0. -1.
         11    1    3    3    0    0  0.97614655448E+01  0.21713289973E+01 -0.19864225957E+02  0.22239342443E+02  0.51100000000E-03 0.  1.
<mgrwt>
<rscale>  0 0.20000395E+02</rscale>
<asrwt>0</asrwt>
<pdfrwt beam="1">  1        1 0.36743879E-03 0.20000395E+02</pdfrwt>
<pdfrwt beam="2">  1       -1 0.64417734E-02 0.20000395E+02</pdfrwt>
<totfact> 0.35525910E+06</totfact>
</mgrwt>
</event>
<event>
 5    1  0.9583198E-007  0.2000025E+02  0.7818608E-02  0.1745323E+00
         -1   -1    0    0    0  501 -0.00000000000E+00  0.00000000000E+00  0.23999191477E+02  0.23999191931E+02  0.46700000000E-02 0. -1.
          1   -1    0    0  501    0  0.00000000000E+00 -0.00000000000E+00 -0.41669104369E+01  0.41669130539E+01  0.46700000000E-02 0.  1.
       1023    2    1    2    0    0  0.00000000000E+00  0.00000000000E+00  0.19832281040E+02  0.28166104985E+02  0.20000252468E+02 0.  0.
        -11    1    3    3    0    0 -0.44422948593E-01  0.10000023936E+02  0.99041651453E+01  0.14074620407E+02  0.51100000000E-03 0. -1.
         11    1    3    3    0    0  0.44422948593E-01 -0.10000023936E+02  0.99281158948E+01  0.14091484578E+02  0.51100000000E-03 0.  1.
<mgrwt>
<rscale>  0 0.20000252E+02</rscale>
<asrwt>0</asrwt>
<pdfrwt beam="2">  1        1 0.64106336E-03 0.20000252E+02</pdfrwt>
<pdfrwt beam="1">  1       -1 0.36921836E-02 0.20000252E+02</pdfrwt>
<totfact> 0.37025081E+06</totfact>
</mgrwt>
</event>
<event>
 5    1  0.9583198E-007  0.2000027E+02  0.7818608E-02  0.1745323E+00
         -1   -1    0    0    0  501 -0.00000000000E+00  0.00000000000E+00  0.35127835944E+02  0.35127836255E+02  0.46700000000E-02 0. -1.
          1   -1    0    0  501    0  0.00000000000E+00 -0.00000000000E+00 -0.28468197733E+01  0.28468236036E+01  0.46700000000E-02 0.  1.
       1023    2    1    2    0    0  0.00000000000E+00  0.00000000000E+00  0.32281016171E+02  0.37974659858E+02  0.20000269656E+02 0.  0.
        -11    1    3    3    0    0  0.70559186555E+01 -0.70863674746E+01  0.16121120718E+02  0.18970849362E+02  0.51100000000E-03 0. -1.
         11    1    3    3    0    0 -0.70559186555E+01  0.70863674746E+01  0.16159895453E+02  0.19003810496E+02  0.51100000000E-03 0.  1.
<mgrwt>
<rscale>  0 0.20000270E+02</rscale>
<asrwt>0</asrwt>
<pdfrwt beam="2">  1        1 0.43797258E-03 0.20000270E+02</pdfrwt>
<pdfrwt beam="1">  1       -1 0.54042829E-02 0.20000270E+02</pdfrwt>
<totfact> 0.36056229E+06</totfact>
</mgrwt>
</event>
<event>
 5    1  0.9583198E-007  0.2000016E+02  0.7818608E-02  0.1745325E+00
         -1   -1    0    0    0  501 -0.00000000000E+00  0.00000000000E+00  0.21309175405E+01  0.21309226578E+01  0.46700000000E-02 0.  1.
          1   -1    0    0  501    0  0.00000000000E+00 -0.00000000000E+00 -0.46928810781E+02  0.46928811013E+02  0.46700000000E-02 0. -1.
       1023    2    1    2    0    0  0.00000000000E+00  0.00000000000E+00 -0.44797893240E+02  0.49059733671E+02  0.20000155727E+02 0.  0.
        -11    1    3    3    0    0  0.46608174152E+01 -0.88474184318E+01 -0.22494742051E+02  0.24617340475E+02  0.51100000000E-03 0.  1.
         11    1    3    3    0    0 -0.46608174152E+01  0.88474184318E+01 -0.22303151189E+02  0.24442393195E+02  0.51100000000E-03 0. -1.
<mgrwt>
<rscale>  0 0.20000156E+02</rscale>
<asrwt>0</asrwt>
<pdfrwt beam="2">  1        1 0.72198167E-02 0.20000156E+02</pdfrwt>
<pdfrwt beam="1">  1       -1 0.32783391E-03 0.20000156E+02</pdfrwt>
<totfact> 0.41532486E+06</totfact>
</mgrwt>
</event>
<event>
 5    1  0.9583198E-007  0.2000004E+02  0.7818608E-02  0.1745327E+00
         -1   -1    0    0    0  501 -0.00000000000E+00  0.00000000000E+00  0.55310836093E+02  0.55310836290E+02  0.46700000000E-02 0. -1.
          1   -1    0    0  501    0  0.00000000000E+00 -0.00000000000E+00 -0.18079673714E+01  0.18079734027E+01  0.46700000000E-02 0.  1.
       1023    2    1    2    0    0  0.00000000000E+00  0.00000000000E+00  0.53502868722E+02  0.57118809693E+02  0.20000036482E+02 0.  0.
        -11    1    3    3    0    0 -0.57357625333E+01  0.81915439758E+01  0.26751758106E+02  0.28559708097E+02  0.51100000000E-03 0. -1.
         11    1    3    3    0    0  0.57357625333E+01 -0.81915439758E+01  0.26751110615E+02  0.28559101596E+02  0.51100000000E-03 0.  1.
<mgrwt>
<rscale>  0 0.20000036E+02</rscale>
<asrwt>0</asrwt>
<pdfrwt beam="2">  1        1 0.27814931E-03 0.20000036E+02</pdfrwt>
<pdfrwt beam="1">  1       -1 0.85093597E-02 0.20000036E+02</pdfrwt>
<totfact> 0.34558914E+06</totfact>
</mgrwt>
</event>
<event>
 5    1  0.9583198E-007  0.2000007E+02  0.7818608E-02  0.1745327E+00
         -1   -1    0    0    0  501 -0.00000000000E+00  0.00000000000E+00  0.21515890673E+01  0.21515941354E+01  0.46700000000E-02 0.  1.
          1   -1    0    0  501    0  0.00000000000E+00 -0.00000000000E+00 -0.46477523638E+02  0.46477523873E+02  0.46700000000E-02 0. -1.
       1023    2    1    2    0    0  0.00000000000E+00  0.00000000000E+00 -0.44325934571E+02  0.48629118008E+02  0.20000066067E+02 0.  0.
        -11    1    3    3    0    0  0.19128202603E+00 -0.99982010851E+01 -0.22179575465E+02  0.24329697529E+02  0.51100000000E-03 0.  1.
         11    1    3    3    0    0 -0.19128202603E+00  0.99982010851E+01 -0.22146359105E+02  0.24299420479E+02  0.51100000000E-03 0. -1.
<mgrwt>
<rscale>  0 0.20000066E+02</rscale>
<asrwt>0</asrwt>
<pdfrwt beam="2">  1        1 0.71503879E-02 0.20000066E+02</pdfrwt>
<pdfrwt beam="1">  1       -1 0.33101415E-03 0.20000066E+02</pdfrwt>
<totfact> 0.41505936E+06</totfact>
</mgrwt>
</event>
<event>
 4    1  0.9583198E-007  0.2006405E+02  0.7818608E-02  0.1744057E+00
          1   -1    0    0  501    0  0.00000000000E+00  0.00000000000E+00  0.15629248501E+02  0.15629249199E+02  0.46700000000E-02 0. -1.
         -1   -1    0    0    0  501 -0.00000000000E+00 -0.00000000000E+00 -0.64393053549E+01  0.64393070484E+01  0.46700000000E-02 0.  1.
        -11    1    1    2    0    0  0.93439599426E+01 -0.36285797049E+01  0.50422310178E+01  0.11220529042E+02  0.51100000000E-03 0. -1.
         11    1    1    2    0    0 -0.93439599426E+01  0.36285797049E+01  0.41477121284E+01  0.10848027205E+02  0.51100000000E-03 0.  1.
<mgrwt>
<rscale>  0 0.20064050E+02</rscale>
<asrwt>0</asrwt>
<pdfrwt beam="1">  1        1 0.24044999E-02 0.20064050E+02</pdfrwt>
<pdfrwt beam="2">  1       -1 0.99066256E-03 0.20064050E+02</pdfrwt>
<totfact> 0.39026678E+06</totfact>
</mgrwt>
</event>
<event>
 5    1  0.9583198E-007  0.2000037E+02  0.7818608E-02  0.1745321E+00
         -1   -1    0    0    0  501 -0.00000000000E+00  0.00000000000E+00  0.96536590690E+02  0.96536590803E+02  0.46700000000E-02 0. -1.
          1   -1    0    0  501    0  0.00000000000E+00 -0.00000000000E+00 -0.10359094205E+01  0.10359199469E+01  0.46700000000E-02 0.  1.
       1023    2    1    2    0    0  0.00000000000E+00  0.00000000000E+00  0.95500681270E+02  0.97572510750E+02  0.20000368274E+02 0.  0.
        -11    1    3    3    0    0  0.74325081146E+01 -0.66903907462E+01  0.47685381354E+02  0.48722675423E+02  0.51100000000E-03 0.  1.
         11    1    3    3    0    0 -0.74325081146E+01  0.66903907462E+01  0.47815299916E+02  0.48849835327E+02  0.51100000000E-03 0. -1.
<mgrwt>
<rscale>  0 0.20000368E+02</rscale>
<asrwt>0</asrwt>
<pdfrwt beam="2">  1        1 0.15937151E-03 0.20000368E+02</pdfrwt>
<pdfrwt beam="1">  1       -1 0.14851783E-01 0.20000368E+02</pdfrwt>
<totfact> 0.32053941E+06</totfact>
</mgrwt>
</event>
<event>
 5    1  0.9583198E-007  0.2000437E+02  0.7818608E-02  0.1745241E+00
         -1   -1    0    0    0  501 -0.00000000000E+00  0.00000000000E+00  0.14230544415E+01  0.14230621042E+01  0.46700000000E-02 0.  1.
          1   -1    0    0  501    0  0.00000000000E+00 -0.00000000000E+00 -0.70301893976E+02  0.70301894131E+02  0.46700000000E-02 0. -1.
       1023    2    1    2    0    0  0.00000000000E+00  0.00000000000E+00 -0.68878839534E+02  0.71724956235E+02  0.20004369806E+02 0.  0.
        -11    1    3    3    0    0 -0.99763561143E+01  0.69470239844E+00 -0.35094783713E+02  0.36491836578E+02  0.51100000000E-03 0. -1.
         11    1    3    3    0    0  0.99763561143E+01 -0.69470239844E+00 -0.33784055822E+02  0.35233119657E+02  0.51100000000E-03 0.  1.
<mgrwt>
<rscale>  0 0.20004370E+02</rscale>
<asrwt>0</asrwt>
<pdfrwt beam="2">  1        1 0.10815674E-01 0.20004370E+02</pdfrwt>
<pdfrwt beam="1">  1       -1 0.21893211E-03 0.20004370E+02</pdfrwt>
<totfact> 0.42829331E+06</totfact>
</mgrwt>
</event>
<event>
 5    1  0.9949414E-007  0.2000104E+02  0.7818608E-02  0.1745307E+00
         -1   -1    0    0    0  501 -0.00000000000E+00  0.00000000000E+00  0.72290557911E+01  0.72290572996E+01  0.46700000000E-02 0. -1.
          1   -1    0    0  501    0  0.00000000000E+00 -0.00000000000E+00 -0.13834500893E+02  0.13834501682E+02  0.46700000000E-02 0.  1.
       1023    2    1    2    0    0  0.00000000000E+00  0.00000000000E+00 -0.66054451023E+01  0.21063558981E+02  0.20001040272E+02 0.  0.
        -11    1    3    3    0    0 -0.22256449081E+01 -0.97494603916E+01 -0.32287820355E+01  0.10508592050E+02  0.51100000000E-03 0.  1.
         11    1    3    3    0    0  0.22256449081E+01  0.97494603916E+01 -0.33766630668E+01  0.10554966931E+02  0.51100000000E-03 0. -1.
<mgrwt>
<rscale>  0 0.20001040E+02</rscale>
<asrwt>0</asrwt>
<pdfrwt beam="2">  1        1 0.21283849E-02 0.20001040E+02</pdfrwt>
<pdfrwt beam="1">  1       -1 0.11121626E-02 0.20001040E+02</pdfrwt>
<totfact> 0.39115710E+06</totfact>
</mgrwt>
</event>
<event>
 5    1  0.9917431E-007  0.2000159E+02  0.7818608E-02  0.1745296E+00
          1   -1    0    0  501    0  0.00000000000E+00  0.00000000000E+00  0.11404801958E+02  0.11404802914E+02  0.46700000000E-02 0.  1.
         -1   -1    0    0    0  501 -0.00000000000E+00 -0.00000000000E+00 -0.87696320789E+01  0.87696333223E+01  0.46700000000E-02 0. -1.
       1023    2    1    2    0    0  0.00000000000E+00  0.00000000000E+00  0.26351698794E+01  0.20174436237E+02  0.20001593866E+02 0.  0.
        -11    1    3    3    0    0 -0.15969156879E+01 -0.98723944999E+01  0.12769108202E+01  0.10081905295E+02  0.51100000000E-03 0. -1.
         11    1    3    3    0    0  0.15969156879E+01  0.98723944999E+01  0.13582590592E+01  0.10092530942E+02  0.51100000000E-03 0.  1.
<mgrwt>
<rscale>  0 0.20001594E+02</rscale>
<asrwt>0</asrwt>
<pdfrwt beam="1">  1        1 0.17545851E-02 0.20001594E+02</pdfrwt>
<pdfrwt beam="2">  1       -1 0.13491743E-02 0.20001594E+02</pdfrwt>
<totfact> 0.38818924E+06</totfact>
</mgrwt>
</event>
<event>
 5    1  0.9583198E-007  0.2000009E+02  0.7818608E-02  0.1745326E+00
          1   -1    0    0  501    0  0.00000000000E+00  0.00000000000E+00  0.22767192903E+02  0.22767193382E+02  0.46700000000E-02 0.  1.
         -1   -1    0    0    0  501 -0.00000000000E+00 -0.00000000000E+00 -0.43923233684E+01  0.43923258510E+01  0.46700000000E-02 0. -1.
       1023    2    1    2    0    0  0.00000000000E+00  0.00000000000E+00  0.18374869534E+02  0.27159519233E+02  0.20000091364E+02 0.  0.
        -11    1    3    3    0    0  0.58099745415E+01  0.81390981945E+01  0.92061424953E+01  0.13592416397E+02  0.51100000000E-03 0.  1.
         11    1    3    3    0    0 -0.58099745415E+01 -0.81390981945E+01  0.91687270392E+01  0.13567102836E+02  0.51100000000E-03 0. -1.
<mgrwt>
<rscale>  0 0.20000091E+02</rscale>
<asrwt>0</asrwt>
<pdfrwt beam="1">  1        1 0.35026454E-02 0.20000091E+02</pdfrwt>
<pdfrwt beam="2">  1       -1 0.67574227E-03 0.20000091E+02</pdfrwt>
<totfact> 0.39928870E+06</totfact>
</mgrwt>
</event>
<event>
 5    1  0.9583198E-007  0.2000236E+02  0.7818608E-02  0.1745281E+00
          1   -1    0    0  501    0  0.00000000000E+00  0.00000000000E+00  0.11812352214E+02  0.11812353138E+02  0.46700000000E-02 0. -1.
         -1   -1    0    0    0  501 -0.00000000000E+00 -0.00000000000E+00 -0.84677104871E+01  0.84677117748E+01  0.46700000000E-02 0.  1.
       1023    2    1    2    0    0  0.00000000000E+00  0.00000000000E+00  0.33446417274E+01  0.20280064912E+02  0.20002359975E+02 0.  0.
        -11    1    3    3    0    0 -0.37049760043E+01 -0.92889335423E+01  0.15591134394E+01  0.10121361990E+02  0.51100000000E-03 0.  1.
         11    1    3    3    0    0  0.37049760043E+01  0.92889335423E+01  0.17855282880E+01  0.10158702923E+02  0.51100000000E-03 0. -1.
<mgrwt>
<rscale>  0 0.20002360E+02</rscale>
<asrwt>0</asrwt>
<pdfrwt beam="1">  1        1 0.18172851E-02 0.20002360E+02</pdfrwt>
<pdfrwt beam="2">  1       -1 0.13027249E-02 0.20002360E+02</pdfrwt>
<totfact> 0.38869076E+06</totfact>
</mgrwt>
</event>
<event>
 5    1  0.9583198E-007  0.2000003E+02  0.7818608E-02  0.1745327E+00
         -1   -1    0    0    0  501 -0.00000000000E+00  0.00000000000E+00  0.23925848652E+01  0.23925894228E+01  0.46700000000E-02 0.  1.
          1   -1    0    0  501    0  0.00000000000E+00 -0.00000000000E+00 -0.41795901156E+02  0.41795901417E+02  0.46700000000E-02 0. -1.
       1023    2    1    2    0    0  0.00000000000E+00  0.00000000000E+00 -0.39403316291E+02  0.44188490840E+02  0.20000034699E+02 0.  0.
        -11    1    3    3    0    0 -0.98626182513E+01  0.16519435443E+01 -0.19732152125E+02  0.22121437205E+02  0.51100000000E-03 0. -1.
         11    1    3    3    0    0  0.98626182513E+01 -0.16519435443E+01 -0.19671164166E+02  0.22067053635E+02  0.51100000000E-03 0.  1.
<mgrwt>
<rscale>  0 0.20000035E+02</rscale>
<asrwt>0</asrwt>
<pdfrwt beam="2">  1        1 0.64301385E-02 0.20000035E+02</pdfrwt>
<pdfrwt beam="1">  1       -1 0.36809038E-03 0.20000035E+02</pdfrwt>
<totfact> 0.41221748E+06</totfact>
</mgrwt>
</event>
<event>
 5    1  0.9583198E-007  0.2000676E+02  0.7818608E-02  0.1745194E+00
          1   -1    0    0  501    0  0.00000000000E+00  0.00000000000E+00  0.74022969162E+01  0.74022983893E+01  0.46700000000E-02 0. -1.
         -1   -1    0    0    0  501 -0.00000000000E+00 -0.00000000000E+00 -0.13518451246E+02  0.13518452053E+02  0.46700000000E-02 0.  1.
       1023    2    1    2    0    0  0.00000000000E+00  0.00000000000E+00 -0.61161543298E+01  0.20920750442E+02  0.20006760239E+02 0.  0.
        -11    1    3    3    0    0  0.79759972186E+01  0.60349826941E+01 -0.32393934971E+01  0.10513382816E+02  0.51100000000E-03 0.  1.
         11    1    3    3    0    0 -0.79759972186E+01 -0.60349826941E+01 -0.28767608327E+01  0.10407367626E+02  0.51100000000E-03 0. -1.
<mgrwt>
<rscale>  0 0.20006760E+02</rscale>
<asrwt>0</asrwt>
<pdfrwt beam="1">  1        1 0.11388151E-02 0.20006760E+02</pdfrwt>
<pdfrwt beam="2">  1       -1 0.20797619E-02 0.20006760E+02</pdfrwt>
<totfact> 0.38110796E+06</totfact>
</mgrwt>
</event>
<event>
 5    1  0.9583198E-007  0.2000095E+02  0.7818608E-02  0.1745309E+00
         -1   -1    0    0    0  501 -0.00000000000E+00  0.00000000000E+00  0.10277324882E+03  0.10277324892E+03  0.46700000000E-02 0.  1.
          1   -1    0    0  501    0  0.00000000000E+00 -0.00000000000E+00 -0.97310298652E+00  0.97311419231E+00  0.46700000000E-02 0. -1.
       1023    2    1    2    0    0  0.00000000000E+00  0.00000000000E+00  0.10180014583E+03  0.10374636311E+03  0.20000954191E+02 0.  0.
        -11    1    3    3    0    0  0.61154695618E+01 -0.79126836279E+01  0.50882313225E+02  0.51855755029E+02  0.51100000000E-03 0. -1.
         11    1    3    3    0    0 -0.61154695618E+01  0.79126836279E+01  0.50917832604E+02  0.51890608085E+02  0.51100000000E-03 0.  1.
<mgrwt>
<rscale>  0 0.20000954E+02</rscale>
<asrwt>0</asrwt>
<pdfrwt beam="2">  1        1 0.14970897E-03 0.20000954E+02</pdfrwt>
<pdfrwt beam="1">  1       -1 0.15811275E-01 0.20000954E+02</pdfrwt>
<totfact> 0.31716459E+06</totfact>
</mgrwt>
</event>
<event>
 5    1  0.9583198E-007  0.2000032E+02  0.7818608E-02  0.1745322E+00
         -1   -1    0    0    0  501 -0.00000000000E+00  0.00000000000E+00  0.95414733029E+01  0.95414744458E+01  0.46700000000E-02 0.  1.
          1   -1    0    0  501    0  0.00000000000E+00 -0.00000000000E+00 -0.10480896463E+02  0.10480897503E+02  0.46700000000E-02 0. -1.
       1023    2    1    2    0    0  0.00000000000E+00  0.00000000000E+00 -0.93942315970E+00  0.20022371949E+02  0.20000321562E+02 0.  0.
        -11    1    3    3    0    0  0.79875133662E+01 -0.60166750246E+01 -0.41998532321E+00  0.10008852884E+02  0.51100000000E-03 0.  1.
         11    1    3    3    0    0 -0.79875133662E+01  0.60166750246E+01 -0.51943783649E+00  0.10013519064E+02  0.51100000000E-03 0. -1.
<mgrwt>
<rscale>  0 0.20000322E+02</rscale>
<asrwt>0</asrwt>
<pdfrwt beam="2">  1        1 0.16124458E-02 0.20000322E+02</pdfrwt>
<pdfrwt beam="1">  1       -1 0.14679191E-02 0.20000322E+02</pdfrwt>
<totfact> 0.38695083E+06</totfact>
</mgrwt>
</event>
<event>
 5    1  0.9583198E-007  0.2000044E+02  0.7818608E-02  0.1745319E+00
         -1   -1    0    0    0  501 -0.00000000000E+00  0.00000000000E+00  0.38941374536E+01  0.38941402538E+01  0.46700000000E-02 0. -1.
          1   -1    0    0  501    0  0.00000000000E+00 -0.00000000000E+00 -0.25680755403E+02  0.25680755827E+02  0.46700000000E-02 0.  1.
       1023    2    1    2    0    0  0.00000000000E+00  0.00000000000E+00 -0.21786617949E+02  0.29574896081E+02  0.20000443909E+02 0.  0.
        -11    1    3    3    0    0  0.33697481579E+01  0.94153721002E+01 -0.10896426076E+02  0.14789744282E+02  0.51100000000E-03 0.  1.
         11    1    3    3    0    0 -0.33697481579E+01 -0.94153721002E+01 -0.10890191873E+02  0.14785151799E+02  0.51100000000E-03 0. -1.
<mgrwt>
<rscale>  0 0.20000444E+02</rscale>
<asrwt>0</asrwt>
<pdfrwt beam="2">  1        1 0.39508856E-02 0.20000444E+02</pdfrwt>
<pdfrwt beam="1">  1       -1 0.59909833E-03 0.20000444E+02</pdfrwt>
<totfact> 0.40147736E+06</totfact>
</mgrwt>
</event>
<event>
 5    1  0.9583198E-007  0.2000363E+02  0.7818608E-02  0.1745256E+00
          1   -1    0    0  501    0  0.00000000000E+00  0.00000000000E+00  0.59347979164E+01  0.59347997538E+01  0.46700000000E-02 0. -1.
         -1   -1    0    0    0  501 -0.00000000000E+00 -0.00000000000E+00 -0.16855892466E+02  0.16855893113E+02  0.46700000000E-02 0.  1.
       1023    2    1    2    0    0  0.00000000000E+00  0.00000000000E+00 -0.10921094550E+02  0.22790692867E+02  0.20003634050E+02 0.  0.
        -11    1    3    3    0    0 -0.73373875064E+01  0.67969786007E+01 -0.54754031124E+01  0.11402465217E+02  0.51100000000E-03 0.  1.
         11    1    3    3    0    0  0.73373875064E+01 -0.67969786007E+01 -0.54456914373E+01  0.11388227650E+02  0.51100000000E-03 0. -1.
<mgrwt>
<rscale>  0 0.20003634E+02</rscale>
<asrwt>0</asrwt>
<pdfrwt beam="1">  1        1 0.91304603E-03 0.20003634E+02</pdfrwt>
<pdfrwt beam="2">  1       -1 0.25932144E-02 0.20003634E+02</pdfrwt>
<totfact> 0.37733972E+06</totfact>
</mgrwt>
</event>
<event>
 5    1  0.9674994E-007  0.2000059E+02  0.7818608E-02  0.1745316E+00
          1   -1    0    0  501    0  0.00000000000E+00  0.00000000000E+00  0.15022419709E+02  0.15022420435E+02  0.46700000000E-02 0.  1.
         -1   -1    0    0    0  501 -0.00000000000E+00 -0.00000000000E+00 -0.66571070483E+01  0.66571086863E+01  0.46700000000E-02 0. -1.
       1023    2    1    2    0    0  0.00000000000E+00  0.00000000000E+00  0.83653126607E+01  0.21679529121E+02  0.20000588167E+02 0.  0.
        -11    1    3    3    0    0 -0.91134308345E+01 -0.41166214851E+01  0.42568686645E+01  0.10868400302E+02  0.51100000000E-03 0. -1.
         11    1    3    3    0    0  0.91134308345E+01  0.41166214851E+01  0.41084439962E+01  0.10811128820E+02  0.51100000000E-03 0.  1.
<mgrwt>
<rscale>  0 0.20000588E+02</rscale>
<asrwt>0</asrwt>
<pdfrwt beam="1">  1        1 0.23111417E-02 0.20000588E+02</pdfrwt>
<pdfrwt beam="2">  1       -1 0.10241705E-02 0.20000588E+02</pdfrwt>
<totfact> 0.39244366E+06</totfact>
</mgrwt>
</event>
<event>
 5    1  0.9889576E-007  0.2000219E+02  0.7818608E-02  0.1745285E+00
          1   -1    0    0  501    0  0.00000000000E+00  0.00000000000E+00  0.86812453905E+02  0.86812454030E+02  0.46700000000E-02 0. -1.
         -1   -1    0    0    0  501 -0.00000000000E+00 -0.00000000000E+00 -0.11521553477E+01  0.11521648120E+01  0.46700000000E-02 0.  1.
       1023    2    1    2    0    0  0.00000000000E+00  0.00000000000E+00  0.85660298557E+02  0.87964618842E+02  0.20002185360E+02 0.  0.
        -11    1    3    3    0    0 -0.82456039292E+01  0.56596686943E+01  0.42810165078E+02  0.43962848726E+02  0.51100000000E-03 0. -1.
         11    1    3    3    0    0  0.82456039292E+01 -0.56596686943E+01  0.42850133479E+02  0.44001770116E+02  0.51100000000E-03 0.  1.
<mgrwt>
<rscale>  0 0.20002185E+02</rscale>
<asrwt>0</asrwt>
<pdfrwt beam="1">  1        1 0.13355762E-01 0.20002185E+02</pdfrwt>
<pdfrwt beam="2">  1       -1 0.17725542E-03 0.20002185E+02</pdfrwt>
<totfact> 0.43696852E+06</totfact>
</mgrwt>
</event>
<event>
 5    1  0.9583198E-007  0.2000311E+02  0.7818608E-02  0.1745266E+00
          1   -1    0    0  501    0  0.00000000000E+00  0.00000000000E+00  0.93481001572E+00  0.93482168053E+00  0.46700000000E-02 0. -1.
         -1   -1    0    0    0  501 -0.00000000000E+00 -0.00000000000E+00 -0.10700624921E+03  0.10700624931E+03  0.46700000000E-02 0.  1.
       1023    2    1    2    0    0  0.00000000000E+00  0.00000000000E+00 -0.10607143919E+03  0.10794107099E+03  0.20003114613E+02 0.  0.
        -11    1    3    3    0    0  0.99757631215E+01  0.70107213590E+00 -0.53868142112E+02  0.54788539741E+02  0.51100000000E-03 0.  1.
         11    1    3    3    0    0 -0.99757631215E+01 -0.70107213590E+00 -0.52203297077E+02  0.53152531247E+02  0.51100000000E-03 0. -1.
<mgrwt>
<rscale>  0 0.20003115E+02</rscale>
<asrwt>0</asrwt>
<pdfrwt beam="1">  1        1 0.14381791E-03 0.20003115E+02</pdfrwt>
<pdfrwt beam="2">  1       -1 0.16462491E-01 0.20003115E+02</pdfrwt>
<totfact> 0.31486195E+06</totfact>
</mgrwt>
</event>
<event>
 5    1  0.9583198E-007  0.2000059E+02  0.7818608E-02  0.1745316E+00
         -1   -1    0    0    0  501 -0.00000000000E+00  0.00000000000E+00  0.52919887851E+02  0.52919888057E+02  0.46700000000E-02 0. -1.
          1   -1    0    0  501    0  0.00000000000E+00 -0.00000000000E+00 -0.18897565326E+01  0.18897623029E+01  0.46700000000E-02 0.  1.
       1023    2    1    2    0    0  0.00000000000E+00  0.00000000000E+00  0.51030131318E+02  0.54809650359E+02  0.20000586746E+02 0.  0.
        -11    1    3    3    0    0  0.45153741707E+01  0.89228116901E+01  0.25442824510E+02  0.27337565577E+02  0.51100000000E-03 0. -1.
         11    1    3    3    0    0 -0.45153741707E+01 -0.89228116901E+01  0.25587306808E+02  0.27472084783E+02  0.51100000000E-03 0.  1.
<mgrwt>
<rscale>  0 0.20000587E+02</rscale>
<asrwt>0</asrwt>
<pdfrwt beam="2">  1        1 0.29073225E-03 0.20000587E+02</pdfrwt>
<pdfrwt beam="1">  1       -1 0.81415213E-02 0.20000587E+02</pdfrwt>
<totfact> 0.34721851E+06</totfact>
</mgrwt>
</event>
<event>
 5    1  0.9583198E-007  0.2000378E+02  0.7818608E-02  0.1745253E+00
         -1   -1    0    0    0  501 -0.00000000000E+00  0.00000000000E+00  0.61482009432E+02  0.61482009610E+02  0.46700000000E-02 0. -1.
          1   -1    0    0  501    0  0.00000000000E+00 -0.00000000000E+00 -0.16271028229E+01  0.16271095247E+01  0.46700000000E-02 0.  1.
       1023    2    1    2    0    0  0.00000000000E+00  0.00000000000E+00  0.59854906609E+02  0.63109119134E+02  0.20003776461E+02 0.  0.
        -11    1    3    3    0    0  0.90554217555E+01  0.42457825133E+01  0.30249737260E+02  0.31860224997E+02  0.51100000000E-03 0. -1.
         11    1    3    3    0    0 -0.90554217555E+01 -0.42457825133E+01  0.29605169349E+02  0.31248894137E+02  0.51100000000E-03 0.  1.
<mgrwt>
<rscale>  0 0.20003776E+02</rscale>
<asrwt>0</asrwt>
<pdfrwt beam="2">  1        1 0.25032402E-03 0.20003776E+02</pdfrwt>
<pdfrwt beam="1">  1       -1 0.94587720E-02 0.20003776E+02</pdfrwt>
<totfact> 0.34131225E+06</totfact>
</mgrwt>
</event>
<event>
 5    1  0.9662197E-007  0.2000061E+02  0.7818608E-02  0.1745316E+00
          1   -1    0    0  501    0  0.00000000000E+00  0.00000000000E+00  0.16545124127E+02  0.16545124786E+02  0.46700000000E-02 0. -1.
         -1   -1    0    0    0  501 -0.00000000000E+00 -0.00000000000E+00 -0.60444448105E+01  0.60444466145E+01  0.46700000000E-02 0.  1.
       1023    2    1    2    0    0  0.00000000000E+00  0.00000000000E+00  0.10500679316E+02  0.22589571400E+02  0.20000611739E+02 0.  0.
        -11    1    3    3    0    0  0.53577079357E+01 -0.84436703079E+01  0.51664664977E+01  0.11255797569E+02  0.51100000000E-03 0. -1.
         11    1    3    3    0    0 -0.53577079357E+01  0.84436703079E+01  0.53342128186E+01  0.11333773831E+02  0.51100000000E-03 0.  1.
<mgrwt>
<rscale>  0 0.20000612E+02</rscale>
<asrwt>0</asrwt>
<pdfrwt beam="1">  1        1 0.25454038E-02 0.20000612E+02</pdfrwt>
<pdfrwt beam="2">  1       -1 0.92991480E-03 0.20000612E+02</pdfrwt>
<totfact> 0.39395102E+06</totfact>
</mgrwt>
</event>
<event>
 5    1  0.9583198E-007  0.2000096E+02  0.7818608E-02  0.1745309E+00
          1   -1    0    0  501    0  0.00000000000E+00  0.00000000000E+00  0.30575100339E+01  0.30575136004E+01  0.46700000000E-02 0.  1.
         -1   -1    0    0    0  501 -0.00000000000E+00 -0.00000000000E+00 -0.32709473696E+02  0.32709474029E+02  0.46700000000E-02 0. -1.
       1023    2    1    2    0    0  0.00000000000E+00  0.00000000000E+00 -0.29651963662E+02  0.35766987629E+02  0.20000961354E+02 0.  0.
        -11    1    3    3    0    0 -0.80679298772E+01  0.59083790468E+01 -0.14654662394E+02  0.17741464585E+02  0.51100000000E-03 0.  1.
         11    1    3    3    0    0  0.80679298772E+01 -0.59083790468E+01 -0.14997301268E+02  0.18025523045E+02  0.51100000000E-03 0. -1.
<mgrwt>
<rscale>  0 0.20000961E+02</rscale>
<asrwt>0</asrwt>
<pdfrwt beam="1">  1        1 0.47038648E-03 0.20000961E+02</pdfrwt>
<pdfrwt beam="2">  1       -1 0.50322268E-02 0.20000961E+02</pdfrwt>
<totfact> 0.36252658E+06</totfact>
</mgrwt>
</event>
<event>
 5    1  0.9583198E-007  0.2000018E+02  0.7818608E-02  0.1745325E+00
          1   -1    0    0  501    0  0.00000000000E+00  0.00000000000E+00  0.38148622045E+02  0.38148622331E+02  0.46700000000E-02 0. -1.
         -1   -1    0    0    0  501 -0.00000000000E+00 -0.00000000000E+00 -0.26213706661E+01  0.26213748259E+01  0.46700000000E-02 0.  1.
       1023    2    1    2    0    0  0.00000000000E+00  0.00000000000E+00  0.35527251379E+02  0.40769997157E+02  0.20000176940E+02 0.  0.
        -11    1    3    3    0    0  0.79530638150E+01 -0.60621997447E+01  0.17797696670E+02  0.20414688261E+02  0.51100000000E-03 0.  1.
         11    1    3    3    0    0 -0.79530638150E+01  0.60621997447E+01  0.17729554710E+02  0.20355308896E+02  0.51100000000E-03 0. -1.
<mgrwt>
<rscale>  0 0.20000177E+02</rscale>
<asrwt>0</asrwt>
<pdfrwt beam="1">  1        1 0.58690183E-02 0.20000177E+02</pdfrwt>
<pdfrwt beam="2">  1       -1 0.40328820E-03 0.20000177E+02</pdfrwt>
<totfact> 0.40992994E+06</totfact>
</mgrwt>
</event>
<event>
 5    1  0.9583198E-007  0.2000091E+02  0.7818608E-02  0.1745310E+00
         -1   -1    0    0    0  501 -0.00000000000E+00  0.00000000000E+00  0.42654379048E+02  0.42654379304E+02  0.46700000000E-02 0.  1.
          1   -1    0    0  501    0  0.00000000000E+00 -0.00000000000E+00 -0.23446349504E+01  0.23446396012E+01  0.46700000000E-02 0. -1.
       1023    2    1    2    0    0  0.00000000000E+00  0.00000000000E+00  0.40309744098E+02  0.44999018905E+02  0.20000905809E+02 0.  0.
        -11    1    3    3    0    0  0.40102837318E+01 -0.91608141119E+01  0.20331556585E+02  0.22657781979E+02  0.51100000000E-03 0. -1.
         11    1    3    3    0    0 -0.40102837318E+01  0.91608141119E+01  0.19978187513E+02  0.22341236926E+02  0.51100000000E-03 0.  1.
<mgrwt>
<rscale>  0 0.20000906E+02</rscale>
<asrwt>0</asrwt>
<pdfrwt beam="2">  1        1 0.36071346E-03 0.20000906E+02</pdfrwt>
<pdfrwt beam="1">  1       -1 0.65622124E-02 0.20000906E+02</pdfrwt>
<totfact> 0.35464532E+06</totfact>
</mgrwt>
</event>
<event>
 5    1  0.9925060E-007  0.2000092E+02  0.7818608E-02  0.1745310E+00
          1   -1    0    0  501    0  0.00000000000E+00  0.00000000000E+00  0.38363259323E+02  0.38363259607E+02  0.46700000000E-02 0.  1.
         -1   -1    0    0    0  501 -0.00000000000E+00 -0.00000000000E+00 -0.26068975646E+01  0.26069017475E+01  0.46700000000E-02 0. -1.
       1023    2    1    2    0    0  0.00000000000E+00  0.00000000000E+00  0.35756361758E+02  0.40970161355E+02  0.20000917860E+02 0.  0.
        -11    1    3    3    0    0 -0.74282525863E+01 -0.66955380456E+01  0.17870984783E+02  0.20478800345E+02  0.51100000000E-03 0.  1.
         11    1    3    3    0    0  0.74282525863E+01  0.66955380456E+01  0.17885376975E+02  0.20491361009E+02  0.51100000000E-03 0. -1.
<mgrwt>
<rscale>  0 0.20000918E+02</rscale>
<asrwt>0</asrwt>
<pdfrwt beam="1">  1        1 0.59020402E-02 0.20000918E+02</pdfrwt>
<pdfrwt beam="2">  1       -1 0.40106151E-03 0.20000918E+02</pdfrwt>
<totfact> 0.41003214E+06</totfact>
</mgrwt>
</event>
<event>
 5    1  0.1105857E-006  0.2000034E+02  0.7818608E-02  0.1745321E+00
          1   -1    0    0  501    0  0.00000000000E+00  0.00000000000E+00  0.57647585187E+02  0.57647585376E+02  0.46700000000E-02 0. -1.
         -1   -1    0    0    0  501 -0.00000000000E+00 -0.00000000000E+00 -0.17347334162E+01  0.17347397022E+01  0.46700000000E-02 0.  1.
       1023    2    1    2    0    0  0.00000000000E+00  0.00000000000E+00  0.55912851770E+02  0.59382325078E+02  0.20000338461E+02 0.  0.
        -11    1    3    3    0    0 -0.99963184351E+01 -0.27206909152E+00  0.28118519881E+02  0.29843786027E+02  0.51100000000E-03 0. -1.
         11    1    3    3    0    0  0.99963184351E+01  0.27206909152E+00  0.27794331889E+02  0.29538539051E+02  0.51100000000E-03 0.  1.
<mgrwt>
<rscale>  0 0.20000338E+02</rscale>
<asrwt>0</asrwt>
<pdfrwt beam="1">  1        1 0.88688590E-02 0.20000338E+02</pdfrwt>
<pdfrwt beam="2">  1       -1 0.26688258E-03 0.20000338E+02</pdfrwt>
<totfact> 0.42152859E+06</totfact>
</mgrwt>
</event>
<event>
 5    1  0.9583198E-007  0.2000031E+02  0.7818608E-02  0.1745322E+00
         -1   -1    0    0    0  501 -0.00000000000E+00  0.00000000000E+00  0.24421424078E+01  0.24421468729E+01  0.46700000000E-02 0. -1.
          1   -1    0    0  501    0  0.00000000000E+00 -0.00000000000E+00 -0.40948899945E+02  0.40948900211E+02  0.46700000000E-02 0.  1.
       1023    2    1    2    0    0  0.00000000000E+00  0.00000000000E+00 -0.38506757537E+02  0.43391047084E+02  0.20000314774E+02 0.  0.
        -11    1    3    3    0    0 -0.73099079149E+01  0.68239810405E+01 -0.19164546767E+02  0.21616690866E+02  0.51100000000E-03 0. -1.
         11    1    3    3    0    0  0.73099079149E+01 -0.68239810405E+01 -0.19342210770E+02  0.21774356218E+02  0.51100000000E-03 0.  1.
<mgrwt>
<rscale>  0 0.20000315E+02</rscale>
<asrwt>0</asrwt>
<pdfrwt beam="2">  1        1 0.62998306E-02 0.20000315E+02</pdfrwt>
<pdfrwt beam="1">  1       -1 0.37571461E-03 0.20000315E+02</pdfrwt>
<totfact> 0.41168049E+06</totfact>
</mgrwt>
</event>
<event>
 4    1  0.9583198E-007  0.2001642E+02  0.7818608E-02  0.1745002E+00
         -1   -1    0    0    0  501 -0.00000000000E+00  0.00000000000E+00  0.54133535993E+02  0.54133536194E+02  0.46700000000E-02 0.  1.
          1   -1    0    0  501    0  0.00000000000E+00 -0.00000000000E+00 -0.18503158093E+01  0.18503217026E+01  0.46700000000E-02 0. -1.
        -11    1    1    2    0    0  0.58615471857E+00  0.99845415412E+01  0.25134491893E+02  0.27051383146E+02  0.51100000000E-03 0. -1.
         11    1    1    2    0    0 -0.58615471857E+00 -0.99845415412E+01  0.27148728291E+02  0.28932474751E+02  0.51100000000E-03 0.  1.
<mgrwt>
<rscale>  0 0.20016424E+02</rscale>
<asrwt>0</asrwt>
<pdfrwt beam="2">  1        1 0.28466445E-03 0.20016424E+02</pdfrwt>
<pdfrwt beam="1">  1       -1 0.83282363E-02 0.20016424E+02</pdfrwt>
<totfact> 0.34577533E+06</totfact>
</mgrwt>
</event>
<event>
 5    1  0.9583198E-007  0.2000257E+02  0.7818608E-02  0.1745277E+00
         -1   -1    0    0    0  501 -0.00000000000E+00  0.00000000000E+00  0.43495559623E+01  0.43495584693E+01  0.46700000000E-02 0. -1.
          1   -1    0    0  501    0  0.00000000000E+00 -0.00000000000E+00 -0.22996754434E+02  0.22996754908E+02  0.46700000000E-02 0.  1.
       1023    2    1    2    0    0  0.00000000000E+00  0.00000000000E+00 -0.18647198471E+02  0.27346313377E+02  0.20002570947E+02 0.  0.
        -11    1    3    3    0    0 -0.65367463135E+01  0.75685971953E+01 -0.94794471353E+01  0.13779427932E+02  0.51100000000E-03 0.  1.
         11    1    3    3    0    0  0.65367463135E+01 -0.75685971953E+01 -0.91677513360E+01  0.13566885445E+02  0.51100000000E-03 0. -1.
<mgrwt>
<rscale>  0 0.20002571E+02</rscale>
<asrwt>0</asrwt>
<pdfrwt beam="2">  1        1 0.35379624E-02 0.20002571E+02</pdfrwt>
<pdfrwt beam="1">  1       -1 0.66916270E-03 0.20002571E+02</pdfrwt>
<totfact> 0.39935632E+06</totfact>
</mgrwt>
</event>
<event>
 5    1  0.9583198E-007  0.2000035E+02  0.7818608E-02  0.1745321E+00
          1   -1    0    0  501    0  0.00000000000E+00  0.00000000000E+00  0.86682544029E+01  0.86682556609E+01  0.46700000000E-02 0. -1.
         -1   -1    0    0    0  501 -0.00000000000E+00 -0.00000000000E+00 -0.11536751266E+02  0.11536752212E+02  0.46700000000E-02 0.  1.
       1023    2    1    2    0    0  0.00000000000E+00  0.00000000000E+00 -0.28684968634E+01  0.20205007872E+02  0.20000351719E+02 0.  0.
        -11    1    3    3    0    0 -0.98655250576E+01 -0.16355101270E+01 -0.14279461082E+01  0.10101609198E+02  0.51100000000E-03 0.  1.
         11    1    3    3    0    0  0.98655250576E+01  0.16355101270E+01 -0.14405507552E+01  0.10103398675E+02  0.51100000000E-03 0. -1.
<mgrwt>
<rscale>  0 0.20000352E+02</rscale>
<asrwt>0</asrwt>
<pdfrwt beam="1">  1        1 0.13335778E-02 0.20000352E+02</pdfrwt>
<pdfrwt beam="2">  1       -1 0.17748850E-02 0.20000352E+02</pdfrwt>
<totfact> 0.38397682E+06</totfact>
</mgrwt>
</event>
<event>
 5    1  0.9583198E-007  0.2000066E+02  0.7818608E-02  0.1745315E+00
         -1   -1    0    0    0  501 -0.00000000000E+00  0.00000000000E+00  0.11535870735E+02  0.11535871680E+02  0.46700000000E-02 0. -1.
          1   -1    0    0  501    0  0.00000000000E+00 -0.00000000000E+00 -0.86691854085E+01  0.86691866664E+01  0.46700000000E-02 0.  1.
       1023    2    1    2    0    0  0.00000000000E+00  0.00000000000E+00  0.28666853261E+01  0.20205058346E+02  0.20000662439E+02 0.  0.
        -11    1    3    3    0    0  0.99555847380E+01 -0.94288861528E+00  0.14965748674E+01  0.10111500532E+02  0.51100000000E-03 0.  1.
         11    1    3    3    0    0 -0.99555847380E+01  0.94288861528E+00  0.13701104587E+01  0.10093557814E+02  0.51100000000E-03 0. -1.
<mgrwt>
<rscale>  0 0.20000662E+02</rscale>
<asrwt>0</asrwt>
<pdfrwt beam="2">  1        1 0.13337210E-02 0.20000662E+02</pdfrwt>
<pdfrwt beam="1">  1       -1 0.17747495E-02 0.20000662E+02</pdfrwt>
<totfact> 0.38396499E+06</totfact>
</mgrwt>
</event>
<event>
 5    1  0.9583198E-007  0.2001006E+02  0.7818608E-02  0.1745128E+00
          1   -1    0    0  501    0  0.00000000000E+00  0.00000000000E+00  0.31027034060E+02  0.31027034411E+02  0.46700000000E-02 0.  1.
         -1   -1    0    0    0  501 -0.00000000000E+00 -0.00000000000E+00 -0.32262384721E+01  0.32262418520E+01  0.46700000000E-02 0. -1.
       1023    2    1    2    0    0  0.00000000000E+00  0.00000000000E+00  0.27800795588E+02  0.34253276263E+02  0.20010064954E+02 0.  0.
        -11    1    3    3    0    0 -0.91178236916E+01  0.41105310342E+01  0.14351678860E+02  0.17492908867E+02  0.51100000000E-03 0. -1.
         11    1    3    3    0    0  0.91178236916E+01 -0.41105310342E+01  0.13449116728E+02  0.16760367397E+02  0.51100000000E-03 0.  1.
<mgrwt>
<rscale>  0 0.20010065E+02</rscale>
<asrwt>0</asrwt>
<pdfrwt beam="1">  1        1 0.47733900E-02 0.20010065E+02</pdfrwt>
<pdfrwt beam="2">  1       -1 0.49634468E-03 0.20010065E+02</pdfrwt>
<totfact> 0.40481467E+06</totfact>
</mgrwt>
</event>
<event>
 5    1  0.1009742E-006  0.2000063E+02  0.7818608E-02  0.1745316E+00
          1   -1    0    0  501    0  0.00000000000E+00  0.00000000000E+00  0.75444901177E+02  0.75444901321E+02  0.46700000000E-02 0.  1.
         -1   -1    0    0    0  501 -0.00000000000E+00 -0.00000000000E+00 -0.13255498083E+01  0.13255580346E+01  0.46700000000E-02 0. -1.
       1023    2    1    2    0    0  0.00000000000E+00  0.00000000000E+00  0.74119351368E+02  0.76770459356E+02  0.20000629551E+02 0.  0.
        -11    1    3    3    0    0  0.50198666097E+00 -0.99874104863E+01  0.36763931401E+02  0.38099698308E+02  0.51100000000E-03 0. -1.
         11    1    3    3    0    0 -0.50198666097E+00  0.99874104863E+01  0.37355419967E+02  0.38670761048E+02  0.51100000000E-03 0.  1.
<mgrwt>
<rscale>  0 0.20000630E+02</rscale>
<asrwt>0</asrwt>
<pdfrwt beam="1">  1        1 0.11606910E-01 0.20000630E+02</pdfrwt>
<pdfrwt beam="2">  1       -1 0.20393136E-03 0.20000630E+02</pdfrwt>
<totfact> 0.43119458E+06</totfact>
</mgrwt>
</event>
<event>
 5    1  0.9583198E-007  0.2000018E+02  0.7818608E-02  0.1745325E+00
         -1   -1    0    0    0  501 -0.00000000000E+00  0.00000000000E+00  0.85709703184E+01  0.85709715906E+01  0.46700000000E-02 0. -1.
          1   -1    0    0  501    0  0.00000000000E+00 -0.00000000000E+00 -0.11667496122E+02  0.11667497057E+02  0.46700000000E-02 0.  1.
       1023    2    1    2    0    0  0.00000000000E+00  0.00000000000E+00 -0.30965258038E+01  0.20238468647E+02  0.20000178528E+02 0.  0.
        -11    1    3    3    0    0 -0.27462804369E+01 -0.96155821651E+01 -0.15660337875E+01  0.10121953304E+02  0.51100000000E-03 0.  1.
         11    1    3    3    0    0  0.27462804369E+01  0.96155821651E+01 -0.15304920163E+01  0.10116515343E+02  0.51100000000E-03 0. -1.
<mgrwt>
<rscale>  0 0.20000179E+02</rscale>
<asrwt>0</asrwt>
<pdfrwt beam="2">  1        1 0.17949996E-02 0.20000179E+02</pdfrwt>
<pdfrwt beam="1">  1       -1 0.13186110E-02 0.20000179E+02</pdfrwt>
<totfact> 0.38859854E+06</totfact>
</mgrwt>
</event>
<event>
 5    1  0.9666750E-007  0.2000093E+02  0.7818608E-02  0.1745310E+00
         -1   -1    0    0    0  501 -0.00000000000E+00  0.00000000000E+00  0.12880421854E+02  0.12880422701E+02  0.46700000000E-02 0.  1.
          1   -1    0    0  501    0  0.00000000000E+00 -0.00000000000E+00 -0.77644415591E+01  0.77644429635E+01  0.46700000000E-02 0. -1.
       1023    2    1    2    0    0  0.00000000000E+00  0.00000000000E+00  0.51159802952E+01  0.20644865664E+02  0.20000930576E+02 0.  0.
        -11    1    3    3    0    0 -0.66039991276E+00 -0.99785689811E+01  0.25202230342E+01  0.10313073807E+02  0.51100000000E-03 0.  1.
         11    1    3    3    0    0  0.66039991276E+00  0.99785689811E+01  0.25957572610E+01  0.10331791857E+02  0.51100000000E-03 0. -1.
<mgrwt>
<rscale>  0 0.20000931E+02</rscale>
<asrwt>0</asrwt>
<pdfrwt beam="2">  1        1 0.11945296E-02 0.20000931E+02</pdfrwt>
<pdfrwt beam="1">  1       -1 0.19816035E-02 0.20000931E+02</pdfrwt>
<totfact> 0.38216006E+06</totfact>
</mgrwt>
</event>
<event>
 5    1  0.9583198E-007  0.2000006E+02  0.7818608E-02  0.1745327E+00
         -1   -1    0    0    0  501 -0.00000000000E+00  0.00000000000E+00  0.14530508056E+01  0.14530583101E+01  0.46700000000E-02 0. -1.
          1   -1    0    0  501    0  0.00000000000E+00 -0.00000000000E+00 -0.68820961641E+02  0.68820961799E+02  0.46700000000E-02 0.  1.
       1023    2    1    2    0    0  0.00000000000E+00  0.00000000000E+00 -0.67367910835E+02  0.70274020110E+02  0.20000062301E+02 0.  0.
        -11    1    3    3    0    0  0.90287934996E+01 -0.42990009059E+01 -0.33719424644E+02  0.35171012488E+02  0.51100000000E-03 0.  1.
         11    1    3    3    0    0 -0.90287934996E+01  0.42990009059E+01 -0.33648486192E+02  0.35103007622E+02  0.51100000000E-03 0. -1.
<mgrwt>
<rscale>  0 0.20000062E+02</rscale>
<asrwt>0</asrwt>
<pdfrwt beam="2">  1        1 0.10587838E-01 0.20000062E+02</pdfrwt>
<pdfrwt beam="1">  1       -1 0.22354692E-03 0.20000062E+02</pdfrwt>
<totfact> 0.42770220E+06</totfact>
</mgrwt>
</event>
<event>
 5    1  0.9583198E-007  0.2000012E+02  0.7818608E-02  0.1745326E+00
         -1   -1    0    0    0  501 -0.00000000000E+00  0.00000000000E+00  0.12709379563E+01  0.12709465361E+01  0.46700000000E-02 0. -1.
          1   -1    0    0  501    0  0.00000000000E+00 -0.00000000000E+00 -0.78682693877E+02  0.78682694016E+02  0.46700000000E-02 0.  1.
       1023    2    1    2    0    0  0.00000000000E+00  0.00000000000E+00 -0.77411755921E+02  0.79953640552E+02  0.20000117068E+02 0.  0.
        -11    1    3    3    0    0 -0.55131227940E+01 -0.83430224122E+01 -0.38805780240E+02  0.40073546464E+02  0.51100000000E-03 0.  1.
         11    1    3    3    0    0  0.55131227940E+01  0.83430224122E+01 -0.38605975681E+02  0.39880094088E+02  0.51100000000E-03 0. -1.
<mgrwt>
<rscale>  0 0.20000117E+02</rscale>
<asrwt>0</asrwt>
<pdfrwt beam="2">  1        1 0.12105027E-01 0.20000117E+02</pdfrwt>
<pdfrwt beam="1">  1       -1 0.19552965E-03 0.20000117E+02</pdfrwt>
<totfact> 0.43290715E+06</totfact>
</mgrwt>
</event>
<event>
 5    1  0.9583198E-007  0.2000342E+02  0.7818608E-02  0.1745260E+00
         -1   -1    0    0    0  501 -0.00000000000E+00  0.00000000000E+00  0.81901825861E+01  0.81901839175E+01  0.46700000000E-02 0. -1.
          1   -1    0    0  501    0  0.00000000000E+00 -0.00000000000E+00 -0.12213919279E+02  0.12213920172E+02  0.46700000000E-02 0.  1.
       1023    2    1    2    0    0  0.00000000000E+00  0.00000000000E+00 -0.40237366930E+01  0.20404104089E+02  0.20003424875E+02 0.  0.
        -11    1    3    3    0    0  0.60004547903E+01 -0.80008417448E+01 -0.21381426165E+01  0.10226953624E+02  0.51100000000E-03 0.  1.
         11    1    3    3    0    0 -0.60004547903E+01  0.80008417448E+01 -0.18855940765E+01  0.10177150465E+02  0.51100000000E-03 0. -1.
<mgrwt>
<rscale>  0 0.20003425E+02</rscale>
<asrwt>0</asrwt>
<pdfrwt beam="2">  1        1 0.18790647E-02 0.20003425E+02</pdfrwt>
<pdfrwt beam="1">  1       -1 0.12600283E-02 0.20003425E+02</pdfrwt>
<totfact> 0.38915302E+06</totfact>
</mgrwt>
</event>
<event>
 5    1  0.9583198E-007  0.2000290E+02  0.7818608E-02  0.1745270E+00
         -1   -1    0    0    0  501 -0.00000000000E+00  0.00000000000E+00  0.93617944062E+01  0.93617955710E+01  0.46700000000E-02 0.  1.
          1   -1    0    0  501    0  0.00000000000E+00 -0.00000000000E+00 -0.10684813557E+02  0.10684814578E+02  0.46700000000E-02 0. -1.
       1023    2    1    2    0    0  0.00000000000E+00  0.00000000000E+00 -0.13230191512E+01  0.20046610149E+02  0.20002904759E+02 0.  0.
        -11    1    3    3    0    0  0.55641405047E+01  0.83094759395E+01 -0.81015590881E+00  0.10033115309E+02  0.51100000000E-03 0. -1.
         11    1    3    3    0    0 -0.55641405047E+01 -0.83094759395E+01 -0.51286324237E+00  0.10013494840E+02  0.51100000000E-03 0.  1.
<mgrwt>
<rscale>  0 0.20002905E+02</rscale>
<asrwt>0</asrwt>
<pdfrwt beam="2">  1        1 0.16438176E-02 0.20002905E+02</pdfrwt>
<pdfrwt beam="1">  1       -1 0.14402762E-02 0.20002905E+02</pdfrwt>
<totfact> 0.38713393E+06</totfact>
</mgrwt>
</event>
<event>
 5    1  0.9583198E-007  0.2000557E+02  0.7818608E-02  0.1745217E+00
          1   -1    0    0  501    0  0.00000000000E+00  0.00000000000E+00  0.12071763319E+03  0.12071763328E+03  0.46700000000E-02 0. -1.
         -1   -1    0    0    0  501 -0.00000000000E+00 -0.00000000000E+00 -0.82883396116E+00  0.82884711743E+00  0.46700000000E-02 0.  1.
       1023    2    1    2    0    0  0.00000000000E+00  0.00000000000E+00  0.11988879923E+03  0.12154648040E+03  0.20005567139E+02 0.  0.
        -11    1    3    3    0    0  0.70729247466E+01 -0.70728507531E+01  0.60337987575E+02  0.61161460308E+02  0.51100000000E-03 0.  1.
         11    1    3    3    0    0 -0.70729247466E+01  0.70728507531E+01  0.59550811653E+02  0.60385020088E+02  0.51100000000E-03 0. -1.
<mgrwt>
<rscale>  0 0.20005567E+02</rscale>
<asrwt>0</asrwt>
<pdfrwt beam="1">  1        1 0.18571949E-01 0.20005567E+02</pdfrwt>
<pdfrwt beam="2">  1       -1 0.12751391E-03 0.20005567E+02</pdfrwt>
<totfact> 0.45305237E+06</totfact>
</mgrwt>
</event>
<event>
 5    1  0.9583198E-007  0.2000784E+02  0.7818608E-02  0.1745172E+00
          1   -1    0    0  501    0  0.00000000000E+00  0.00000000000E+00  0.10402054631E+03  0.10402054642E+03  0.46700000000E-02 0. -1.
         -1   -1    0    0    0  501 -0.00000000000E+00 -0.00000000000E+00 -0.96209688066E+00  0.96210821463E+00  0.46700000000E-02 0.  1.
       1023    2    1    2    0    0  0.00000000000E+00  0.00000000000E+00  0.10305844943E+03  0.10498265463E+03  0.20007842819E+02 0.  0.
        -11    1    3    3    0    0 -0.99296237581E+01  0.12163320650E+01  0.51322537911E+02  0.52288428830E+02  0.51100000000E-03 0. -1.
         11    1    3    3    0    0  0.99296237581E+01 -0.12163320650E+01  0.51735911522E+02  0.52694225803E+02  0.51100000000E-03 0.  1.
<mgrwt>
<rscale>  0 0.20007843E+02</rscale>
<asrwt>0</asrwt>
<pdfrwt beam="1">  1        1 0.16003162E-01 0.20007843E+02</pdfrwt>
<pdfrwt beam="2">  1       -1 0.14801578E-03 0.20007843E+02</pdfrwt>
<totfact> 0.44515938E+06</totfact>
</mgrwt>
</event>
<event>
 5    1  0.1013497E-006  0.2000121E+02  0.7818608E-02  0.1745304E+00
         -1   -1    0    0    0  501 -0.00000000000E+00  0.00000000000E+00  0.13537079069E+01  0.13537159622E+01  0.46700000000E-02 0. -1.
          1   -1    0    0  501    0  0.00000000000E+00 -0.00000000000E+00 -0.73879871926E+02  0.73879872074E+02  0.46700000000E-02 0.  1.
       1023    2    1    2    0    0  0.00000000000E+00  0.00000000000E+00 -0.72526164019E+02  0.75233588036E+02  0.20001207499E+02 0.  0.
        -11    1    3    3    0    0 -0.24649992201E+00 -0.99972957202E+01 -0.36539264958E+02  0.37883037997E+02  0.51100000000E-03 0. -1.
         11    1    3    3    0    0  0.24649992201E+00  0.99972957202E+01 -0.35986899061E+02  0.37350550039E+02  0.51100000000E-03 0.  1.
<mgrwt>
<rscale>  0 0.20001207E+02</rscale>
<asrwt>0</asrwt>
<pdfrwt beam="2">  1        1 0.11366132E-01 0.20001207E+02</pdfrwt>
<pdfrwt beam="1">  1       -1 0.20826344E-03 0.20001207E+02</pdfrwt>
<totfact> 0.43034400E+06</totfact>
</mgrwt>
</event>
<event>
 5    1  0.9583198E-007  0.2000328E+02  0.7818608E-02  0.1745263E+00
          1   -1    0    0  501    0  0.00000000000E+00  0.00000000000E+00  0.17101872595E+02  0.17101873233E+02  0.46700000000E-02 0.  1.
         -1   -1    0    0    0  501 -0.00000000000E+00 -0.00000000000E+00 -0.58492319098E+01  0.58492337740E+01  0.46700000000E-02 0. -1.
       1023    2    1    2    0    0  0.00000000000E+00  0.00000000000E+00  0.11252640685E+02  0.22951107007E+02  0.20003284491E+02 0.  0.
        -11    1    3    3    0    0  0.97617790696E+01  0.21771622458E+01  0.56011487710E+01  0.11463212197E+02  0.51100000000E-03 0. -1.
         11    1    3    3    0    0 -0.97617790696E+01 -0.21771622458E+01  0.56514919142E+01  0.11487894810E+02  0.51100000000E-03 0.  1.
<mgrwt>
<rscale>  0 0.20003284E+02</rscale>
<asrwt>0</asrwt>
<pdfrwt beam="1">  1        1 0.26310575E-02 0.20003284E+02</pdfrwt>
<pdfrwt beam="2">  1       -1 0.89988203E-03 0.20003284E+02</pdfrwt>
<totfact> 0.39435755E+06</totfact>
</mgrwt>
</event>
<event>
 4    1  0.9583198E-007  0.2001325E+02  0.7818608E-02  0.1745065E+00
         -1   -1    0    0    0  501 -0.00000000000E+00  0.00000000000E+00  0.16642003475E+01  0.16642068999E+01  0.46700000000E-02 0. -1.
          1   -1    0    0  501    0  0.00000000000E+00 -0.00000000000E+00 -0.60168417946E+02  0.60168418127E+02  0.46700000000E-02 0.  1.
        -11    1    1    2    0    0 -0.99832070326E+01  0.65746963319E+00 -0.29836857098E+02  0.31469584215E+02  0.51100000000E-03 0. -1.
         11    1    1    2    0    0  0.99832070326E+01 -0.65746963319E+00 -0.28667360501E+02  0.30363040811E+02  0.51100000000E-03 0.  1.
<mgrwt>
<rscale>  0 0.20013247E+02</rscale>
<asrwt>0</asrwt>
<pdfrwt beam="2">  1        1 0.92566785E-02 0.20013247E+02</pdfrwt>
<pdfrwt beam="1">  1       -1 0.25603139E-03 0.20013247E+02</pdfrwt>
<totfact> 0.42233954E+06</totfact>
</mgrwt>
</event>
<event>
 5    1  0.9583198E-007  0.2000415E+02  0.7818608E-02  0.1745246E+00
          1   -1    0    0  501    0  0.00000000000E+00  0.00000000000E+00  0.12360970334E+02  0.12360971217E+02  0.46700000000E-02 0. -1.
         -1   -1    0    0    0  501 -0.00000000000E+00 -0.00000000000E+00 -0.80933323964E+01  0.80933337438E+01  0.46700000000E-02 0.  1.
       1023    2    1    2    0    0  0.00000000000E+00  0.00000000000E+00  0.42676379380E+01  0.20454304960E+02  0.20004146016E+02 0.  0.
        -11    1    3    3    0    0 -0.71903401382E+01  0.69514021985E+01  0.22728206519E+01  0.10256154143E+02  0.51100000000E-03 0. -1.
         11    1    3    3    0    0  0.71903401382E+01 -0.69514021985E+01  0.19948172861E+01  0.10198150817E+02  0.51100000000E-03 0.  1.
<mgrwt>
<rscale>  0 0.20004146E+02</rscale>
<asrwt>0</asrwt>
<pdfrwt beam="1">  1        1 0.19016879E-02 0.20004146E+02</pdfrwt>
<pdfrwt beam="2">  1       -1 0.12451282E-02 0.20004146E+02</pdfrwt>
<totfact> 0.38930353E+06</totfact>
</mgrwt>
</event>
<event>
 5    1  0.9751875E-007  0.2000173E+02  0.7818608E-02  0.1745294E+00
         -1   -1    0    0    0  501 -0.00000000000E+00  0.00000000000E+00  0.22064591479E+01  0.22064640900E+01  0.46700000000E-02 0.  1.
          1   -1    0    0  501    0  0.00000000000E+00 -0.00000000000E+00 -0.45329258543E+02  0.45329258784E+02  0.46700000000E-02 0. -1.
       1023    2    1    2    0    0  0.00000000000E+00  0.00000000000E+00 -0.43122799395E+02  0.47535722874E+02  0.20001727961E+02 0.  0.
        -11    1    3    3    0    0 -0.54660105763E+01  0.83746997528E+01 -0.21403530874E+02  0.23624648182E+02  0.51100000000E-03 0. -1.
         11    1    3    3    0    0  0.54660105763E+01 -0.83746997528E+01 -0.21719268521E+02  0.23911074692E+02  0.51100000000E-03 0.  1.
<mgrwt>
<rscale>  0 0.20001728E+02</rscale>
<asrwt>0</asrwt>
<pdfrwt beam="2">  1        1 0.69737318E-02 0.20001728E+02</pdfrwt>
<pdfrwt beam="1">  1       -1 0.33945569E-03 0.20001728E+02</pdfrwt>
<totfact> 0.41429334E+06</totfact>
</mgrwt>
</event>
<event>
 5    1  0.9939446E-007  0.2000170E+02  0.7818608E-02  0.1745294E+00
         -1   -1    0    0    0  501 -0.00000000000E+00  0.00000000000E+00  0.44583757438E+01  0.44583781897E+01  0.46700000000E-02 0.  1.
          1   -1    0    0  501    0  0.00000000000E+00 -0.00000000000E+00 -0.22433505300E+02  0.22433505786E+02  0.46700000000E-02 0. -1.
       1023    2    1    2    0    0  0.00000000000E+00  0.00000000000E+00 -0.17975129556E+02  0.26891883976E+02  0.20001703458E+02 0.  0.
        -11    1    3    3    0    0 -0.43338532787E+01  0.90127649650E+01 -0.88942373033E+01  0.13383559841E+02  0.51100000000E-03 0. -1.
         11    1    3    3    0    0  0.43338532787E+01 -0.90127649650E+01 -0.90808922529E+01  0.13508324135E+02  0.51100000000E-03 0.  1.
<mgrwt>
<rscale>  0 0.20001703E+02</rscale>
<asrwt>0</asrwt>
<pdfrwt beam="2">  1        1 0.34513087E-02 0.20001703E+02</pdfrwt>
<pdfrwt beam="1">  1       -1 0.68590420E-03 0.20001703E+02</pdfrwt>
<totfact> 0.39895553E+06</totfact>
</mgrwt>
</event>
<event>
 5    1  0.9583198E-007  0.2000114E+02  0.7818608E-02  0.1745305E+00
          1   -1    0    0  501    0  0.00000000000E+00  0.00000000000E+00  0.11371872865E+03  0.11371872875E+03  0.46700000000E-02 0. -1.
         -1   -1    0    0    0  501 -0.00000000000E+00 -0.00000000000E+00 -0.87945629485E+00  0.87946869384E+00  0.46700000000E-02 0.  1.
       1023    2    1    2    0    0  0.00000000000E+00  0.00000000000E+00  0.11283927235E+03  0.11459819744E+03  0.20001136738E+02 0.  0.
        -11    1    3    3    0    0  0.31164275970E+01  0.95025913211E+01  0.56431995503E+02  0.57311268347E+02  0.51100000000E-03 0.  1.
         11    1    3    3    0    0 -0.31164275970E+01 -0.95025913211E+01  0.56407276851E+02  0.57286929092E+02  0.51100000000E-03 0. -1.
<mgrwt>
<rscale>  0 0.20001137E+02</rscale>
<asrwt>0</asrwt>
<pdfrwt beam="1">  1        1 0.17495188E-01 0.20001137E+02</pdfrwt>
<pdfrwt beam="2">  1       -1 0.13530195E-03 0.20001137E+02</pdfrwt>
<totfact> 0.45005609E+06</totfact>
</mgrwt>
</event>
<event>
 5    1  0.9583198E-007  0.2000018E+02  0.7818608E-02  0.1745324E+00
          1   -1    0    0  501    0  0.00000000000E+00  0.00000000000E+00  0.52405154534E+01  0.52405175342E+01  0.46700000000E-02 0. -1.
         -1   -1    0    0    0  501 -0.00000000000E+00 -0.00000000000E+00 -0.19082436711E+02  0.19082437282E+02  0.46700000000E-02 0.  1.
       1023    2    1    2    0    0  0.00000000000E+00  0.00000000000E+00 -0.13841921257E+02  0.24322954816E+02  0.20000183672E+02 0.  0.
        -11    1    3    3    0    0 -0.94571551316E+01 -0.32502083812E+01 -0.69038151483E+01  0.12151720107E+02  0.51100000000E-03 0.  1.
         11    1    3    3    0    0  0.94571551316E+01  0.32502083812E+01 -0.69381061091E+01  0.12171234709E+02  0.51100000000E-03 0. -1.
<mgrwt>
<rscale>  0 0.20000184E+02</rscale>
<asrwt>0</asrwt>
<pdfrwt beam="1">  1        1 0.80623336E-03 0.20000184E+02</pdfrwt>
<pdfrwt beam="2">  1       -1 0.29357597E-02 0.20000184E+02</pdfrwt>
<totfact> 0.37510427E+06</totfact>
</mgrwt>
</event>
<event>
 4    1  0.9583198E-007  0.2002706E+02  0.7818608E-02  0.1744790E+00
         -1   -1    0    0    0  501 -0.00000000000E+00  0.00000000000E+00  0.16278586380E+02  0.16278587050E+02  0.46700000000E-02 0.  1.
          1   -1    0    0  501    0  0.00000000000E+00 -0.00000000000E+00 -0.61596736146E+01  0.61596753849E+01  0.46700000000E-02 0. -1.
        -11    1    1    2    0    0 -0.83274577298E+01  0.55491394880E+01  0.54654435564E+01  0.11402217978E+02  0.51100000000E-03 0. -1.
         11    1    1    2    0    0  0.83274577298E+01 -0.55491394880E+01  0.46534692087E+01  0.11036044456E+02  0.51100000000E-03 0.  1.
<mgrwt>
<rscale>  0 0.20027062E+02</rscale>
<asrwt>0</asrwt>
<pdfrwt beam="2">  1        1 0.94764227E-03 0.20027062E+02</pdfrwt>
<pdfrwt beam="1">  1       -1 0.25043981E-02 0.20027062E+02</pdfrwt>
<totfact> 0.37701161E+06</totfact>
</mgrwt>
</event>
<event>
 5    1  0.9583198E-007  0.2000056E+02  0.7818608E-02  0.1745317E+00
          1   -1    0    0  501    0  0.00000000000E+00  0.00000000000E+00  0.36496437353E+02  0.36496437652E+02  0.46700000000E-02 0. -1.
         -1   -1    0    0    0  501 -0.00000000000E+00 -0.00000000000E+00 -0.27401457586E+01  0.27401497381E+01  0.46700000000E-02 0.  1.
       1023    2    1    2    0    0  0.00000000000E+00  0.00000000000E+00  0.33756291595E+02  0.39236587390E+02  0.20000564187E+02 0.  0.
        -11    1    3    3    0    0  0.45027370612E+00  0.99901356234E+01  0.16896286135E+02  0.19633900315E+02  0.51100000000E-03 0.  1.
         11    1    3    3    0    0 -0.45027370612E+00 -0.99901356234E+01  0.16860005460E+02  0.19602687075E+02  0.51100000000E-03 0. -1.
<mgrwt>
<rscale>  0 0.20000564E+02</rscale>
<asrwt>0</asrwt>
<pdfrwt beam="1">  1        1 0.56148369E-02 0.20000564E+02</pdfrwt>
<pdfrwt beam="2">  1       -1 0.42156121E-03 0.20000564E+02</pdfrwt>
<totfact> 0.40885687E+06</totfact>
</mgrwt>
</event>
<event>
 5    1  0.9583198E-007  0.2000583E+02  0.7818608E-02  0.1745212E+00
         -1   -1    0    0    0  501 -0.00000000000E+00  0.00000000000E+00  0.16030038668E+01  0.16030106693E+01  0.46700000000E-02 0.  1.
          1   -1    0    0  501    0  0.00000000000E+00 -0.00000000000E+00 -0.62419114660E+02  0.62419114834E+02  0.46700000000E-02 0. -1.
       1023    2    1    2    0    0  0.00000000000E+00  0.00000000000E+00 -0.60816110793E+02  0.64022125504E+02  0.20005829701E+02 0.  0.
        -11    1    3    3    0    0 -0.65790977798E+01 -0.75339916198E+01 -0.30769376430E+02  0.32354290032E+02  0.51100000000E-03 0. -1.
         11    1    3    3    0    0  0.65790977798E+01  0.75339916198E+01 -0.30046734363E+02  0.31667835471E+02  0.51100000000E-03 0.  1.
<mgrwt>
<rscale>  0 0.20005830E+02</rscale>
<asrwt>0</asrwt>
<pdfrwt beam="2">  1        1 0.96029394E-02 0.20005830E+02</pdfrwt>
<pdfrwt beam="1">  1       -1 0.24661656E-03 0.20005830E+02</pdfrwt>
<totfact> 0.42393722E+06</totfact>
</mgrwt>
</event>
<event>
 4    1  0.9583198E-007  0.2003059E+02  0.7818608E-02  0.1744721E+00
         -1   -1    0    0    0  501 -0.00000000000E+00  0.00000000000E+00  0.54673880742E+01  0.54673900687E+01  0.46700000000E-02 0. -1.
          1   -1    0    0  501    0  0.00000000000E+00 -0.00000000000E+00 -0.18346248837E+02  0.18346249432E+02  0.46700000000E-02 0.  1.
        -11    1    1    2    0    0  0.83474539684E+01 -0.55244231499E+01 -0.60508086804E+01  0.11696645880E+02  0.51100000000E-03 0. -1.
         11    1    1    2    0    0 -0.83474539684E+01  0.55244231499E+01 -0.68280520828E+01  0.12116993621E+02  0.51100000000E-03 0.  1.
<mgrwt>
<rscale>  0 0.20030586E+02</rscale>
<asrwt>0</asrwt>
<pdfrwt beam="2">  1        1 0.28225000E-02 0.20030586E+02</pdfrwt>
<pdfrwt beam="1">  1       -1 0.84113683E-03 0.20030586E+02</pdfrwt>
<totfact> 0.39427893E+06</totfact>
</mgrwt>
</event>
<event>
 5    1  0.9583198E-007  0.2000827E+02  0.7818608E-02  0.1745164E+00
          1   -1    0    0  501    0  0.00000000000E+00  0.00000000000E+00  0.31765590519E+01  0.31765624847E+01  0.46700000000E-02 0. -1.
         -1   -1    0    0    0  501 -0.00000000000E+00 -0.00000000000E+00 -0.31506618242E+02  0.31506618588E+02  0.46700000000E-02 0.  1.
       1023    2    1    2    0    0  0.00000000000E+00  0.00000000000E+00 -0.28330059190E+02  0.34683181073E+02  0.20008268181E+02 0.  0.
        -11    1    3    3    0    0  0.98960057351E+01  0.14655208593E+01 -0.14274905040E+02  0.17431339451E+02  0.51100000000E-03 0. -1.
         11    1    3    3    0    0 -0.98960057351E+01 -0.14655208593E+01 -0.14055154150E+02  0.17251841622E+02  0.51100000000E-03 0.  1.
<mgrwt>
<rscale>  0 0.20008268E+02</rscale>
<asrwt>0</asrwt>
<pdfrwt beam="1">  1        1 0.48870170E-03 0.20008268E+02</pdfrwt>
<pdfrwt beam="2">  1       -1 0.48471721E-02 0.20008268E+02</pdfrwt>
<totfact> 0.36324627E+06</totfact>
</mgrwt>
</event>
<event>
 5    1  0.9583198E-007  0.2000319E+02  0.7818608E-02  0.1745265E+00
         -1   -1    0    0    0  501 -0.00000000000E+00  0.00000000000E+00  0.19975112561E+02  0.19975113107E+02  0.46700000000E-02 0.  1.
          1   -1    0    0  501    0  0.00000000000E+00 -0.00000000000E+00 -0.50078245843E+01  0.50078267617E+01  0.46700000000E-02 0. -1.
       1023    2    1    2    0    0  0.00000000000E+00  0.00000000000E+00  0.14967287977E+02  0.24982939869E+02  0.20003189123E+02 0.  0.
        -11    1    3    3    0    0  0.58184753831E+01  0.81345661979E+01  0.73863341697E+01  0.12433171588E+02  0.51100000000E-03 0. -1.
         11    1    3    3    0    0 -0.58184753831E+01 -0.81345661979E+01  0.75809538073E+01  0.12549768281E+02  0.51100000000E-03 0.  1.
<mgrwt>
<rscale>  0 0.20003189E+02</rscale>
<asrwt>0</asrwt>
<pdfrwt beam="2">  1        1 0.77043476E-03 0.20003189E+02</pdfrwt>
<pdfrwt beam="1">  1       -1 0.30730945E-02 0.20003189E+02</pdfrwt>
<totfact> 0.37406217E+06</totfact>
</mgrwt>
</event>
<event>
 5    1  0.9583198E-007  0.2000218E+02  0.7818608E-02  0.1745285E+00
         -1   -1    0    0    0  501 -0.00000000000E+00  0.00000000000E+00  0.37131447750E+02  0.37131448043E+02  0.46700000000E-02 0.  1.
          1   -1    0    0  501    0  0.00000000000E+00 -0.00000000000E+00 -0.26937189437E+01  0.26937229918E+01  0.46700000000E-02 0. -1.
       1023    2    1    2    0    0  0.00000000000E+00  0.00000000000E+00  0.34437728806E+02  0.39825171035E+02  0.20002176948E+02 0.  0.
        -11    1    3    3    0    0 -0.27004770080E+01  0.96295406516E+01  0.17286124340E+02  0.19970746711E+02  0.51100000000E-03 0. -1.
         11    1    3    3    0    0  0.27004770080E+01 -0.96295406516E+01  0.17151604466E+02  0.19854424324E+02  0.51100000000E-03 0.  1.
<mgrwt>
<rscale>  0 0.20002177E+02</rscale>
<asrwt>0</asrwt>
<pdfrwt beam="2">  1        1 0.41441870E-03 0.20002177E+02</pdfrwt>
<pdfrwt beam="1">  1       -1 0.57125298E-02 0.20002177E+02</pdfrwt>
<totfact> 0.35887613E+06</totfact>
</mgrwt>
</event>
<event>
 5    1  0.9616349E-007  0.2000059E+02  0.7818608E-02  0.1745316E+00
         -1   -1    0    0    0  501 -0.00000000000E+00  0.00000000000E+00  0.20900126763E+01  0.20900178937E+01  0.46700000000E-02 0. -1.
          1   -1    0    0  501    0  0.00000000000E+00 -0.00000000000E+00 -0.47849359972E+02  0.47849360200E+02  0.46700000000E-02 0.  1.
       1023    2    1    2    0    0  0.00000000000E+00  0.00000000000E+00 -0.45759347295E+02  0.49939378093E+02  0.20000590477E+02 0.  0.
        -11    1    3    3    0    0  0.74043779288E+01 -0.67214115919E+01 -0.23031928967E+02  0.25109200276E+02  0.51100000000E-03 0. -1.
         11    1    3    3    0    0 -0.74043779288E+01  0.67214115919E+01 -0.22727418328E+02  0.24830177817E+02  0.51100000000E-03 0.  1.
<mgrwt>
<rscale>  0 0.20000590E+02</rscale>
<asrwt>0</asrwt>
<pdfrwt beam="2">  1        1 0.73614396E-02 0.20000590E+02</pdfrwt>
<pdfrwt beam="1">  1       -1 0.32154087E-03 0.20000590E+02</pdfrwt>
<totfact> 0.41585253E+06</totfact>
</mgrwt>
</event>
<event>
 5    1  0.9583198E-007  0.2000014E+02  0.7818608E-02  0.1745325E+00
          1   -1    0    0  501    0  0.00000000000E+00  0.00000000000E+00  0.12925026216E+02  0.12925027059E+02  0.46700000000E-02 0. -1.
         -1   -1    0    0    0  501 -0.00000000000E+00 -0.00000000000E+00 -0.77370383843E+01  0.77370397937E+01  0.46700000000E-02 0.  1.
       1023    2    1    2    0    0  0.00000000000E+00  0.00000000000E+00  0.51879878314E+01  0.20662066853E+02  0.20000144722E+02 0.  0.
        -11    1    3    3    0    0  0.22848829624E+01  0.97355311651E+01  0.25797631888E+01  0.10327460268E+02  0.51100000000E-03 0.  1.
         11    1    3    3    0    0 -0.22848829624E+01 -0.97355311651E+01  0.26082246427E+01  0.10334606585E+02  0.51100000000E-03 0. -1.
<mgrwt>
<rscale>  0 0.20000145E+02</rscale>
<asrwt>0</asrwt>
<pdfrwt beam="1">  1        1 0.19884657E-02 0.20000145E+02</pdfrwt>
<pdfrwt beam="2">  1       -1 0.11903138E-02 0.20000145E+02</pdfrwt>
<totfact> 0.39015921E+06</totfact>
</mgrwt>
</event>
<event>
 5    1  0.9583198E-007  0.2000081E+02  0.7818608E-02  0.1745312E+00
         -1   -1    0    0    0  501 -0.00000000000E+00  0.00000000000E+00  0.20423410994E+02  0.20423411528E+02  0.46700000000E-02 0.  1.
          1   -1    0    0  501    0  0.00000000000E+00 -0.00000000000E+00 -0.48967342973E+01  0.48967365242E+01  0.46700000000E-02 0. -1.
       1023    2    1    2    0    0  0.00000000000E+00  0.00000000000E+00  0.15526676697E+02  0.25320148053E+02  0.20000805187E+02 0.  0.
        -11    1    3    3    0    0 -0.98652968913E+01  0.16361079052E+01  0.76565172427E+01  0.12594569797E+02  0.51100000000E-03 0. -1.
         11    1    3    3    0    0  0.98652968913E+01 -0.16361079052E+01  0.78701594544E+01  0.12725578255E+02  0.51100000000E-03 0.  1.
<mgrwt>
<rscale>  0 0.20000805E+02</rscale>
<asrwt>0</asrwt>
<pdfrwt beam="2">  1        1 0.75334395E-03 0.20000805E+02</pdfrwt>
<pdfrwt beam="1">  1       -1 0.31420634E-02 0.20000805E+02</pdfrwt>
<totfact> 0.37370594E+06</totfact>
</mgrwt>
</event>
<event>
 5    1  0.9583198E-007  0.2000745E+02  0.7818608E-02  0.1745180E+00
         -1   -1    0    0    0  501 -0.00000000000E+00  0.00000000000E+00  0.16019571781E+02  0.16019572462E+02  0.46700000000E-02 0. -1.
          1   -1    0    0  501    0  0.00000000000E+00 -0.00000000000E+00 -0.62470119460E+01  0.62470136915E+01  0.46700000000E-02 0.  1.
       1023    2    1    2    0    0  0.00000000000E+00  0.00000000000E+00  0.97725598353E+01  0.22266586153E+02  0.20007446943E+02 0.  0.
        -11    1    3    3    0    0 -0.62535372300E+01 -0.78036623371E+01  0.45905516423E+01  0.11003501188E+02  0.51100000000E-03 0.  1.
         11    1    3    3    0    0  0.62535372300E+01  0.78036623371E+01  0.51820081930E+01  0.11263084965E+02  0.51100000000E-03 0. -1.
<mgrwt>
<rscale>  0 0.20007447E+02</rscale>
<asrwt>0</asrwt>
<pdfrwt beam="2">  1        1 0.96107895E-03 0.20007447E+02</pdfrwt>
<pdfrwt beam="1">  1       -1 0.24645497E-02 0.20007447E+02</pdfrwt>
<totfact> 0.37811517E+06</totfact>
</mgrwt>
</event>
<event>
 5    1  0.9583198E-007  0.2000408E+02  0.7818608E-02  0.1745247E+00
         -1   -1    0    0    0  501 -0.00000000000E+00  0.00000000000E+00  0.25909460025E+01  0.25909502112E+01  0.46700000000E-02 0.  1.
          1   -1    0    0  501    0  0.00000000000E+00 -0.00000000000E+00 -0.38611640091E+02  0.38611640374E+02  0.46700000000E-02 0. -1.
       1023    2    1    2    0    0  0.00000000000E+00  0.00000000000E+00 -0.36020694089E+02  0.41202590585E+02  0.20004076291E+02 0.  0.
        -11    1    3    3    0    0 -0.99970922500E+01 -0.29821838092E+00 -0.18216103166E+02  0.20781174232E+02  0.51100000000E-03 0.  1.
         11    1    3    3    0    0  0.99970922500E+01  0.29821838092E+00 -0.17804590923E+02  0.20421416352E+02  0.51100000000E-03 0. -1.
<mgrwt>
<rscale>  0 0.20004076E+02</rscale>
<asrwt>0</asrwt>
<pdfrwt beam="2">  1        1 0.59402522E-02 0.20004076E+02</pdfrwt>
<pdfrwt beam="1">  1       -1 0.39860745E-03 0.20004076E+02</pdfrwt>
<totfact> 0.41004497E+06</totfact>
</mgrwt>
</event>
<event>
 5    1  0.9768889E-007  0.2000111E+02  0.7818608E-02  0.1745306E+00
          1   -1    0    0  501    0  0.00000000000E+00  0.00000000000E+00  0.75754449630E+01  0.75754464025E+01  0.46700000000E-02 0.  1.
         -1   -1    0    0    0  501 -0.00000000000E+00 -0.00000000000E+00 -0.13202005443E+02  0.13202006269E+02  0.46700000000E-02 0. -1.
       1023    2    1    2    0    0  0.00000000000E+00  0.00000000000E+00 -0.56265604799E+01  0.20777452671E+02  0.20001108886E+02 0.  0.
        -11    1    3    3    0    0  0.64764490939E+01  0.76197141672E+01 -0.28980061113E+01  0.10411670209E+02  0.51100000000E-03 0.  1.
         11    1    3    3    0    0 -0.64764490939E+01 -0.76197141672E+01 -0.27285543686E+01  0.10365782462E+02  0.51100000000E-03 0. -1.
<mgrwt>
<rscale>  0 0.20001109E+02</rscale>
<asrwt>0</asrwt>
<pdfrwt beam="1">  1        1 0.11654532E-02 0.20001109E+02</pdfrwt>
<pdfrwt beam="2">  1       -1 0.20310779E-02 0.20001109E+02</pdfrwt>
<totfact> 0.38174217E+06</totfact>
</mgrwt>
</event>
<event>
 5    1  0.9583198E-007  0.2000024E+02  0.7818608E-02  0.1745323E+00
         -1   -1    0    0    0  501 -0.00000000000E+00  0.00000000000E+00  0.43007670541E+01  0.43007695896E+01  0.46700000000E-02 0.  1.
          1   -1    0    0  501    0  0.00000000000E+00 -0.00000000000E+00 -0.23252207493E+02  0.23252207962E+02  0.46700000000E-02 0. -1.
       1023    2    1    2    0    0  0.00000000000E+00  0.00000000000E+00 -0.18951440439E+02  0.27552977552E+02  0.20000236930E+02 0.  0.
        -11    1    3    3    0    0 -0.86577242140E+01 -0.50046016147E+01 -0.94592367288E+01  0.13765151130E+02  0.51100000000E-03 0. -1.
         11    1    3    3    0    0  0.86577242140E+01  0.50046016147E+01 -0.94922037102E+01  0.13787826421E+02  0.51100000000E-03 0.  1.
<mgrwt>
<rscale>  0 0.20000237E+02</rscale>
<asrwt>0</asrwt>
<pdfrwt beam="2">  1        1 0.35772629E-02 0.20000237E+02</pdfrwt>
<pdfrwt beam="1">  1       -1 0.66165671E-03 0.20000237E+02</pdfrwt>
<totfact> 0.39965824E+06</totfact>
</mgrwt>
</event>
<event>
 5    1  0.9583198E-007  0.2000576E+02  0.7818608E-02  0.1745214E+00
         -1   -1    0    0    0  501 -0.00000000000E+00  0.00000000000E+00  0.46762459127E+02  0.46762459360E+02  0.46700000000E-02 0.  1.
          1   -1    0    0  501    0  0.00000000000E+00 -0.00000000000E+00 -0.21396960835E+01  0.21397011798E+01  0.46700000000E-02 0. -1.
       1023    2    1    2    0    0  0.00000000000E+00  0.00000000000E+00  0.44622763043E+02  0.48902160540E+02  0.20005757267E+02 0.  0.
        -11    1    3    3    0    0  0.91293050504E+01 -0.40877660600E+01  0.22165972650E+02  0.24318396038E+02  0.51100000000E-03 0. -1.
         11    1    3    3    0    0 -0.91293050504E+01  0.40877660600E+01  0.22456790393E+02  0.24583764502E+02  0.51100000000E-03 0.  1.
<mgrwt>
<rscale>  0 0.20005757E+02</rscale>
<asrwt>0</asrwt>
<pdfrwt beam="2">  1        1 0.32918444E-03 0.20005757E+02</pdfrwt>
<pdfrwt beam="1">  1       -1 0.71942246E-02 0.20005757E+02</pdfrwt>
<totfact> 0.35140692E+06</totfact>
</mgrwt>
</event>
<event>
 5    1  0.9919506E-007  0.2000085E+02  0.7818608E-02  0.1745311E+00
         -1   -1    0    0    0  501 -0.00000000000E+00  0.00000000000E+00  0.42754226281E+01  0.42754251786E+01  0.46700000000E-02 0.  1.
          1   -1    0    0  501    0  0.00000000000E+00 -0.00000000000E+00 -0.23391470439E+02  0.23391470905E+02  0.46700000000E-02 0. -1.
       1023    2    1    2    0    0  0.00000000000E+00  0.00000000000E+00 -0.19116047811E+02  0.27666896084E+02  0.20000846357E+02 0.  0.
        -11    1    3    3    0    0 -0.94965880153E+01  0.31335782482E+01 -0.94708997115E+01  0.13773250821E+02  0.51100000000E-03 0.  1.
         11    1    3    3    0    0  0.94965880153E+01 -0.31335782482E+01 -0.96451480996E+01  0.13893645263E+02  0.51100000000E-03 0. -1.
<mgrwt>
<rscale>  0 0.20000846E+02</rscale>
<asrwt>0</asrwt>
<pdfrwt beam="2">  1        1 0.35986879E-02 0.20000846E+02</pdfrwt>
<pdfrwt beam="1">  1       -1 0.65775757E-03 0.20000846E+02</pdfrwt>
<totfact> 0.39973821E+06</totfact>
</mgrwt>
</event>
<event>
 5    1  0.9583198E-007  0.2000024E+02  0.7818608E-02  0.1745323E+00
         -1   -1    0    0    0  501 -0.00000000000E+00  0.00000000000E+00  0.93309851663E+01  0.93309863349E+01  0.46700000000E-02 0.  1.
          1   -1    0    0  501    0  0.00000000000E+00 -0.00000000000E+00 -0.10717240499E+02  0.10717241517E+02  0.46700000000E-02 0. -1.
       1023    2    1    2    0    0  0.00000000000E+00  0.00000000000E+00 -0.13862553328E+01  0.20048227852E+02  0.20000243402E+02 0.  0.
        -11    1    3    3    0    0 -0.80270396705E+01  0.59638896268E+01 -0.72619804596E+00  0.10026400611E+02  0.51100000000E-03 0.  1.
         11    1    3    3    0    0  0.80270396705E+01 -0.59638896268E+01 -0.66005728680E+00  0.10021827240E+02  0.51100000000E-03 0. -1.
<mgrwt>
<rscale>  0 0.20000243E+02</rscale>
<asrwt>0</asrwt>
<pdfrwt beam="2">  1        1 0.16488064E-02 0.20000243E+02</pdfrwt>
<pdfrwt beam="1">  1       -1 0.14355363E-02 0.20000243E+02</pdfrwt>
<totfact> 0.38729704E+06</totfact>
</mgrwt>
</event>
<event>
 5    1  0.1012783E-006  0.2000132E+02  0.7818608E-02  0.1745302E+00
          1   -1    0    0  501    0  0.00000000000E+00  0.00000000000E+00  0.10174515295E+03  0.10174515306E+03  0.46700000000E-02 0. -1.
         -1   -1    0    0    0  501 -0.00000000000E+00 -0.00000000000E+00 -0.98297189004E+00  0.98298298332E+00  0.46700000000E-02 0.  1.
       1023    2    1    2    0    0  0.00000000000E+00  0.00000000000E+00  0.10076218106E+03  0.10272813605E+03  0.20001320017E+02 0.  0.
        -11    1    3    3    0    0  0.92716249995E+01  0.37471766003E+01  0.49898252724E+02  0.50890470500E+02  0.51100000000E-03 0. -1.
         11    1    3    3    0    0 -0.92716249995E+01 -0.37471766003E+01  0.50863928341E+02  0.51837665545E+02  0.51100000000E-03 0.  1.
<mgrwt>
<rscale>  0 0.20001320E+02</rscale>
<asrwt>0</asrwt>
<pdfrwt beam="1">  1        1 0.15653101E-01 0.20001320E+02</pdfrwt>
<pdfrwt beam="2">  1       -1 0.15122731E-03 0.20001320E+02</pdfrwt>
<totfact> 0.44438627E+06</totfact>
</mgrwt>
</event>
<event>
 5    1  0.9583198E-007  0.2000083E+02  0.7818608E-02  0.1745312E+00
         -1   -1    0    0    0  501 -0.00000000000E+00  0.00000000000E+00  0.19635415228E+02  0.19635415783E+02  0.46700000000E-02 0. -1.
          1   -1    0    0  501    0  0.00000000000E+00 -0.00000000000E+00 -0.50932611236E+01  0.50932632646E+01  0.46700000000E-02 0.  1.
       1023    2    1    2    0    0  0.00000000000E+00  0.00000000000E+00  0.14542154104E+02  0.24728679048E+02  0.20000833019E+02 0.  0.
        -11    1    3    3    0    0  0.99942827198E+01  0.34477074203E+00  0.73470532817E+01  0.12409018742E+02  0.51100000000E-03 0.  1.
         11    1    3    3    0    0 -0.99942827198E+01 -0.34477074203E+00  0.71951008227E+01  0.12319660306E+02  0.51100000000E-03 0. -1.
<mgrwt>
<rscale>  0 0.20000833E+02</rscale>
<asrwt>0</asrwt>
<pdfrwt beam="2">  1        1 0.78357884E-03 0.20000833E+02</pdfrwt>
<pdfrwt beam="1">  1       -1 0.30208333E-02 0.20000833E+02</pdfrwt>
<totfact> 0.37450626E+06</totfact>
</mgrwt>
</event>
<event>
 5    1  0.9583198E-007  0.2000026E+02  0.7818608E-02  0.1745323E+00
         -1   -1    0    0    0  501 -0.00000000000E+00  0.00000000000E+00  0.16981455675E+02  0.16981456317E+02  0.46700000000E-02 0.  1.
          1   -1    0    0  501    0  0.00000000000E+00 -0.00000000000E+00 -0.58889301875E+01  0.58889320391E+01  0.46700000000E-02 0. -1.
       1023    2    1    2    0    0  0.00000000000E+00  0.00000000000E+00  0.11092525488E+02  0.22870388356E+02  0.20000263545E+02 0.  0.
        -11    1    3    3    0    0 -0.21057456212E+01 -0.97759039852E+01  0.55612535512E+01  0.11442464973E+02  0.51100000000E-03 0. -1.
         11    1    3    3    0    0  0.21057456212E+01  0.97759039852E+01  0.55312719364E+01  0.11427923383E+02  0.51100000000E-03 0.  1.
<mgrwt>
<rscale>  0 0.20000264E+02</rscale>
<asrwt>0</asrwt>
<pdfrwt beam="2">  1        1 0.90598945E-03 0.20000264E+02</pdfrwt>
<pdfrwt beam="1">  1       -1 0.26125319E-02 0.20000264E+02</pdfrwt>
<totfact> 0.37734122E+06</totfact>
</mgrwt>
</event>
<event>
 5    1  0.9583198E-007  0.2000196E+02  0.7818608E-02  0.1745289E+00
          1   -1    0    0  501    0  0.00000000000E+00  0.00000000000E+00  0.55744072911E+01  0.55744092473E+01  0.46700000000E-02 0. -1.
         -1   -1    0    0    0  501 -0.00000000000E+00 -0.00000000000E+00 -0.17942638225E+02  0.17942638832E+02  0.46700000000E-02 0.  1.
       1023    2    1    2    0    0  0.00000000000E+00  0.00000000000E+00 -0.12368230934E+02  0.23517048080E+02  0.20001960253E+02 0.  0.
        -11    1    3    3    0    0  0.91721663327E+01  0.39862169563E+01 -0.62220750192E+01  0.11778487962E+02  0.51100000000E-03 0. -1.
         11    1    3    3    0    0 -0.91721663327E+01 -0.39862169563E+01 -0.61461559143E+01  0.11738560118E+02  0.51100000000E-03 0.  1.
<mgrwt>
<rscale>  0 0.20001960E+02</rscale>
<asrwt>0</asrwt>
<pdfrwt beam="1">  1        1 0.85760133E-03 0.20001960E+02</pdfrwt>
<pdfrwt beam="2">  1       -1 0.27604061E-02 0.20001960E+02</pdfrwt>
<totfact> 0.37623050E+06</totfact>
</mgrwt>
</event>
<event>
 5    1  0.9583198E-007  0.2000041E+02  0.7818608E-02  0.1745320E+00
          1   -1    0    0  501    0  0.00000000000E+00  0.00000000000E+00  0.16684443934E+02  0.16684444587E+02  0.46700000000E-02 0. -1.
         -1   -1    0    0    0  501 -0.00000000000E+00 -0.00000000000E+00 -0.59938539894E+01  0.59938558086E+01  0.46700000000E-02 0.  1.
       1023    2    1    2    0    0  0.00000000000E+00  0.00000000000E+00  0.10690589945E+02  0.22678300396E+02  0.20000414883E+02 0.  0.
        -11    1    3    3    0    0 -0.93143378473E+01  0.36396305461E+01  0.53664646658E+01  0.11349129628E+02  0.51100000000E-03 0. -1.
         11    1    3    3    0    0  0.93143378473E+01 -0.36396305461E+01  0.53241252787E+01  0.11329170768E+02  0.51100000000E-03 0.  1.
<mgrwt>
<rscale>  0 0.20000415E+02</rscale>
<asrwt>0</asrwt>
<pdfrwt beam="1">  1        1 0.25668377E-02 0.20000415E+02</pdfrwt>
<pdfrwt beam="2">  1       -1 0.92213159E-03 0.20000415E+02</pdfrwt>
<totfact> 0.39409231E+06</totfact>
</mgrwt>
</event>
<event>
 5    1  0.9612170E-007  0.2000056E+02  0.7818608E-02  0.1745317E+00
          1   -1    0    0  501    0  0.00000000000E+00  0.00000000000E+00  0.27160076863E+02  0.27160077264E+02  0.46700000000E-02 0.  1.
         -1   -1    0    0    0  501 -0.00000000000E+00 -0.00000000000E+00 -0.36820773279E+01  0.36820802894E+01  0.46700000000E-02 0. -1.
       1023    2    1    2    0    0  0.00000000000E+00  0.00000000000E+00  0.23477999535E+02  0.30842157553E+02  0.20000555502E+02 0.  0.
        -11    1    3    3    0    0 -0.65470872074E+01 -0.75588232685E+01  0.11852262658E+02  0.15507297975E+02  0.51100000000E-03 0.  1.
         11    1    3    3    0    0  0.65470872074E+01  0.75588232685E+01  0.11625736876E+02  0.15334859578E+02  0.51100000000E-03 0. -1.
<mgrwt>
<rscale>  0 0.20000556E+02</rscale>
<asrwt>0</asrwt>
<pdfrwt beam="1">  1        1 0.41784737E-02 0.20000556E+02</pdfrwt>
<pdfrwt beam="2">  1       -1 0.56647369E-03 0.20000556E+02</pdfrwt>
<totfact> 0.40254708E+06</totfact>
</mgrwt>
</event>
<event>
 5    1  0.9583198E-007  0.2000018E+02  0.7818608E-02  0.1745325E+00
         -1   -1    0    0    0  501 -0.00000000000E+00  0.00000000000E+00  0.76498072454E+01  0.76498086708E+01  0.46700000000E-02 0. -1.
          1   -1    0    0  501    0  0.00000000000E+00 -0.00000000000E+00 -0.13072452486E+02  0.13072453320E+02  0.46700000000E-02 0.  1.
       1023    2    1    2    0    0  0.00000000000E+00  0.00000000000E+00 -0.54226452403E+01  0.20722261991E+02  0.20000176514E+02 0.  0.
        -11    1    3    3    0    0  0.79014406094E+01  0.61293549471E+01 -0.27081936850E+01  0.10360312209E+02  0.51100000000E-03 0.  1.
         11    1    3    3    0    0 -0.79014406094E+01 -0.61293549471E+01 -0.27144515553E+01  0.10361949782E+02  0.51100000000E-03 0. -1.
<mgrwt>
<rscale>  0 0.20000177E+02</rscale>
<asrwt>0</asrwt>
<pdfrwt beam="2">  1        1 0.20111467E-02 0.20000177E+02</pdfrwt>
<pdfrwt beam="1">  1       -1 0.11768936E-02 0.20000177E+02</pdfrwt>
<totfact> 0.39033076E+06</totfact>
</mgrwt>
</event>
<event>
 5    1  0.9583198E-007  0.2000110E+02  0.7818608E-02  0.1745306E+00
         -1   -1    0    0    0  501 -0.00000000000E+00  0.00000000000E+00  0.63704207954E+02  0.63704208126E+02  0.46700000000E-02 0. -1.
          1   -1    0    0  501    0  0.00000000000E+00 -0.00000000000E+00 -0.15699236310E+01  0.15699305768E+01  0.46700000000E-02 0.  1.
       1023    2    1    2    0    0  0.00000000000E+00  0.00000000000E+00  0.62134284323E+02  0.65274138702E+02  0.20001097344E+02 0.  0.
        -11    1    3    3    0    0  0.75622750569E+01 -0.65433949661E+01  0.30795038320E+02  0.32378054405E+02  0.51100000000E-03 0. -1.
         11    1    3    3    0    0 -0.75622750569E+01  0.65433949661E+01  0.31339246004E+02  0.32896084297E+02  0.51100000000E-03 0.  1.
<mgrwt>
<rscale>  0 0.20001097E+02</rscale>
<asrwt>0</asrwt>
<pdfrwt beam="2">  1        1 0.24152733E-03 0.20001097E+02</pdfrwt>
<pdfrwt beam="1">  1       -1 0.98006452E-02 0.20001097E+02</pdfrwt>
<totfact> 0.33996357E+06</totfact>
</mgrwt>
</event>
<event>
 5    1  0.9583198E-007  0.2000004E+02  0.7818608E-02  0.1745327E+00
         -1   -1    0    0    0  501 -0.00000000000E+00  0.00000000000E+00  0.22377508583E+01  0.22377557313E+01  0.46700000000E-02 0. -1.
          1   -1    0    0  501    0  0.00000000000E+00 -0.00000000000E+00 -0.44687839000E+02  0.44687839244E+02  0.46700000000E-02 0.  1.
       1023    2    1    2    0    0  0.00000000000E+00  0.00000000000E+00 -0.42450088142E+02  0.46925594975E+02  0.20000037014E+02 0.  0.
        -11    1    3    3    0    0  0.99227404156E+01 -0.12407554377E+01 -0.21250581112E+02  0.23485898946E+02  0.51100000000E-03 0.  1.
         11    1    3    3    0    0 -0.99227404156E+01  0.12407554377E+01 -0.21199507029E+02  0.23439696029E+02  0.51100000000E-03 0. -1.
<mgrwt>
<rscale>  0 0.20000037E+02</rscale>
<asrwt>0</asrwt>
<pdfrwt beam="2">  1        1 0.68750519E-02 0.20000037E+02</pdfrwt>
<pdfrwt beam="1">  1       -1 0.34426979E-03 0.20000037E+02</pdfrwt>
<totfact> 0.41398397E+06</totfact>
</mgrwt>
</event>
<event>
 5    1  0.9583198E-007  0.2000401E+02  0.7818608E-02  0.1745248E+00
          1   -1    0    0  501    0  0.00000000000E+00  0.00000000000E+00  0.11635900638E+01  0.11635994352E+01  0.46700000000E-02 0.  1.
         -1   -1    0    0    0  501 -0.00000000000E+00 -0.00000000000E+00 -0.85974999684E+02  0.85974999811E+02  0.46700000000E-02 0. -1.
       1023    2    1    2    0    0  0.00000000000E+00  0.00000000000E+00 -0.84811409621E+02  0.87138599246E+02  0.20004006519E+02 0.  0.
        -11    1    3    3    0    0 -0.98062452134E+01 -0.19691674708E+01 -0.42397883599E+02  0.43561687291E+02  0.51100000000E-03 0. -1.
         11    1    3    3    0    0  0.98062452134E+01  0.19691674708E+01 -0.42413526021E+02  0.43576911955E+02  0.51100000000E-03 0.  1.
<mgrwt>
<rscale>  0 0.20004007E+02</rscale>
<asrwt>0</asrwt>
<pdfrwt beam="1">  1        1 0.17901465E-03 0.20004007E+02</pdfrwt>
<pdfrwt beam="2">  1       -1 0.13226919E-01 0.20004007E+02</pdfrwt>
<totfact> 0.32631376E+06</totfact>
</mgrwt>
</event>
<event>
 5    1  0.9583198E-007  0.2000365E+02  0.7818608E-02  0.1745255E+00
          1   -1    0    0  501    0  0.00000000000E+00  0.00000000000E+00  0.83476190199E+01  0.83476203262E+01  0.46700000000E-02 0. -1.
         -1   -1    0    0    0  501 -0.00000000000E+00 -0.00000000000E+00 -0.11983834509E+02  0.11983835419E+02  0.46700000000E-02 0.  1.
       1023    2    1    2    0    0  0.00000000000E+00  0.00000000000E+00 -0.36362154890E+01  0.20331455745E+02  0.20003650408E+02 0.  0.
        -11    1    3    3    0    0 -0.97878601074E+01  0.20554166457E+01 -0.17187090292E+01  0.10147950732E+02  0.51100000000E-03 0.  1.
         11    1    3    3    0    0  0.97878601074E+01 -0.20554166457E+01 -0.19175064598E+01  0.10183505013E+02  0.51100000000E-03 0. -1.
<mgrwt>
<rscale>  0 0.20003650E+02</rscale>
<asrwt>0</asrwt>
<pdfrwt beam="1">  1        1 0.12842492E-02 0.20003650E+02</pdfrwt>
<pdfrwt beam="2">  1       -1 0.18436670E-02 0.20003650E+02</pdfrwt>
<totfact> 0.38322652E+06</totfact>
</mgrwt>
</event>
<event>
 5    1  0.9583198E-007  0.2000203E+02  0.7818608E-02  0.1745288E+00
         -1   -1    0    0    0  501 -0.00000000000E+00  0.00000000000E+00  0.42029524265E+02  0.42029524524E+02  0.46700000000E-02 0. -1.
          1   -1    0    0  501    0  0.00000000000E+00 -0.00000000000E+00 -0.23797608968E+01  0.23797654790E+01  0.46700000000E-02 0.  1.
       1023    2    1    2    0    0  0.00000000000E+00  0.00000000000E+00  0.39649763368E+02  0.44409290003E+02  0.20002032483E+02 0.  0.
        -11    1    3    3    0    0 -0.23364312286E+01 -0.97241733129E+01  0.19728919665E+02  0.22118967628E+02  0.51100000000E-03 0. -1.
         11    1    3    3    0    0  0.23364312286E+01  0.97241733129E+01  0.19920843703E+02  0.22290322375E+02  0.51100000000E-03 0.  1.
<mgrwt>
<rscale>  0 0.20002032E+02</rscale>
<asrwt>0</asrwt>
<pdfrwt beam="2">  1        1 0.36611742E-03 0.20002032E+02</pdfrwt>
<pdfrwt beam="1">  1       -1 0.64660812E-02 0.20002032E+02</pdfrwt>
<totfact> 0.35507497E+06</totfact>
</mgrwt>
</event>
<event>
 5    1  0.9583198E-007  0.2000235E+02  0.7818608E-02  0.1745281E+00
          1   -1    0    0  501    0  0.00000000000E+00  0.00000000000E+00  0.35947966782E+01  0.35947997116E+01  0.46700000000E-02 0.  1.
         -1   -1    0    0    0  501 -0.00000000000E+00 -0.00000000000E+00 -0.27824500905E+02  0.27824501297E+02  0.46700000000E-02 0. -1.
       1023    2    1    2    0    0  0.00000000000E+00  0.00000000000E+00 -0.24229704227E+02  0.31419301008E+02  0.20002347586E+02 0.  0.
        -11    1    3    3    0    0 -0.56912868949E+01 -0.82239120999E+01 -0.12114102570E+02  0.15709072477E+02  0.51100000000E-03 0. -1.
         11    1    3    3    0    0  0.56912868949E+01  0.82239120999E+01 -0.12115601657E+02  0.15710228531E+02  0.51100000000E-03 0.  1.
<mgrwt>
<rscale>  0 0.20002348E+02</rscale>
<asrwt>0</asrwt>
<pdfrwt beam="1">  1        1 0.55304592E-03 0.20002348E+02</pdfrwt>
<pdfrwt beam="2">  1       -1 0.42806926E-02 0.20002348E+02</pdfrwt>
<totfact> 0.36667560E+06</totfact>
</mgrwt>
</event>
<event>
 5    1  0.9583198E-007  0.2000413E+02  0.7818608E-02  0.1745246E+00
         -1   -1    0    0    0  501 -0.00000000000E+00  0.00000000000E+00  0.22944502832E+01  0.22944550358E+01  0.46700000000E-02 0.  1.
          1   -1    0    0  501    0  0.00000000000E+00 -0.00000000000E+00 -0.43601354491E+02  0.43601354741E+02  0.46700000000E-02 0. -1.
       1023    2    1    2    0    0  0.00000000000E+00  0.00000000000E+00 -0.41306904207E+02  0.45895809777E+02  0.20004125071E+02 0.  0.
        -11    1    3    3    0    0 -0.77444964179E+01 -0.63293067993E+01 -0.20510073384E+02  0.22818861931E+02  0.51100000000E-03 0. -1.
         11    1    3    3    0    0  0.77444964179E+01  0.63293067993E+01 -0.20796830823E+02  0.23076947846E+02  0.51100000000E-03 0.  1.
<mgrwt>
<rscale>  0 0.20004125E+02</rscale>
<asrwt>0</asrwt>
<pdfrwt beam="2">  1        1 0.67079005E-02 0.20004125E+02</pdfrwt>
<pdfrwt beam="1">  1       -1 0.35299277E-03 0.20004125E+02</pdfrwt>
<totfact> 0.41313635E+06</totfact>
</mgrwt>
</event>
<event>
 4    1  0.9583198E-007  0.2001938E+02  0.7818608E-02  0.1744943E+00
          1   -1    0    0  501    0  0.00000000000E+00  0.00000000000E+00  0.27777724864E+02  0.27777725256E+02  0.46700000000E-02 0.  1.
         -1   -1    0    0    0  501 -0.00000000000E+00 -0.00000000000E+00 -0.36069850262E+01  0.36069880493E+01  0.46700000000E-02 0. -1.
        -11    1    1    2    0    0  0.87617832453E+01 -0.48399426319E+01  0.12084089777E+02  0.15691370759E+02  0.51100000000E-03 0. -1.
         11    1    1    2    0    0 -0.87617832453E+01  0.48399426319E+01  0.12086650061E+02  0.15693342546E+02  0.51100000000E-03 0.  1.
<mgrwt>
<rscale>  0 0.20019380E+02</rscale>
<asrwt>0</asrwt>
<pdfrwt beam="1">  1        1 0.42734964E-02 0.20019380E+02</pdfrwt>
<pdfrwt beam="2">  1       -1 0.55492103E-03 0.20019380E+02</pdfrwt>
<totfact> 0.40214163E+06</totfact>
</mgrwt>
</event>
<event>
 5    1  0.9764734E-007  0.2000169E+02  0.7818608E-02  0.1745294E+00
          1   -1    0    0  501    0  0.00000000000E+00  0.00000000000E+00  0.47326976696E+02  0.47326976927E+02  0.46700000000E-02 0. -1.
         -1   -1    0    0    0  501 -0.00000000000E+00 -0.00000000000E+00 -0.21133143080E+01  0.21133194679E+01  0.46700000000E-02 0.  1.
       1023    2    1    2    0    0  0.00000000000E+00  0.00000000000E+00  0.45213662388E+02  0.49440296394E+02  0.20001690954E+02 0.  0.
        -11    1    3    3    0    0 -0.85399253160E+01  0.52043084776E+01  0.22503166672E+02  0.24625345920E+02  0.51100000000E-03 0. -1.
         11    1    3    3    0    0  0.85399253160E+01 -0.52043084776E+01  0.22710495716E+02  0.24814950475E+02  0.51100000000E-03 0.  1.
<mgrwt>
<rscale>  0 0.20001691E+02</rscale>
<asrwt>0</asrwt>
<pdfrwt beam="1">  1        1 0.72810741E-02 0.20001691E+02</pdfrwt>
<pdfrwt beam="2">  1       -1 0.32512568E-03 0.20001691E+02</pdfrwt>
<totfact> 0.41549123E+06</totfact>
</mgrwt>
</event>
<event>
 5    1  0.9641988E-007  0.2000081E+02  0.7818608E-02  0.1745312E+00
          1   -1    0    0  501    0  0.00000000000E+00  0.00000000000E+00  0.70386508080E+01  0.70386523572E+01  0.46700000000E-02 0.  1.
         -1   -1    0    0    0  501 -0.00000000000E+00 -0.00000000000E+00 -0.14208414380E+02  0.14208415147E+02  0.46700000000E-02 0. -1.
       1023    2    1    2    0    0  0.00000000000E+00  0.00000000000E+00 -0.71697635715E+01  0.21247067504E+02  0.20000809180E+02 0.  0.
        -11    1    3    3    0    0  0.44615480232E+01  0.89496146357E+01 -0.34955035854E+01  0.10593373328E+02  0.51100000000E-03 0. -1.
         11    1    3    3    0    0 -0.44615480232E+01 -0.89496146357E+01 -0.36742599861E+01  0.10653694176E+02  0.51100000000E-03 0.  1.
<mgrwt>
<rscale>  0 0.20000809E+02</rscale>
<asrwt>0</asrwt>
<pdfrwt beam="1">  1        1 0.10828695E-02 0.20000809E+02</pdfrwt>
<pdfrwt beam="2">  1       -1 0.21859101E-02 0.20000809E+02</pdfrwt>
<totfact> 0.38050822E+06</totfact>
</mgrwt>
</event>
<event>
 5    1  0.9773118E-007  0.2000116E+02  0.7818608E-02  0.1745305E+00
         -1   -1    0    0    0  501 -0.00000000000E+00  0.00000000000E+00  0.84609315103E+01  0.84609327991E+01  0.46700000000E-02 0.  1.
          1   -1    0    0  501    0  0.00000000000E+00 -0.00000000000E+00 -0.11820403763E+02  0.11820404685E+02  0.46700000000E-02 0. -1.
       1023    2    1    2    0    0  0.00000000000E+00  0.00000000000E+00 -0.33594722525E+01  0.20281337484E+02  0.20001164875E+02 0.  0.
        -11    1    3    3    0    0  0.16357471426E+01 -0.98654541714E+01 -0.17748266006E+01  0.10156419864E+02  0.51100000000E-03 0.  1.
         11    1    3    3    0    0 -0.16357471426E+01  0.98654541714E+01 -0.15846456519E+01  0.10124917621E+02  0.51100000000E-03 0. -1.
<mgrwt>
<rscale>  0 0.20001165E+02</rscale>
<asrwt>0</asrwt>
<pdfrwt beam="2">  1        1 0.18185238E-02 0.20001165E+02</pdfrwt>
<pdfrwt beam="1">  1       -1 0.13016819E-02 0.20001165E+02</pdfrwt>
<totfact> 0.38875360E+06</totfact>
</mgrwt>
</event>
<event>
 5    1  0.1002534E-006  0.2000116E+02  0.7818608E-02  0.1745305E+00
          1   -1    0    0  501    0  0.00000000000E+00  0.00000000000E+00  0.57181584219E+02  0.57181584410E+02  0.46700000000E-02 0. -1.
         -1   -1    0    0    0  501 -0.00000000000E+00 -0.00000000000E+00 -0.17490143324E+01  0.17490205670E+01  0.46700000000E-02 0.  1.
       1023    2    1    2    0    0  0.00000000000E+00  0.00000000000E+00  0.55432569887E+02  0.58930604977E+02  0.20001159933E+02 0.  0.
        -11    1    3    3    0    0 -0.66239725279E+01 -0.74915991885E+01  0.27413956914E+02  0.29180920212E+02  0.51100000000E-03 0. -1.
         11    1    3    3    0    0  0.66239725279E+01  0.74915991885E+01  0.28018612973E+02  0.29749684765E+02  0.51100000000E-03 0.  1.
<mgrwt>
<rscale>  0 0.20001160E+02</rscale>
<asrwt>0</asrwt>
<pdfrwt beam="1">  1        1 0.87971662E-02 0.20001160E+02</pdfrwt>
<pdfrwt beam="2">  1       -1 0.26907966E-03 0.20001160E+02</pdfrwt>
<totfact> 0.42122701E+06</totfact>
</mgrwt>
</event>
<event>
 4    1  0.9583198E-007  0.2004892E+02  0.7818608E-02  0.1744357E+00
          1   -1    0    0  501    0  0.00000000000E+00  0.00000000000E+00  0.10633712959E+01  0.10633815504E+01  0.46700000000E-02 0. -1.
         -1   -1    0    0    0  501 -0.00000000000E+00 -0.00000000000E+00 -0.94500661824E+02  0.94500661940E+02  0.46700000000E-02 0.  1.
        -11    1    1    2    0    0 -0.51111039711E+01 -0.86105810206E+01 -0.48976081203E+02  0.49989219033E+02  0.51100000000E-03 0. -1.
         11    1    1    2    0    0  0.51111039711E+01  0.86105810206E+01 -0.44461209325E+02  0.45574824457E+02  0.51100000000E-03 0.  1.
<mgrwt>
<rscale>  0 0.20048919E+02</rscale>
<asrwt>0</asrwt>
<pdfrwt beam="1">  1        1 0.16359646E-03 0.20048919E+02</pdfrwt>
<pdfrwt beam="2">  1       -1 0.14538557E-01 0.20048919E+02</pdfrwt>
<totfact> 0.31995038E+06</totfact>
</mgrwt>
</event>
<event>
 5    1  0.9583198E-007  0.2000074E+02  0.7818608E-02  0.1745313E+00
          1   -1    0    0  501    0  0.00000000000E+00  0.00000000000E+00  0.10319067233E+02  0.10319068290E+02  0.46700000000E-02 0.  1.
         -1   -1    0    0    0  501 -0.00000000000E+00 -0.00000000000E+00 -0.96915160792E+01  0.96915172044E+01  0.46700000000E-02 0. -1.
       1023    2    1    2    0    0  0.00000000000E+00  0.00000000000E+00  0.62755115418E+00  0.20010585494E+02  0.20000742771E+02 0.  0.
        -11    1    3    3    0    0  0.84745564114E+01  0.53092978906E+01  0.28774117338E+00  0.10004476283E+02  0.51100000000E-03 0.  1.
         11    1    3    3    0    0 -0.84745564114E+01 -0.53092978906E+01  0.33980998080E+00  0.10006109211E+02  0.51100000000E-03 0. -1.
<mgrwt>
<rscale>  0 0.20000743E+02</rscale>
<asrwt>0</asrwt>
<pdfrwt beam="1">  1        1 0.15875490E-02 0.20000743E+02</pdfrwt>
<pdfrwt beam="2">  1       -1 0.14910027E-02 0.20000743E+02</pdfrwt>
<totfact> 0.38669263E+06</totfact>
</mgrwt>
</event>
<event>
 5    1  0.9583198E-007  0.2000017E+02  0.7818608E-02  0.1745325E+00
         -1   -1    0    0    0  501 -0.00000000000E+00  0.00000000000E+00  0.29569953740E+02  0.29569954109E+02  0.46700000000E-02 0. -1.
          1   -1    0    0  501    0  0.00000000000E+00 -0.00000000000E+00 -0.33818674284E+01  0.33818706527E+01  0.46700000000E-02 0.  1.
       1023    2    1    2    0    0  0.00000000000E+00  0.00000000000E+00  0.26188086312E+02  0.32951824761E+02  0.20000172260E+02 0.  0.
        -11    1    3    3    0    0 -0.24879998039E+01  0.96855917383E+01  0.13044835864E+02  0.16436805447E+02  0.51100000000E-03 0.  1.
         11    1    3    3    0    0  0.24879998039E+01 -0.96855917383E+01  0.13143250448E+02  0.16515019314E+02  0.51100000000E-03 0. -1.
<mgrwt>
<rscale>  0 0.20000172E+02</rscale>
<asrwt>0</asrwt>
<pdfrwt beam="2">  1        1 0.52028755E-03 0.20000172E+02</pdfrwt>
<pdfrwt beam="1">  1       -1 0.45492242E-02 0.20000172E+02</pdfrwt>
<totfact> 0.36523040E+06</totfact>
</mgrwt>
</event>
<event>
 5    1  0.9583198E-007  0.2000088E+02  0.7818608E-02  0.1745311E+00
          1   -1    0    0  501    0  0.00000000000E+00  0.00000000000E+00  0.11936247187E+01  0.11936338543E+01  0.46700000000E-02 0. -1.
         -1   -1    0    0    0  501 -0.00000000000E+00 -0.00000000000E+00 -0.83785452487E+02  0.83785452618E+02  0.46700000000E-02 0.  1.
       1023    2    1    2    0    0  0.00000000000E+00  0.00000000000E+00 -0.82591827769E+02  0.84979086472E+02  0.20000878066E+02 0.  0.
        -11    1    3    3    0    0  0.70201105854E+01 -0.71220394867E+01 -0.41542982952E+02  0.42729671563E+02  0.51100000000E-03 0. -1.
         11    1    3    3    0    0 -0.70201105854E+01  0.71220394867E+01 -0.41048844817E+02  0.42249414909E+02  0.51100000000E-03 0.  1.
<mgrwt>
<rscale>  0 0.20000878E+02</rscale>
<asrwt>0</asrwt>
<pdfrwt beam="1">  1        1 0.18363535E-03 0.20000878E+02</pdfrwt>
<pdfrwt beam="2">  1       -1 0.12890066E-01 0.20000878E+02</pdfrwt>
<totfact> 0.32768787E+06</totfact>
</mgrwt>
</event>
<event>
 5    1  0.9659389E-007  0.2000182E+02  0.7818608E-02  0.1745292E+00
         -1   -1    0    0    0  501 -0.00000000000E+00  0.00000000000E+00  0.18452396861E+01  0.18452455955E+01  0.46700000000E-02 0.  1.
          1   -1    0    0  501    0  0.00000000000E+00 -0.00000000000E+00 -0.54203298716E+02  0.54203298917E+02  0.46700000000E-02 0. -1.
       1023    2    1    2    0    0  0.00000000000E+00  0.00000000000E+00 -0.52358059030E+02  0.56048544513E+02  0.20001824832E+02 0.  0.
        -11    1    3    3    0    0  0.34803371103E+01 -0.93757883911E+01 -0.26206274773E+02  0.28049723566E+02  0.51100000000E-03 0.  1.
         11    1    3    3    0    0 -0.34803371103E+01  0.93757883911E+01 -0.26151784257E+02  0.27998820947E+02  0.51100000000E-03 0. -1.
<mgrwt>
<rscale>  0 0.20001825E+02</rscale>
<asrwt>0</asrwt>
<pdfrwt beam="2">  1        1 0.83389683E-02 0.20001825E+02</pdfrwt>
<pdfrwt beam="1">  1       -1 0.28388354E-03 0.20001825E+02</pdfrwt>
<totfact> 0.41950030E+06</totfact>
</mgrwt>
</event>
<event>
 5    1  0.9745554E-007  0.2000082E+02  0.7818608E-02  0.1745312E+00
         -1   -1    0    0    0  501 -0.00000000000E+00  0.00000000000E+00  0.17826871255E+01  0.17826932424E+01  0.46700000000E-02 0. -1.
          1   -1    0    0  501    0  0.00000000000E+00 -0.00000000000E+00 -0.56099615574E+02  0.56099615768E+02  0.46700000000E-02 0.  1.
       1023    2    1    2    0    0  0.00000000000E+00  0.00000000000E+00 -0.54316928448E+02  0.57882309011E+02  0.20000824491E+02 0.  0.
        -11    1    3    3    0    0 -0.42216955286E+01 -0.90656166483E+01 -0.27191010269E+02  0.28971695809E+02  0.51100000000E-03 0.  1.
         11    1    3    3    0    0  0.42216955286E+01  0.90656166483E+01 -0.27125918179E+02  0.28910613201E+02  0.51100000000E-03 0. -1.
<mgrwt>
<rscale>  0 0.20000824E+02</rscale>
<asrwt>0</asrwt>
<pdfrwt beam="2">  1        1 0.86307092E-02 0.20000824E+02</pdfrwt>
<pdfrwt beam="1">  1       -1 0.27426009E-03 0.20000824E+02</pdfrwt>
<totfact> 0.42062942E+06</totfact>
</mgrwt>
</event>
<event>
 5    1  0.9583198E-007  0.2000161E+02  0.7818608E-02  0.1745296E+00
          1   -1    0    0  501    0  0.00000000000E+00  0.00000000000E+00  0.11387896517E+01  0.11387992271E+01  0.46700000000E-02 0. -1.
         -1   -1    0    0    0  501 -0.00000000000E+00 -0.00000000000E+00 -0.87826320558E+02  0.87826320682E+02  0.46700000000E-02 0.  1.
       1023    2    1    2    0    0  0.00000000000E+00  0.00000000000E+00 -0.86687530906E+02  0.88965119909E+02  0.20001613581E+02 0.  0.
        -11    1    3    3    0    0 -0.34601648239E+01 -0.93829781646E+01 -0.43592066226E+02  0.44724503999E+02  0.51100000000E-03 0.  1.
         11    1    3    3    0    0  0.34601648239E+01  0.93829781646E+01 -0.43095464680E+02  0.44240615910E+02  0.51100000000E-03 0. -1.
<mgrwt>
<rscale>  0 0.20001614E+02</rscale>
<asrwt>0</asrwt>
<pdfrwt beam="1">  1        1 0.17519922E-03 0.20001614E+02</pdfrwt>
<pdfrwt beam="2">  1       -1 0.13511737E-01 0.20001614E+02</pdfrwt>
<totfact> 0.32534282E+06</totfact>
</mgrwt>
</event>
<event>
 5    1  0.9583198E-007  0.2000028E+02  0.7818608E-02  0.1745323E+00
         -1   -1    0    0    0  501 -0.00000000000E+00  0.00000000000E+00  0.10721902852E+02  0.10721903869E+02  0.46700000000E-02 0. -1.
          1   -1    0    0  501    0  0.00000000000E+00 -0.00000000000E+00 -0.93269588664E+01  0.93269600356E+01  0.46700000000E-02 0.  1.
       1023    2    1    2    0    0  0.00000000000E+00  0.00000000000E+00  0.13949439856E+01  0.20048863905E+02  0.20000276877E+02 0.  0.
        -11    1    3    3    0    0 -0.99099713974E+01 -0.13398195602E+01  0.68653799417E+00  0.10023671195E+02  0.51100000000E-03 0. -1.
         11    1    3    3    0    0  0.99099713974E+01  0.13398195602E+01  0.70840599143E+00  0.10025192709E+02  0.51100000000E-03 0.  1.
<mgrwt>
<rscale>  0 0.20000277E+02</rscale>
<asrwt>0</asrwt>
<pdfrwt beam="2">  1        1 0.14349169E-02 0.20000277E+02</pdfrwt>
<pdfrwt beam="1">  1       -1 0.16495237E-02 0.20000277E+02</pdfrwt>
<totfact> 0.38514099E+06</totfact>
</mgrwt>
</event>
<event>
 5    1  0.9583198E-007  0.2000034E+02  0.7818608E-02  0.1745321E+00
         -1   -1    0    0    0  501 -0.00000000000E+00  0.00000000000E+00  0.10552489903E+01  0.10552593238E+01  0.46700000000E-02 0.  1.
          1   -1    0    0  501    0  0.00000000000E+00 -0.00000000000E+00 -0.94767103715E+02  0.94767103830E+02  0.46700000000E-02 0. -1.
       1023    2    1    2    0    0  0.00000000000E+00  0.00000000000E+00 -0.93711854725E+02  0.95822363154E+02  0.20000339108E+02 0.  0.
        -11    1    3    3    0    0  0.95414808983E+01  0.29934040441E+01 -0.46590668966E+02  0.47651765555E+02  0.51100000000E-03 0. -1.
         11    1    3    3    0    0 -0.95414808983E+01 -0.29934040441E+01 -0.47121185758E+02  0.48170597599E+02  0.51100000000E-03 0.  1.
<mgrwt>
<rscale>  0 0.20000339E+02</rscale>
<asrwt>0</asrwt>
<pdfrwt beam="2">  1        1 0.14579549E-01 0.20000339E+02</pdfrwt>
<pdfrwt beam="1">  1       -1 0.16234688E-03 0.20000339E+02</pdfrwt>
<totfact> 0.44103086E+06</totfact>
</mgrwt>
</event>
<event>
 5    1  0.9583198E-007  0.2001172E+02  0.7818608E-02  0.1745095E+00
         -1   -1    0    0    0  501 -0.00000000000E+00  0.00000000000E+00  0.41022920328E+01  0.41022946910E+01  0.46700000000E-02 0. -1.
          1   -1    0    0  501    0  0.00000000000E+00 -0.00000000000E+00 -0.24405177569E+02  0.24405178016E+02  0.46700000000E-02 0.  1.
       1023    2    1    2    0    0  0.00000000000E+00  0.00000000000E+00 -0.20302885536E+02  0.28507472707E+02  0.20011717543E+02 0.  0.
        -11    1    3    3    0    0  0.99995320649E+01  0.27263871809E+00 -0.10477024299E+02  0.14485613961E+02  0.51100000000E-03 0. -1.
         11    1    3    3    0    0 -0.99995320649E+01 -0.27263871809E+00 -0.98258612372E+01  0.14021858746E+02  0.51100000000E-03 0.  1.
<mgrwt>
<rscale>  0 0.20011718E+02</rscale>
<asrwt>0</asrwt>
<pdfrwt beam="2">  1        1 0.37546428E-02 0.20011718E+02</pdfrwt>
<pdfrwt beam="1">  1       -1 0.63112211E-03 0.20011718E+02</pdfrwt>
<totfact> 0.40002308E+06</totfact>
</mgrwt>
</event>
<event>
 5    1  0.9583198E-007  0.2000340E+02  0.7818608E-02  0.1745261E+00
         -1   -1    0    0    0  501 -0.00000000000E+00  0.00000000000E+00  0.31489617860E+02  0.31489618206E+02  0.46700000000E-02 0.  1.
          1   -1    0    0  501    0  0.00000000000E+00 -0.00000000000E+00 -0.31767262835E+01  0.31767297161E+01  0.46700000000E-02 0. -1.
       1023    2    1    2    0    0  0.00000000000E+00  0.00000000000E+00  0.28312891576E+02  0.34666347922E+02  0.20003395933E+02 0.  0.
        -11    1    3    3    0    0  0.85931411248E+01  0.51169860645E+01  0.14314722876E+02  0.17462442901E+02  0.51100000000E-03 0.  1.
         11    1    3    3    0    0 -0.85931411248E+01 -0.51169860645E+01  0.13998168700E+02  0.17203905022E+02  0.51100000000E-03 0. -1.
<mgrwt>
<rscale>  0 0.20003396E+02</rscale>
<asrwt>0</asrwt>
<pdfrwt beam="2">  1        1 0.48872742E-03 0.20003396E+02</pdfrwt>
<pdfrwt beam="1">  1       -1 0.48445567E-02 0.20003396E+02</pdfrwt>
<totfact> 0.36345531E+06</totfact>
</mgrwt>
</event>
<event>
 5    1  0.1011312E-006  0.2000024E+02  0.7818608E-02  0.1745323E+00
         -1   -1    0    0    0  501 -0.00000000000E+00  0.00000000000E+00  0.39842047098E+02  0.39842047372E+02  0.46700000000E-02 0. -1.
          1   -1    0    0  501    0  0.00000000000E+00 -0.00000000000E+00 -0.25099700995E+01  0.25099744440E+01  0.46700000000E-02 0.  1.
       1023    2    1    2    0    0  0.00000000000E+00  0.00000000000E+00  0.37332076998E+02  0.42352021815E+02  0.20000244470E+02 0.  0.
        -11    1    3    3    0    0 -0.99842569411E+01  0.56262350545E+00  0.18618096223E+02  0.21133751184E+02  0.51100000000E-03 0. -1.
         11    1    3    3    0    0  0.99842569411E+01 -0.56262350545E+00  0.18713980776E+02  0.21218270632E+02  0.51100000000E-03 0.  1.
<mgrwt>
<rscale>  0 0.20000244E+02</rscale>
<asrwt>0</asrwt>
<pdfrwt beam="2">  1        1 0.38614966E-03 0.20000244E+02</pdfrwt>
<pdfrwt beam="1">  1       -1 0.61295452E-02 0.20000244E+02</pdfrwt>
<totfact> 0.35682432E+06</totfact>
</mgrwt>
</event>
<event>
 5    1  0.9583198E-007  0.2000225E+02  0.7818608E-02  0.1745283E+00
          1   -1    0    0  501    0  0.00000000000E+00  0.00000000000E+00  0.18534689753E+01  0.18534748586E+01  0.46700000000E-02 0. -1.
         -1   -1    0    0    0  501 -0.00000000000E+00 -0.00000000000E+00 -0.53964934667E+02  0.53964934870E+02  0.46700000000E-02 0.  1.
       1023    2    1    2    0    0  0.00000000000E+00  0.00000000000E+00 -0.52111465692E+02  0.55818409728E+02  0.20002250073E+02 0.  0.
        -11    1    3    3    0    0 -0.21756751375E+01 -0.97615870480E+01 -0.26002951401E+02  0.27859928676E+02  0.51100000000E-03 0.  1.
         11    1    3    3    0    0  0.21756751375E+01  0.97615870480E+01 -0.26108514291E+02  0.27958481052E+02  0.51100000000E-03 0. -1.
<mgrwt>
<rscale>  0 0.20002250E+02</rscale>
<asrwt>0</asrwt>
<pdfrwt beam="1">  1        1 0.28514958E-03 0.20002250E+02</pdfrwt>
<pdfrwt beam="2">  1       -1 0.83022969E-02 0.20002250E+02</pdfrwt>
<totfact> 0.34643041E+06</totfact>
</mgrwt>
</event>
<event>
 5    1  0.9583198E-007  0.2000253E+02  0.7818608E-02  0.1745278E+00
          1   -1    0    0  501    0  0.00000000000E+00  0.00000000000E+00  0.48954651556E+01  0.48954673830E+01  0.46700000000E-02 0.  1.
         -1   -1    0    0    0  501 -0.00000000000E+00 -0.00000000000E+00 -0.20432237904E+02  0.20432238438E+02  0.46700000000E-02 0. -1.
       1023    2    1    2    0    0  0.00000000000E+00  0.00000000000E+00 -0.15536772749E+02  0.25327705821E+02  0.20002534207E+02 0.  0.
        -11    1    3    3    0    0 -0.71925803062E+01 -0.69487202387E+01 -0.78774508908E+01  0.12730756349E+02  0.51100000000E-03 0.  1.
         11    1    3    3    0    0  0.71925803062E+01  0.69487202387E+01 -0.76593218578E+01  0.12596949472E+02  0.51100000000E-03 0. -1.
<mgrwt>
<rscale>  0 0.20002534E+02</rscale>
<asrwt>0</asrwt>
<pdfrwt beam="1">  1        1 0.75314871E-03 0.20002534E+02</pdfrwt>
<pdfrwt beam="2">  1       -1 0.31434214E-02 0.20002534E+02</pdfrwt>
<totfact> 0.37362606E+06</totfact>
</mgrwt>
</event>
<event>
 5    1  0.9583198E-007  0.2000021E+02  0.7818608E-02  0.1745324E+00
          1   -1    0    0  501    0  0.00000000000E+00  0.00000000000E+00  0.60854607115E+02  0.60854607295E+02  0.46700000000E-02 0.  1.
         -1   -1    0    0    0  501 -0.00000000000E+00 -0.00000000000E+00 -0.16432925407E+01  0.16432991764E+01  0.46700000000E-02 0. -1.
       1023    2    1    2    0    0  0.00000000000E+00  0.00000000000E+00  0.59211314575E+02  0.62497906471E+02  0.20000213489E+02 0.  0.
        -11    1    3    3    0    0  0.94557735276E+01  0.32542237584E+01  0.29676182650E+02  0.31315769864E+02  0.51100000000E-03 0. -1.
         11    1    3    3    0    0 -0.94557735276E+01 -0.32542237584E+01  0.29535131925E+02  0.31182136607E+02  0.51100000000E-03 0.  1.
<mgrwt>
<rscale>  0 0.20000213E+02</rscale>
<asrwt>0</asrwt>
<pdfrwt beam="1">  1        1 0.93622479E-02 0.20000213E+02</pdfrwt>
<pdfrwt beam="2">  1       -1 0.25281476E-03 0.20000213E+02</pdfrwt>
<totfact> 0.42333298E+06</totfact>
</mgrwt>
</event>
<event>
 5    1  0.9583198E-007  0.2000021E+02  0.7818608E-02  0.1745324E+00
          1   -1    0    0  501    0  0.00000000000E+00  0.00000000000E+00  0.13622857579E+02  0.13622858380E+02  0.46700000000E-02 0.  1.
         -1   -1    0    0    0  501 -0.00000000000E+00 -0.00000000000E+00 -0.73407530825E+01  0.73407545679E+01  0.46700000000E-02 0. -1.
       1023    2    1    2    0    0  0.00000000000E+00  0.00000000000E+00  0.62821044968E+01  0.20963612948E+02  0.20000205772E+02 0.  0.
        -11    1    3    3    0    0 -0.81196888419E+01 -0.58371574270E+01  0.31227842949E+01  0.10476332170E+02  0.51100000000E-03 0. -1.
         11    1    3    3    0    0  0.81196888419E+01  0.58371574270E+01  0.31593202019E+01  0.10487280778E+02  0.51100000000E-03 0.  1.
<mgrwt>
<rscale>  0 0.20000206E+02</rscale>
<asrwt>0</asrwt>
<pdfrwt beam="1">  1        1 0.20958244E-02 0.20000206E+02</pdfrwt>
<pdfrwt beam="2">  1       -1 0.11293468E-02 0.20000206E+02</pdfrwt>
<totfact> 0.39095827E+06</totfact>
</mgrwt>
</event>
<event>
 5    1  0.9583198E-007  0.2000577E+02  0.7818608E-02  0.1745213E+00
          1   -1    0    0  501    0  0.00000000000E+00  0.00000000000E+00  0.14660924345E+01  0.14660998722E+01  0.46700000000E-02 0. -1.
         -1   -1    0    0    0  501 -0.00000000000E+00 -0.00000000000E+00 -0.68247734588E+02  0.68247734748E+02  0.46700000000E-02 0.  1.
       1023    2    1    2    0    0  0.00000000000E+00  0.00000000000E+00 -0.66781642153E+02  0.69713834620E+02  0.20005774384E+02 0.  0.
        -11    1    3    3    0    0  0.81486482298E+01 -0.58003062878E+01 -0.33799152955E+02  0.35248074582E+02  0.51100000000E-03 0. -1.
         11    1    3    3    0    0 -0.81486482298E+01  0.58003062878E+01 -0.32982489198E+02  0.34465760038E+02  0.51100000000E-03 0.  1.
<mgrwt>
<rscale>  0 0.20005774E+02</rscale>
<asrwt>0</asrwt>
<pdfrwt beam="1">  1        1 0.22555332E-03 0.20005774E+02</pdfrwt>
<pdfrwt beam="2">  1       -1 0.10499650E-01 0.20005774E+02</pdfrwt>
<totfact> 0.33688912E+06</totfact>
</mgrwt>
</event>
<event>
 5    1  0.9583198E-007  0.2000053E+02  0.7818608E-02  0.1745318E+00
         -1   -1    0    0    0  501 -0.00000000000E+00  0.00000000000E+00  0.38829284200E+02  0.38829284481E+02  0.46700000000E-02 0.  1.
          1   -1    0    0  501    0  0.00000000000E+00 -0.00000000000E+00 -0.25755094563E+01  0.25755136902E+01  0.46700000000E-02 0. -1.
       1023    2    1    2    0    0  0.00000000000E+00  0.00000000000E+00  0.36253774744E+02  0.41404798171E+02  0.20000528203E+02 0.  0.
        -11    1    3    3    0    0 -0.95998825278E+01 -0.28010745217E+01  0.18207566667E+02  0.20773041357E+02  0.51100000000E-03 0. -1.
         11    1    3    3    0    0  0.95998825278E+01  0.28010745217E+01  0.18046208078E+02  0.20631756815E+02  0.51100000000E-03 0.  1.
<mgrwt>
<rscale>  0 0.20000528E+02</rscale>
<asrwt>0</asrwt>
<pdfrwt beam="2">  1        1 0.39623259E-03 0.20000528E+02</pdfrwt>
<pdfrwt beam="1">  1       -1 0.59737361E-02 0.20000528E+02</pdfrwt>
<totfact> 0.35760171E+06</totfact>
</mgrwt>
</event>
<event>
 5    1  0.9583198E-007  0.2000091E+02  0.7818608E-02  0.1745310E+00
         -1   -1    0    0    0  501 -0.00000000000E+00  0.00000000000E+00  0.11862777666E+03  0.11862777675E+03  0.46700000000E-02 0. -1.
          1   -1    0    0  501    0  0.00000000000E+00 -0.00000000000E+00 -0.84304340980E+00  0.84305634433E+00  0.46700000000E-02 0.  1.
       1023    2    1    2    0    0  0.00000000000E+00  0.00000000000E+00  0.11778473325E+03  0.11947083310E+03  0.20000914326E+02 0.  0.
        -11    1    3    3    0    0 -0.55912753780E+01  0.82912179325E+01  0.58594417539E+02  0.59441672437E+02  0.51100000000E-03 0.  1.
         11    1    3    3    0    0  0.55912753780E+01 -0.82912179325E+01  0.59190315711E+02  0.60029160659E+02  0.51100000000E-03 0. -1.
<mgrwt>
<rscale>  0 0.20000914E+02</rscale>
<asrwt>0</asrwt>
<pdfrwt beam="2">  1        1 0.12969990E-03 0.20000914E+02</pdfrwt>
<pdfrwt beam="1">  1       -1 0.18250440E-01 0.20000914E+02</pdfrwt>
<totfact> 0.30901559E+06</totfact>
</mgrwt>
</event>
<event>
 5    1  0.9583198E-007  0.2000054E+02  0.7818608E-02  0.1745317E+00
         -1   -1    0    0    0  501 -0.00000000000E+00  0.00000000000E+00  0.20744347302E+01  0.20744399868E+01  0.46700000000E-02 0.  1.
          1   -1    0    0  501    0  0.00000000000E+00 -0.00000000000E+00 -0.48208448841E+02  0.48208449067E+02  0.46700000000E-02 0. -1.
       1023    2    1    2    0    0  0.00000000000E+00  0.00000000000E+00 -0.46134014111E+02  0.50282889054E+02  0.20000541834E+02 0.  0.
        -11    1    3    3    0    0 -0.67632975162E+01 -0.73661080866E+01 -0.22914567900E+02  0.25001583229E+02  0.51100000000E-03 0. -1.
         11    1    3    3    0    0  0.67632975162E+01  0.73661080866E+01 -0.23219446211E+02  0.25281305825E+02  0.51100000000E-03 0.  1.
<mgrwt>
<rscale>  0 0.20000542E+02</rscale>
<asrwt>0</asrwt>
<pdfrwt beam="2">  1        1 0.74166840E-02 0.20000542E+02</pdfrwt>
<pdfrwt beam="1">  1       -1 0.31914426E-03 0.20000542E+02</pdfrwt>
<totfact> 0.41606764E+06</totfact>
</mgrwt>
</event>
<event>
 4    1  0.9583198E-007  0.2002188E+02  0.7818608E-02  0.1744893E+00
          1   -1    0    0  501    0  0.00000000000E+00  0.00000000000E+00  0.14692891545E+02  0.14692892287E+02  0.46700000000E-02 0. -1.
         -1   -1    0    0    0  501 -0.00000000000E+00 -0.00000000000E+00 -0.68209122406E+01  0.68209138392E+01  0.46700000000E-02 0.  1.
        -11    1    1    2    0    0 -0.11894885362E+01  0.99367962401E+01  0.36638462248E+01  0.10657324801E+02  0.51100000000E-03 0. -1.
         11    1    1    2    0    0  0.11894885362E+01 -0.99367962401E+01  0.42081330799E+01  0.10856481326E+02  0.51100000000E-03 0.  1.
<mgrwt>
<rscale>  0 0.20021883E+02</rscale>
<asrwt>0</asrwt>
<pdfrwt beam="1">  1        1 0.22604450E-02 0.20021883E+02</pdfrwt>
<pdfrwt beam="2">  1       -1 0.10493713E-02 0.20021883E+02</pdfrwt>
<totfact> 0.39116276E+06</totfact>
</mgrwt>
</event>
<event>
 5    1  0.1039158E-006  0.2000101E+02  0.7818608E-02  0.1745308E+00
          1   -1    0    0  501    0  0.00000000000E+00  0.00000000000E+00  0.92704789729E+02  0.92704789846E+02  0.46700000000E-02 0.  1.
         -1   -1    0    0    0  501 -0.00000000000E+00 -0.00000000000E+00 -0.10787969993E+01  0.10788071072E+01  0.46700000000E-02 0. -1.
       1023    2    1    2    0    0  0.00000000000E+00  0.00000000000E+00  0.91625992730E+02  0.93783596954E+02  0.20001012822E+02 0.  0.
        -11    1    3    3    0    0 -0.22122429758E+00 -0.99979208497E+01  0.45566360363E+02  0.46650836632E+02  0.51100000000E-03 0. -1.
         11    1    3    3    0    0  0.22122429758E+00  0.99979208497E+01  0.46059632366E+02  0.47132760321E+02  0.51100000000E-03 0.  1.
<mgrwt>
<rscale>  0 0.20001013E+02</rscale>
<asrwt>0</asrwt>
<pdfrwt beam="1">  1        1 0.14262284E-01 0.20001013E+02</pdfrwt>
<pdfrwt beam="2">  1       -1 0.16596946E-03 0.20001013E+02</pdfrwt>
<totfact> 0.43997784E+06</totfact>
</mgrwt>
</event>
<event>
 5    1  0.9810800E-007  0.2000119E+02  0.7818608E-02  0.1745304E+00
          1   -1    0    0  501    0  0.00000000000E+00  0.00000000000E+00  0.96342621492E+02  0.96342621605E+02  0.46700000000E-02 0.  1.
         -1   -1    0    0    0  501 -0.00000000000E+00 -0.00000000000E+00 -0.10380807428E+01  0.10380912472E+01  0.46700000000E-02 0. -1.
       1023    2    1    2    0    0  0.00000000000E+00  0.00000000000E+00  0.95304540749E+02  0.97380712852E+02  0.20001193670E+02 0.  0.
        -11    1    3    3    0    0  0.85959672143E+01 -0.51108904978E+01  0.47696564199E+02  0.48733705899E+02  0.51100000000E-03 0. -1.
         11    1    3    3    0    0 -0.85959672143E+01  0.51108904978E+01  0.47607976550E+02  0.48647006953E+02  0.51100000000E-03 0.  1.
<mgrwt>
<rscale>  0 0.20001194E+02</rscale>
<asrwt>0</asrwt>
<pdfrwt beam="1">  1        1 0.14821943E-01 0.20001194E+02</pdfrwt>
<pdfrwt beam="2">  1       -1 0.15970554E-03 0.20001194E+02</pdfrwt>
<totfact> 0.44176422E+06</totfact>
</mgrwt>
</event>
<event>
 4    1  0.9583198E-007  0.2001946E+02  0.7818608E-02  0.1744941E+00
          1   -1    0    0  501    0  0.00000000000E+00  0.00000000000E+00  0.45610471546E+01  0.45610495454E+01  0.46700000000E-02 0. -1.
         -1   -1    0    0    0  501 -0.00000000000E+00 -0.00000000000E+00 -0.21967463132E+02  0.21967463628E+02  0.46700000000E-02 0.  1.
        -11    1    1    2    0    0  0.82810309416E+01 -0.56230640602E+01 -0.86784039537E+01  0.13247981670E+02  0.51100000000E-03 0. -1.
         11    1    1    2    0    0 -0.82810309416E+01  0.56230640602E+01 -0.87280120238E+01  0.13280531504E+02  0.51100000000E-03 0.  1.
<mgrwt>
<rscale>  0 0.20019458E+02</rscale>
<asrwt>0</asrwt>
<pdfrwt beam="1">  1        1 0.70169980E-03 0.20019458E+02</pdfrwt>
<pdfrwt beam="2">  1       -1 0.33796099E-02 0.20019458E+02</pdfrwt>
<totfact> 0.37141263E+06</totfact>
</mgrwt>
</event>
<event>
 5    1  0.9583198E-007  0.2000113E+02  0.7818608E-02  0.1745306E+00
          1   -1    0    0  501    0  0.00000000000E+00  0.00000000000E+00  0.10931347504E+02  0.10931348501E+02  0.46700000000E-02 0.  1.
         -1   -1    0    0    0  501 -0.00000000000E+00 -0.00000000000E+00 -0.91490372526E+01  0.91490384445E+01  0.46700000000E-02 0. -1.
       1023    2    1    2    0    0  0.00000000000E+00  0.00000000000E+00  0.17823102510E+01  0.20080386946E+02  0.20001132719E+02 0.  0.
        -11    1    3    3    0    0 -0.86888862987E+01 -0.49510208600E+01  0.84654275374E+00  0.10036233734E+02  0.51100000000E-03 0. -1.
         11    1    3    3    0    0  0.86888862987E+01  0.49510208600E+01  0.93576749724E+00  0.10044153212E+02  0.51100000000E-03 0.  1.
<mgrwt>
<rscale>  0 0.20001133E+02</rscale>
<asrwt>0</asrwt>
<pdfrwt beam="1">  1        1 0.16817459E-02 0.20001133E+02</pdfrwt>
<pdfrwt beam="2">  1       -1 0.14075444E-02 0.20001133E+02</pdfrwt>
<totfact> 0.38756144E+06</totfact>
</mgrwt>
</event>
<event>
 5    1  0.9583198E-007  0.2000017E+02  0.7818608E-02  0.1745325E+00
          1   -1    0    0  501    0  0.00000000000E+00  0.00000000000E+00  0.23612101095E+01  0.23612147276E+01  0.46700000000E-02 0. -1.
         -1   -1    0    0    0  501 -0.00000000000E+00 -0.00000000000E+00 -0.42351849404E+02  0.42351849662E+02  0.46700000000E-02 0.  1.
       1023    2    1    2    0    0  0.00000000000E+00  0.00000000000E+00 -0.39990639295E+02  0.44713064390E+02  0.20000172396E+02 0.  0.
        -11    1    3    3    0    0 -0.57952926571E+01 -0.81496084676E+01 -0.20026018089E+02  0.22383988383E+02  0.51100000000E-03 0.  1.
         11    1    3    3    0    0  0.57952926571E+01  0.81496084676E+01 -0.19964621206E+02  0.22329076007E+02  0.51100000000E-03 0. -1.
<mgrwt>
<rscale>  0 0.20000172E+02</rscale>
<asrwt>0</asrwt>
<pdfrwt beam="1">  1        1 0.36326350E-03 0.20000172E+02</pdfrwt>
<pdfrwt beam="2">  1       -1 0.65156690E-02 0.20000172E+02</pdfrwt>
<totfact> 0.35490293E+06</totfact>
</mgrwt>
</event>
<event>
 5    1  0.9583198E-007  0.2000044E+02  0.7818608E-02  0.1745319E+00
          1   -1    0    0  501    0  0.00000000000E+00  0.00000000000E+00  0.95018695272E+00  0.95019842876E+00  0.46700000000E-02 0.  1.
         -1   -1    0    0    0  501 -0.00000000000E+00 -0.00000000000E+00 -0.10524641723E+03  0.10524641734E+03  0.46700000000E-02 0. -1.
       1023    2    1    2    0    0  0.00000000000E+00  0.00000000000E+00 -0.10429623028E+03  0.10619661577E+03  0.20000438729E+02 0.  0.
        -11    1    3    3    0    0 -0.99082095522E+01 -0.13525884281E+01 -0.51894852879E+02  0.52849577742E+02  0.51100000000E-03 0.  1.
         11    1    3    3    0    0  0.99082095522E+01  0.13525884281E+01 -0.52401377403E+02  0.53347038025E+02  0.51100000000E-03 0. -1.
<mgrwt>
<rscale>  0 0.20000439E+02</rscale>
<asrwt>0</asrwt>
<pdfrwt beam="1">  1        1 0.14618358E-03 0.20000439E+02</pdfrwt>
<pdfrwt beam="2">  1       -1 0.16191748E-01 0.20000439E+02</pdfrwt>
<totfact> 0.31587601E+06</totfact>
</mgrwt>
</event>
<event>
 5    1  0.9583198E-007  0.2000015E+02  0.7818608E-02  0.1745325E+00
         -1   -1    0    0    0  501 -0.00000000000E+00  0.00000000000E+00  0.15050016049E+01  0.15050088504E+01  0.46700000000E-02 0. -1.
          1   -1    0    0  501    0  0.00000000000E+00 -0.00000000000E+00 -0.66445944640E+02  0.66445944804E+02  0.46700000000E-02 0.  1.
       1023    2    1    2    0    0  0.00000000000E+00  0.00000000000E+00 -0.64940943035E+02  0.67950953655E+02  0.20000150506E+02 0.  0.
        -11    1    3    3    0    0  0.99391806822E+01 -0.11019030045E+01 -0.32475207870E+02  0.33980003375E+02  0.51100000000E-03 0.  1.
         11    1    3    3    0    0 -0.99391806822E+01  0.11019030045E+01 -0.32465735165E+02  0.33970950280E+02  0.51100000000E-03 0. -1.
<mgrwt>
<rscale>  0 0.20000151E+02</rscale>
<asrwt>0</asrwt>
<pdfrwt beam="2">  1        1 0.10222451E-01 0.20000151E+02</pdfrwt>
<pdfrwt beam="1">  1       -1 0.23153933E-03 0.20000151E+02</pdfrwt>
<totfact> 0.42641256E+06</totfact>
</mgrwt>
</event>
<event>
 5    1  0.9583198E-007  0.2000027E+02  0.7818608E-02  0.1745323E+00
         -1   -1    0    0    0  501 -0.00000000000E+00  0.00000000000E+00  0.21004167152E+01  0.21004219067E+01  0.46700000000E-02 0.  1.
          1   -1    0    0  501    0  0.00000000000E+00 -0.00000000000E+00 -0.47610814747E+02  0.47610814976E+02  0.46700000000E-02 0. -1.
       1023    2    1    2    0    0  0.00000000000E+00  0.00000000000E+00 -0.45510398032E+02  0.49711236883E+02  0.20000268583E+02 0.  0.
        -11    1    3    3    0    0 -0.74868032566E+01  0.66293584667E+01 -0.22642144204E+02  0.24752117305E+02  0.51100000000E-03 0.  1.
         11    1    3    3    0    0  0.74868032566E+01 -0.66293584667E+01 -0.22868253828E+02  0.24959119577E+02  0.51100000000E-03 0. -1.
<mgrwt>
<rscale>  0 0.20000269E+02</rscale>
<asrwt>0</asrwt>
<pdfrwt beam="2">  1        1 0.73247403E-02 0.20000269E+02</pdfrwt>
<pdfrwt beam="1">  1       -1 0.32314149E-03 0.20000269E+02</pdfrwt>
<totfact> 0.41572575E+06</totfact>
</mgrwt>
</event>
<event>
 5    1  0.9583198E-007  0.2000080E+02  0.7818608E-02  0.1745312E+00
         -1   -1    0    0    0  501 -0.00000000000E+00  0.00000000000E+00  0.32592919616E+01  0.32592953073E+01  0.46700000000E-02 0.  1.
          1   -1    0    0  501    0  0.00000000000E+00 -0.00000000000E+00 -0.30683931657E+02  0.30683932012E+02  0.46700000000E-02 0. -1.
       1023    2    1    2    0    0  0.00000000000E+00  0.00000000000E+00 -0.27424639695E+02  0.33943227319E+02  0.20000795445E+02 0.  0.
        -11    1    3    3    0    0  0.83886821275E+01  0.54440669557E+01 -0.13695222322E+02  0.16957799608E+02  0.51100000000E-03 0.  1.
         11    1    3    3    0    0 -0.83886821275E+01 -0.54440669557E+01 -0.13729417373E+02  0.16985427711E+02  0.51100000000E-03 0. -1.
<mgrwt>
<rscale>  0 0.20000795E+02</rscale>
<asrwt>0</asrwt>
<pdfrwt beam="2">  1        1 0.47206050E-02 0.20000795E+02</pdfrwt>
<pdfrwt beam="1">  1       -1 0.50142984E-03 0.20000795E+02</pdfrwt>
<totfact> 0.40499988E+06</totfact>
</mgrwt>
</event>
<event>
 5    1  0.9904729E-007  0.2000140E+02  0.7818608E-02  0.1745300E+00
          1   -1    0    0  501    0  0.00000000000E+00  0.00000000000E+00  0.28039592898E+02  0.28039593287E+02  0.46700000000E-02 0. -1.
         -1   -1    0    0    0  501 -0.00000000000E+00 -0.00000000000E+00 -0.35668846657E+01  0.35668877229E+01  0.46700000000E-02 0.  1.
       1023    2    1    2    0    0  0.00000000000E+00  0.00000000000E+00  0.24472708232E+02  0.31606481009E+02  0.20001404790E+02 0.  0.
        -11    1    3    3    0    0 -0.83243551442E+01  0.55423731312E+01  0.12292438207E+02  0.15846666079E+02  0.51100000000E-03 0. -1.
         11    1    3    3    0    0  0.83243551442E+01 -0.55423731312E+01  0.12180270025E+02  0.15759814930E+02  0.51100000000E-03 0.  1.
<mgrwt>
<rscale>  0 0.20001405E+02</rscale>
<asrwt>0</asrwt>
<pdfrwt beam="1">  1        1 0.43137838E-02 0.20001405E+02</pdfrwt>
<pdfrwt beam="2">  1       -1 0.54875175E-03 0.20001405E+02</pdfrwt>
<totfact> 0.40313546E+06</totfact>
</mgrwt>
</event>
<event>
 5    1  0.9583198E-007  0.2000047E+02  0.7818608E-02  0.1745319E+00
          1   -1    0    0  501    0  0.00000000000E+00  0.00000000000E+00  0.10094157795E+01  0.10094265822E+01  0.46700000000E-02 0. -1.
         -1   -1    0    0    0  501 -0.00000000000E+00 -0.00000000000E+00 -0.99071339652E+02  0.99071339762E+02  0.46700000000E-02 0.  1.
       1023    2    1    2    0    0  0.00000000000E+00  0.00000000000E+00 -0.98061923872E+02  0.10008076634E+03  0.20000471956E+02 0.  0.
        -11    1    3    3    0    0  0.95006094951E+01  0.31208079458E+01 -0.49335188085E+02  0.50338472430E+02  0.51100000000E-03 0.  1.
         11    1    3    3    0    0 -0.95006094951E+01 -0.31208079458E+01 -0.48726735787E+02  0.49742293914E+02  0.51100000000E-03 0. -1.
<mgrwt>
<rscale>  0 0.20000472E+02</rscale>
<asrwt>0</asrwt>
<pdfrwt beam="1">  1        1 0.15529565E-03 0.20000472E+02</pdfrwt>
<pdfrwt beam="2">  1       -1 0.15241738E-01 0.20000472E+02</pdfrwt>
<totfact> 0.31916129E+06</totfact>
</mgrwt>
</event>
<event>
 5    1  0.1067926E-006  0.2000025E+02  0.7818608E-02  0.1745323E+00
         -1   -1    0    0    0  501 -0.00000000000E+00  0.00000000000E+00  0.18933100789E+01  0.18933158384E+01  0.46700000000E-02 0. -1.
          1   -1    0    0  501    0  0.00000000000E+00 -0.00000000000E+00 -0.52818761509E+02  0.52818761716E+02  0.46700000000E-02 0.  1.
       1023    2    1    2    0    0  0.00000000000E+00  0.00000000000E+00 -0.50925451430E+02  0.54712077554E+02  0.20000245671E+02 0.  0.
        -11    1    3    3    0    0 -0.99845396487E+01  0.55599305261E+00 -0.25593810452E+02  0.27478051131E+02  0.51100000000E-03 0.  1.
         11    1    3    3    0    0  0.99845396487E+01 -0.55599305261E+00 -0.25331640978E+02  0.27234026423E+02  0.51100000000E-03 0. -1.
<mgrwt>
<rscale>  0 0.20000246E+02</rscale>
<asrwt>0</asrwt>
<pdfrwt beam="2">  1        1 0.81259627E-02 0.20000246E+02</pdfrwt>
<pdfrwt beam="1">  1       -1 0.29127897E-03 0.20000246E+02</pdfrwt>
<totfact> 0.41877700E+06</totfact>
</mgrwt>
</event>
<event>
 4    1  0.9583198E-007  0.2002470E+02  0.7818608E-02  0.1744837E+00
         -1   -1    0    0    0  501 -0.00000000000E+00  0.00000000000E+00  0.23285571693E+02  0.23285572161E+02  0.46700000000E-02 0.  1.
          1   -1    0    0  501    0  0.00000000000E+00 -0.00000000000E+00 -0.43051168149E+01  0.43051193478E+01  0.46700000000E-02 0. -1.
        -11    1    1    2    0    0  0.44383929054E+01 -0.89654506447E+01  0.10055828363E+02  0.14184439403E+02  0.51100000000E-03 0. -1.
         11    1    1    2    0    0 -0.44383929054E+01  0.89654506447E+01  0.89246265155E+01  0.13406252107E+02  0.51100000000E-03 0.  1.
<mgrwt>
<rscale>  0 0.20024700E+02</rscale>
<asrwt>0</asrwt>
<pdfrwt beam="2">  1        1 0.66232589E-03 0.20024700E+02</pdfrwt>
<pdfrwt beam="1">  1       -1 0.35823959E-02 0.20024700E+02</pdfrwt>
<totfact> 0.36993126E+06</totfact>
</mgrwt>
</event>
<event>
 5    1  0.9583198E-007  0.2000063E+02  0.7818608E-02  0.1745316E+00
         -1   -1    0    0    0  501 -0.00000000000E+00  0.00000000000E+00  0.19318030651E+02  0.19318031215E+02  0.46700000000E-02 0.  1.
          1   -1    0    0  501    0  0.00000000000E+00 -0.00000000000E+00 -0.51768353998E+01  0.51768375062E+01  0.46700000000E-02 0. -1.
       1023    2    1    2    0    0  0.00000000000E+00  0.00000000000E+00  0.14141195251E+02  0.24494868722E+02  0.20000629754E+02 0.  0.
        -11    1    3    3    0    0 -0.25705462516E+01  0.96641505509E+01  0.71352114081E+01  0.12284736709E+02  0.51100000000E-03 0. -1.
         11    1    3    3    0    0  0.25705462516E+01 -0.96641505509E+01  0.70059838431E+01  0.12210132013E+02  0.51100000000E-03 0.  1.
<mgrwt>
<rscale>  0 0.20000630E+02</rscale>
<asrwt>0</asrwt>
<pdfrwt beam="2">  1        1 0.79643642E-03 0.20000630E+02</pdfrwt>
<pdfrwt beam="1">  1       -1 0.29720049E-02 0.20000630E+02</pdfrwt>
<totfact> 0.37484158E+06</totfact>
</mgrwt>
</event>
<event>
 5    1  0.9987789E-007  0.2000170E+02  0.7818608E-02  0.1745294E+00
          1   -1    0    0  501    0  0.00000000000E+00  0.00000000000E+00  0.60039515153E+02  0.60039515335E+02  0.46700000000E-02 0. -1.
         -1   -1    0    0    0  501 -0.00000000000E+00 -0.00000000000E+00 -0.16658497750E+01  0.16658563208E+01  0.46700000000E-02 0.  1.
       1023    2    1    2    0    0  0.00000000000E+00  0.00000000000E+00  0.58373665378E+02  0.61705371656E+02  0.20001701964E+02 0.  0.
        -11    1    3    3    0    0 -0.95685966366E+01  0.29068399884E+01  0.29483696128E+02  0.31133520487E+02  0.51100000000E-03 0.  1.
         11    1    3    3    0    0  0.95685966366E+01 -0.29068399884E+01  0.28889969250E+02  0.30571851168E+02  0.51100000000E-03 0. -1.
<mgrwt>
<rscale>  0 0.20001702E+02</rscale>
<asrwt>0</asrwt>
<pdfrwt beam="1">  1        1 0.92368507E-02 0.20001702E+02</pdfrwt>
<pdfrwt beam="2">  1       -1 0.25628505E-03 0.20001702E+02</pdfrwt>
<totfact> 0.42280848E+06</totfact>
</mgrwt>
</event>
<event>
 5    1  0.9583198E-007  0.2001193E+02  0.7818608E-02  0.1745091E+00
         -1   -1    0    0    0  501 -0.00000000000E+00  0.00000000000E+00  0.23427111212E+02  0.23427111678E+02  0.46700000000E-02 0. -1.
          1   -1    0    0  501    0  0.00000000000E+00 -0.00000000000E+00 -0.42736510663E+01  0.42736536179E+01  0.46700000000E-02 0.  1.
       1023    2    1    2    0    0  0.00000000000E+00  0.00000000000E+00  0.19153460146E+02  0.27700765296E+02  0.20011930502E+02 0.  0.
        -11    1    3    3    0    0 -0.95009292425E+01  0.31367557805E+01  0.97311615620E+01  0.13957162996E+02  0.51100000000E-03 0.  1.
         11    1    3    3    0    0  0.95009292425E+01 -0.31367557805E+01  0.94222985841E+01  0.13743602300E+02  0.51100000000E-03 0. -1.
<mgrwt>
<rscale>  0 0.20011931E+02</rscale>
<asrwt>0</asrwt>
<pdfrwt beam="2">  1        1 0.65748501E-03 0.20011931E+02</pdfrwt>
<pdfrwt beam="1">  1       -1 0.36041712E-02 0.20011931E+02</pdfrwt>
<totfact> 0.37031600E+06</totfact>
</mgrwt>
</event>
<event>
 5    1  0.9583198E-007  0.2000211E+02  0.7818608E-02  0.1745286E+00
          1   -1    0    0  501    0  0.00000000000E+00  0.00000000000E+00  0.26346543620E+01  0.26346585008E+01  0.46700000000E-02 0.  1.
         -1   -1    0    0    0  501 -0.00000000000E+00 -0.00000000000E+00 -0.37963633380E+02  0.37963633667E+02  0.46700000000E-02 0. -1.
       1023    2    1    2    0    0  0.00000000000E+00  0.00000000000E+00 -0.35328979018E+02  0.40598292168E+02  0.20002114101E+02 0.  0.
        -11    1    3    3    0    0 -0.85417472018E+01  0.52000183636E+01 -0.17947962575E+02  0.20545826756E+02  0.51100000000E-03 0.  1.
         11    1    3    3    0    0  0.85417472018E+01 -0.52000183636E+01 -0.17381016444E+02  0.20052465412E+02  0.51100000000E-03 0. -1.
<mgrwt>
<rscale>  0 0.20002114E+02</rscale>
<asrwt>0</asrwt>
<pdfrwt beam="1">  1        1 0.40533181E-03 0.20002114E+02</pdfrwt>
<pdfrwt beam="2">  1       -1 0.58405589E-02 0.20002114E+02</pdfrwt>
<totfact> 0.35821936E+06</totfact>
</mgrwt>
</event>
<event>
 5    1  0.9583198E-007  0.2000113E+02  0.7818608E-02  0.1745306E+00
          1   -1    0    0  501    0  0.00000000000E+00  0.00000000000E+00  0.13158878069E+01  0.13158960936E+01  0.46700000000E-02 0. -1.
         -1   -1    0    0    0  501 -0.00000000000E+00 -0.00000000000E+00 -0.76002678185E+02  0.76002678329E+02  0.46700000000E-02 0.  1.
       1023    2    1    2    0    0  0.00000000000E+00  0.00000000000E+00 -0.74686790378E+02  0.77318574422E+02  0.20001132310E+02 0.  0.
        -11    1    3    3    0    0 -0.78762145269E+01 -0.61623784311E+01 -0.37185896167E+02  0.38507149170E+02  0.51100000000E-03 0. -1.
         11    1    3    3    0    0  0.78762145269E+01  0.61623784311E+01 -0.37500894212E+02  0.38811425253E+02  0.51100000000E-03 0.  1.
<mgrwt>
<rscale>  0 0.20001132E+02</rscale>
<asrwt>0</asrwt>
<pdfrwt beam="1">  1        1 0.20244499E-03 0.20001132E+02</pdfrwt>
<pdfrwt beam="2">  1       -1 0.11692717E-01 0.20001132E+02</pdfrwt>
<totfact> 0.33227983E+06</totfact>
</mgrwt>
</event>
<event>
 4    1  0.9583198E-007  0.2002047E+02  0.7818608E-02  0.1744921E+00
         -1   -1    0    0    0  501 -0.00000000000E+00  0.00000000000E+00  0.10057441666E+03  0.10057441676E+03  0.46700000000E-02 0.  1.
          1   -1    0    0  501    0  0.00000000000E+00 -0.00000000000E+00 -0.99631911261E+00  0.99633005728E+00  0.46700000000E-02 0. -1.
        -11    1    1    2    0    0 -0.25131505268E+01 -0.96895709191E+01  0.49954572137E+02  0.50947649483E+02  0.51100000000E-03 0. -1.
         11    1    1    2    0    0  0.25131505268E+01  0.96895709191E+01  0.49623525406E+02  0.50623097339E+02  0.51100000000E-03 0.  1.
<mgrwt>
<rscale>  0 0.20020467E+02</rscale>
<asrwt>0</asrwt>
<pdfrwt beam="2">  1        1 0.15328066E-03 0.20020467E+02</pdfrwt>
<pdfrwt beam="1">  1       -1 0.15472994E-01 0.20020467E+02</pdfrwt>
<totfact> 0.31765739E+06</totfact>
</mgrwt>
</event>
<event>
 5    1  0.9583198E-007  0.2000006E+02  0.7818608E-02  0.1745327E+00
          1   -1    0    0  501    0  0.00000000000E+00  0.00000000000E+00  0.89740196978E+00  0.89741412083E+00  0.46700000000E-02 0. -1.
         -1   -1    0    0    0  501 -0.00000000000E+00 -0.00000000000E+00 -0.11143271279E+03  0.11143271288E+03  0.46700000000E-02 0.  1.
       1023    2    1    2    0    0  0.00000000000E+00  0.00000000000E+00 -0.11053531082E+03  0.11233012701E+03  0.20000062391E+02 0.  0.
        -11    1    3    3    0    0 -0.99809798614E+01  0.61690664082E+00 -0.55321190413E+02  0.56217743122E+02  0.51100000000E-03 0.  1.
         11    1    3    3    0    0  0.99809798614E+01 -0.61690664082E+00 -0.55214120404E+02  0.56112383883E+02  0.51100000000E-03 0. -1.
<mgrwt>
<rscale>  0 0.20000062E+02</rscale>
<asrwt>0</asrwt>
<pdfrwt beam="1">  1        1 0.13806287E-03 0.20000062E+02</pdfrwt>
<pdfrwt beam="2">  1       -1 0.17143484E-01 0.20000062E+02</pdfrwt>
<totfact> 0.31267822E+06</totfact>
</mgrwt>
</event>
<event>
 5    1  0.9583198E-007  0.2000124E+02  0.7818608E-02  0.1745303E+00
          1   -1    0    0  501    0  0.00000000000E+00  0.00000000000E+00  0.47913352036E+01  0.47913374795E+01  0.46700000000E-02 0. -1.
         -1   -1    0    0    0  501 -0.00000000000E+00 -0.00000000000E+00 -0.20873584304E+02  0.20873584827E+02  0.46700000000E-02 0.  1.
       1023    2    1    2    0    0  0.00000000000E+00  0.00000000000E+00 -0.16082249101E+02  0.25664922306E+02  0.20001237483E+02 0.  0.
        -11    1    3    3    0    0  0.71200766361E+01 -0.70222130349E+01 -0.79467638969E+01  0.12773332529E+02  0.51100000000E-03 0. -1.
         11    1    3    3    0    0 -0.71200766361E+01  0.70222130349E+01 -0.81354852038E+01  0.12891589777E+02  0.51100000000E-03 0.  1.
<mgrwt>
<rscale>  0 0.20001237E+02</rscale>
<asrwt>0</asrwt>
<pdfrwt beam="1">  1        1 0.73712872E-03 0.20001237E+02</pdfrwt>
<pdfrwt beam="2">  1       -1 0.32113208E-02 0.20001237E+02</pdfrwt>
<totfact> 0.37323659E+06</totfact>
</mgrwt>
</event>
<event>
 5    1  0.9727784E-007  0.2000065E+02  0.7818608E-02  0.1745315E+00
          1   -1    0    0  501    0  0.00000000000E+00  0.00000000000E+00  0.49225127889E+02  0.49225128110E+02  0.46700000000E-02 0. -1.
         -1   -1    0    0    0  501 -0.00000000000E+00 -0.00000000000E+00 -0.20316126222E+01  0.20316179896E+01  0.46700000000E-02 0.  1.
       1023    2    1    2    0    0  0.00000000000E+00  0.00000000000E+00  0.47193515267E+02  0.51256746100E+02  0.20000653428E+02 0.  0.
        -11    1    3    3    0    0 -0.59987410726E+01  0.80012742338E+01  0.23687375589E+02  0.25711807528E+02  0.51100000000E-03 0. -1.
         11    1    3    3    0    0  0.59987410726E+01 -0.80012742338E+01  0.23506139678E+02  0.25544938572E+02  0.51100000000E-03 0.  1.
<mgrwt>
<rscale>  0 0.20000653E+02</rscale>
<asrwt>0</asrwt>
<pdfrwt beam="1">  1        1 0.75730966E-02 0.20000653E+02</pdfrwt>
<pdfrwt beam="2">  1       -1 0.31255624E-03 0.20000653E+02</pdfrwt>
<totfact> 0.41666279E+06</totfact>
</mgrwt>
</event>
<event>
 4    1  0.9583198E-007  0.2002324E+02  0.7818608E-02  0.1744866E+00
          1   -1    0    0  501    0  0.00000000000E+00  0.00000000000E+00  0.64837927625E+01  0.64837944443E+01  0.46700000000E-02 0.  1.
         -1   -1    0    0    0  501 -0.00000000000E+00 -0.00000000000E+00 -0.15458929614E+02  0.15458930320E+02  0.46700000000E-02 0. -1.
        -11    1    1    2    0    0  0.67168356020E+01 -0.74216701981E+01 -0.46939076451E+01  0.11055760411E+02  0.51100000000E-03 0. -1.
         11    1    1    2    0    0 -0.67168356020E+01  0.74216701981E+01 -0.42812292068E+01  0.10886964353E+02  0.51100000000E-03 0.  1.
<mgrwt>
<rscale>  0 0.20023239E+02</rscale>
<asrwt>0</asrwt>
<pdfrwt beam="1">  1        1 0.99750677E-03 0.20023239E+02</pdfrwt>
<pdfrwt beam="2">  1       -1 0.23782970E-02 0.20023239E+02</pdfrwt>
<totfact> 0.37809989E+06</totfact>
</mgrwt>
</event>
<event>
 5    1  0.9583198E-007  0.2000026E+02  0.7818608E-02  0.1745323E+00
         -1   -1    0    0    0  501 -0.00000000000E+00  0.00000000000E+00  0.10949526302E+01  0.10949625890E+01  0.46700000000E-02 0. -1.
          1   -1    0    0  501    0  0.00000000000E+00 -0.00000000000E+00 -0.91330082990E+02  0.91330083109E+02  0.46700000000E-02 0.  1.
       1023    2    1    2    0    0  0.00000000000E+00  0.00000000000E+00 -0.90235130359E+02  0.92425045698E+02  0.20000258031E+02 0.  0.
        -11    1    3    3    0    0 -0.98315132249E+01 -0.18280426530E+01 -0.44901412414E+02  0.46001491598E+02  0.51100000000E-03 0. -1.
         11    1    3    3    0    0  0.98315132249E+01  0.18280426530E+01 -0.45333717946E+02  0.46423554100E+02  0.51100000000E-03 0.  1.
<mgrwt>
<rscale>  0 0.20000258E+02</rscale>
<asrwt>0</asrwt>
<pdfrwt beam="2">  1        1 0.14050777E-01 0.20000258E+02</pdfrwt>
<pdfrwt beam="1">  1       -1 0.16845510E-03 0.20000258E+02</pdfrwt>
<totfact> 0.43933056E+06</totfact>
</mgrwt>
</event>
<event>
 5    1  0.9583198E-007  0.2000319E+02  0.7818608E-02  0.1745265E+00
          1   -1    0    0  501    0  0.00000000000E+00  0.00000000000E+00  0.22752600917E+02  0.22752601396E+02  0.46700000000E-02 0.  1.
         -1   -1    0    0    0  501 -0.00000000000E+00 -0.00000000000E+00 -0.43965021145E+01  0.43965045948E+01  0.46700000000E-02 0. -1.
       1023    2    1    2    0    0  0.00000000000E+00  0.00000000000E+00  0.18356098803E+02  0.27149105991E+02  0.20003189567E+02 0.  0.
        -11    1    3    3    0    0 -0.25142533241E+01  0.96796462291E+01  0.93435939161E+01  0.13686481229E+02  0.51100000000E-03 0.  1.
         11    1    3    3    0    0  0.25142533241E+01 -0.96796462291E+01  0.90125048864E+01  0.13462624762E+02  0.51100000000E-03 0. -1.
<mgrwt>
<rscale>  0 0.20003190E+02</rscale>
<asrwt>0</asrwt>
<pdfrwt beam="1">  1        1 0.35004003E-02 0.20003190E+02</pdfrwt>
<pdfrwt beam="2">  1       -1 0.67638517E-03 0.20003190E+02</pdfrwt>
<totfact> 0.39913884E+06</totfact>
</mgrwt>
</event>
<event>
 5    1  0.9583198E-007  0.2000062E+02  0.7818608E-02  0.1745316E+00
         -1   -1    0    0    0  501 -0.00000000000E+00  0.00000000000E+00  0.15831801255E+02  0.15831801944E+02  0.46700000000E-02 0. -1.
          1   -1    0    0  501    0  0.00000000000E+00 -0.00000000000E+00 -0.63167916051E+01  0.63167933313E+01  0.46700000000E-02 0.  1.
       1023    2    1    2    0    0  0.00000000000E+00  0.00000000000E+00  0.95150096502E+01  0.22148595275E+02  0.20000621591E+02 0.  0.
        -11    1    3    3    0    0  0.33197948341E+01 -0.94329990192E+01  0.48249333698E+01  0.11103264859E+02  0.51100000000E-03 0.  1.
         11    1    3    3    0    0 -0.33197948341E+01  0.94329990192E+01  0.46900762804E+01  0.11045330417E+02  0.51100000000E-03 0. -1.
<mgrwt>
<rscale>  0 0.20000622E+02</rscale>
<asrwt>0</asrwt>
<pdfrwt beam="2">  1        1 0.97181428E-03 0.20000622E+02</pdfrwt>
<pdfrwt beam="1">  1       -1 0.24356619E-02 0.20000622E+02</pdfrwt>
<totfact> 0.37861152E+06</totfact>
</mgrwt>
</event>
<event>
 5    1  0.9583198E-007  0.2000191E+02  0.7818608E-02  0.1745290E+00
          1   -1    0    0  501    0  0.00000000000E+00  0.00000000000E+00  0.12359124959E+02  0.12359125841E+02  0.46700000000E-02 0. -1.
         -1   -1    0    0    0  501 -0.00000000000E+00 -0.00000000000E+00 -0.80927282881E+01  0.80927296356E+01  0.46700000000E-02 0.  1.
       1023    2    1    2    0    0  0.00000000000E+00  0.00000000000E+00  0.42663966706E+01  0.20451855477E+02  0.20001906206E+02 0.  0.
        -11    1    3    3    0    0  0.75520256797E+01  0.65563602497E+01  0.21224199193E+01  0.10223679287E+02  0.51100000000E-03 0. -1.
         11    1    3    3    0    0 -0.75520256797E+01 -0.65563602497E+01  0.21439767512E+01  0.10228176189E+02  0.51100000000E-03 0.  1.
<mgrwt>
<rscale>  0 0.20001906E+02</rscale>
<asrwt>0</asrwt>
<pdfrwt beam="1">  1        1 0.19014040E-02 0.20001906E+02</pdfrwt>
<pdfrwt beam="2">  1       -1 0.12450353E-02 0.20001906E+02</pdfrwt>
<totfact> 0.38939967E+06</totfact>
</mgrwt>
</event>
<event>
 5    1  0.9583198E-007  0.2000021E+02  0.7818608E-02  0.1745324E+00
          1   -1    0    0  501    0  0.00000000000E+00  0.00000000000E+00  0.49982010961E+01  0.49982032778E+01  0.46700000000E-02 0.  1.
         -1   -1    0    0    0  501 -0.00000000000E+00 -0.00000000000E+00 -0.20007620643E+02  0.20007621188E+02  0.46700000000E-02 0. -1.
       1023    2    1    2    0    0  0.00000000000E+00  0.00000000000E+00 -0.15009419547E+02  0.25005824466E+02  0.20000214551E+02 0.  0.
        -11    1    3    3    0    0 -0.98582427950E+01  0.16784498695E+01 -0.75053826192E+01  0.12503316100E+02  0.51100000000E-03 0. -1.
         11    1    3    3    0    0  0.98582427950E+01 -0.16784498695E+01 -0.75040369275E+01  0.12502508366E+02  0.51100000000E-03 0.  1.
<mgrwt>
<rscale>  0 0.20000215E+02</rscale>
<asrwt>0</asrwt>
<pdfrwt beam="1">  1        1 0.76895424E-03 0.20000215E+02</pdfrwt>
<pdfrwt beam="2">  1       -1 0.30780956E-02 0.20000215E+02</pdfrwt>
<totfact> 0.37415133E+06</totfact>
</mgrwt>
</event>
<event>
 5    1  0.9880554E-007  0.2000108E+02  0.7818608E-02  0.1745307E+00
         -1   -1    0    0    0  501 -0.00000000000E+00  0.00000000000E+00  0.63263842716E+01  0.63263859953E+01  0.46700000000E-02 0. -1.
          1   -1    0    0  501    0  0.00000000000E+00 -0.00000000000E+00 -0.15808524856E+02  0.15808525546E+02  0.46700000000E-02 0.  1.
       1023    2    1    2    0    0  0.00000000000E+00  0.00000000000E+00 -0.94821405841E+01  0.22134911541E+02  0.20001082942E+02 0.  0.
        -11    1    3    3    0    0  0.99964511367E+01  0.28597779868E+00 -0.47374293223E+01  0.11065896054E+02  0.51100000000E-03 0. -1.
         11    1    3    3    0    0 -0.99964511367E+01 -0.28597779868E+00 -0.47447112618E+01  0.11069015487E+02  0.51100000000E-03 0.  1.
<mgrwt>
<rscale>  0 0.20001083E+02</rscale>
<asrwt>0</asrwt>
<pdfrwt beam="2">  1        1 0.24320809E-02 0.20001083E+02</pdfrwt>
<pdfrwt beam="1">  1       -1 0.97329008E-03 0.20001083E+02</pdfrwt>
<totfact> 0.39321482E+06</totfact>
</mgrwt>
</event>
<event>
 5    1  0.9583198E-007  0.2000091E+02  0.7818608E-02  0.1745310E+00
          1   -1    0    0  501    0  0.00000000000E+00  0.00000000000E+00  0.28673262364E+01  0.28673300394E+01  0.46700000000E-02 0. -1.
         -1   -1    0    0    0  501 -0.00000000000E+00 -0.00000000000E+00 -0.34878854990E+02  0.34878855303E+02  0.46700000000E-02 0.  1.
       1023    2    1    2    0    0  0.00000000000E+00  0.00000000000E+00 -0.32011528754E+02  0.37746185342E+02  0.20000913348E+02 0.  0.
        -11    1    3    3    0    0 -0.15951855774E+01  0.98724111276E+01 -0.16013054879E+02  0.18879275551E+02  0.51100000000E-03 0.  1.
         11    1    3    3    0    0  0.15951855774E+01 -0.98724111276E+01 -0.15998473875E+02  0.18866909792E+02  0.51100000000E-03 0. -1.
<mgrwt>
<rscale>  0 0.20000913E+02</rscale>
<asrwt>0</asrwt>
<pdfrwt beam="1">  1        1 0.44112745E-03 0.20000913E+02</pdfrwt>
<pdfrwt beam="2">  1       -1 0.53659777E-02 0.20000913E+02</pdfrwt>
<totfact> 0.36073934E+06</totfact>
</mgrwt>
</event>
<event>
 5    1  0.9918404E-007  0.2000240E+02  0.7818608E-02  0.1745280E+00
         -1   -1    0    0    0  501 -0.00000000000E+00  0.00000000000E+00  0.15274422147E+01  0.15274493537E+01  0.46700000000E-02 0. -1.
          1   -1    0    0  501    0  0.00000000000E+00 -0.00000000000E+00 -0.65484453461E+02  0.65484453627E+02  0.46700000000E-02 0.  1.
       1023    2    1    2    0    0  0.00000000000E+00  0.00000000000E+00 -0.63957011246E+02  0.67011902981E+02  0.20002396197E+02 0.  0.
        -11    1    3    3    0    0 -0.27955580313E+01  0.96021991505E+01 -0.31706542749E+02  0.33246386670E+02  0.51100000000E-03 0. -1.
         11    1    3    3    0    0  0.27955580313E+01 -0.96021991505E+01 -0.32250468497E+02  0.33765516311E+02  0.51100000000E-03 0.  1.
<mgrwt>
<rscale>  0 0.20002396E+02</rscale>
<asrwt>0</asrwt>
<pdfrwt beam="2">  1        1 0.10074530E-01 0.20002396E+02</pdfrwt>
<pdfrwt beam="1">  1       -1 0.23499172E-03 0.20002396E+02</pdfrwt>
<totfact> 0.42578267E+06</totfact>
</mgrwt>
</event>
<event>
 5    1  0.9919098E-007  0.2000094E+02  0.7818608E-02  0.1745309E+00
          1   -1    0    0  501    0  0.00000000000E+00  0.00000000000E+00  0.25440295171E+02  0.25440295600E+02  0.46700000000E-02 0.  1.
         -1   -1    0    0    0  501 -0.00000000000E+00 -0.00000000000E+00 -0.39311405852E+01  0.39311433591E+01  0.46700000000E-02 0. -1.
       1023    2    1    2    0    0  0.00000000000E+00  0.00000000000E+00  0.21509154586E+02  0.29371438959E+02  0.20000942366E+02 0.  0.
        -11    1    3    3    0    0  0.70347320062E+01 -0.71076292673E+01  0.10842386099E+02  0.14750023213E+02  0.51100000000E-03 0. -1.
         11    1    3    3    0    0 -0.70347320062E+01  0.71076292673E+01  0.10666768486E+02  0.14621415746E+02  0.51100000000E-03 0.  1.
<mgrwt>
<rscale>  0 0.20000942E+02</rscale>
<asrwt>0</asrwt>
<pdfrwt beam="1">  1        1 0.39138918E-02 0.20000942E+02</pdfrwt>
<pdfrwt beam="2">  1       -1 0.60479110E-03 0.20000942E+02</pdfrwt>
<totfact> 0.40127771E+06</totfact>
</mgrwt>
</event>
<event>
 5    1  0.1003930E-006  0.2000083E+02  0.7818608E-02  0.1745312E+00
         -1   -1    0    0    0  501 -0.00000000000E+00  0.00000000000E+00  0.31815412089E+01  0.31815446363E+01  0.46700000000E-02 0.  1.
          1   -1    0    0  501    0  0.00000000000E+00 -0.00000000000E+00 -0.31433882144E+02  0.31433882491E+02  0.46700000000E-02 0. -1.
       1023    2    1    2    0    0  0.00000000000E+00  0.00000000000E+00 -0.28252340935E+02  0.34615427127E+02  0.20000825655E+02 0.  0.
        -11    1    3    3    0    0 -0.75261443118E+01  0.65852237209E+01 -0.14152803307E+02  0.17329450694E+02  0.51100000000E-03 0. -1.
         11    1    3    3    0    0  0.75261443118E+01 -0.65852237209E+01 -0.14099537628E+02  0.17285976433E+02  0.51100000000E-03 0.  1.
<mgrwt>
<rscale>  0 0.20000826E+02</rscale>
<asrwt>0</asrwt>
<pdfrwt beam="2">  1        1 0.48359820E-02 0.20000826E+02</pdfrwt>
<pdfrwt beam="1">  1       -1 0.48946819E-03 0.20000826E+02</pdfrwt>
<totfact> 0.40550825E+06</totfact>
</mgrwt>
</event>
<event>
 5    1  0.9636401E-007  0.2000138E+02  0.7818608E-02  0.1745301E+00
         -1   -1    0    0    0  501 -0.00000000000E+00  0.00000000000E+00  0.93463535064E+01  0.93463546731E+01  0.46700000000E-02 0.  1.
          1   -1    0    0  501    0  0.00000000000E+00 -0.00000000000E+00 -0.10700839200E+02  0.10700840219E+02  0.46700000000E-02 0. -1.
       1023    2    1    2    0    0  0.00000000000E+00  0.00000000000E+00 -0.13544856939E+01  0.20047194892E+02  0.20001384741E+02 0.  0.
        -11    1    3    3    0    0 -0.95207420266E+01 -0.30587352343E+01 -0.79351569245E+00  0.10031453403E+02  0.51100000000E-03 0. -1.
         11    1    3    3    0    0  0.95207420266E+01  0.30587352343E+01 -0.56097000146E+00  0.10015741489E+02  0.51100000000E-03 0.  1.
<mgrwt>
<rscale>  0 0.20001385E+02</rscale>
<asrwt>0</asrwt>
<pdfrwt beam="2">  1        1 0.16462831E-02 0.20001385E+02</pdfrwt>
<pdfrwt beam="1">  1       -1 0.14379007E-02 0.20001385E+02</pdfrwt>
<totfact> 0.38722352E+06</totfact>
</mgrwt>
</event>
<event>
 5    1  0.9583198E-007  0.2000098E+02  0.7818608E-02  0.1745309E+00
          1   -1    0    0  501    0  0.00000000000E+00  0.00000000000E+00  0.25196745436E+01  0.25196788713E+01  0.46700000000E-02 0.  1.
         -1   -1    0    0    0  501 -0.00000000000E+00 -0.00000000000E+00 -0.39691515984E+02  0.39691516259E+02  0.46700000000E-02 0. -1.
       1023    2    1    2    0    0  0.00000000000E+00  0.00000000000E+00 -0.37171841441E+02  0.42211195130E+02  0.20000979932E+02 0.  0.
        -11    1    3    3    0    0 -0.98353048086E+01 -0.18076618733E+01 -0.18386405325E+02  0.20929901174E+02  0.51100000000E-03 0.  1.
         11    1    3    3    0    0  0.98353048086E+01  0.18076618733E+01 -0.18785436116E+02  0.21281293956E+02  0.51100000000E-03 0. -1.
<mgrwt>
<rscale>  0 0.20000980E+02</rscale>
<asrwt>0</asrwt>
<pdfrwt beam="1">  1        1 0.38764262E-03 0.20000980E+02</pdfrwt>
<pdfrwt beam="2">  1       -1 0.61063870E-02 0.20000980E+02</pdfrwt>
<totfact> 0.35691218E+06</totfact>
</mgrwt>
</event>
<event>
 5    1  0.9813731E-007  0.2000110E+02  0.7818608E-02  0.1745306E+00
         -1   -1    0    0    0  501 -0.00000000000E+00  0.00000000000E+00  0.97122761739E+01  0.97122772966E+01  0.46700000000E-02 0. -1.
          1   -1    0    0  501    0  0.00000000000E+00 -0.00000000000E+00 -0.10297377626E+02  0.10297378685E+02  0.46700000000E-02 0.  1.
       1023    2    1    2    0    0  0.00000000000E+00  0.00000000000E+00 -0.58510145242E+00  0.20009655982E+02  0.20001099690E+02 0.  0.
        -11    1    3    3    0    0 -0.78152139780E+01  0.62395634457E+01 -0.32827909868E+00  0.10005872723E+02  0.51100000000E-03 0.  1.
         11    1    3    3    0    0  0.78152139780E+01 -0.62395634457E+01 -0.25682235373E+00  0.10003783259E+02  0.51100000000E-03 0. -1.
<mgrwt>
<rscale>  0 0.20001100E+02</rscale>
<asrwt>0</asrwt>
<pdfrwt beam="2">  1        1 0.15842121E-02 0.20001100E+02</pdfrwt>
<pdfrwt beam="1">  1       -1 0.14941965E-02 0.20001100E+02</pdfrwt>
<totfact> 0.38664455E+06</totfact>
</mgrwt>
</event>
<event>
 5    1  0.9583198E-007  0.2000441E+02  0.7818608E-02  0.1745240E+00
          1   -1    0    0  501    0  0.00000000000E+00  0.00000000000E+00  0.40233911371E+01  0.40233938474E+01  0.46700000000E-02 0.  1.
         -1   -1    0    0    0  501 -0.00000000000E+00 -0.00000000000E+00 -0.24865616429E+02  0.24865616868E+02  0.46700000000E-02 0. -1.
       1023    2    1    2    0    0  0.00000000000E+00  0.00000000000E+00 -0.20842225292E+02  0.28889010715E+02  0.20004414137E+02 0.  0.
        -11    1    3    3    0    0  0.63712684542E+01  0.77104040513E+01 -0.10381467773E+02  0.14415903223E+02  0.51100000000E-03 0.  1.
         11    1    3    3    0    0 -0.63712684542E+01 -0.77104040513E+01 -0.10460757519E+02  0.14473107492E+02  0.51100000000E-03 0. -1.
<mgrwt>
<rscale>  0 0.20004414E+02</rscale>
<asrwt>0</asrwt>
<pdfrwt beam="1">  1        1 0.61898351E-03 0.20004414E+02</pdfrwt>
<pdfrwt beam="2">  1       -1 0.38254796E-02 0.20004414E+02</pdfrwt>
<totfact> 0.36927285E+06</totfact>
</mgrwt>
</event>
<event>
 5    1  0.1016537E-006  0.2000163E+02  0.7818608E-02  0.1745296E+00
         -1   -1    0    0    0  501 -0.00000000000E+00  0.00000000000E+00  0.15858576815E+01  0.15858645576E+01  0.46700000000E-02 0.  1.
          1   -1    0    0  501    0  0.00000000000E+00 -0.00000000000E+00 -0.63067497704E+02  0.63067497877E+02  0.46700000000E-02 0. -1.
       1023    2    1    2    0    0  0.00000000000E+00  0.00000000000E+00 -0.61481640022E+02  0.64653362434E+02  0.20001630289E+02 0.  0.
        -11    1    3    3    0    0  0.74573992968E+01 -0.66624501195E+01 -0.31140089747E+02  0.32706363840E+02  0.51100000000E-03 0.  1.
         11    1    3    3    0    0 -0.74573992968E+01  0.66624501195E+01 -0.30341550275E+02  0.31946998595E+02  0.51100000000E-03 0. -1.
<mgrwt>
<rscale>  0 0.20001630E+02</rscale>
<asrwt>0</asrwt>
<pdfrwt beam="2">  1        1 0.97026905E-02 0.20001630E+02</pdfrwt>
<pdfrwt beam="1">  1       -1 0.24397870E-03 0.20001630E+02</pdfrwt>
<totfact> 0.42449267E+06</totfact>
</mgrwt>
</event>
<event>
 5    1  0.9583198E-007  0.2000028E+02  0.7818608E-02  0.1745323E+00
         -1   -1    0    0    0  501 -0.00000000000E+00  0.00000000000E+00  0.32553722144E+01  0.32553755640E+01  0.46700000000E-02 0. -1.
          1   -1    0    0  501    0  0.00000000000E+00 -0.00000000000E+00 -0.30719283433E+02  0.30719283788E+02  0.46700000000E-02 0.  1.
       1023    2    1    2    0    0  0.00000000000E+00  0.00000000000E+00 -0.27463911219E+02  0.33974659352E+02  0.20000276465E+02 0.  0.
        -11    1    3    3    0    0  0.87988894496E+01  0.47520781923E+01 -0.13745300200E+02  0.16998116970E+02  0.51100000000E-03 0.  1.
         11    1    3    3    0    0 -0.87988894496E+01 -0.47520781923E+01 -0.13718611019E+02  0.16976542382E+02  0.51100000000E-03 0. -1.
<mgrwt>
<rscale>  0 0.20000276E+02</rscale>
<asrwt>0</asrwt>
<pdfrwt beam="2">  1        1 0.47260437E-02 0.20000276E+02</pdfrwt>
<pdfrwt beam="1">  1       -1 0.50082680E-03 0.20000276E+02</pdfrwt>
<totfact> 0.40504748E+06</totfact>
</mgrwt>
</event>
<event>
 5    1  0.9867019E-007  0.2000107E+02  0.7818608E-02  0.1745307E+00
         -1   -1    0    0    0  501 -0.00000000000E+00  0.00000000000E+00  0.95932272248E+01  0.95932283615E+01  0.46700000000E-02 0. -1.
          1   -1    0    0  501    0  0.00000000000E+00 -0.00000000000E+00 -0.10425132532E+02  0.10425133578E+02  0.46700000000E-02 0.  1.
       1023    2    1    2    0    0  0.00000000000E+00  0.00000000000E+00 -0.83190530674E+00  0.20018361939E+02  0.20001068678E+02 0.  0.
        -11    1    3    3    0    0 -0.96646905791E+00  0.99532495828E+01 -0.31867236243E+00  0.10005138282E+02  0.51100000000E-03 0. -1.
         11    1    3    3    0    0  0.96646905791E+00 -0.99532495828E+01 -0.51323294431E+00  0.10013223657E+02  0.51100000000E-03 0.  1.
<mgrwt>
<rscale>  0 0.20001069E+02</rscale>
<asrwt>0</asrwt>
<pdfrwt beam="2">  1        1 0.16038667E-02 0.20001069E+02</pdfrwt>
<pdfrwt beam="1">  1       -1 0.14758813E-02 0.20001069E+02</pdfrwt>
<totfact> 0.38683597E+06</totfact>
</mgrwt>
</event>
<event>
 5    1  0.9583198E-007  0.2000036E+02  0.7818608E-02  0.1745321E+00
          1   -1    0    0  501    0  0.00000000000E+00  0.00000000000E+00  0.26057236754E+01  0.26057278602E+01  0.46700000000E-02 0.  1.
         -1   -1    0    0    0  501 -0.00000000000E+00 -0.00000000000E+00 -0.38378413692E+02  0.38378413976E+02  0.46700000000E-02 0. -1.
       1023    2    1    2    0    0  0.00000000000E+00  0.00000000000E+00 -0.35772690017E+02  0.40984141836E+02  0.20000363273E+02 0.  0.
        -11    1    3    3    0    0  0.49826972709E+01 -0.86703714231E+01 -0.17820906440E+02  0.20434953372E+02  0.51100000000E-03 0. -1.
         11    1    3    3    0    0 -0.49826972709E+01  0.86703714231E+01 -0.17951783577E+02  0.20549188464E+02  0.51100000000E-03 0.  1.
<mgrwt>
<rscale>  0 0.20000363E+02</rscale>
<asrwt>0</asrwt>
<pdfrwt beam="1">  1        1 0.40088094E-03 0.20000363E+02</pdfrwt>
<pdfrwt beam="2">  1       -1 0.59043713E-02 0.20000363E+02</pdfrwt>
<totfact> 0.35796172E+06</totfact>
</mgrwt>
</event>
<event>
 5    1  0.9583198E-007  0.2000016E+02  0.7818608E-02  0.1745325E+00
         -1   -1    0    0    0  501 -0.00000000000E+00  0.00000000000E+00  0.41081491325E+02  0.41081491591E+02  0.46700000000E-02 0. -1.
          1   -1    0    0  501    0  0.00000000000E+00 -0.00000000000E+00 -0.24342229683E+01  0.24342274479E+01  0.46700000000E-02 0.  1.
       1023    2    1    2    0    0  0.00000000000E+00  0.00000000000E+00  0.38647268357E+02  0.43515719038E+02  0.20000161299E+02 0.  0.
        -11    1    3    3    0    0 -0.86030994807E+01  0.50978561438E+01  0.19350704628E+02  0.21781901382E+02  0.51100000000E-03 0. -1.
         11    1    3    3    0    0  0.86030994807E+01 -0.50978561438E+01  0.19296563729E+02  0.21733817657E+02  0.51100000000E-03 0.  1.
<mgrwt>
<rscale>  0 0.20000161E+02</rscale>
<asrwt>0</asrwt>
<pdfrwt beam="2">  1        1 0.37449622E-03 0.20000161E+02</pdfrwt>
<pdfrwt beam="1">  1       -1 0.63202296E-02 0.20000161E+02</pdfrwt>
<totfact> 0.35587181E+06</totfact>
</mgrwt>
</event>
<event>
 5    1  0.9583198E-007  0.2000024E+02  0.7818608E-02  0.1745323E+00
          1   -1    0    0  501    0  0.00000000000E+00  0.00000000000E+00  0.13488325542E+01  0.13488406385E+01  0.46700000000E-02 0.  1.
         -1   -1    0    0    0  501 -0.00000000000E+00 -0.00000000000E+00 -0.74139708923E+02  0.74139709070E+02  0.46700000000E-02 0. -1.
       1023    2    1    2    0    0  0.00000000000E+00  0.00000000000E+00 -0.72790876369E+02  0.75488549709E+02  0.20000236363E+02 0.  0.
        -11    1    3    3    0    0 -0.19455947074E+01 -0.98089908780E+01 -0.36496896222E+02  0.37842107168E+02  0.51100000000E-03 0.  1.
         11    1    3    3    0    0  0.19455947074E+01  0.98089908780E+01 -0.36293980147E+02  0.37646442541E+02  0.51100000000E-03 0. -1.
<mgrwt>
<rscale>  0 0.20000236E+02</rscale>
<asrwt>0</asrwt>
<pdfrwt beam="1">  1        1 0.20751339E-03 0.20000236E+02</pdfrwt>
<pdfrwt beam="2">  1       -1 0.11406106E-01 0.20000236E+02</pdfrwt>
<totfact> 0.33344269E+06</totfact>
</mgrwt>
</event>
<event>
 5    1  0.9583198E-007  0.2000048E+02  0.7818608E-02  0.1745319E+00
         -1   -1    0    0    0  501 -0.00000000000E+00  0.00000000000E+00  0.22603921420E+02  0.22603921902E+02  0.46700000000E-02 0.  1.
          1   -1    0    0  501    0  0.00000000000E+00 -0.00000000000E+00 -0.44242208846E+01  0.44242233493E+01  0.46700000000E-02 0. -1.
       1023    2    1    2    0    0  0.00000000000E+00  0.00000000000E+00  0.18179700535E+02  0.27028145251E+02  0.20000478099E+02 0.  0.
        -11    1    3    3    0    0  0.64117559522E+01  0.76739496081E+01  0.89975620774E+01  0.13451997643E+02  0.51100000000E-03 0. -1.
         11    1    3    3    0    0 -0.64117559522E+01 -0.76739496081E+01  0.91821384577E+01  0.13576147609E+02  0.51100000000E-03 0.  1.
<mgrwt>
<rscale>  0 0.20000478E+02</rscale>
<asrwt>0</asrwt>
<pdfrwt beam="2">  1        1 0.68064960E-03 0.20000478E+02</pdfrwt>
<pdfrwt beam="1">  1       -1 0.34775265E-02 0.20000478E+02</pdfrwt>
<totfact> 0.37157029E+06</totfact>
</mgrwt>
</event>
<event>
 4    1  0.9957843E-007  0.2029334E+02  0.7818608E-02  0.1739557E+00
          1   -1    0    0  501    0  0.00000000000E+00  0.00000000000E+00  0.82701897957E+01  0.82701911142E+01  0.46700000000E-02 0.  1.
         -1   -1    0    0    0  501 -0.00000000000E+00 -0.00000000000E+00 -0.12448919682E+02  0.12448920558E+02  0.46700000000E-02 0. -1.
        -11    1    1    2    0    0 -0.52058833437E+01  0.86605785969E+01 -0.30296143970E+01  0.10549189859E+02  0.51100000000E-03 0. -1.
         11    1    1    2    0    0  0.52058833437E+01 -0.86605785969E+01 -0.11491154894E+01  0.10169921813E+02  0.51100000000E-03 0.  1.
<mgrwt>
<rscale>  0 0.20293344E+02</rscale>
<asrwt>0</asrwt>
<pdfrwt beam="1">  1        1 0.12723371E-02 0.20293344E+02</pdfrwt>
<pdfrwt beam="2">  1       -1 0.19152186E-02 0.20293344E+02</pdfrwt>
<totfact> 0.37072791E+06</totfact>
</mgrwt>
</event>
<event>
 5    1  0.9583198E-007  0.2000038E+02  0.7818608E-02  0.1745321E+00
         -1   -1    0    0    0  501 -0.00000000000E+00  0.00000000000E+00  0.30320767113E+01  0.30320803077E+01  0.46700000000E-02 0. -1.
          1   -1    0    0  501    0  0.00000000000E+00 -0.00000000000E+00 -0.32981912931E+02  0.32981913262E+02  0.46700000000E-02 0.  1.
       1023    2    1    2    0    0  0.00000000000E+00  0.00000000000E+00 -0.29949836220E+02  0.36013993570E+02  0.20000376077E+02 0.  0.
        -11    1    3    3    0    0 -0.65577375520E+01  0.75497444630E+01 -0.15037224488E+02  0.18058811805E+02  0.51100000000E-03 0. -1.
         11    1    3    3    0    0  0.65577375520E+01 -0.75497444630E+01 -0.14912611732E+02  0.17955181764E+02  0.51100000000E-03 0.  1.
<mgrwt>
<rscale>  0 0.20000376E+02</rscale>
<asrwt>0</asrwt>
<pdfrwt beam="2">  1        1 0.50741405E-02 0.20000376E+02</pdfrwt>
<pdfrwt beam="1">  1       -1 0.46647367E-03 0.20000376E+02</pdfrwt>
<totfact> 0.40656702E+06</totfact>
</mgrwt>
</event>
<event>
 5    1  0.9583198E-007  0.2000029E+02  0.7818608E-02  0.1745322E+00
          1   -1    0    0  501    0  0.00000000000E+00  0.00000000000E+00  0.78662019239E+01  0.78662033101E+01  0.46700000000E-02 0. -1.
         -1   -1    0    0    0  501 -0.00000000000E+00 -0.00000000000E+00 -0.12712981645E+02  0.12712982503E+02  0.46700000000E-02 0.  1.
       1023    2    1    2    0    0  0.00000000000E+00  0.00000000000E+00 -0.48467797209E+01  0.20579185813E+02  0.20000290374E+02 0.  0.
        -11    1    3    3    0    0  0.66072472795E+01  0.75064539596E+01 -0.24422462486E+01  0.10294033935E+02  0.51100000000E-03 0. -1.
         11    1    3    3    0    0 -0.66072472795E+01 -0.75064539596E+01 -0.24045334722E+01  0.10285151877E+02  0.51100000000E-03 0.  1.
<mgrwt>
<rscale>  0 0.20000290E+02</rscale>
<asrwt>0</asrwt>
<pdfrwt beam="1">  1        1 0.12101851E-02 0.20000290E+02</pdfrwt>
<pdfrwt beam="2">  1       -1 0.19558435E-02 0.20000290E+02</pdfrwt>
<totfact> 0.38240303E+06</totfact>
</mgrwt>
</event>
<event>
 5    1  0.9583198E-007  0.2000025E+02  0.7818608E-02  0.1745323E+00
         -1   -1    0    0    0  501 -0.00000000000E+00  0.00000000000E+00  0.14525108681E+02  0.14525109432E+02  0.46700000000E-02 0. -1.
          1   -1    0    0  501    0  0.00000000000E+00 -0.00000000000E+00 -0.68848038342E+01  0.68848054180E+01  0.46700000000E-02 0.  1.
       1023    2    1    2    0    0  0.00000000000E+00  0.00000000000E+00  0.76403048469E+01  0.21409914850E+02  0.20000254892E+02 0.  0.
        -11    1    3    3    0    0  0.99994785099E+01 -0.11370694635E+00  0.38126643976E+01  0.10702285261E+02  0.51100000000E-03 0.  1.
         11    1    3    3    0    0 -0.99994785099E+01  0.11370694635E+00  0.38276404493E+01  0.10707629589E+02  0.51100000000E-03 0. -1.
<mgrwt>
<rscale>  0 0.20000255E+02</rscale>
<asrwt>0</asrwt>
<pdfrwt beam="2">  1        1 0.10592008E-02 0.20000255E+02</pdfrwt>
<pdfrwt beam="1">  1       -1 0.22346323E-02 0.20000255E+02</pdfrwt>
<totfact> 0.38015028E+06</totfact>
</mgrwt>
</event>
<event>
 5    1  0.9957983E-007  0.2000117E+02  0.7818608E-02  0.1745305E+00
         -1   -1    0    0    0  501 -0.00000000000E+00  0.00000000000E+00  0.17091034721E+01  0.17091098524E+01  0.46700000000E-02 0.  1.
          1   -1    0    0  501    0  0.00000000000E+00 -0.00000000000E+00 -0.58516959133E+02  0.58516959320E+02  0.46700000000E-02 0. -1.
       1023    2    1    2    0    0  0.00000000000E+00  0.00000000000E+00 -0.56807855661E+02  0.60226069172E+02  0.20001173543E+02 0.  0.
        -11    1    3    3    0    0 -0.81994446334E+01 -0.57253073462E+01 -0.28528043512E+02  0.30230105911E+02  0.51100000000E-03 0. -1.
         11    1    3    3    0    0  0.81994446334E+01  0.57253073462E+01 -0.28279812149E+02  0.29995963261E+02  0.51100000000E-03 0.  1.
<mgrwt>
<rscale>  0 0.20001174E+02</rscale>
<asrwt>0</asrwt>
<pdfrwt beam="2">  1        1 0.90026081E-02 0.20001174E+02</pdfrwt>
<pdfrwt beam="1">  1       -1 0.26293955E-03 0.20001174E+02</pdfrwt>
<totfact> 0.42197950E+06</totfact>
</mgrwt>
</event>
<event>
 5    1  0.9583198E-007  0.2000031E+02  0.7818608E-02  0.1745322E+00
         -1   -1    0    0    0  501 -0.00000000000E+00  0.00000000000E+00  0.14094756970E+02  0.14094757743E+02  0.46700000000E-02 0. -1.
          1   -1    0    0  501    0  0.00000000000E+00 -0.00000000000E+00 -0.70950560857E+01  0.70950576226E+01  0.46700000000E-02 0.  1.
       1023    2    1    2    0    0  0.00000000000E+00  0.00000000000E+00  0.69997008838E+01  0.21189815366E+02  0.20000311567E+02 0.  0.
        -11    1    3    3    0    0  0.98484768295E+01 -0.17351134977E+01  0.35007499953E+01  0.10595204835E+02  0.51100000000E-03 0.  1.
         11    1    3    3    0    0 -0.98484768295E+01  0.17351134977E+01  0.34989508885E+01  0.10594610530E+02  0.51100000000E-03 0. -1.
<mgrwt>
<rscale>  0 0.20000312E+02</rscale>
<asrwt>0</asrwt>
<pdfrwt beam="2">  1        1 0.10915473E-02 0.20000312E+02</pdfrwt>
<pdfrwt beam="1">  1       -1 0.21684243E-02 0.20000312E+02</pdfrwt>
<totfact> 0.38066698E+06</totfact>
</mgrwt>
</event>
<event>
 5    1  0.1006850E-006  0.2000114E+02  0.7818608E-02  0.1745305E+00
          1   -1    0    0  501    0  0.00000000000E+00  0.00000000000E+00  0.45180667381E+02  0.45180667622E+02  0.46700000000E-02 0.  1.
         -1   -1    0    0    0  501 -0.00000000000E+00 -0.00000000000E+00 -0.22135867546E+01  0.22135916807E+01  0.46700000000E-02 0. -1.
       1023    2    1    2    0    0  0.00000000000E+00  0.00000000000E+00  0.42967080626E+02  0.47394259303E+02  0.20001144901E+02 0.  0.
        -11    1    3    3    0    0  0.83447506371E+00  0.99654474604E+01  0.21316701984E+02  0.23545875976E+02  0.51100000000E-03 0.  1.
         11    1    3    3    0    0 -0.83447506371E+00 -0.99654474604E+01  0.21650378642E+02  0.23848383327E+02  0.51100000000E-03 0. -1.
<mgrwt>
<rscale>  0 0.20001145E+02</rscale>
<asrwt>0</asrwt>
<pdfrwt beam="1">  1        1 0.69508725E-02 0.20001145E+02</pdfrwt>
<pdfrwt beam="2">  1       -1 0.34055220E-03 0.20001145E+02</pdfrwt>
<totfact> 0.41423064E+06</totfact>
</mgrwt>
</event>
<event>
 5    1  0.9583198E-007  0.2000020E+02  0.7818608E-02  0.1745324E+00
         -1   -1    0    0    0  501 -0.00000000000E+00  0.00000000000E+00  0.27147057390E+01  0.27147097558E+01  0.46700000000E-02 0.  1.
          1   -1    0    0  501    0  0.00000000000E+00 -0.00000000000E+00 -0.36837117178E+02  0.36837117474E+02  0.46700000000E-02 0. -1.
       1023    2    1    2    0    0  0.00000000000E+00  0.00000000000E+00 -0.34122411439E+02  0.39551827230E+02  0.20000201869E+02 0.  0.
        -11    1    3    3    0    0  0.18835953699E+01 -0.98210827741E+01 -0.17020674239E+02  0.19740946031E+02  0.51100000000E-03 0.  1.
         11    1    3    3    0    0 -0.18835953699E+01  0.98210827741E+01 -0.17101737200E+02  0.19810881199E+02  0.51100000000E-03 0. -1.
<mgrwt>
<rscale>  0 0.20000202E+02</rscale>
<asrwt>0</asrwt>
<pdfrwt beam="2">  1        1 0.56672488E-02 0.20000202E+02</pdfrwt>
<pdfrwt beam="1">  1       -1 0.41764739E-03 0.20000202E+02</pdfrwt>
<totfact> 0.40909224E+06</totfact>
</mgrwt>
</event>
<event>
 5    1  0.9583198E-007  0.2000132E+02  0.7818608E-02  0.1745302E+00
         -1   -1    0    0    0  501 -0.00000000000E+00  0.00000000000E+00  0.87762091537E+00  0.87763334029E+00  0.46700000000E-02 0.  1.
          1   -1    0    0  501    0  0.00000000000E+00 -0.00000000000E+00 -0.11395859609E+03  0.11395859618E+03  0.46700000000E-02 0. -1.
       1023    2    1    2    0    0  0.00000000000E+00  0.00000000000E+00 -0.11308097517E+03  0.11483622952E+03  0.20001316589E+02 0.  0.
        -11    1    3    3    0    0 -0.80914220442E+01  0.58762195890E+01 -0.55908963646E+02  0.56796243570E+02  0.51100000000E-03 0. -1.
         11    1    3    3    0    0  0.80914220442E+01 -0.58762195890E+01 -0.57172011526E+02  0.58039985954E+02  0.51100000000E-03 0.  1.
<mgrwt>
<rscale>  0 0.20001317E+02</rscale>
<asrwt>0</asrwt>
<pdfrwt beam="2">  1        1 0.17532081E-01 0.20001317E+02</pdfrwt>
<pdfrwt beam="1">  1       -1 0.13501966E-03 0.20001317E+02</pdfrwt>
<totfact> 0.45015847E+06</totfact>
</mgrwt>
</event>
<event>
 5    1  0.9583198E-007  0.2000294E+02  0.7818608E-02  0.1745270E+00
          1   -1    0    0  501    0  0.00000000000E+00  0.00000000000E+00  0.26091852240E+02  0.26091852658E+02  0.46700000000E-02 0.  1.
         -1   -1    0    0    0  501 -0.00000000000E+00 -0.00000000000E+00 -0.38337392362E+01  0.38337420805E+01  0.46700000000E-02 0. -1.
       1023    2    1    2    0    0  0.00000000000E+00  0.00000000000E+00  0.22258113004E+02  0.29925594739E+02  0.20002940433E+02 0.  0.
        -11    1    3    3    0    0 -0.23746592436E+01  0.97154088308E+01  0.11181545725E+02  0.15001837898E+02  0.51100000000E-03 0.  1.
         11    1    3    3    0    0  0.23746592436E+01 -0.97154088308E+01  0.11076567279E+02  0.14923756840E+02  0.51100000000E-03 0. -1.
<mgrwt>
<rscale>  0 0.20002940E+02</rscale>
<asrwt>0</asrwt>
<pdfrwt beam="1">  1        1 0.40141313E-02 0.20002940E+02</pdfrwt>
<pdfrwt beam="2">  1       -1 0.58980630E-03 0.20002940E+02</pdfrwt>
<totfact> 0.40166659E+06</totfact>
</mgrwt>
</event>
<event>
 5    1  0.9852582E-007  0.2000118E+02  0.7818608E-02  0.1745305E+00
          1   -1    0    0  501    0  0.00000000000E+00  0.00000000000E+00  0.79440733224E+01  0.79440746950E+01  0.46700000000E-02 0.  1.
         -1   -1    0    0    0  501 -0.00000000000E+00 -0.00000000000E+00 -0.12589481270E+02  0.12589482136E+02  0.46700000000E-02 0. -1.
       1023    2    1    2    0    0  0.00000000000E+00  0.00000000000E+00 -0.46454079476E+01  0.20533556831E+02  0.20001178494E+02 0.  0.
        -11    1    3    3    0    0 -0.74096076418E+01  0.67157725927E+01 -0.24139407512E+01  0.10287419362E+02  0.51100000000E-03 0.  1.
         11    1    3    3    0    0  0.74096076418E+01 -0.67157725927E+01 -0.22314671964E+01  0.10246137469E+02  0.51100000000E-03 0. -1.
<mgrwt>
<rscale>  0 0.20001178E+02</rscale>
<asrwt>0</asrwt>
<pdfrwt beam="1">  1        1 0.12221653E-02 0.20001178E+02</pdfrwt>
<pdfrwt beam="2">  1       -1 0.19368435E-02 0.20001178E+02</pdfrwt>
<totfact> 0.38252648E+06</totfact>
</mgrwt>
</event>
<event>
 4    1  0.9583198E-007  0.2001855E+02  0.7818608E-02  0.1744959E+00
          1   -1    0    0  501    0  0.00000000000E+00  0.00000000000E+00  0.72163475056E+02  0.72163475207E+02  0.46700000000E-02 0.  1.
         -1   -1    0    0    0  501 -0.00000000000E+00 -0.00000000000E+00 -0.13883103438E+01  0.13883181983E+01  0.46700000000E-02 0. -1.
        -11    1    1    2    0    0 -0.49331362266E+01 -0.87091301256E+01  0.35282855832E+02  0.36675123674E+02  0.51100000000E-03 0.  1.
         11    1    1    2    0    0  0.49331362266E+01  0.87091301256E+01  0.35492308880E+02  0.36876669732E+02  0.51100000000E-03 0. -1.
<mgrwt>
<rscale>  0 0.20018551E+02</rscale>
<asrwt>0</asrwt>
<pdfrwt beam="1">  1        1 0.11102074E-01 0.20018551E+02</pdfrwt>
<pdfrwt beam="2">  1       -1 0.21358682E-03 0.20018551E+02</pdfrwt>
<totfact> 0.42861271E+06</totfact>
</mgrwt>
</event>
<event>
 5    1  0.9583198E-007  0.2000042E+02  0.7818608E-02  0.1745320E+00
          1   -1    0    0  501    0  0.00000000000E+00  0.00000000000E+00  0.61390842161E+02  0.61390842338E+02  0.46700000000E-02 0. -1.
         -1   -1    0    0    0  501 -0.00000000000E+00 -0.00000000000E+00 -0.16289729971E+01  0.16289796911E+01  0.46700000000E-02 0.  1.
       1023    2    1    2    0    0  0.00000000000E+00  0.00000000000E+00  0.59761869164E+02  0.63019822029E+02  0.20000424063E+02 0.  0.
        -11    1    3    3    0    0 -0.94278534862E+01  0.33345918262E+01  0.29824886367E+02  0.31456760340E+02  0.51100000000E-03 0.  1.
         11    1    3    3    0    0  0.94278534862E+01 -0.33345918262E+01  0.29936982796E+02  0.31563061689E+02  0.51100000000E-03 0. -1.
<mgrwt>
<rscale>  0 0.20000424E+02</rscale>
<asrwt>0</asrwt>
<pdfrwt beam="1">  1        1 0.94447440E-02 0.20000424E+02</pdfrwt>
<pdfrwt beam="2">  1       -1 0.25061180E-03 0.20000424E+02</pdfrwt>
<totfact> 0.42362134E+06</totfact>
</mgrwt>
</event>
<event>
 5    1  0.9583198E-007  0.2000189E+02  0.7818608E-02  0.1745290E+00
          1   -1    0    0  501    0  0.00000000000E+00  0.00000000000E+00  0.96731533683E+01  0.96731544956E+01  0.46700000000E-02 0.  1.
         -1   -1    0    0    0  501 -0.00000000000E+00 -0.00000000000E+00 -0.10339843365E+02  0.10339844420E+02  0.46700000000E-02 0. -1.
       1023    2    1    2    0    0  0.00000000000E+00  0.00000000000E+00 -0.66668999711E+00  0.20012998916E+02  0.20001891162E+02 0.  0.
        -11    1    3    3    0    0 -0.30866852767E+01 -0.95126740481E+01 -0.31548270783E+00  0.10005904414E+02  0.51100000000E-03 0.  1.
         11    1    3    3    0    0  0.30866852767E+01  0.95126740481E+01 -0.35120728929E+00  0.10007094502E+02  0.51100000000E-03 0. -1.
<mgrwt>
<rscale>  0 0.20001891E+02</rscale>
<asrwt>0</asrwt>
<pdfrwt beam="1">  1        1 0.14881776E-02 0.20001891E+02</pdfrwt>
<pdfrwt beam="2">  1       -1 0.15907453E-02 0.20001891E+02</pdfrwt>
<totfact> 0.38564051E+06</totfact>
</mgrwt>
</event>
<event>
 5    1  0.9583198E-007  0.2000060E+02  0.7818608E-02  0.1745316E+00
         -1   -1    0    0    0  501 -0.00000000000E+00  0.00000000000E+00  0.95488259711E+01  0.95488271131E+01  0.46700000000E-02 0.  1.
          1   -1    0    0  501    0  0.00000000000E+00 -0.00000000000E+00 -0.10473116740E+02  0.10473117781E+02  0.46700000000E-02 0. -1.
       1023    2    1    2    0    0  0.00000000000E+00  0.00000000000E+00 -0.92429076847E+00  0.20021944894E+02  0.20000599089E+02 0.  0.
        -11    1    3    3    0    0  0.97732622271E+01 -0.21188024667E+01 -0.46565098247E+00  0.10011134279E+02  0.51100000000E-03 0.  1.
         11    1    3    3    0    0 -0.97732622271E+01  0.21188024667E+01 -0.45863978600E+00  0.10010810615E+02  0.51100000000E-03 0. -1.
<mgrwt>
<rscale>  0 0.20000599E+02</rscale>
<asrwt>0</asrwt>
<pdfrwt beam="2">  1        1 0.16112489E-02 0.20000599E+02</pdfrwt>
<pdfrwt beam="1">  1       -1 0.14690503E-02 0.20000599E+02</pdfrwt>
<totfact> 0.38692725E+06</totfact>
</mgrwt>
</event>
<event>
 5    1  0.1006214E-006  0.2000072E+02  0.7818608E-02  0.1745314E+00
          1   -1    0    0  501    0  0.00000000000E+00  0.00000000000E+00  0.92276603296E+02  0.92276603414E+02  0.46700000000E-02 0.  1.
         -1   -1    0    0    0  501 -0.00000000000E+00 -0.00000000000E+00 -0.10837717345E+01  0.10837817960E+01  0.46700000000E-02 0. -1.
       1023    2    1    2    0    0  0.00000000000E+00  0.00000000000E+00  0.91192831562E+02  0.93360385210E+02  0.20000724947E+02 0.  0.
        -11    1    3    3    0    0 -0.94987463258E+01  0.31273100004E+01  0.45448824893E+02  0.46536028344E+02  0.51100000000E-03 0. -1.
         11    1    3    3    0    0  0.94987463258E+01 -0.31273100004E+01  0.45744006668E+02  0.46824356866E+02  0.51100000000E-03 0.  1.
<mgrwt>
<rscale>  0 0.20000725E+02</rscale>
<asrwt>0</asrwt>
<pdfrwt beam="1">  1        1 0.14196401E-01 0.20000725E+02</pdfrwt>
<pdfrwt beam="2">  1       -1 0.16673490E-03 0.20000725E+02</pdfrwt>
<totfact> 0.43977911E+06</totfact>
</mgrwt>
</event>
<event>
 5    1  0.9907380E-007  0.2000168E+02  0.7818608E-02  0.1745295E+00
         -1   -1    0    0    0  501 -0.00000000000E+00  0.00000000000E+00  0.59414968647E+01  0.59414987000E+01  0.46700000000E-02 0.  1.
          1   -1    0    0  501    0  0.00000000000E+00 -0.00000000000E+00 -0.16833591911E+02  0.16833592558E+02  0.46700000000E-02 0. -1.
       1023    2    1    2    0    0  0.00000000000E+00  0.00000000000E+00 -0.10892095046E+02  0.22775091258E+02  0.20001676113E+02 0.  0.
        -11    1    3    3    0    0 -0.96182661518E+01  0.27391569586E+01 -0.55056175902E+01  0.11416034772E+02  0.51100000000E-03 0. -1.
         11    1    3    3    0    0  0.96182661518E+01 -0.27391569586E+01 -0.53864774558E+01  0.11359056486E+02  0.51100000000E-03 0.  1.
<mgrwt>
<rscale>  0 0.20001676E+02</rscale>
<asrwt>0</asrwt>
<pdfrwt beam="2">  1        1 0.25897835E-02 0.20001676E+02</pdfrwt>
<pdfrwt beam="1">  1       -1 0.91407664E-03 0.20001676E+02</pdfrwt>
<totfact> 0.39417746E+06</totfact>
</mgrwt>
</event>
<event>
 4    1  0.1058772E-006  0.2075766E+02  0.7818608E-02  0.1730668E+00
         -1   -1    0    0    0  501 -0.00000000000E+00  0.00000000000E+00  0.33192468411E+02  0.33192468740E+02  0.46700000000E-02 0.  1.
          1   -1    0    0  501    0  0.00000000000E+00 -0.00000000000E+00 -0.32453172306E+01  0.32453205906E+01  0.46700000000E-02 0. -1.
        -11    1    1    2    0    0  0.44506101843E+01 -0.92766389205E+01  0.12581992667E+02  0.16253322750E+02  0.51100000000E-03 0.  1.
         11    1    1    2    0    0 -0.44506101843E+01  0.92766389205E+01  0.17365158514E+02  0.20184466581E+02  0.51100000000E-03 0. -1.
<mgrwt>
<rscale>  0 0.20757664E+02</rscale>
<asrwt>0</asrwt>
<pdfrwt beam="2">  1        1 0.49927988E-03 0.20757664E+02</pdfrwt>
<pdfrwt beam="1">  1       -1 0.51065337E-02 0.20757664E+02</pdfrwt>
<totfact> 0.33360903E+06</totfact>
</mgrwt>
</event>
<event>
 5    1  0.9583198E-007  0.2000007E+02  0.7818608E-02  0.1745327E+00
         -1   -1    0    0    0  501 -0.00000000000E+00  0.00000000000E+00  0.39632729526E+01  0.39632757039E+01  0.46700000000E-02 0. -1.
          1   -1    0    0  501    0  0.00000000000E+00 -0.00000000000E+00 -0.25231835055E+02  0.25231835487E+02  0.46700000000E-02 0.  1.
       1023    2    1    2    0    0  0.00000000000E+00  0.00000000000E+00 -0.21268562102E+02  0.29195111191E+02  0.20000069589E+02 0.  0.
        -11    1    3    3    0    0 -0.31698178724E+01  0.94843369115E+01 -0.10608844852E+02  0.14579025391E+02  0.51100000000E-03 0. -1.
         11    1    3    3    0    0  0.31698178724E+01 -0.94843369115E+01 -0.10659717250E+02  0.14616085800E+02  0.51100000000E-03 0.  1.
<mgrwt>
<rscale>  0 0.20000070E+02</rscale>
<asrwt>0</asrwt>
<pdfrwt beam="2">  1        1 0.38818209E-02 0.20000070E+02</pdfrwt>
<pdfrwt beam="1">  1       -1 0.60973456E-03 0.20000070E+02</pdfrwt>
<totfact> 0.40116256E+06</totfact>
</mgrwt>
</event>
<event>
 4    1  0.9583198E-007  0.2001341E+02  0.7818608E-02  0.1745062E+00
          1   -1    0    0  501    0  0.00000000000E+00  0.00000000000E+00  0.61634843228E+02  0.61634843405E+02  0.46700000000E-02 0. -1.
         -1   -1    0    0    0  501 -0.00000000000E+00 -0.00000000000E+00 -0.16246311984E+01  0.16246379104E+01  0.46700000000E-02 0.  1.
        -11    1    1    2    0    0  0.81917602788E+01  0.57444957504E+01  0.29458187085E+02  0.31110913752E+02  0.51100000000E-03 0. -1.
         11    1    1    2    0    0 -0.81917602788E+01 -0.57444957504E+01  0.30552024945E+02  0.32148567564E+02  0.51100000000E-03 0.  1.
<mgrwt>
<rscale>  0 0.20013406E+02</rscale>
<asrwt>0</asrwt>
<pdfrwt beam="1">  1        1 0.94822828E-02 0.20013406E+02</pdfrwt>
<pdfrwt beam="2">  1       -1 0.24994383E-03 0.20013406E+02</pdfrwt>
<totfact> 0.42314747E+06</totfact>
</mgrwt>
</event>
<event>
 5    1  0.9583198E-007  0.2000103E+02  0.7818608E-02  0.1745308E+00
         -1   -1    0    0    0  501 -0.00000000000E+00  0.00000000000E+00  0.47125001320E+02  0.47125001551E+02  0.46700000000E-02 0. -1.
          1   -1    0    0  501    0  0.00000000000E+00 -0.00000000000E+00 -0.21222318962E+01  0.21222370344E+01  0.46700000000E-02 0.  1.
       1023    2    1    2    0    0  0.00000000000E+00  0.00000000000E+00  0.45002769424E+02  0.49247238585E+02  0.20001031286E+02 0.  0.
        -11    1    3    3    0    0  0.78206996570E+01 -0.62320084701E+01  0.22267275903E+02  0.24409687608E+02  0.51100000000E-03 0.  1.
         11    1    3    3    0    0 -0.78206996570E+01  0.62320084701E+01  0.22735493520E+02  0.24837550978E+02  0.51100000000E-03 0. -1.
<mgrwt>
<rscale>  0 0.20001031E+02</rscale>
<asrwt>0</asrwt>
<pdfrwt beam="2">  1        1 0.32649764E-03 0.20001031E+02</pdfrwt>
<pdfrwt beam="1">  1       -1 0.72500004E-02 0.20001031E+02</pdfrwt>
<totfact> 0.35132525E+06</totfact>
</mgrwt>
</event>
<event>
 5    1  0.9583198E-007  0.2000178E+02  0.7818608E-02  0.1745293E+00
          1   -1    0    0  501    0  0.00000000000E+00  0.00000000000E+00  0.24295423000E+01  0.24295467882E+01  0.46700000000E-02 0.  1.
         -1   -1    0    0    0  501 -0.00000000000E+00 -0.00000000000E+00 -0.41167320149E+02  0.41167320414E+02  0.46700000000E-02 0. -1.
       1023    2    1    2    0    0  0.00000000000E+00  0.00000000000E+00 -0.38737777849E+02  0.43596867202E+02  0.20001784849E+02 0.  0.
        -11    1    3    3    0    0 -0.69615270694E+01 -0.71800690134E+01 -0.19456043570E+02  0.21875874424E+02  0.51100000000E-03 0.  1.
         11    1    3    3    0    0  0.69615270694E+01  0.71800690134E+01 -0.19281734279E+02  0.21720992778E+02  0.51100000000E-03 0. -1.
<mgrwt>
<rscale>  0 0.20001785E+02</rscale>
<asrwt>0</asrwt>
<pdfrwt beam="1">  1        1 0.37377613E-03 0.20001785E+02</pdfrwt>
<pdfrwt beam="2">  1       -1 0.63334337E-02 0.20001785E+02</pdfrwt>
<totfact> 0.35574251E+06</totfact>
</mgrwt>
</event>
<event>
 5    1  0.9583198E-007  0.2000478E+02  0.7818608E-02  0.1745233E+00
          1   -1    0    0  501    0  0.00000000000E+00  0.00000000000E+00  0.27141085909E+02  0.27141086310E+02  0.46700000000E-02 0.  1.
         -1   -1    0    0    0  501 -0.00000000000E+00 -0.00000000000E+00 -0.36862112157E+01  0.36862141739E+01  0.46700000000E-02 0. -1.
       1023    2    1    2    0    0  0.00000000000E+00  0.00000000000E+00  0.23454874693E+02  0.30827300484E+02  0.20004782135E+02 0.  0.
        -11    1    3    3    0    0  0.31152261791E+01  0.95049034781E+01  0.11729890759E+02  0.15415516915E+02  0.51100000000E-03 0.  1.
         11    1    3    3    0    0 -0.31152261791E+01 -0.95049034781E+01  0.11724983933E+02  0.15411783569E+02  0.51100000000E-03 0. -1.
<mgrwt>
<rscale>  0 0.20004782E+02</rscale>
<asrwt>0</asrwt>
<pdfrwt beam="1">  1        1 0.41755521E-02 0.20004782E+02</pdfrwt>
<pdfrwt beam="2">  1       -1 0.56710966E-03 0.20004782E+02</pdfrwt>
<totfact> 0.40234335E+06</totfact>
</mgrwt>
</event>
<event>
 5    1  0.9583198E-007  0.2000255E+02  0.7818608E-02  0.1745277E+00
         -1   -1    0    0    0  501 -0.00000000000E+00  0.00000000000E+00  0.32664638974E+02  0.32664639308E+02  0.46700000000E-02 0. -1.
          1   -1    0    0  501    0  0.00000000000E+00 -0.00000000000E+00 -0.30621931703E+01  0.30621967313E+01  0.46700000000E-02 0.  1.
       1023    2    1    2    0    0  0.00000000000E+00  0.00000000000E+00  0.29602445804E+02  0.35726836039E+02  0.20002550232E+02 0.  0.
        -11    1    3    3    0    0  0.95724556332E+01  0.28939226397E+01  0.14556267311E+02  0.17660453375E+02  0.51100000000E-03 0. -1.
         11    1    3    3    0    0 -0.95724556332E+01 -0.28939226397E+01  0.15046178492E+02  0.18066382665E+02  0.51100000000E-03 0.  1.
<mgrwt>
<rscale>  0 0.20002550E+02</rscale>
<asrwt>0</asrwt>
<pdfrwt beam="2">  1        1 0.47110693E-03 0.20002550E+02</pdfrwt>
<pdfrwt beam="1">  1       -1 0.50253295E-02 0.20002550E+02</pdfrwt>
<totfact> 0.36250068E+06</totfact>
</mgrwt>
</event>
<event>
 5    1  0.9583198E-007  0.2000061E+02  0.7818608E-02  0.1745316E+00
          1   -1    0    0  501    0  0.00000000000E+00  0.00000000000E+00  0.20366243366E+01  0.20366296907E+01  0.46700000000E-02 0. -1.
         -1   -1    0    0    0  501 -0.00000000000E+00 -0.00000000000E+00 -0.49103800706E+02  0.49103800928E+02  0.46700000000E-02 0.  1.
       1023    2    1    2    0    0  0.00000000000E+00  0.00000000000E+00 -0.47067176370E+02  0.51140430619E+02  0.20000613803E+02 0.  0.
        -11    1    3    3    0    0 -0.42486480657E+01  0.90527321525E+01 -0.23677506819E+02  0.25702671053E+02  0.51100000000E-03 0.  1.
         11    1    3    3    0    0  0.42486480657E+01 -0.90527321525E+01 -0.23389669551E+02  0.25437759566E+02  0.51100000000E-03 0. -1.
<mgrwt>
<rscale>  0 0.20000614E+02</rscale>
<asrwt>0</asrwt>
<pdfrwt beam="1">  1        1 0.31332729E-03 0.20000614E+02</pdfrwt>
<pdfrwt beam="2">  1       -1 0.75544305E-02 0.20000614E+02</pdfrwt>
<totfact> 0.34991245E+06</totfact>
</mgrwt>
</event>
<event>
 5    1  0.1015359E-006  0.2000082E+02  0.7818608E-02  0.1745312E+00
         -1   -1    0    0    0  501 -0.00000000000E+00  0.00000000000E+00  0.95711313642E+00  0.95712452941E+00  0.46700000000E-02 0.  1.
          1   -1    0    0  501    0  0.00000000000E+00 -0.00000000000E+00 -0.10448877458E+03  0.10448877468E+03  0.46700000000E-02 0. -1.
       1023    2    1    2    0    0  0.00000000000E+00  0.00000000000E+00 -0.10353166144E+03  0.10544589921E+03  0.20000818477E+02 0.  0.
        -11    1    3    3    0    0 -0.16424482207E+00 -0.99988685828E+01 -0.51439328714E+02  0.52402374833E+02  0.51100000000E-03 0.  1.
         11    1    3    3    0    0  0.16424482207E+00  0.99988685828E+01 -0.52092332730E+02  0.53043524381E+02  0.51100000000E-03 0. -1.
<mgrwt>
<rscale>  0 0.20000818E+02</rscale>
<asrwt>0</asrwt>
<pdfrwt beam="2">  1        1 0.16075188E-01 0.20000818E+02</pdfrwt>
<pdfrwt beam="1">  1       -1 0.14724914E-03 0.20000818E+02</pdfrwt>
<totfact> 0.44572773E+06</totfact>
</mgrwt>
</event>
<event>
 5    1  0.9583198E-007  0.2000036E+02  0.7818608E-02  0.1745321E+00
          1   -1    0    0  501    0  0.00000000000E+00  0.00000000000E+00  0.11107832622E+02  0.11107833604E+02  0.46700000000E-02 0. -1.
         -1   -1    0    0    0  501 -0.00000000000E+00 -0.00000000000E+00 -0.90029744528E+01  0.90029756640E+01  0.46700000000E-02 0.  1.
       1023    2    1    2    0    0  0.00000000000E+00  0.00000000000E+00  0.21048581696E+01  0.20110809268E+02  0.20000355535E+02 0.  0.
        -11    1    3    3    0    0  0.40074048628E+01 -0.91620287204E+01  0.10136009501E+01  0.10051340764E+02  0.51100000000E-03 0.  1.
         11    1    3    3    0    0 -0.40074048628E+01  0.91620287204E+01  0.10912572195E+01  0.10059468504E+02  0.51100000000E-03 0. -1.
<mgrwt>
<rscale>  0 0.20000356E+02</rscale>
<asrwt>0</asrwt>
<pdfrwt beam="1">  1        1 0.17088975E-02 0.20000356E+02</pdfrwt>
<pdfrwt beam="2">  1       -1 0.13850732E-02 0.20000356E+02</pdfrwt>
<totfact> 0.38784074E+06</totfact>
</mgrwt>
</event>
<event>
 4    1  0.9583198E-007  0.2001269E+02  0.7818608E-02  0.1745076E+00
          1   -1    0    0  501    0  0.00000000000E+00  0.00000000000E+00  0.25750726988E+02  0.25750727412E+02  0.46700000000E-02 0.  1.
         -1   -1    0    0    0  501 -0.00000000000E+00 -0.00000000000E+00 -0.38883145132E+01  0.38883173176E+01  0.46700000000E-02 0. -1.
        -11    1    1    2    0    0 -0.13746962556E+01 -0.99080687461E+01  0.10546835825E+02  0.14536002279E+02  0.51100000000E-03 0. -1.
         11    1    1    2    0    0  0.13746962556E+01  0.99080687461E+01  0.11315576650E+02  0.15103042450E+02  0.51100000000E-03 0.  1.
<mgrwt>
<rscale>  0 0.20012693E+02</rscale>
<asrwt>0</asrwt>
<pdfrwt beam="1">  1        1 0.39616506E-02 0.20012693E+02</pdfrwt>
<pdfrwt beam="2">  1       -1 0.59820247E-03 0.20012693E+02</pdfrwt>
<totfact> 0.40097930E+06</totfact>
</mgrwt>
</event>
<event>
 5    1  0.9583198E-007  0.2000006E+02  0.7818608E-02  0.1745327E+00
          1   -1    0    0  501    0  0.00000000000E+00  0.00000000000E+00  0.60791104558E+02  0.60791104738E+02  0.46700000000E-02 0.  1.
         -1   -1    0    0    0  501 -0.00000000000E+00 -0.00000000000E+00 -0.16449843812E+01  0.16449910101E+01  0.46700000000E-02 0. -1.
       1023    2    1    2    0    0  0.00000000000E+00  0.00000000000E+00  0.59146120177E+02  0.62436095748E+02  0.20000063005E+02 0.  0.
        -11    1    3    3    0    0 -0.98000652295E+01 -0.19897869897E+01  0.29604125733E+02  0.31247476561E+02  0.51100000000E-03 0.  1.
         11    1    3    3    0    0  0.98000652295E+01  0.19897869897E+01  0.29541994445E+02  0.31188619187E+02  0.51100000000E-03 0. -1.
<mgrwt>
<rscale>  0 0.20000063E+02</rscale>
<asrwt>0</asrwt>
<pdfrwt beam="1">  1        1 0.93524759E-02 0.20000063E+02</pdfrwt>
<pdfrwt beam="2">  1       -1 0.25307511E-03 0.20000063E+02</pdfrwt>
<totfact> 0.42330467E+06</totfact>
</mgrwt>
</event>
<event>
 5    1  0.9583198E-007  0.2000002E+02  0.7818608E-02  0.1745328E+00
          1   -1    0    0  501    0  0.00000000000E+00  0.00000000000E+00  0.89291184553E+02  0.89291184675E+02  0.46700000000E-02 0. -1.
         -1   -1    0    0    0  501 -0.00000000000E+00 -0.00000000000E+00 -0.11199290451E+01  0.11199387818E+01  0.46700000000E-02 0.  1.
       1023    2    1    2    0    0  0.00000000000E+00  0.00000000000E+00  0.88171255508E+02  0.90411123457E+02  0.20000023673E+02 0.  0.
        -11    1    3    3    0    0  0.46202056293E+01 -0.88687043905E+01  0.44105251339E+02  0.45224699154E+02  0.51100000000E-03 0. -1.
         11    1    3    3    0    0 -0.46202056293E+01  0.88687043905E+01  0.44066004169E+02  0.45186424303E+02  0.51100000000E-03 0.  1.
<mgrwt>
<rscale>  0 0.20000024E+02</rscale>
<asrwt>0</asrwt>
<pdfrwt beam="1">  1        1 0.13737107E-01 0.20000024E+02</pdfrwt>
<pdfrwt beam="2">  1       -1 0.17229752E-03 0.20000024E+02</pdfrwt>
<totfact> 0.43832199E+06</totfact>
</mgrwt>
</event>
<event>
 5    1  0.9583198E-007  0.2000072E+02  0.7818608E-02  0.1745314E+00
          1   -1    0    0  501    0  0.00000000000E+00  0.00000000000E+00  0.38330425155E+01  0.38330453603E+01  0.46700000000E-02 0. -1.
         -1   -1    0    0    0  501 -0.00000000000E+00 -0.00000000000E+00 -0.26090808505E+02  0.26090808923E+02  0.46700000000E-02 0.  1.
       1023    2    1    2    0    0  0.00000000000E+00  0.00000000000E+00 -0.22257765990E+02  0.29923854284E+02  0.20000722695E+02 0.  0.
        -11    1    3    3    0    0 -0.56688219485E+01  0.82383759588E+01 -0.11085363686E+02  0.14929556894E+02  0.51100000000E-03 0. -1.
         11    1    3    3    0    0  0.56688219485E+01 -0.82383759588E+01 -0.11172402304E+02  0.14994297390E+02  0.51100000000E-03 0.  1.
<mgrwt>
<rscale>  0 0.20000723E+02</rscale>
<asrwt>0</asrwt>
<pdfrwt beam="1">  1        1 0.58969912E-03 0.20000723E+02</pdfrwt>
<pdfrwt beam="2">  1       -1 0.40139707E-02 0.20000723E+02</pdfrwt>
<totfact> 0.36829808E+06</totfact>
</mgrwt>
</event>
<event>
 5    1  0.9583198E-007  0.2000722E+02  0.7818608E-02  0.1745185E+00
          1   -1    0    0  501    0  0.00000000000E+00  0.00000000000E+00  0.14502022291E+01  0.14502097484E+01  0.46700000000E-02 0. -1.
         -1   -1    0    0    0  501 -0.00000000000E+00 -0.00000000000E+00 -0.69005484344E+02  0.69005484502E+02  0.46700000000E-02 0.  1.
       1023    2    1    2    0    0  0.00000000000E+00  0.00000000000E+00 -0.67555282114E+02  0.70455694250E+02  0.20007216465E+02 0.  0.
        -11    1    3    3    0    0  0.80997696576E+01 -0.58701225109E+01 -0.34084045360E+02  0.35521637844E+02  0.51100000000E-03 0. -1.
         11    1    3    3    0    0 -0.80997696576E+01  0.58701225109E+01 -0.33471236755E+02  0.34934056406E+02  0.51100000000E-03 0.  1.
<mgrwt>
<rscale>  0 0.20007216E+02</rscale>
<asrwt>0</asrwt>
<pdfrwt beam="1">  1        1 0.22310868E-03 0.20007216E+02</pdfrwt>
<pdfrwt beam="2">  1       -1 0.10616226E-01 0.20007216E+02</pdfrwt>
<totfact> 0.33635990E+06</totfact>
</mgrwt>
</event>
<event>
 5    1  0.9583198E-007  0.2000276E+02  0.7818608E-02  0.1745273E+00
          1   -1    0    0  501    0  0.00000000000E+00  0.00000000000E+00  0.22084803200E+02  0.22084803694E+02  0.46700000000E-02 0.  1.
         -1   -1    0    0    0  501 -0.00000000000E+00 -0.00000000000E+00 -0.45292497378E+01  0.45292521453E+01  0.46700000000E-02 0. -1.
       1023    2    1    2    0    0  0.00000000000E+00  0.00000000000E+00  0.17555553462E+02  0.26614055839E+02  0.20002762580E+02 0.  0.
        -11    1    3    3    0    0  0.61673085452E+01  0.78731243869E+01  0.86760538208E+01  0.13239927963E+02  0.51100000000E-03 0. -1.
         11    1    3    3    0    0 -0.61673085452E+01 -0.78731243869E+01  0.88794996416E+01  0.13374127876E+02  0.51100000000E-03 0.  1.
<mgrwt>
<rscale>  0 0.20002763E+02</rscale>
<asrwt>0</asrwt>
<pdfrwt beam="1">  1        1 0.33976623E-02 0.20002763E+02</pdfrwt>
<pdfrwt beam="2">  1       -1 0.69680786E-03 0.20002763E+02</pdfrwt>
<totfact> 0.39863319E+06</totfact>
</mgrwt>
</event>
<event>
 5    1  0.9583198E-007  0.2000045E+02  0.7818608E-02  0.1745319E+00
         -1   -1    0    0    0  501 -0.00000000000E+00  0.00000000000E+00  0.85703940326E+02  0.85703940453E+02  0.46700000000E-02 0.  1.
          1   -1    0    0  501    0  0.00000000000E+00 -0.00000000000E+00 -0.11668548204E+01  0.11668641655E+01  0.46700000000E-02 0. -1.
       1023    2    1    2    0    0  0.00000000000E+00  0.00000000000E+00  0.84537085505E+02  0.86870804619E+02  0.20000446728E+02 0.  0.
        -11    1    3    3    0    0 -0.98126597984E+01 -0.19277270760E+01  0.42240036785E+02  0.43407662133E+02  0.51100000000E-03 0.  1.
         11    1    3    3    0    0  0.98126597984E+01  0.19277270760E+01  0.42297048721E+02  0.43463142486E+02  0.51100000000E-03 0. -1.
<mgrwt>
<rscale>  0 0.20000447E+02</rscale>
<asrwt>0</asrwt>
<pdfrwt beam="2">  1        1 0.17951683E-03 0.20000447E+02</pdfrwt>
<pdfrwt beam="1">  1       -1 0.13185224E-01 0.20000447E+02</pdfrwt>
<totfact> 0.32659660E+06</totfact>
</mgrwt>
</event>
<event>
 5    1  0.9583198E-007  0.2000016E+02  0.7818608E-02  0.1745325E+00
          1   -1    0    0  501    0  0.00000000000E+00  0.00000000000E+00  0.64770768189E+02  0.64770768358E+02  0.46700000000E-02 0.  1.
         -1   -1    0    0    0  501 -0.00000000000E+00 -0.00000000000E+00 -0.15439269426E+01  0.15439340053E+01  0.46700000000E-02 0. -1.
       1023    2    1    2    0    0  0.00000000000E+00  0.00000000000E+00  0.63226841247E+02  0.66314702363E+02  0.20000157386E+02 0.  0.
        -11    1    3    3    0    0 -0.17174262953E+01 -0.98514295279E+01  0.31735553051E+02  0.33273796665E+02  0.51100000000E-03 0.  1.
         11    1    3    3    0    0  0.17174262953E+01  0.98514295279E+01  0.31491288196E+02  0.33040905698E+02  0.51100000000E-03 0. -1.
<mgrwt>
<rscale>  0 0.20000157E+02</rscale>
<asrwt>0</asrwt>
<pdfrwt beam="1">  1        1 0.99647325E-02 0.20000157E+02</pdfrwt>
<pdfrwt beam="2">  1       -1 0.23752782E-03 0.20000157E+02</pdfrwt>
<totfact> 0.42549806E+06</totfact>
</mgrwt>
</event>
<event>
 5    1  0.9583198E-007  0.2000045E+02  0.7818608E-02  0.1745319E+00
          1   -1    0    0  501    0  0.00000000000E+00  0.00000000000E+00  0.10532900389E+01  0.10533003916E+01  0.46700000000E-02 0. -1.
         -1   -1    0    0    0  501 -0.00000000000E+00 -0.00000000000E+00 -0.94944425649E+02  0.94944425763E+02  0.46700000000E-02 0.  1.
       1023    2    1    2    0    0  0.00000000000E+00  0.00000000000E+00 -0.93891135610E+02  0.95997726155E+02  0.20000452017E+02 0.  0.
        -11    1    3    3    0    0  0.65694714121E+01  0.75396437273E+01 -0.46857352814E+02  0.47912583892E+02  0.51100000000E-03 0.  1.
         11    1    3    3    0    0 -0.65694714121E+01 -0.75396437273E+01 -0.47033782795E+02  0.48085142263E+02  0.51100000000E-03 0. -1.
<mgrwt>
<rscale>  0 0.20000452E+02</rscale>
<asrwt>0</asrwt>
<pdfrwt beam="1">  1        1 0.16204550E-03 0.20000452E+02</pdfrwt>
<pdfrwt beam="2">  1       -1 0.14606829E-01 0.20000452E+02</pdfrwt>
<totfact> 0.32140796E+06</totfact>
</mgrwt>
</event>
<event>
 5    1  0.9583198E-007  0.2000037E+02  0.7818608E-02  0.1745321E+00
          1   -1    0    0  501    0  0.00000000000E+00  0.00000000000E+00  0.32592929177E+02  0.32592929512E+02  0.46700000000E-02 0.  1.
         -1   -1    0    0    0  501 -0.00000000000E+00 -0.00000000000E+00 -0.30682615855E+01  0.30682651394E+01  0.46700000000E-02 0. -1.
       1023    2    1    2    0    0  0.00000000000E+00  0.00000000000E+00  0.29524667592E+02  0.35661194651E+02  0.20000370185E+02 0.  0.
        -11    1    3    3    0    0  0.92053539097E+01  0.39068716569E+01  0.14831731771E+02  0.17888053397E+02  0.51100000000E-03 0.  1.
         11    1    3    3    0    0 -0.92053539097E+01 -0.39068716569E+01  0.14692935821E+02  0.17773141254E+02  0.51100000000E-03 0. -1.
<mgrwt>
<rscale>  0 0.20000370E+02</rscale>
<asrwt>0</asrwt>
<pdfrwt beam="1">  1        1 0.50142970E-02 0.20000370E+02</pdfrwt>
<pdfrwt beam="2">  1       -1 0.47204055E-03 0.20000370E+02</pdfrwt>
<totfact> 0.40630803E+06</totfact>
</mgrwt>
</event>
<event>
 4    1  0.9583198E-007  0.2001264E+02  0.7818608E-02  0.1745077E+00
          1   -1    0    0  501    0  0.00000000000E+00  0.00000000000E+00  0.25548853248E+01  0.25548895928E+01  0.46700000000E-02 0.  1.
         -1   -1    0    0    0  501 -0.00000000000E+00 -0.00000000000E+00 -0.39190163421E+02  0.39190163699E+02  0.46700000000E-02 0. -1.
        -11    1    1    2    0    0  0.54777744384E+01 -0.83713169802E+01 -0.17892664869E+02  0.20499571145E+02  0.51100000000E-03 0.  1.
         11    1    1    2    0    0 -0.54777744384E+01  0.83713169802E+01 -0.18742613227E+02  0.21245482146E+02  0.51100000000E-03 0. -1.
<mgrwt>
<rscale>  0 0.20012643E+02</rscale>
<asrwt>0</asrwt>
<pdfrwt beam="1">  1        1 0.39305966E-03 0.20012643E+02</pdfrwt>
<pdfrwt beam="2">  1       -1 0.60292558E-02 0.20012643E+02</pdfrwt>
<totfact> 0.35684428E+06</totfact>
</mgrwt>
</event>
<event>
 5    1  0.9901697E-007  0.2000078E+02  0.7818608E-02  0.1745313E+00
          1   -1    0    0  501    0  0.00000000000E+00  0.00000000000E+00  0.24703300420E+02  0.24703300862E+02  0.46700000000E-02 0.  1.
         -1   -1    0    0    0  501 -0.00000000000E+00 -0.00000000000E+00 -0.40483571931E+01  0.40483598867E+01  0.46700000000E-02 0. -1.
       1023    2    1    2    0    0  0.00000000000E+00  0.00000000000E+00  0.20654943227E+02  0.28751660749E+02  0.20000782887E+02 0.  0.
        -11    1    3    3    0    0  0.41258140580E+01  0.91092425030E+01  0.10449349291E+02  0.14463386239E+02  0.51100000000E-03 0. -1.
         11    1    3    3    0    0 -0.41258140580E+01 -0.91092425030E+01  0.10205593936E+02  0.14288274510E+02  0.51100000000E-03 0.  1.
<mgrwt>
<rscale>  0 0.20000783E+02</rscale>
<asrwt>0</asrwt>
<pdfrwt beam="1">  1        1 0.38005080E-02 0.20000783E+02</pdfrwt>
<pdfrwt beam="2">  1       -1 0.62282442E-03 0.20000783E+02</pdfrwt>
<totfact> 0.40073663E+06</totfact>
</mgrwt>
</event>
<event>
 5    1  0.9583198E-007  0.2000067E+02  0.7818608E-02  0.1745315E+00
          1   -1    0    0  501    0  0.00000000000E+00  0.00000000000E+00  0.22243771215E+01  0.22243820237E+01  0.46700000000E-02 0.  1.
         -1   -1    0    0    0  501 -0.00000000000E+00 -0.00000000000E+00 -0.44959368503E+02  0.44959368746E+02  0.46700000000E-02 0. -1.
       1023    2    1    2    0    0  0.00000000000E+00  0.00000000000E+00 -0.42734991382E+02  0.47183750769E+02  0.20000671196E+02 0.  0.
        -11    1    3    3    0    0  0.91856613669E+01  0.39530367801E+01 -0.21513632411E+02  0.23724233482E+02  0.51100000000E-03 0.  1.
         11    1    3    3    0    0 -0.91856613669E+01 -0.39530367801E+01 -0.21221358971E+02  0.23459517288E+02  0.51100000000E-03 0. -1.
<mgrwt>
<rscale>  0 0.20000671E+02</rscale>
<asrwt>0</asrwt>
<pdfrwt beam="1">  1        1 0.34221229E-03 0.20000671E+02</pdfrwt>
<pdfrwt beam="2">  1       -1 0.69168256E-02 0.20000671E+02</pdfrwt>
<totfact> 0.35292949E+06</totfact>
</mgrwt>
</event>
<event>
 5    1  0.9583198E-007  0.2000074E+02  0.7818608E-02  0.1745313E+00
          1   -1    0    0  501    0  0.00000000000E+00  0.00000000000E+00  0.91072892116E+01  0.91072904090E+01  0.46700000000E-02 0.  1.
         -1   -1    0    0    0  501 -0.00000000000E+00 -0.00000000000E+00 -0.10981028487E+02  0.10981029480E+02  0.46700000000E-02 0. -1.
       1023    2    1    2    0    0  0.00000000000E+00  0.00000000000E+00 -0.18737392749E+01  0.20088319888E+02  0.20000742413E+02 0.  0.
        -11    1    3    3    0    0 -0.99707005503E+01  0.76944088968E+00 -0.95966837111E+00  0.10046286498E+02  0.51100000000E-03 0. -1.
         11    1    3    3    0    0  0.99707005503E+01 -0.76944088968E+00 -0.91407090377E+00  0.10042033391E+02  0.51100000000E-03 0.  1.
<mgrwt>
<rscale>  0 0.20000742E+02</rscale>
<asrwt>0</asrwt>
<pdfrwt beam="1">  1        1 0.14011216E-02 0.20000742E+02</pdfrwt>
<pdfrwt beam="2">  1       -1 0.16893892E-02 0.20000742E+02</pdfrwt>
<totfact> 0.38474544E+06</totfact>
</mgrwt>
</event>
<event>
 5    1  0.9973515E-007  0.2000100E+02  0.7818608E-02  0.1745308E+00
         -1   -1    0    0    0  501 -0.00000000000E+00  0.00000000000E+00  0.37168754750E+01  0.37168784087E+01  0.46700000000E-02 0.  1.
          1   -1    0    0  501    0  0.00000000000E+00 -0.00000000000E+00 -0.26906990276E+02  0.26906990682E+02  0.46700000000E-02 0. -1.
       1023    2    1    2    0    0  0.00000000000E+00  0.00000000000E+00 -0.23190114801E+02  0.30623869090E+02  0.20000998314E+02 0.  0.
        -11    1    3    3    0    0 -0.98261511054E+01  0.18591409490E+01 -0.11567137501E+02  0.15290792028E+02  0.51100000000E-03 0. -1.
         11    1    3    3    0    0  0.98261511054E+01 -0.18591409490E+01 -0.11622977300E+02  0.15333077062E+02  0.51100000000E-03 0.  1.
<mgrwt>
<rscale>  0 0.20000998E+02</rscale>
<asrwt>0</asrwt>
<pdfrwt beam="2">  1        1 0.41395371E-02 0.20000998E+02</pdfrwt>
<pdfrwt beam="1">  1       -1 0.57182727E-03 0.20000998E+02</pdfrwt>
<totfact> 0.40234515E+06</totfact>
</mgrwt>
</event>
<event>
 5    1  0.1114807E-006  0.2000116E+02  0.7818608E-02  0.1745305E+00
          1   -1    0    0  501    0  0.00000000000E+00  0.00000000000E+00  0.10907520378E+03  0.10907520388E+03  0.46700000000E-02 0.  1.
         -1   -1    0    0    0  501 -0.00000000000E+00 -0.00000000000E+00 -0.91689906091E+00  0.91691095358E+00  0.46700000000E-02 0. -1.
       1023    2    1    2    0    0  0.00000000000E+00  0.00000000000E+00  0.10815830472E+03  0.10999211483E+03  0.20001161113E+02 0.  0.
        -11    1    3    3    0    0 -0.80302735746E+01 -0.59600634576E+01  0.53733042306E+02  0.54655717778E+02  0.51100000000E-03 0.  1.
         11    1    3    3    0    0  0.80302735746E+01  0.59600634576E+01  0.54425262413E+02  0.55336397055E+02  0.51100000000E-03 0. -1.
<mgrwt>
<rscale>  0 0.20001161E+02</rscale>
<asrwt>0</asrwt>
<pdfrwt beam="1">  1        1 0.16780808E-01 0.20001161E+02</pdfrwt>
<pdfrwt beam="2">  1       -1 0.14106227E-03 0.20001161E+02</pdfrwt>
<totfact> 0.44788434E+06</totfact>
</mgrwt>
</event>
<event>
 5    1  0.9583198E-007  0.2000021E+02  0.7818608E-02  0.1745324E+00
         -1   -1    0    0    0  501 -0.00000000000E+00  0.00000000000E+00  0.97055275294E+01  0.97055286529E+01  0.46700000000E-02 0. -1.
          1   -1    0    0  501    0  0.00000000000E+00 -0.00000000000E+00 -0.10303622978E+02  0.10303624037E+02  0.46700000000E-02 0.  1.
       1023    2    1    2    0    0  0.00000000000E+00  0.00000000000E+00 -0.59809544883E+00  0.20009152690E+02  0.20000211829E+02 0.  0.
        -11    1    3    3    0    0  0.15944890061E+01 -0.98721497060E+01 -0.27946787253E+00  0.10003991082E+02  0.51100000000E-03 0.  1.
         11    1    3    3    0    0 -0.15944890061E+01  0.98721497060E+01 -0.31862757630E+00  0.10005161608E+02  0.51100000000E-03 0. -1.
<mgrwt>
<rscale>  0 0.20000212E+02</rscale>
<asrwt>0</asrwt>
<pdfrwt beam="2">  1        1 0.15851729E-02 0.20000212E+02</pdfrwt>
<pdfrwt beam="1">  1       -1 0.14931583E-02 0.20000212E+02</pdfrwt>
<totfact> 0.38669277E+06</totfact>
</mgrwt>
</event>
<event>
 5    1  0.9583198E-007  0.2000067E+02  0.7818608E-02  0.1745315E+00
         -1   -1    0    0    0  501 -0.00000000000E+00  0.00000000000E+00  0.85573211911E+00  0.85574486185E+00  0.46700000000E-02 0.  1.
          1   -1    0    0  501    0  0.00000000000E+00 -0.00000000000E+00 -0.11686591300E+03  0.11686591310E+03  0.46700000000E-02 0. -1.
       1023    2    1    2    0    0  0.00000000000E+00  0.00000000000E+00 -0.11601018089E+03  0.11772165796E+03  0.20000667082E+02 0.  0.
        -11    1    3    3    0    0  0.97418217472E+01  0.22590974979E+01 -0.57960184495E+02  0.58816575890E+02  0.51100000000E-03 0.  1.
         11    1    3    3    0    0 -0.97418217472E+01 -0.22590974979E+01 -0.58049996391E+02  0.58905082070E+02  0.51100000000E-03 0. -1.
<mgrwt>
<rscale>  0 0.20000667E+02</rscale>
<asrwt>0</asrwt>
<pdfrwt beam="2">  1        1 0.17979360E-01 0.20000667E+02</pdfrwt>
<pdfrwt beam="1">  1       -1 0.13165218E-03 0.20000667E+02</pdfrwt>
<totfact> 0.45153403E+06</totfact>
</mgrwt>
</event>
<event>
 5    1  0.9583198E-007  0.2000041E+02  0.7818608E-02  0.1745320E+00
          1   -1    0    0  501    0  0.00000000000E+00  0.00000000000E+00  0.37474238609E+02  0.37474238900E+02  0.46700000000E-02 0.  1.
         -1   -1    0    0    0  501 -0.00000000000E+00 -0.00000000000E+00 -0.26686073307E+01  0.26686114169E+01  0.46700000000E-02 0. -1.
       1023    2    1    2    0    0  0.00000000000E+00  0.00000000000E+00  0.34805631278E+02  0.40142850317E+02  0.20000411568E+02 0.  0.
        -11    1    3    3    0    0 -0.15520560434E+01  0.98789031130E+01  0.17302244418E+02  0.19984225450E+02  0.51100000000E-03 0.  1.
         11    1    3    3    0    0  0.15520560434E+01 -0.98789031130E+01  0.17503386861E+02  0.20158624867E+02  0.51100000000E-03 0. -1.
<mgrwt>
<rscale>  0 0.20000412E+02</rscale>
<asrwt>0</asrwt>
<pdfrwt beam="1">  1        1 0.57652673E-02 0.20000412E+02</pdfrwt>
<pdfrwt beam="2">  1       -1 0.41055535E-03 0.20000412E+02</pdfrwt>
<totfact> 0.40949023E+06</totfact>
</mgrwt>
</event>
<event>
 5    1  0.9583198E-007  0.2000064E+02  0.7818608E-02  0.1745315E+00
         -1   -1    0    0    0  501 -0.00000000000E+00  0.00000000000E+00  0.55562963744E+02  0.55562963941E+02  0.46700000000E-02 0.  1.
          1   -1    0    0  501    0  0.00000000000E+00 -0.00000000000E+00 -0.17998718183E+01  0.17998778768E+01  0.46700000000E-02 0. -1.
       1023    2    1    2    0    0  0.00000000000E+00  0.00000000000E+00  0.53763091926E+02  0.57362841817E+02  0.20000639188E+02 0.  0.
        -11    1    3    3    0    0 -0.84689971022E+01 -0.53181235080E+01  0.26862925106E+02  0.28663968586E+02  0.51100000000E-03 0.  1.
         11    1    3    3    0    0  0.84689971022E+01  0.53181235080E+01  0.26900166820E+02  0.28698873231E+02  0.51100000000E-03 0. -1.
<mgrwt>
<rscale>  0 0.20000639E+02</rscale>
<asrwt>0</asrwt>
<pdfrwt beam="2">  1        1 0.27690383E-03 0.20000639E+02</pdfrwt>
<pdfrwt beam="1">  1       -1 0.85481490E-02 0.20000639E+02</pdfrwt>
<totfact> 0.34539386E+06</totfact>
</mgrwt>
</event>
<event>
 5    1  0.9583198E-007  0.2000018E+02  0.7818608E-02  0.1745324E+00
          1   -1    0    0  501    0  0.00000000000E+00  0.00000000000E+00  0.66394023340E+01  0.66394039764E+01  0.46700000000E-02 0.  1.
         -1   -1    0    0    0  501 -0.00000000000E+00 -0.00000000000E+00 -0.15061866852E+02  0.15061867575E+02  0.46700000000E-02 0. -1.
       1023    2    1    2    0    0  0.00000000000E+00  0.00000000000E+00 -0.84224645175E+01  0.21701271552E+02  0.20000181960E+02 0.  0.
        -11    1    3    3    0    0  0.71716635800E+01 -0.69691493571E+01 -0.42066188603E+01  0.10848845273E+02  0.51100000000E-03 0. -1.
         11    1    3    3    0    0 -0.71716635800E+01  0.69691493571E+01 -0.42158456572E+01  0.10852426279E+02  0.51100000000E-03 0.  1.
<mgrwt>
<rscale>  0 0.20000182E+02</rscale>
<asrwt>0</asrwt>
<pdfrwt beam="1">  1        1 0.10214467E-02 0.20000182E+02</pdfrwt>
<pdfrwt beam="2">  1       -1 0.23172105E-02 0.20000182E+02</pdfrwt>
<totfact> 0.37951844E+06</totfact>
</mgrwt>
</event>
<event>
 5    1  0.9583198E-007  0.2000511E+02  0.7818608E-02  0.1745227E+00
         -1   -1    0    0    0  501 -0.00000000000E+00  0.00000000000E+00  0.61277556908E+02  0.61277557086E+02  0.46700000000E-02 0.  1.
          1   -1    0    0  501    0  0.00000000000E+00 -0.00000000000E+00 -0.16327491018E+01  0.16327557803E+01  0.46700000000E-02 0. -1.
       1023    2    1    2    0    0  0.00000000000E+00  0.00000000000E+00  0.59644807806E+02  0.62910312866E+02  0.20005108515E+02 0.  0.
        -11    1    3    3    0    0  0.98255548458E+01 -0.18701450161E+01  0.29476185475E+02  0.31126909272E+02  0.51100000000E-03 0. -1.
         11    1    3    3    0    0 -0.98255548458E+01  0.18701450161E+01  0.30168622331E+02  0.31783403594E+02  0.51100000000E-03 0.  1.
<mgrwt>
<rscale>  0 0.20005109E+02</rscale>
<asrwt>0</asrwt>
<pdfrwt beam="2">  1        1 0.25119269E-03 0.20005109E+02</pdfrwt>
<pdfrwt beam="1">  1       -1 0.94273174E-02 0.20005109E+02</pdfrwt>
<totfact> 0.34139664E+06</totfact>
</mgrwt>
</event>
<event>
 5    1  0.9583198E-007  0.2000043E+02  0.7818608E-02  0.1745320E+00
          1   -1    0    0  501    0  0.00000000000E+00  0.00000000000E+00  0.13574619072E+01  0.13574699401E+01  0.46700000000E-02 0. -1.
         -1   -1    0    0    0  501 -0.00000000000E+00 -0.00000000000E+00 -0.73669802670E+02  0.73669802818E+02  0.46700000000E-02 0.  1.
       1023    2    1    2    0    0  0.00000000000E+00  0.00000000000E+00 -0.72312340763E+02  0.75027272758E+02  0.20000425769E+02 0.  0.
        -11    1    3    3    0    0 -0.96492579238E+01  0.26260042054E+01 -0.36105715470E+02  0.37465007226E+02  0.51100000000E-03 0.  1.
         11    1    3    3    0    0  0.96492579238E+01 -0.26260042054E+01 -0.36206625293E+02  0.37562265532E+02  0.51100000000E-03 0. -1.
<mgrwt>
<rscale>  0 0.20000426E+02</rscale>
<asrwt>0</asrwt>
<pdfrwt beam="1">  1        1 0.20884098E-03 0.20000426E+02</pdfrwt>
<pdfrwt beam="2">  1       -1 0.11333813E-01 0.20000426E+02</pdfrwt>
<totfact> 0.33372267E+06</totfact>
</mgrwt>
</event>
<event>
 5    1  0.9624962E-007  0.2000070E+02  0.7818608E-02  0.1745314E+00
          1   -1    0    0  501    0  0.00000000000E+00  0.00000000000E+00  0.78859334725E+01  0.78859348553E+01  0.46700000000E-02 0. -1.
         -1   -1    0    0    0  501 -0.00000000000E+00 -0.00000000000E+00 -0.12681689318E+02  0.12681690177E+02  0.46700000000E-02 0.  1.
       1023    2    1    2    0    0  0.00000000000E+00  0.00000000000E+00 -0.47957558451E+01  0.20567625033E+02  0.20000698122E+02 0.  0.
        -11    1    3    3    0    0 -0.73252001621E+01 -0.68078699213E+01 -0.24353920903E+01  0.10292559700E+02  0.51100000000E-03 0. -1.
         11    1    3    3    0    0  0.73252001621E+01  0.68078699213E+01 -0.23603637548E+01  0.10275065333E+02  0.51100000000E-03 0.  1.
<mgrwt>
<rscale>  0 0.20000698E+02</rscale>
<asrwt>0</asrwt>
<pdfrwt beam="1">  1        1 0.12132207E-02 0.20000698E+02</pdfrwt>
<pdfrwt beam="2">  1       -1 0.19510293E-02 0.20000698E+02</pdfrwt>
<totfact> 0.38242656E+06</totfact>
</mgrwt>
</event>
<event>
 5    1  0.9773459E-007  0.2000094E+02  0.7818608E-02  0.1745309E+00
          1   -1    0    0  501    0  0.00000000000E+00  0.00000000000E+00  0.10992372063E+02  0.10992373055E+02  0.46700000000E-02 0. -1.
         -1   -1    0    0    0  501 -0.00000000000E+00 -0.00000000000E+00 -0.90980724820E+01  0.90980736805E+01  0.46700000000E-02 0.  1.
       1023    2    1    2    0    0  0.00000000000E+00  0.00000000000E+00  0.18942995810E+01  0.20090446736E+02  0.20000941956E+02 0.  0.
        -11    1    3    3    0    0 -0.25114092086E+01 -0.96797874787E+01  0.10103413783E+01  0.10051181613E+02  0.51100000000E-03 0. -1.
         11    1    3    3    0    0  0.25114092086E+01  0.96797874787E+01  0.88395820275E+00  0.10039265123E+02  0.51100000000E-03 0.  1.
<mgrwt>
<rscale>  0 0.20000942E+02</rscale>
<asrwt>0</asrwt>
<pdfrwt beam="1">  1        1 0.16911343E-02 0.20000942E+02</pdfrwt>
<pdfrwt beam="2">  1       -1 0.13997036E-02 0.20000942E+02</pdfrwt>
<totfact> 0.38765508E+06</totfact>
</mgrwt>
</event>
<event>
 5    1  0.9583198E-007  0.2000266E+02  0.7818608E-02  0.1745275E+00
          1   -1    0    0  501    0  0.00000000000E+00  0.00000000000E+00  0.42467349464E+01  0.42467375141E+01  0.46700000000E-02 0. -1.
         -1   -1    0    0    0  501 -0.00000000000E+00 -0.00000000000E+00 -0.23553766008E+02  0.23553766471E+02  0.46700000000E-02 0.  1.
       1023    2    1    2    0    0  0.00000000000E+00  0.00000000000E+00 -0.19307031062E+02  0.27800503985E+02  0.20002664158E+02 0.  0.
        -11    1    3    3    0    0  0.78598064729E+01  0.61839391248E+01 -0.95217941652E+01  0.13808773489E+02  0.51100000000E-03 0. -1.
         11    1    3    3    0    0 -0.78598064729E+01 -0.61839391248E+01 -0.97852368965E+01  0.13991730496E+02  0.51100000000E-03 0.  1.
<mgrwt>
<rscale>  0 0.20002664E+02</rscale>
<asrwt>0</asrwt>
<pdfrwt beam="1">  1        1 0.65334408E-03 0.20002664E+02</pdfrwt>
<pdfrwt beam="2">  1       -1 0.36236565E-02 0.20002664E+02</pdfrwt>
<totfact> 0.37057313E+06</totfact>
</mgrwt>
</event>
<event>
 5    1  0.9602589E-007  0.2000108E+02  0.7818608E-02  0.1745307E+00
         -1   -1    0    0    0  501 -0.00000000000E+00  0.00000000000E+00  0.12511697483E+02  0.12511698354E+02  0.46700000000E-02 0. -1.
          1   -1    0    0  501    0  0.00000000000E+00 -0.00000000000E+00 -0.79933854180E+01  0.79933867822E+01  0.46700000000E-02 0.  1.
       1023    2    1    2    0    0  0.00000000000E+00  0.00000000000E+00  0.45183120646E+01  0.20505085136E+02  0.20001084284E+02 0.  0.
        -11    1    3    3    0    0  0.69750260222E+01 -0.71663453718E+01  0.21998283436E+01  0.10239469664E+02  0.51100000000E-03 0.  1.
         11    1    3    3    0    0 -0.69750260222E+01  0.71663453718E+01  0.23184837210E+01  0.10265615472E+02  0.51100000000E-03 0. -1.
<mgrwt>
<rscale>  0 0.20001084E+02</rscale>
<asrwt>0</asrwt>
<pdfrwt beam="2">  1        1 0.12297518E-02 0.20001084E+02</pdfrwt>
<pdfrwt beam="1">  1       -1 0.19248767E-02 0.20001084E+02</pdfrwt>
<totfact> 0.38263215E+06</totfact>
</mgrwt>
</event>
<event>
 5    1  0.9583198E-007  0.2000014E+02  0.7818608E-02  0.1745325E+00
         -1   -1    0    0    0  501 -0.00000000000E+00  0.00000000000E+00  0.34226952762E+02  0.34226953080E+02  0.46700000000E-02 0.  1.
          1   -1    0    0  501    0  0.00000000000E+00 -0.00000000000E+00 -0.29217114419E+01  0.29217151741E+01  0.46700000000E-02 0. -1.
       1023    2    1    2    0    0  0.00000000000E+00  0.00000000000E+00  0.31305241320E+02  0.37148668254E+02  0.20000135474E+02 0.  0.
        -11    1    3    3    0    0 -0.55322510049E+01  0.83303895215E+01  0.15676387178E+02  0.18594362209E+02  0.51100000000E-03 0.  1.
         11    1    3    3    0    0  0.55322510049E+01 -0.83303895215E+01  0.15628854142E+02  0.18554306045E+02  0.51100000000E-03 0. -1.
<mgrwt>
<rscale>  0 0.20000135E+02</rscale>
<asrwt>0</asrwt>
<pdfrwt beam="2">  1        1 0.44949436E-03 0.20000135E+02</pdfrwt>
<pdfrwt beam="1">  1       -1 0.52656856E-02 0.20000135E+02</pdfrwt>
<totfact> 0.36130322E+06</totfact>
</mgrwt>
</event>
<event>
 5    1  0.9583198E-007  0.2000241E+02  0.7818608E-02  0.1745280E+00
         -1   -1    0    0    0  501 -0.00000000000E+00  0.00000000000E+00  0.27240185218E+01  0.27240225249E+01  0.46700000000E-02 0.  1.
          1   -1    0    0  501    0  0.00000000000E+00 -0.00000000000E+00 -0.36719273331E+02  0.36719273628E+02  0.46700000000E-02 0. -1.
       1023    2    1    2    0    0  0.00000000000E+00  0.00000000000E+00 -0.33995254810E+02  0.39443296153E+02  0.20002406402E+02 0.  0.
        -11    1    3    3    0    0  0.94282416191E+01 -0.33363221428E+01 -0.17068169946E+02  0.19782447044E+02  0.51100000000E-03 0. -1.
         11    1    3    3    0    0 -0.94282416191E+01  0.33363221428E+01 -0.16927084864E+02  0.19660849110E+02  0.51100000000E-03 0.  1.
<mgrwt>
<rscale>  0 0.20002406E+02</rscale>
<asrwt>0</asrwt>
<pdfrwt beam="2">  1        1 0.56491190E-02 0.20002406E+02</pdfrwt>
<pdfrwt beam="1">  1       -1 0.41908013E-03 0.20002406E+02</pdfrwt>
<totfact> 0.40891614E+06</totfact>
</mgrwt>
</event>
<event>
 5    1  0.9759034E-007  0.2000244E+02  0.7818608E-02  0.1745280E+00
         -1   -1    0    0    0  501 -0.00000000000E+00  0.00000000000E+00  0.67367714999E+01  0.67367731186E+01  0.46700000000E-02 0. -1.
          1   -1    0    0  501    0  0.00000000000E+00 -0.00000000000E+00 -0.14847526218E+02  0.14847526952E+02  0.46700000000E-02 0.  1.
       1023    2    1    2    0    0  0.00000000000E+00  0.00000000000E+00 -0.81107547176E+01  0.21584300071E+02  0.20002441537E+02 0.  0.
        -11    1    3    3    0    0  0.77021920685E+01 -0.63781119459E+01 -0.42092818172E+01  0.10849982872E+02  0.51100000000E-03 0.  1.
         11    1    3    3    0    0 -0.77021920685E+01  0.63781119459E+01 -0.39014729004E+01  0.10734317198E+02  0.51100000000E-03 0. -1.
<mgrwt>
<rscale>  0 0.20002442E+02</rscale>
<asrwt>0</asrwt>
<pdfrwt beam="2">  1        1 0.22842350E-02 0.20002442E+02</pdfrwt>
<pdfrwt beam="1">  1       -1 0.10364266E-02 0.20002442E+02</pdfrwt>
<totfact> 0.39218084E+06</totfact>
</mgrwt>
</event>
<event>
 5    1  0.1061843E-006  0.2000159E+02  0.7818608E-02  0.1745296E+00
         -1   -1    0    0    0  501 -0.00000000000E+00  0.00000000000E+00  0.91310328233E+00  0.91311522444E+00  0.46700000000E-02 0.  1.
          1   -1    0    0  501    0  0.00000000000E+00 -0.00000000000E+00 -0.10953337174E+03  0.10953337184E+03  0.46700000000E-02 0. -1.
       1023    2    1    2    0    0  0.00000000000E+00  0.00000000000E+00 -0.10862026846E+03  0.11044648706E+03  0.20001594561E+02 0.  0.
        -11    1    3    3    0    0  0.90986660542E+01  0.41497208800E+01 -0.53756880225E+02  0.54679137513E+02  0.51100000000E-03 0.  1.
         11    1    3    3    0    0 -0.90986660542E+01 -0.41497208800E+01 -0.54863388233E+02  0.55767349552E+02  0.51100000000E-03 0. -1.
<mgrwt>
<rscale>  0 0.20001595E+02</rscale>
<asrwt>0</asrwt>
<pdfrwt beam="2">  1        1 0.16851279E-01 0.20001595E+02</pdfrwt>
<pdfrwt beam="1">  1       -1 0.14047844E-03 0.20001595E+02</pdfrwt>
<totfact> 0.44807837E+06</totfact>
</mgrwt>
</event>
<event>
 5    1  0.9583198E-007  0.2000504E+02  0.7818608E-02  0.1745228E+00
          1   -1    0    0  501    0  0.00000000000E+00  0.00000000000E+00  0.93168180053E+02  0.93168180170E+02  0.46700000000E-02 0.  1.
         -1   -1    0    0    0  501 -0.00000000000E+00 -0.00000000000E+00 -0.10738635602E+01  0.10738737146E+01  0.46700000000E-02 0. -1.
       1023    2    1    2    0    0  0.00000000000E+00  0.00000000000E+00  0.92094316492E+02  0.94242053884E+02  0.20005039118E+02 0.  0.
        -11    1    3    3    0    0  0.99727444059E+01 -0.75926991504E+00  0.46684012038E+02  0.47743367100E+02  0.51100000000E-03 0.  1.
         11    1    3    3    0    0 -0.99727444059E+01  0.75926991504E+00  0.45410304454E+02  0.46498686784E+02  0.51100000000E-03 0. -1.
<mgrwt>
<rscale>  0 0.20005039E+02</rscale>
<asrwt>0</asrwt>
<pdfrwt beam="1">  1        1 0.14333567E-01 0.20005039E+02</pdfrwt>
<pdfrwt beam="2">  1       -1 0.16521057E-03 0.20005039E+02</pdfrwt>
<totfact> 0.44001206E+06</totfact>
</mgrwt>
</event>
<event>
 5    1  0.9863254E-007  0.2000197E+02  0.7818608E-02  0.1745289E+00
          1   -1    0    0  501    0  0.00000000000E+00  0.00000000000E+00  0.26702159752E+02  0.26702160160E+02  0.46700000000E-02 0.  1.
         -1   -1    0    0    0  501 -0.00000000000E+00 -0.00000000000E+00 -0.37457518124E+01  0.37457547235E+01  0.46700000000E-02 0. -1.
       1023    2    1    2    0    0  0.00000000000E+00  0.00000000000E+00  0.22956407940E+02  0.30447914884E+02  0.20001971285E+02 0.  0.
        -11    1    3    3    0    0  0.16246597537E+01  0.98675823408E+01  0.11318455229E+02  0.15103513816E+02  0.51100000000E-03 0. -1.
         11    1    3    3    0    0 -0.16246597537E+01 -0.98675823408E+01  0.11637952710E+02  0.15344401067E+02  0.51100000000E-03 0.  1.
<mgrwt>
<rscale>  0 0.20001971E+02</rscale>
<asrwt>0</asrwt>
<pdfrwt beam="1">  1        1 0.41080249E-02 0.20001971E+02</pdfrwt>
<pdfrwt beam="2">  1       -1 0.57626976E-03 0.20001971E+02</pdfrwt>
<totfact> 0.40215356E+06</totfact>
</mgrwt>
</event>
<event>
 5    1  0.9583198E-007  0.2000455E+02  0.7818608E-02  0.1745238E+00
          1   -1    0    0  501    0  0.00000000000E+00  0.00000000000E+00  0.87153245654E+00  0.87154496826E+00  0.46700000000E-02 0. -1.
         -1   -1    0    0    0  501 -0.00000000000E+00 -0.00000000000E+00 -0.11479180425E+03  0.11479180434E+03  0.46700000000E-02 0.  1.
       1023    2    1    2    0    0  0.00000000000E+00  0.00000000000E+00 -0.11392027179E+03  0.11566334931E+03  0.20004550704E+02 0.  0.
        -11    1    3    3    0    0 -0.93527811567E+01  0.35418943238E+01 -0.56028177624E+02  0.56913761244E+02  0.51100000000E-03 0. -1.
         11    1    3    3    0    0  0.93527811567E+01 -0.35418943238E+01 -0.57892094169E+02  0.58749588070E+02  0.51100000000E-03 0.  1.
<mgrwt>
<rscale>  0 0.20004551E+02</rscale>
<asrwt>0</asrwt>
<pdfrwt beam="1">  1        1 0.13408298E-03 0.20004551E+02</pdfrwt>
<pdfrwt beam="2">  1       -1 0.17660267E-01 0.20004551E+02</pdfrwt>
<totfact> 0.31081608E+06</totfact>
</mgrwt>
</event>
<event>
 5    1  0.9583198E-007  0.2000011E+02  0.7818608E-02  0.1745326E+00
          1   -1    0    0  501    0  0.00000000000E+00  0.00000000000E+00  0.50042099438E+01  0.50042121229E+01  0.46700000000E-02 0.  1.
         -1   -1    0    0    0  501 -0.00000000000E+00 -0.00000000000E+00 -0.19983392765E+02  0.19983393311E+02  0.46700000000E-02 0. -1.
       1023    2    1    2    0    0  0.00000000000E+00  0.00000000000E+00 -0.14979182821E+02  0.24987605434E+02  0.20000112683E+02 0.  0.
        -11    1    3    3    0    0  0.23834481604E+01  0.97118221006E+01 -0.75252132504E+01  0.12515156746E+02  0.51100000000E-03 0. -1.
         11    1    3    3    0    0 -0.23834481604E+01 -0.97118221006E+01 -0.74539695708E+01  0.12472448688E+02  0.51100000000E-03 0.  1.
<mgrwt>
<rscale>  0 0.20000113E+02</rscale>
<asrwt>0</asrwt>
<pdfrwt beam="1">  1        1 0.76987867E-03 0.20000113E+02</pdfrwt>
<pdfrwt beam="2">  1       -1 0.30743683E-02 0.20000113E+02</pdfrwt>
<totfact> 0.37418018E+06</totfact>
</mgrwt>
</event>
<event>
 5    1  0.9583198E-007  0.2000392E+02  0.7818608E-02  0.1745250E+00
         -1   -1    0    0    0  501 -0.00000000000E+00  0.00000000000E+00  0.44445997378E+01  0.44446021912E+01  0.46700000000E-02 0.  1.
          1   -1    0    0  501    0  0.00000000000E+00 -0.00000000000E+00 -0.22508035936E+02  0.22508036421E+02  0.46700000000E-02 0. -1.
       1023    2    1    2    0    0  0.00000000000E+00  0.00000000000E+00 -0.18063436199E+02  0.26952638612E+02  0.20003924636E+02 0.  0.
        -11    1    3    3    0    0  0.92199197894E+01  0.38771392094E+01 -0.90465133537E+01  0.13486234964E+02  0.51100000000E-03 0.  1.
         11    1    3    3    0    0 -0.92199197894E+01 -0.38771392094E+01 -0.90169228449E+01  0.13466403649E+02  0.51100000000E-03 0. -1.
<mgrwt>
<rscale>  0 0.20003925E+02</rscale>
<asrwt>0</asrwt>
<pdfrwt beam="2">  1        1 0.34627749E-02 0.20003925E+02</pdfrwt>
<pdfrwt beam="1">  1       -1 0.68378481E-03 0.20003925E+02</pdfrwt>
<totfact> 0.39891480E+06</totfact>
</mgrwt>
</event>
<event>
 5    1  0.9583198E-007  0.2000055E+02  0.7818608E-02  0.1745317E+00
          1   -1    0    0  501    0  0.00000000000E+00  0.00000000000E+00  0.83318992782E+01  0.83319005870E+01  0.46700000000E-02 0. -1.
         -1   -1    0    0    0  501 -0.00000000000E+00 -0.00000000000E+00 -0.12002717190E+02  0.12002718098E+02  0.46700000000E-02 0.  1.
       1023    2    1    2    0    0  0.00000000000E+00  0.00000000000E+00 -0.36708179115E+01  0.20334618685E+02  0.20000545316E+02 0.  0.
        -11    1    3    3    0    0  0.68914475740E+01  0.72462650812E+01 -0.19076283895E+01  0.10180346439E+02  0.51100000000E-03 0.  1.
         11    1    3    3    0    0 -0.68914475740E+01 -0.72462650812E+01 -0.17631895220E+01  0.10154272246E+02  0.51100000000E-03 0. -1.
<mgrwt>
<rscale>  0 0.20000545E+02</rscale>
<asrwt>0</asrwt>
<pdfrwt beam="1">  1        1 0.12818308E-02 0.20000545E+02</pdfrwt>
<pdfrwt beam="2">  1       -1 0.18465720E-02 0.20000545E+02</pdfrwt>
<totfact> 0.38333132E+06</totfact>
</mgrwt>
</event>
<event>
 5    1  0.9583198E-007  0.2000324E+02  0.7818608E-02  0.1745264E+00
          1   -1    0    0  501    0  0.00000000000E+00  0.00000000000E+00  0.11519953744E+01  0.11520048401E+01  0.46700000000E-02 0.  1.
         -1   -1    0    0    0  501 -0.00000000000E+00 -0.00000000000E+00 -0.86833701994E+02  0.86833702120E+02  0.46700000000E-02 0. -1.
       1023    2    1    2    0    0  0.00000000000E+00  0.00000000000E+00 -0.85681706620E+02  0.87985706960E+02  0.20003244236E+02 0.  0.
        -11    1    3    3    0    0 -0.18262507432E+01  0.98332727895E+01 -0.42562691155E+02  0.43721975300E+02  0.51100000000E-03 0.  1.
         11    1    3    3    0    0  0.18262507432E+01 -0.98332727895E+01 -0.43119015464E+02  0.44263731659E+02  0.51100000000E-03 0. -1.
<mgrwt>
<rscale>  0 0.20003244E+02</rscale>
<asrwt>0</asrwt>
<pdfrwt beam="1">  1        1 0.17723086E-03 0.20003244E+02</pdfrwt>
<pdfrwt beam="2">  1       -1 0.13359027E-01 0.20003244E+02</pdfrwt>
<totfact> 0.32584987E+06</totfact>
</mgrwt>
</event>
<event>
 5    1  0.9803255E-007  0.2000075E+02  0.7818608E-02  0.1745313E+00
          1   -1    0    0  501    0  0.00000000000E+00  0.00000000000E+00  0.58547339463E+02  0.58547339649E+02  0.46700000000E-02 0. -1.
         -1   -1    0    0    0  501 -0.00000000000E+00 -0.00000000000E+00 -0.17081435861E+01  0.17081499698E+01  0.46700000000E-02 0.  1.
       1023    2    1    2    0    0  0.00000000000E+00  0.00000000000E+00  0.56839195876E+02  0.60255489619E+02  0.20000746018E+02 0.  0.
        -11    1    3    3    0    0 -0.97631271931E+01 -0.21647076471E+01  0.28258814430E+02  0.29976077213E+02  0.51100000000E-03 0.  1.
         11    1    3    3    0    0  0.97631271931E+01  0.21647076471E+01  0.28580381446E+02  0.30279412406E+02  0.51100000000E-03 0. -1.
<mgrwt>
<rscale>  0 0.20000746E+02</rscale>
<asrwt>0</asrwt>
<pdfrwt beam="1">  1        1 0.90072820E-02 0.20000746E+02</pdfrwt>
<pdfrwt beam="2">  1       -1 0.26279187E-03 0.20000746E+02</pdfrwt>
<totfact> 0.42201661E+06</totfact>
</mgrwt>
</event>
<event>
 5    1  0.9583198E-007  0.2000144E+02  0.7818608E-02  0.1745299E+00
         -1   -1    0    0    0  501 -0.00000000000E+00  0.00000000000E+00  0.42310243884E+02  0.42310244142E+02  0.46700000000E-02 0. -1.
          1   -1    0    0  501    0  0.00000000000E+00 -0.00000000000E+00 -0.23638314488E+01  0.23638360618E+01  0.46700000000E-02 0.  1.
       1023    2    1    2    0    0  0.00000000000E+00  0.00000000000E+00  0.39946412436E+02  0.44674080204E+02  0.20001439338E+02 0.  0.
        -11    1    3    3    0    0  0.97777562087E+01  0.20990243521E+01  0.19832405612E+02  0.22211139825E+02  0.51100000000E-03 0.  1.
         11    1    3    3    0    0 -0.97777562087E+01 -0.20990243521E+01  0.20114006823E+02  0.22462940379E+02  0.51100000000E-03 0. -1.
<mgrwt>
<rscale>  0 0.20001439E+02</rscale>
<asrwt>0</asrwt>
<pdfrwt beam="2">  1        1 0.36366679E-03 0.20001439E+02</pdfrwt>
<pdfrwt beam="1">  1       -1 0.65092681E-02 0.20001439E+02</pdfrwt>
<totfact> 0.35488504E+06</totfact>
</mgrwt>
</event>
<event>
 5    1  0.9583198E-007  0.2000886E+02  0.7818608E-02  0.1745152E+00
         -1   -1    0    0    0  501 -0.00000000000E+00  0.00000000000E+00  0.21094518440E+01  0.21094570133E+01  0.46700000000E-02 0.  1.
          1   -1    0    0  501    0  0.00000000000E+00 -0.00000000000E+00 -0.47447621667E+02  0.47447621897E+02  0.46700000000E-02 0. -1.
       1023    2    1    2    0    0  0.00000000000E+00  0.00000000000E+00 -0.45338169823E+02  0.49557078910E+02  0.20008858718E+02 0.  0.
        -11    1    3    3    0    0  0.49074658737E+01  0.87146175610E+01 -0.23279925693E+02  0.25337377944E+02  0.51100000000E-03 0. -1.
         11    1    3    3    0    0 -0.49074658737E+01 -0.87146175610E+01 -0.22058244130E+02  0.24219700966E+02  0.51100000000E-03 0.  1.
<mgrwt>
<rscale>  0 0.20008859E+02</rscale>
<asrwt>0</asrwt>
<pdfrwt beam="2">  1        1 0.72996337E-02 0.20008859E+02</pdfrwt>
<pdfrwt beam="1">  1       -1 0.32453151E-03 0.20008859E+02</pdfrwt>
<totfact> 0.41523207E+06</totfact>
</mgrwt>
</event>
<event>
 5    1  0.9583198E-007  0.2000021E+02  0.7818608E-02  0.1745324E+00
          1   -1    0    0  501    0  0.00000000000E+00  0.00000000000E+00  0.54950151064E+01  0.54950170908E+01  0.46700000000E-02 0. -1.
         -1   -1    0    0    0  501 -0.00000000000E+00 -0.00000000000E+00 -0.18198682361E+02  0.18198682960E+02  0.46700000000E-02 0.  1.
       1023    2    1    2    0    0  0.00000000000E+00  0.00000000000E+00 -0.12703667255E+02  0.23693700051E+02  0.20000206509E+02 0.  0.
        -11    1    3    3    0    0  0.97717315481E+01 -0.21248962445E+01 -0.63376502525E+01  0.11839245435E+02  0.51100000000E-03 0.  1.
         11    1    3    3    0    0 -0.97717315481E+01  0.21248962445E+01 -0.63660170020E+01  0.11854454615E+02  0.51100000000E-03 0. -1.
<mgrwt>
<rscale>  0 0.20000207E+02</rscale>
<asrwt>0</asrwt>
<pdfrwt beam="1">  1        1 0.84538715E-03 0.20000207E+02</pdfrwt>
<pdfrwt beam="2">  1       -1 0.27997975E-02 0.20000207E+02</pdfrwt>
<totfact> 0.37603045E+06</totfact>
</mgrwt>
</event>
<event>
 5    1  0.9953530E-007  0.2000061E+02  0.7818608E-02  0.1745316E+00
         -1   -1    0    0    0  501 -0.00000000000E+00  0.00000000000E+00  0.10438767667E+01  0.10438872127E+01  0.46700000000E-02 0.  1.
          1   -1    0    0  501    0  0.00000000000E+00 -0.00000000000E+00 -0.95802132349E+02  0.95802132463E+02  0.46700000000E-02 0. -1.
       1023    2    1    2    0    0  0.00000000000E+00  0.00000000000E+00 -0.94758255582E+02  0.96846019675E+02  0.20000613140E+02 0.  0.
        -11    1    3    3    0    0 -0.50050186353E+01 -0.86575179631E+01 -0.47100865541E+02  0.48150746244E+02  0.51100000000E-03 0. -1.
         11    1    3    3    0    0  0.50050186353E+01  0.86575179631E+01 -0.47657390041E+02  0.48695273432E+02  0.51100000000E-03 0.  1.
<mgrwt>
<rscale>  0 0.20000613E+02</rscale>
<asrwt>0</asrwt>
<pdfrwt beam="2">  1        1 0.14738783E-01 0.20000613E+02</pdfrwt>
<pdfrwt beam="1">  1       -1 0.16059731E-03 0.20000613E+02</pdfrwt>
<totfact> 0.44152707E+06</totfact>
</mgrwt>
</event>
<event>
 5    1  0.9739653E-007  0.2000070E+02  0.7818608E-02  0.1745314E+00
         -1   -1    0    0    0  501 -0.00000000000E+00  0.00000000000E+00  0.28688645951E+01  0.28688683961E+01  0.46700000000E-02 0.  1.
          1   -1    0    0  501    0  0.00000000000E+00 -0.00000000000E+00 -0.34859398491E+02  0.34859398803E+02  0.46700000000E-02 0. -1.
       1023    2    1    2    0    0  0.00000000000E+00  0.00000000000E+00 -0.31990533895E+02  0.37728267199E+02  0.20000697162E+02 0.  0.
        -11    1    3    3    0    0 -0.97854982871E+01 -0.20610165166E+01 -0.16102069381E+02  0.18954693467E+02  0.51100000000E-03 0.  1.
         11    1    3    3    0    0  0.97854982871E+01  0.20610165166E+01 -0.15888464514E+02  0.18773573732E+02  0.51100000000E-03 0. -1.
<mgrwt>
<rscale>  0 0.20000697E+02</rscale>
<asrwt>0</asrwt>
<pdfrwt beam="2">  1        1 0.53629844E-02 0.20000697E+02</pdfrwt>
<pdfrwt beam="1">  1       -1 0.44136413E-03 0.20000697E+02</pdfrwt>
<totfact> 0.40778973E+06</totfact>
</mgrwt>
</event>
<event>
 5    1  0.9740576E-007  0.2000098E+02  0.7818608E-02  0.1745309E+00
         -1   -1    0    0    0  501 -0.00000000000E+00  0.00000000000E+00  0.12906054332E+02  0.12906055177E+02  0.46700000000E-02 0. -1.
          1   -1    0    0  501    0  0.00000000000E+00 -0.00000000000E+00 -0.77490620410E+01  0.77490634482E+01  0.46700000000E-02 0.  1.
       1023    2    1    2    0    0  0.00000000000E+00  0.00000000000E+00  0.51569922914E+01  0.20655118626E+02  0.20000983874E+02 0.  0.
        -11    1    3    3    0    0 -0.75065925106E+01 -0.66074010180E+01  0.25204493790E+01  0.10313066696E+02  0.51100000000E-03 0. -1.
         11    1    3    3    0    0  0.75065925106E+01  0.66074010180E+01  0.26365429125E+01  0.10342051930E+02  0.51100000000E-03 0.  1.
<mgrwt>
<rscale>  0 0.20000984E+02</rscale>
<asrwt>0</asrwt>
<pdfrwt beam="2">  1        1 0.11921636E-02 0.20000984E+02</pdfrwt>
<pdfrwt beam="1">  1       -1 0.19855470E-02 0.20000984E+02</pdfrwt>
<totfact> 0.38212490E+06</totfact>
</mgrwt>
</event>
<event>
 5    1  0.9583198E-007  0.2000048E+02  0.7818608E-02  0.1745318E+00
         -1   -1    0    0    0  501 -0.00000000000E+00  0.00000000000E+00  0.24248447752E+01  0.24248492722E+01  0.46700000000E-02 0.  1.
          1   -1    0    0  501    0  0.00000000000E+00 -0.00000000000E+00 -0.41241697703E+02  0.41241697968E+02  0.46700000000E-02 0. -1.
       1023    2    1    2    0    0  0.00000000000E+00  0.00000000000E+00 -0.38816852928E+02  0.43666547240E+02  0.20000481909E+02 0.  0.
        -11    1    3    3    0    0  0.30600987996E+01 -0.95205324822E+01 -0.19389457983E+02  0.21816411817E+02  0.51100000000E-03 0. -1.
         11    1    3    3    0    0 -0.30600987996E+01  0.95205324822E+01 -0.19427394945E+02  0.21850135423E+02  0.51100000000E-03 0.  1.
<mgrwt>
<rscale>  0 0.20000482E+02</rscale>
<asrwt>0</asrwt>
<pdfrwt beam="2">  1        1 0.63448765E-02 0.20000482E+02</pdfrwt>
<pdfrwt beam="1">  1       -1 0.37305344E-03 0.20000482E+02</pdfrwt>
<totfact> 0.41185438E+06</totfact>
</mgrwt>
</event>
<event>
 5    1  0.9583198E-007  0.2000026E+02  0.7818608E-02  0.1745323E+00
         -1   -1    0    0    0  501 -0.00000000000E+00  0.00000000000E+00  0.10810818686E+02  0.10810819695E+02  0.46700000000E-02 0.  1.
          1   -1    0    0  501    0  0.00000000000E+00 -0.00000000000E+00 -0.92502271480E+01  0.92502283268E+01  0.46700000000E-02 0. -1.
       1023    2    1    2    0    0  0.00000000000E+00  0.00000000000E+00  0.15605915383E+01  0.20061048022E+02  0.20000255043E+02 0.  0.
        -11    1    3    3    0    0  0.73469269880E+01 -0.67841415473E+01  0.75497062106E+00  0.10028553914E+02  0.51100000000E-03 0. -1.
         11    1    3    3    0    0 -0.73469269880E+01  0.67841415473E+01  0.80562091722E+00  0.10032494108E+02  0.51100000000E-03 0.  1.
<mgrwt>
<rscale>  0 0.20000255E+02</rscale>
<asrwt>0</asrwt>
<pdfrwt beam="2">  1        1 0.14231120E-02 0.20000255E+02</pdfrwt>
<pdfrwt beam="1">  1       -1 0.16632030E-02 0.20000255E+02</pdfrwt>
<totfact> 0.38501212E+06</totfact>
</mgrwt>
</event>
<event>
 5    1  0.9583198E-007  0.2000119E+02  0.7818608E-02  0.1745305E+00
          1   -1    0    0  501    0  0.00000000000E+00  0.00000000000E+00  0.16489993553E+01  0.16490059680E+01  0.46700000000E-02 0. -1.
         -1   -1    0    0    0  501 -0.00000000000E+00 -0.00000000000E+00 -0.60649900283E+02  0.60649900463E+02  0.46700000000E-02 0.  1.
       1023    2    1    2    0    0  0.00000000000E+00  0.00000000000E+00 -0.59000900928E+02  0.62298906431E+02  0.20001185770E+02 0.  0.
        -11    1    3    3    0    0 -0.70245917091E+01  0.71180278720E+01 -0.29579758944E+02  0.31224563230E+02  0.51100000000E-03 0.  1.
         11    1    3    3    0    0  0.70245917091E+01 -0.71180278720E+01 -0.29421141984E+02  0.31074343201E+02  0.51100000000E-03 0. -1.
<mgrwt>
<rscale>  0 0.20001186E+02</rscale>
<asrwt>0</asrwt>
<pdfrwt beam="1">  1        1 0.25369278E-03 0.20001186E+02</pdfrwt>
<pdfrwt beam="2">  1       -1 0.93307527E-02 0.20001186E+02</pdfrwt>
<totfact> 0.34195731E+06</totfact>
</mgrwt>
</event>
<event>
 5    1  0.9583198E-007  0.2000007E+02  0.7818608E-02  0.1745327E+00
         -1   -1    0    0    0  501 -0.00000000000E+00  0.00000000000E+00  0.17170661009E+01  0.17170724515E+01  0.46700000000E-02 0. -1.
          1   -1    0    0  501    0  0.00000000000E+00 -0.00000000000E+00 -0.58239150254E+02  0.58239150441E+02  0.46700000000E-02 0.  1.
       1023    2    1    2    0    0  0.00000000000E+00  0.00000000000E+00 -0.56522084153E+02  0.59956222893E+02  0.20000066664E+02 0.  0.
        -11    1    3    3    0    0  0.98366383326E+01 -0.18003354821E+01 -0.28267638622E+02  0.29984330159E+02  0.51100000000E-03 0.  1.
         11    1    3    3    0    0 -0.98366383326E+01  0.18003354821E+01 -0.28254445531E+02  0.29971892734E+02  0.51100000000E-03 0. -1.
<mgrwt>
<rscale>  0 0.20000067E+02</rscale>
<asrwt>0</asrwt>
<pdfrwt beam="2">  1        1 0.89598683E-02 0.20000067E+02</pdfrwt>
<pdfrwt beam="1">  1       -1 0.26416456E-03 0.20000067E+02</pdfrwt>
<totfact> 0.42187489E+06</totfact>
</mgrwt>
</event>
<event>
 5    1  0.9583198E-007  0.2000243E+02  0.7818608E-02  0.1745280E+00
         -1   -1    0    0    0  501 -0.00000000000E+00  0.00000000000E+00  0.64647889083E+02  0.64647889252E+02  0.46700000000E-02 0.  1.
          1   -1    0    0  501    0  0.00000000000E+00 -0.00000000000E+00 -0.15472124028E+01  0.15472194506E+01  0.46700000000E-02 0. -1.
       1023    2    1    2    0    0  0.00000000000E+00  0.00000000000E+00  0.63100676680E+02  0.66195108702E+02  0.20002425318E+02 0.  0.
        -11    1    3    3    0    0  0.64163296108E+01 -0.76710510068E+01  0.31880365193E+02  0.33412153392E+02  0.51100000000E-03 0. -1.
         11    1    3    3    0    0 -0.64163296108E+01  0.76710510068E+01  0.31220311487E+02  0.32782955310E+02  0.51100000000E-03 0.  1.
<mgrwt>
<rscale>  0 0.20002425E+02</rscale>
<asrwt>0</asrwt>
<pdfrwt beam="2">  1        1 0.23803325E-03 0.20002425E+02</pdfrwt>
<pdfrwt beam="1">  1       -1 0.99458291E-02 0.20002425E+02</pdfrwt>
<totfact> 0.33930482E+06</totfact>
</mgrwt>
</event>
<event>
 5    1  0.9583198E-007  0.2000008E+02  0.7818608E-02  0.1745326E+00
         -1   -1    0    0    0  501 -0.00000000000E+00  0.00000000000E+00  0.14718737503E+02  0.14718738244E+02  0.46700000000E-02 0.  1.
          1   -1    0    0  501    0  0.00000000000E+00 -0.00000000000E+00 -0.67941144425E+01  0.67941160475E+01  0.46700000000E-02 0. -1.
       1023    2    1    2    0    0  0.00000000000E+00  0.00000000000E+00  0.79246230604E+01  0.21512854291E+02  0.20000081228E+02 0.  0.
        -11    1    3    3    0    0 -0.25134253358E+01 -0.96790001232E+01  0.39854242731E+01  0.10764941115E+02  0.51100000000E-03 0. -1.
         11    1    3    3    0    0  0.25134253358E+01  0.96790001232E+01  0.39391987873E+01  0.10747913177E+02  0.51100000000E-03 0.  1.
<mgrwt>
<rscale>  0 0.20000081E+02</rscale>
<asrwt>0</asrwt>
<pdfrwt beam="2">  1        1 0.10452486E-02 0.20000081E+02</pdfrwt>
<pdfrwt beam="1">  1       -1 0.22644213E-02 0.20000081E+02</pdfrwt>
<totfact> 0.37992695E+06</totfact>
</mgrwt>
</event>
<event>
 5    1  0.9583198E-007  0.2000621E+02  0.7818608E-02  0.1745205E+00
          1   -1    0    0  501    0  0.00000000000E+00  0.00000000000E+00  0.63648412821E+01  0.63648429954E+01  0.46700000000E-02 0. -1.
         -1   -1    0    0    0  501 -0.00000000000E+00 -0.00000000000E+00 -0.15721057875E+02  0.15721058569E+02  0.46700000000E-02 0.  1.
       1023    2    1    2    0    0  0.00000000000E+00  0.00000000000E+00 -0.93562165928E+01  0.22085901564E+02  0.20006205511E+02 0.  0.
        -11    1    3    3    0    0 -0.94265701590E+01 -0.33437926717E+01 -0.48376670018E+01  0.11110544392E+02  0.51100000000E-03 0.  1.
         11    1    3    3    0    0  0.94265701590E+01  0.33437926717E+01 -0.45185495910E+01  0.10975357172E+02  0.51100000000E-03 0. -1.
<mgrwt>
<rscale>  0 0.20006206E+02</rscale>
<asrwt>0</asrwt>
<pdfrwt beam="1">  1        1 0.97920654E-03 0.20006206E+02</pdfrwt>
<pdfrwt beam="2">  1       -1 0.24186245E-02 0.20006206E+02</pdfrwt>
<totfact> 0.37850588E+06</totfact>
</mgrwt>
</event>
<event>
 5    1  0.9649081E-007  0.2000127E+02  0.7818608E-02  0.1745303E+00
         -1   -1    0    0    0  501 -0.00000000000E+00  0.00000000000E+00  0.25704078313E+02  0.25704078737E+02  0.46700000000E-02 0. -1.
          1   -1    0    0  501    0  0.00000000000E+00 -0.00000000000E+00 -0.38909247460E+01  0.38909275485E+01  0.46700000000E-02 0.  1.
       1023    2    1    2    0    0  0.00000000000E+00  0.00000000000E+00  0.21813153567E+02  0.29595006285E+02  0.20001268172E+02 0.  0.
        -11    1    3    3    0    0  0.62613336844E+01 -0.77979727247E+01  0.10903714131E+02  0.14795393210E+02  0.51100000000E-03 0. -1.
         11    1    3    3    0    0 -0.62613336844E+01  0.77979727247E+01  0.10909439435E+02  0.14799613075E+02  0.51100000000E-03 0.  1.
<mgrwt>
<rscale>  0 0.20001268E+02</rscale>
<asrwt>0</asrwt>
<pdfrwt beam="2">  1        1 0.59860406E-03 0.20001268E+02</pdfrwt>
<pdfrwt beam="1">  1       -1 0.39544738E-02 0.20001268E+02</pdfrwt>
<totfact> 0.36862863E+06</totfact>
</mgrwt>
</event>
<event>
 5    1  0.9583198E-007  0.2000009E+02  0.7818608E-02  0.1745326E+00
         -1   -1    0    0    0  501 -0.00000000000E+00  0.00000000000E+00  0.43697186818E+01  0.43697211773E+01  0.46700000000E-02 0. -1.
          1   -1    0    0  501    0  0.00000000000E+00 -0.00000000000E+00 -0.22884954031E+02  0.22884954507E+02  0.46700000000E-02 0.  1.
       1023    2    1    2    0    0  0.00000000000E+00  0.00000000000E+00 -0.18515235349E+02  0.27254675684E+02  0.20000085166E+02 0.  0.
        -11    1    3    3    0    0 -0.15197840222E+01 -0.98838724017E+01 -0.92396280405E+01  0.13615116735E+02  0.51100000000E-03 0.  1.
         11    1    3    3    0    0  0.15197840222E+01  0.98838724017E+01 -0.92756073083E+01  0.13639558949E+02  0.51100000000E-03 0. -1.
<mgrwt>
<rscale>  0 0.20000085E+02</rscale>
<asrwt>0</asrwt>
<pdfrwt beam="2">  1        1 0.35207623E-02 0.20000085E+02</pdfrwt>
<pdfrwt beam="1">  1       -1 0.67226465E-03 0.20000085E+02</pdfrwt>
<totfact> 0.39938066E+06</totfact>
</mgrwt>
</event>
<event>
 5    1  0.1007256E-006  0.2000135E+02  0.7818608E-02  0.1745301E+00
          1   -1    0    0  501    0  0.00000000000E+00  0.00000000000E+00  0.22699892616E+02  0.22699893096E+02  0.46700000000E-02 0. -1.
         -1   -1    0    0    0  501 -0.00000000000E+00 -0.00000000000E+00 -0.44059005175E+01  0.44059029925E+01  0.46700000000E-02 0.  1.
       1023    2    1    2    0    0  0.00000000000E+00  0.00000000000E+00  0.18293992098E+02  0.27105796089E+02  0.20001350822E+02 0.  0.
        -11    1    3    3    0    0  0.61124844566E+01 -0.79145276953E+01  0.90029776499E+01  0.13455698484E+02  0.51100000000E-03 0.  1.
         11    1    3    3    0    0 -0.61124844566E+01  0.79145276953E+01  0.92910144484E+01  0.13650097605E+02  0.51100000000E-03 0. -1.
<mgrwt>
<rscale>  0 0.20001351E+02</rscale>
<asrwt>0</asrwt>
<pdfrwt beam="1">  1        1 0.34922915E-02 0.20001351E+02</pdfrwt>
<pdfrwt beam="2">  1       -1 0.67783106E-03 0.20001351E+02</pdfrwt>
<totfact> 0.39917990E+06</totfact>
</mgrwt>
</event>
<event>
 5    1  0.9583198E-007  0.2000117E+02  0.7818608E-02  0.1745305E+00
          1   -1    0    0  501    0  0.00000000000E+00  0.00000000000E+00  0.98665800275E+00  0.98666905459E+00  0.46700000000E-02 0. -1.
         -1   -1    0    0    0  501 -0.00000000000E+00 -0.00000000000E+00 -0.10136356279E+03  0.10136356290E+03  0.46700000000E-02 0.  1.
       1023    2    1    2    0    0  0.00000000000E+00  0.00000000000E+00 -0.10037690479E+03  0.10235023195E+03  0.20001174115E+02 0.  0.
        -11    1    3    3    0    0  0.34905706950E+01 -0.93715630741E+01 -0.50384182123E+02  0.51367072008E+02  0.51100000000E-03 0.  1.
         11    1    3    3    0    0 -0.34905706950E+01  0.93715630741E+01 -0.49992722665E+02  0.50983159945E+02  0.51100000000E-03 0. -1.
<mgrwt>
<rscale>  0 0.20001174E+02</rscale>
<asrwt>0</asrwt>
<pdfrwt beam="1">  1        1 0.15179448E-03 0.20001174E+02</pdfrwt>
<pdfrwt beam="2">  1       -1 0.15594387E-01 0.20001174E+02</pdfrwt>
<totfact> 0.31790711E+06</totfact>
</mgrwt>
</event>
<event>
 5    1  0.9583198E-007  0.2000275E+02  0.7818608E-02  0.1745273E+00
         -1   -1    0    0    0  501 -0.00000000000E+00  0.00000000000E+00  0.16063067361E+01  0.16063135246E+01  0.46700000000E-02 0.  1.
          1   -1    0    0  501    0  0.00000000000E+00 -0.00000000000E+00 -0.62271616740E+02  0.62271616915E+02  0.46700000000E-02 0. -1.
       1023    2    1    2    0    0  0.00000000000E+00  0.00000000000E+00 -0.60665310004E+02  0.63877930440E+02  0.20002753795E+02 0.  0.
        -11    1    3    3    0    0 -0.29794710676E+01  0.95469899909E+01 -0.30100741866E+02  0.31718715719E+02  0.51100000000E-03 0.  1.
         11    1    3    3    0    0  0.29794710676E+01 -0.95469899909E+01 -0.30564568138E+02  0.32159214721E+02  0.51100000000E-03 0. -1.
<mgrwt>
<rscale>  0 0.20002754E+02</rscale>
<asrwt>0</asrwt>
<pdfrwt beam="2">  1        1 0.95802474E-02 0.20002754E+02</pdfrwt>
<pdfrwt beam="1">  1       -1 0.24712470E-03 0.20002754E+02</pdfrwt>
<totfact> 0.42400020E+06</totfact>
</mgrwt>
</event>
<event>
 5    1  0.9740934E-007  0.2000153E+02  0.7818608E-02  0.1745298E+00
         -1   -1    0    0    0  501 -0.00000000000E+00  0.00000000000E+00  0.24829307574E+01  0.24829351491E+01  0.46700000000E-02 0. -1.
          1   -1    0    0  501    0  0.00000000000E+00 -0.00000000000E+00 -0.40281096531E+02  0.40281096802E+02  0.46700000000E-02 0.  1.
       1023    2    1    2    0    0  0.00000000000E+00  0.00000000000E+00 -0.37798165774E+02  0.42764031951E+02  0.20001527263E+02 0.  0.
        -11    1    3    3    0    0  0.97546301802E+01  0.22016617347E+01 -0.19162231912E+02  0.21614607478E+02  0.51100000000E-03 0. -1.
         11    1    3    3    0    0 -0.97546301802E+01 -0.22016617347E+01 -0.18635933862E+02  0.21149424473E+02  0.51100000000E-03 0.  1.
<mgrwt>
<rscale>  0 0.20001527E+02</rscale>
<asrwt>0</asrwt>
<pdfrwt beam="2">  1        1 0.61970916E-02 0.20001527E+02</pdfrwt>
<pdfrwt beam="1">  1       -1 0.38198974E-03 0.20001527E+02</pdfrwt>
<totfact> 0.41120942E+06</totfact>
</mgrwt>
</event>
<event>
 5    1  0.9583198E-007  0.2000197E+02  0.7818608E-02  0.1745289E+00
          1   -1    0    0  501    0  0.00000000000E+00  0.00000000000E+00  0.11697867547E+01  0.11697960764E+01  0.46700000000E-02 0.  1.
         -1   -1    0    0    0  501 -0.00000000000E+00 -0.00000000000E+00 -0.85502122235E+02  0.85502122362E+02  0.46700000000E-02 0. -1.
       1023    2    1    2    0    0  0.00000000000E+00  0.00000000000E+00 -0.84332335480E+02  0.86671918439E+02  0.20001965861E+02 0.  0.
        -11    1    3    3    0    0  0.54498560499E+01  0.83855396278E+01 -0.42000966224E+02  0.43175217079E+02  0.51100000000E-03 0.  1.
         11    1    3    3    0    0 -0.54498560499E+01 -0.83855396278E+01 -0.42331369257E+02  0.43496701360E+02  0.51100000000E-03 0. -1.
<mgrwt>
<rscale>  0 0.20001966E+02</rscale>
<asrwt>0</asrwt>
<pdfrwt beam="1">  1        1 0.17996799E-03 0.20001966E+02</pdfrwt>
<pdfrwt beam="2">  1       -1 0.13154168E-01 0.20001966E+02</pdfrwt>
<totfact> 0.32665816E+06</totfact>
</mgrwt>
</event>
<event>
 5    1  0.9583198E-007  0.2000095E+02  0.7818608E-02  0.1745309E+00
          1   -1    0    0  501    0  0.00000000000E+00  0.00000000000E+00  0.16372564197E+01  0.16372630799E+01  0.46700000000E-02 0. -1.
         -1   -1    0    0    0  501 -0.00000000000E+00 -0.00000000000E+00 -0.61083476687E+02  0.61083476865E+02  0.46700000000E-02 0.  1.
       1023    2    1    2    0    0  0.00000000000E+00  0.00000000000E+00 -0.59446220267E+02  0.62720739945E+02  0.20000952858E+02 0.  0.
        -11    1    3    3    0    0 -0.21706768823E+00 -0.99980861673E+01 -0.29641146637E+02  0.31282685620E+02  0.51100000000E-03 0.  1.
         11    1    3    3    0    0  0.21706768823E+00  0.99980861673E+01 -0.29805073630E+02  0.31438054325E+02  0.51100000000E-03 0. -1.
<mgrwt>
<rscale>  0 0.20000953E+02</rscale>
<asrwt>0</asrwt>
<pdfrwt beam="1">  1        1 0.25188618E-03 0.20000953E+02</pdfrwt>
<pdfrwt beam="2">  1       -1 0.93974567E-02 0.20000953E+02</pdfrwt>
<totfact> 0.34168017E+06</totfact>
</mgrwt>
</event>
<event>
 5    1  0.9583198E-007  0.2000042E+02  0.7818608E-02  0.1745320E+00
          1   -1    0    0  501    0  0.00000000000E+00  0.00000000000E+00  0.26478640415E+02  0.26478640826E+02  0.46700000000E-02 0.  1.
         -1   -1    0    0    0  501 -0.00000000000E+00 -0.00000000000E+00 -0.37767840078E+01  0.37767868951E+01  0.46700000000E-02 0. -1.
       1023    2    1    2    0    0  0.00000000000E+00  0.00000000000E+00  0.22701856407E+02  0.30255427722E+02  0.20000415553E+02 0.  0.
        -11    1    3    3    0    0 -0.67664328206E+00  0.99771663439E+01  0.11425971835E+02  0.15184022096E+02  0.51100000000E-03 0.  1.
         11    1    3    3    0    0  0.67664328206E+00 -0.99771663439E+01  0.11275884572E+02  0.15071405625E+02  0.51100000000E-03 0. -1.
<mgrwt>
<rscale>  0 0.20000416E+02</rscale>
<asrwt>0</asrwt>
<pdfrwt beam="1">  1        1 0.40736374E-02 0.20000416E+02</pdfrwt>
<pdfrwt beam="2">  1       -1 0.58104392E-03 0.20000416E+02</pdfrwt>
<totfact> 0.40206160E+06</totfact>
</mgrwt>
</event>
<event>
 5    1  0.9583198E-007  0.2000084E+02  0.7818608E-02  0.1745311E+00
         -1   -1    0    0    0  501 -0.00000000000E+00  0.00000000000E+00  0.11312762481E+02  0.11312763445E+02  0.46700000000E-02 0.  1.
          1   -1    0    0  501    0  0.00000000000E+00 -0.00000000000E+00 -0.88403122567E+01  0.88403134902E+01  0.46700000000E-02 0. -1.
       1023    2    1    2    0    0  0.00000000000E+00  0.00000000000E+00  0.24724502245E+01  0.20153076935E+02  0.20000837479E+02 0.  0.
        -11    1    3    3    0    0 -0.18057741374E+01 -0.98360265444E+01  0.12244622000E+01  0.10075095352E+02  0.51100000000E-03 0. -1.
         11    1    3    3    0    0  0.18057741374E+01  0.98360265444E+01  0.12479880245E+01  0.10077981583E+02  0.51100000000E-03 0.  1.
<mgrwt>
<rscale>  0 0.20000837E+02</rscale>
<asrwt>0</asrwt>
<pdfrwt beam="2">  1        1 0.13600482E-02 0.20000837E+02</pdfrwt>
<pdfrwt beam="1">  1       -1 0.17404252E-02 0.20000837E+02</pdfrwt>
<totfact> 0.38426947E+06</totfact>
</mgrwt>
</event>
<event>
 5    1  0.9662667E-007  0.2000065E+02  0.7818608E-02  0.1745315E+00
          1   -1    0    0  501    0  0.00000000000E+00  0.00000000000E+00  0.36768923180E+02  0.36768923477E+02  0.46700000000E-02 0. -1.
         -1   -1    0    0    0  501 -0.00000000000E+00 -0.00000000000E+00 -0.27198628659E+01  0.27198668751E+01  0.46700000000E-02 0.  1.
       1023    2    1    2    0    0  0.00000000000E+00  0.00000000000E+00  0.34049060314E+02  0.39488790352E+02  0.20000651369E+02 0.  0.
        -11    1    3    3    0    0 -0.58540273933E+01  0.81075189789E+01  0.17164318395E+02  0.19864927056E+02  0.51100000000E-03 0.  1.
         11    1    3    3    0    0  0.58540273933E+01 -0.81075189789E+01  0.16884741919E+02  0.19623863296E+02  0.51100000000E-03 0. -1.
<mgrwt>
<rscale>  0 0.20000651E+02</rscale>
<asrwt>0</asrwt>
<pdfrwt beam="1">  1        1 0.56567576E-02 0.20000651E+02</pdfrwt>
<pdfrwt beam="2">  1       -1 0.41844078E-03 0.20000651E+02</pdfrwt>
<totfact> 0.40902799E+06</totfact>
</mgrwt>
</event>
<event>
 5    1  0.9583198E-007  0.2000233E+02  0.7818608E-02  0.1745282E+00
          1   -1    0    0  501    0  0.00000000000E+00  0.00000000000E+00  0.66404057800E+01  0.66404074221E+01  0.46700000000E-02 0.  1.
         -1   -1    0    0    0  501 -0.00000000000E+00 -0.00000000000E+00 -0.15062818328E+02  0.15062819052E+02  0.46700000000E-02 0. -1.
       1023    2    1    2    0    0  0.00000000000E+00  0.00000000000E+00 -0.84224125484E+01  0.21703226474E+02  0.20002325022E+02 0.  0.
        -11    1    3    3    0    0  0.90410847513E+01 -0.42740582873E+01 -0.40807149174E+01  0.10800973207E+02  0.51100000000E-03 0. -1.
         11    1    3    3    0    0 -0.90410847513E+01  0.42740582873E+01 -0.43416976310E+01  0.10902253267E+02  0.51100000000E-03 0.  1.
<mgrwt>
<rscale>  0 0.20002325E+02</rscale>
<asrwt>0</asrwt>
<pdfrwt beam="1">  1        1 0.10216011E-02 0.20002325E+02</pdfrwt>
<pdfrwt beam="2">  1       -1 0.23173568E-02 0.20002325E+02</pdfrwt>
<totfact> 0.37942812E+06</totfact>
</mgrwt>
</event>
<event>
 5    1  0.9583198E-007  0.2000107E+02  0.7818608E-02  0.1745307E+00
          1   -1    0    0  501    0  0.00000000000E+00  0.00000000000E+00  0.84705952062E+00  0.84707239382E+00  0.46700000000E-02 0. -1.
         -1   -1    0    0    0  501 -0.00000000000E+00 -0.00000000000E+00 -0.11806723523E+03  0.11806723533E+03  0.46700000000E-02 0.  1.
       1023    2    1    2    0    0  0.00000000000E+00  0.00000000000E+00 -0.11722017571E+03  0.11891430772E+03  0.20001074628E+02 0.  0.
        -11    1    3    3    0    0  0.56030408560E+01 -0.82833384235E+01 -0.58934863205E+02  0.59777302244E+02  0.51100000000E-03 0.  1.
         11    1    3    3    0    0 -0.56030408560E+01  0.82833384235E+01 -0.58285312508E+02  0.59137005476E+02  0.51100000000E-03 0. -1.
<mgrwt>
<rscale>  0 0.20001075E+02</rscale>
<asrwt>0</asrwt>
<pdfrwt beam="1">  1        1 0.13031794E-03 0.20001075E+02</pdfrwt>
<pdfrwt beam="2">  1       -1 0.18164178E-01 0.20001075E+02</pdfrwt>
<totfact> 0.30928960E+06</totfact>
</mgrwt>
</event>
<event>
 5    1  0.1030950E-006  0.2000117E+02  0.7818608E-02  0.1745305E+00
         -1   -1    0    0    0  501 -0.00000000000E+00  0.00000000000E+00  0.56891448342E+01  0.56891467509E+01  0.46700000000E-02 0. -1.
          1   -1    0    0  501    0  0.00000000000E+00 -0.00000000000E+00 -0.17579379082E+02  0.17579379702E+02  0.46700000000E-02 0.  1.
       1023    2    1    2    0    0  0.00000000000E+00  0.00000000000E+00 -0.11890234248E+02  0.23268526453E+02  0.20001166287E+02 0.  0.
        -11    1    3    3    0    0 -0.20874071351E+01  0.97801105294E+01 -0.60171367469E+01  0.11671065307E+02  0.51100000000E-03 0. -1.
         11    1    3    3    0    0  0.20874071351E+01 -0.97801105294E+01 -0.58730975009E+01  0.11597461146E+02  0.51100000000E-03 0.  1.
<mgrwt>
<rscale>  0 0.20001166E+02</rscale>
<asrwt>0</asrwt>
<pdfrwt beam="2">  1        1 0.27045200E-02 0.20001166E+02</pdfrwt>
<pdfrwt beam="1">  1       -1 0.87525325E-03 0.20001166E+02</pdfrwt>
<totfact> 0.39489188E+06</totfact>
</mgrwt>
</event>
<event>
 5    1  0.9593472E-007  0.2000075E+02  0.7818608E-02  0.1745313E+00
          1   -1    0    0  501    0  0.00000000000E+00  0.00000000000E+00  0.50363796755E+01  0.50363818407E+01  0.46700000000E-02 0.  1.
         -1   -1    0    0    0  501 -0.00000000000E+00 -0.00000000000E+00 -0.19857010935E+02  0.19857011484E+02  0.46700000000E-02 0. -1.
       1023    2    1    2    0    0  0.00000000000E+00  0.00000000000E+00 -0.14820631259E+02  0.24893393325E+02  0.20000747993E+02 0.  0.
        -11    1    3    3    0    0  0.98556850627E+01  0.16944799390E+01 -0.74614739110E+01  0.12477154463E+02  0.51100000000E-03 0. -1.
         11    1    3    3    0    0 -0.98556850627E+01 -0.16944799390E+01 -0.73591573482E+01  0.12416238861E+02  0.51100000000E-03 0.  1.
<mgrwt>
<rscale>  0 0.20000748E+02</rscale>
<asrwt>0</asrwt>
<pdfrwt beam="1">  1        1 0.77482786E-03 0.20000748E+02</pdfrwt>
<pdfrwt beam="2">  1       -1 0.30549249E-02 0.20000748E+02</pdfrwt>
<totfact> 0.37428292E+06</totfact>
</mgrwt>
</event>
<event>
 5    1  0.9651486E-007  0.2000070E+02  0.7818608E-02  0.1745314E+00
          1   -1    0    0  501    0  0.00000000000E+00  0.00000000000E+00  0.66428557099E+02  0.66428557264E+02  0.46700000000E-02 0. -1.
         -1   -1    0    0    0  501 -0.00000000000E+00 -0.00000000000E+00 -0.15054777742E+01  0.15054850173E+01  0.46700000000E-02 0.  1.
       1023    2    1    2    0    0  0.00000000000E+00  0.00000000000E+00  0.64923079325E+02  0.67934042281E+02  0.20000696777E+02 0.  0.
        -11    1    3    3    0    0  0.94613369681E+01 -0.32386312155E+01  0.32337285365E+02  0.33848274024E+02  0.51100000000E-03 0.  1.
         11    1    3    3    0    0 -0.94613369681E+01  0.32386312155E+01  0.32585793960E+02  0.34085768256E+02  0.51100000000E-03 0. -1.
<mgrwt>
<rscale>  0 0.20000697E+02</rscale>
<asrwt>0</asrwt>
<pdfrwt beam="1">  1        1 0.10219779E-01 0.20000697E+02</pdfrwt>
<pdfrwt beam="2">  1       -1 0.23161253E-03 0.20000697E+02</pdfrwt>
<totfact> 0.42637731E+06</totfact>
</mgrwt>
</event>
<event>
 4    1  0.9583198E-007  0.2002384E+02  0.7818608E-02  0.1744854E+00
         -1   -1    0    0    0  501 -0.00000000000E+00  0.00000000000E+00  0.33900056073E+01  0.33900088239E+01  0.46700000000E-02 0.  1.
          1   -1    0    0  501    0  0.00000000000E+00 -0.00000000000E+00 -0.29568824731E+02  0.29568825100E+02  0.46700000000E-02 0. -1.
        -11    1    1    2    0    0 -0.85678186433E+01  0.51795732420E+01 -0.12998579053E+02  0.16407271343E+02  0.51100000000E-03 0. -1.
         11    1    1    2    0    0  0.85678186433E+01 -0.51795732420E+01 -0.13180240071E+02  0.16551562581E+02  0.51100000000E-03 0.  1.
<mgrwt>
<rscale>  0 0.20023840E+02</rscale>
<asrwt>0</asrwt>
<pdfrwt beam="2">  1        1 0.45490500E-02 0.20023840E+02</pdfrwt>
<pdfrwt beam="1">  1       -1 0.52153962E-03 0.20023840E+02</pdfrwt>
<totfact> 0.40319472E+06</totfact>
</mgrwt>
</event>
<event>
 5    1  0.9583198E-007  0.2000907E+02  0.7818608E-02  0.1745148E+00
         -1   -1    0    0    0  501 -0.00000000000E+00  0.00000000000E+00  0.23779208046E+02  0.23779208505E+02  0.46700000000E-02 0.  1.
          1   -1    0    0  501    0  0.00000000000E+00 -0.00000000000E+00 -0.42091668511E+01  0.42091694418E+01  0.46700000000E-02 0. -1.
       1023    2    1    2    0    0  0.00000000000E+00  0.00000000000E+00  0.19570041195E+02  0.27988377947E+02  0.20009067637E+02 0.  0.
        -11    1    3    3    0    0  0.70243526294E+01 -0.71202633942E+01  0.94690809864E+01  0.13773277593E+02  0.51100000000E-03 0.  1.
         11    1    3    3    0    0 -0.70243526294E+01  0.71202633942E+01  0.10100960209E+02  0.14215100354E+02  0.51100000000E-03 0. -1.
<mgrwt>
<rscale>  0 0.20009068E+02</rscale>
<asrwt>0</asrwt>
<pdfrwt beam="2">  1        1 0.64756438E-03 0.20009068E+02</pdfrwt>
<pdfrwt beam="1">  1       -1 0.36583399E-02 0.20009068E+02</pdfrwt>
<totfact> 0.37009935E+06</totfact>
</mgrwt>
</event>
<event>
 5    1  0.9583198E-007  0.2000156E+02  0.7818608E-02  0.1745297E+00
         -1   -1    0    0    0  501 -0.00000000000E+00  0.00000000000E+00  0.40017048164E+02  0.40017048436E+02  0.46700000000E-02 0. -1.
          1   -1    0    0  501    0  0.00000000000E+00 -0.00000000000E+00 -0.24993212986E+01  0.24993256615E+01  0.46700000000E-02 0.  1.
       1023    2    1    2    0    0  0.00000000000E+00  0.00000000000E+00  0.37517726865E+02  0.42516374098E+02  0.20001555872E+02 0.  0.
        -11    1    3    3    0    0 -0.92636140552E+01  0.37675734094E+01  0.18928972851E+02  0.21408296715E+02  0.51100000000E-03 0. -1.
         11    1    3    3    0    0  0.92636140552E+01 -0.37675734094E+01  0.18588754014E+02  0.21108077383E+02  0.51100000000E-03 0.  1.
<mgrwt>
<rscale>  0 0.20001556E+02</rscale>
<asrwt>0</asrwt>
<pdfrwt beam="2">  1        1 0.38451136E-03 0.20001556E+02</pdfrwt>
<pdfrwt beam="1">  1       -1 0.61564687E-02 0.20001556E+02</pdfrwt>
<totfact> 0.35663730E+06</totfact>
</mgrwt>
</event>
<event>
 5    1  0.9935827E-007  0.2000109E+02  0.7818608E-02  0.1745306E+00
         -1   -1    0    0    0  501 -0.00000000000E+00  0.00000000000E+00  0.21455732472E+01  0.21455783295E+01  0.46700000000E-02 0. -1.
          1   -1    0    0  501    0  0.00000000000E+00 -0.00000000000E+00 -0.46612620652E+02  0.46612620886E+02  0.46700000000E-02 0.  1.
       1023    2    1    2    0    0  0.00000000000E+00  0.00000000000E+00 -0.44467047405E+02  0.48758199216E+02  0.20001092116E+02 0.  0.
        -11    1    3    3    0    0 -0.10684220561E+01 -0.99430830172E+01 -0.22396975162E+02  0.24528165897E+02  0.51100000000E-03 0. -1.
         11    1    3    3    0    0  0.10684220561E+01  0.99430830172E+01 -0.22070072243E+02  0.24230033319E+02  0.51100000000E-03 0.  1.
<mgrwt>
<rscale>  0 0.20001092E+02</rscale>
<asrwt>0</asrwt>
<pdfrwt beam="2">  1        1 0.71711720E-02 0.20001092E+02</pdfrwt>
<pdfrwt beam="1">  1       -1 0.33008864E-03 0.20001092E+02</pdfrwt>
<totfact> 0.41509280E+06</totfact>
</mgrwt>
</event>
<event>
 4    1  0.1039778E-006  0.2021300E+02  0.7818608E-02  0.1741125E+00
          1   -1    0    0  501    0  0.00000000000E+00  0.00000000000E+00  0.27983926709E+02  0.27983927098E+02  0.46700000000E-02 0. -1.
         -1   -1    0    0    0  501 -0.00000000000E+00 -0.00000000000E+00 -0.36499981302E+01  0.36500011177E+01  0.46700000000E-02 0.  1.
        -11    1    1    2    0    0 -0.60749011910E+01  0.80244056946E+01  0.10727629317E+02  0.14709777097E+02  0.51100000000E-03 0. -1.
         11    1    1    2    0    0  0.60749011910E+01 -0.80244056946E+01  0.13606299262E+02  0.16924151119E+02  0.51100000000E-03 0.  1.
<mgrwt>
<rscale>  0 0.20212999E+02</rscale>
<asrwt>0</asrwt>
<pdfrwt beam="1">  1        1 0.43052196E-02 0.20212999E+02</pdfrwt>
<pdfrwt beam="2">  1       -1 0.56153845E-03 0.20212999E+02</pdfrwt>
<totfact> 0.39371891E+06</totfact>
</mgrwt>
</event>
<event>
 5    1  0.9583198E-007  0.2000214E+02  0.7818608E-02  0.1745286E+00
         -1   -1    0    0    0  501 -0.00000000000E+00  0.00000000000E+00  0.49497335134E+02  0.49497335355E+02  0.46700000000E-02 0. -1.
          1   -1    0    0  501    0  0.00000000000E+00 -0.00000000000E+00 -0.20207401697E+01  0.20207455660E+01  0.46700000000E-02 0.  1.
       1023    2    1    2    0    0  0.00000000000E+00  0.00000000000E+00  0.47476594965E+02  0.51518080921E+02  0.20002139693E+02 0.  0.
        -11    1    3    3    0    0 -0.99245200190E+01 -0.12305785461E+01  0.24008144832E+02  0.26007718849E+02  0.51100000000E-03 0.  1.
         11    1    3    3    0    0  0.99245200190E+01  0.12305785461E+01  0.23468450132E+02  0.25510362072E+02  0.51100000000E-03 0. -1.
<mgrwt>
<rscale>  0 0.20002140E+02</rscale>
<asrwt>0</asrwt>
<pdfrwt beam="2">  1        1 0.31088353E-03 0.20002140E+02</pdfrwt>
<pdfrwt beam="1">  1       -1 0.76149753E-02 0.20002140E+02</pdfrwt>
<totfact> 0.34957227E+06</totfact>
</mgrwt>
</event>
<event>
 5    1  0.9583198E-007  0.2000036E+02  0.7818608E-02  0.1745321E+00
          1   -1    0    0  501    0  0.00000000000E+00  0.00000000000E+00  0.26839930225E+01  0.26839970852E+01  0.46700000000E-02 0.  1.
         -1   -1    0    0    0  501 -0.00000000000E+00 -0.00000000000E+00 -0.37259239284E+02  0.37259239577E+02  0.46700000000E-02 0. -1.
       1023    2    1    2    0    0  0.00000000000E+00  0.00000000000E+00 -0.34575246262E+02  0.39943236662E+02  0.20000362521E+02 0.  0.
        -11    1    3    3    0    0 -0.95914471534E+01  0.28293206900E+01 -0.17391606526E+02  0.20061627349E+02  0.51100000000E-03 0.  1.
         11    1    3    3    0    0  0.95914471534E+01 -0.28293206900E+01 -0.17183639735E+02  0.19881609313E+02  0.51100000000E-03 0. -1.
<mgrwt>
<rscale>  0 0.20000363E+02</rscale>
<asrwt>0</asrwt>
<pdfrwt beam="1">  1        1 0.41292237E-03 0.20000363E+02</pdfrwt>
<pdfrwt beam="2">  1       -1 0.57321906E-02 0.20000363E+02</pdfrwt>
<totfact> 0.35884613E+06</totfact>
</mgrwt>
</event>
<event>
 5    1  0.9583198E-007  0.2000014E+02  0.7818608E-02  0.1745325E+00
         -1   -1    0    0    0  501 -0.00000000000E+00  0.00000000000E+00  0.47742060328E+01  0.47742083169E+01  0.46700000000E-02 0.  1.
          1   -1    0    0  501    0  0.00000000000E+00 -0.00000000000E+00 -0.20946178201E+02  0.20946178722E+02  0.46700000000E-02 0. -1.
       1023    2    1    2    0    0  0.00000000000E+00  0.00000000000E+00 -0.16171972168E+02  0.25720387038E+02  0.20000140640E+02 0.  0.
        -11    1    3    3    0    0  0.59043438749E+01  0.80708784675E+01 -0.80443084487E+01  0.12833988254E+02  0.51100000000E-03 0. -1.
         11    1    3    3    0    0 -0.59043438749E+01 -0.80708784675E+01 -0.81276637195E+01  0.12886398784E+02  0.51100000000E-03 0.  1.
<mgrwt>
<rscale>  0 0.20000141E+02</rscale>
<asrwt>0</asrwt>
<pdfrwt beam="2">  1        1 0.32224891E-02 0.20000141E+02</pdfrwt>
<pdfrwt beam="1">  1       -1 0.73449347E-03 0.20000141E+02</pdfrwt>
<totfact> 0.39783512E+06</totfact>
</mgrwt>
</event>
<event>
 5    1  0.9583198E-007  0.2000225E+02  0.7818608E-02  0.1745283E+00
          1   -1    0    0  501    0  0.00000000000E+00  0.00000000000E+00  0.11499218466E+03  0.11499218475E+03  0.46700000000E-02 0.  1.
         -1   -1    0    0    0  501 -0.00000000000E+00 -0.00000000000E+00 -0.86981364288E+00  0.86982617933E+00  0.46700000000E-02 0. -1.
       1023    2    1    2    0    0  0.00000000000E+00  0.00000000000E+00  0.11412237101E+03  0.11586201093E+03  0.20002250152E+02 0.  0.
        -11    1    3    3    0    0 -0.99931319788E+01 -0.37718779742E+00  0.57828442093E+02  0.58686741880E+02  0.51100000000E-03 0. -1.
         11    1    3    3    0    0  0.99931319788E+01  0.37718779742E+00  0.56293928921E+02  0.57175269050E+02  0.51100000000E-03 0.  1.
<mgrwt>
<rscale>  0 0.20002250E+02</rscale>
<asrwt>0</asrwt>
<pdfrwt beam="1">  1        1 0.17691110E-01 0.20002250E+02</pdfrwt>
<pdfrwt beam="2">  1       -1 0.13381843E-03 0.20002250E+02</pdfrwt>
<totfact> 0.45059102E+06</totfact>
</mgrwt>
</event>
<event>
 4    1  0.9583198E-007  0.2018099E+02  0.7818608E-02  0.1741753E+00
          1   -1    0    0  501    0  0.00000000000E+00  0.00000000000E+00  0.11863937531E+02  0.11863938450E+02  0.46700000000E-02 0.  1.
         -1   -1    0    0    0  501 -0.00000000000E+00 -0.00000000000E+00 -0.85821444980E+01  0.85821457686E+01  0.46700000000E-02 0. -1.
        -11    1    1    2    0    0 -0.51759932450E+01  0.86247351860E+01  0.82970079846E+00  0.10092837400E+02  0.51100000000E-03 0. -1.
         11    1    1    2    0    0  0.51759932450E+01 -0.86247351860E+01  0.24520922341E+01  0.10353246819E+02  0.51100000000E-03 0.  1.
<mgrwt>
<rscale>  0 0.20180986E+02</rscale>
<asrwt>0</asrwt>
<pdfrwt beam="1">  1        1 0.18252213E-02 0.20180986E+02</pdfrwt>
<pdfrwt beam="2">  1       -1 0.13203301E-02 0.20180986E+02</pdfrwt>
<totfact> 0.38102205E+06</totfact>
</mgrwt>
</event>
<event>
 5    1  0.1074280E-006  0.2000084E+02  0.7818608E-02  0.1745311E+00
          1   -1    0    0  501    0  0.00000000000E+00  0.00000000000E+00  0.11070891486E+03  0.11070891496E+03  0.46700000000E-02 0.  1.
         -1   -1    0    0    0  501 -0.00000000000E+00 -0.00000000000E+00 -0.90333897256E+00  0.90335104376E+00  0.46700000000E-02 0. -1.
       1023    2    1    2    0    0  0.00000000000E+00  0.00000000000E+00  0.10980557588E+03  0.11161226600E+03  0.20000835637E+02 0.  0.
        -11    1    3    3    0    0 -0.98574589210E+01 -0.16847465761E+01  0.54779402510E+02  0.55684744832E+02  0.51100000000E-03 0.  1.
         11    1    3    3    0    0  0.98574589210E+01  0.16847465761E+01  0.55026173375E+02  0.55927521167E+02  0.51100000000E-03 0. -1.
<mgrwt>
<rscale>  0 0.20000836E+02</rscale>
<asrwt>0</asrwt>
<pdfrwt beam="1">  1        1 0.17032142E-01 0.20000836E+02</pdfrwt>
<pdfrwt beam="2">  1       -1 0.13897616E-03 0.20000836E+02</pdfrwt>
<totfact> 0.44866743E+06</totfact>
</mgrwt>
</event>
<event>
 4    1  0.1455651E-006  0.2016911E+02  0.7818608E-02  0.1741986E+00
          1   -1    0    0  501    0  0.00000000000E+00  0.00000000000E+00  0.93204189889E+02  0.93204190006E+02  0.46700000000E-02 0.  1.
         -1   -1    0    0    0  501 -0.00000000000E+00 -0.00000000000E+00 -0.10911286308E+01  0.10911386245E+01  0.46700000000E-02 0. -1.
        -11    1    1    2    0    0  0.68108380871E+01 -0.73566571851E+01  0.40955773636E+02  0.42164953632E+02  0.51100000000E-03 0. -1.
         11    1    1    2    0    0 -0.68108380871E+01  0.73566571851E+01  0.51157287623E+02  0.52130374999E+02  0.51100000000E-03 0.  1.
<mgrwt>
<rscale>  0 0.20169109E+02</rscale>
<asrwt>0</asrwt>
<pdfrwt beam="1">  1        1 0.14339106E-01 0.20169109E+02</pdfrwt>
<pdfrwt beam="2">  1       -1 0.16786673E-03 0.20169109E+02</pdfrwt>
<totfact> 0.43215995E+06</totfact>
</mgrwt>
</event>
<event>
 5    1  0.9583198E-007  0.2000018E+02  0.7818608E-02  0.1745325E+00
         -1   -1    0    0    0  501 -0.00000000000E+00  0.00000000000E+00  0.34823680427E+01  0.34823711740E+01  0.46700000000E-02 0.  1.
          1   -1    0    0  501    0  0.00000000000E+00 -0.00000000000E+00 -0.28716580190E+02  0.28716580570E+02  0.46700000000E-02 0. -1.
       1023    2    1    2    0    0  0.00000000000E+00  0.00000000000E+00 -0.25234212148E+02  0.32198951744E+02  0.20000175767E+02 0.  0.
        -11    1    3    3    0    0 -0.20204037875E+01 -0.97938166633E+01 -0.12569317447E+02  0.16062024083E+02  0.51100000000E-03 0.  1.
         11    1    3    3    0    0  0.20204037875E+01  0.97938166633E+01 -0.12664894701E+02  0.16136927661E+02  0.51100000000E-03 0. -1.
<mgrwt>
<rscale>  0 0.20000176E+02</rscale>
<asrwt>0</asrwt>
<pdfrwt beam="2">  1        1 0.44179355E-02 0.20000176E+02</pdfrwt>
<pdfrwt beam="1">  1       -1 0.53574922E-03 0.20000176E+02</pdfrwt>
<totfact> 0.40366747E+06</totfact>
</mgrwt>
</event>
<event>
 5    1  0.9838593E-007  0.2000085E+02  0.7818608E-02  0.1745311E+00
         -1   -1    0    0    0  501 -0.00000000000E+00  0.00000000000E+00  0.45150841782E+01  0.45150865934E+01  0.46700000000E-02 0. -1.
          1   -1    0    0  501    0  0.00000000000E+00 -0.00000000000E+00 -0.22149845099E+02  0.22149845591E+02  0.46700000000E-02 0.  1.
       1023    2    1    2    0    0  0.00000000000E+00  0.00000000000E+00 -0.17634760920E+02  0.26664932184E+02  0.20000845374E+02 0.  0.
        -11    1    3    3    0    0  0.41485034176E+01  0.90992061507E+01 -0.88881837847E+01  0.13379291627E+02  0.51100000000E-03 0.  1.
         11    1    3    3    0    0 -0.41485034176E+01 -0.90992061507E+01 -0.87465771358E+01  0.13285640558E+02  0.51100000000E-03 0. -1.
<mgrwt>
<rscale>  0 0.20000845E+02</rscale>
<asrwt>0</asrwt>
<pdfrwt beam="2">  1        1 0.34076686E-02 0.20000845E+02</pdfrwt>
<pdfrwt beam="1">  1       -1 0.69462857E-03 0.20000845E+02</pdfrwt>
<totfact> 0.39877028E+06</totfact>
</mgrwt>
</event>
<event>
 5    1  0.9583198E-007  0.2000412E+02  0.7818608E-02  0.1745246E+00
          1   -1    0    0  501    0  0.00000000000E+00  0.00000000000E+00  0.56338247797E+01  0.56338267152E+01  0.46700000000E-02 0.  1.
         -1   -1    0    0    0  501 -0.00000000000E+00 -0.00000000000E+00 -0.17757246099E+02  0.17757246714E+02  0.46700000000E-02 0. -1.
       1023    2    1    2    0    0  0.00000000000E+00  0.00000000000E+00 -0.12123421320E+02  0.23391073429E+02  0.20004123866E+02 0.  0.
        -11    1    3    3    0    0 -0.90884256940E+01 -0.41755111009E+01 -0.59648050320E+01  0.11645311240E+02  0.51100000000E-03 0.  1.
         11    1    3    3    0    0  0.90884256940E+01  0.41755111009E+01 -0.61586162877E+01  0.11745762189E+02  0.51100000000E-03 0. -1.
<mgrwt>
<rscale>  0 0.20004124E+02</rscale>
<asrwt>0</asrwt>
<pdfrwt beam="1">  1        1 0.86674248E-03 0.20004124E+02</pdfrwt>
<pdfrwt beam="2">  1       -1 0.27318842E-02 0.20004124E+02</pdfrwt>
<totfact> 0.37633956E+06</totfact>
</mgrwt>
</event>
<event>
 5    1  0.9583198E-007  0.2000177E+02  0.7818608E-02  0.1745293E+00
          1   -1    0    0  501    0  0.00000000000E+00  0.00000000000E+00  0.29589730758E+02  0.29589731126E+02  0.46700000000E-02 0.  1.
         -1   -1    0    0    0  501 -0.00000000000E+00 -0.00000000000E+00 -0.33801469183E+01  0.33801501443E+01  0.46700000000E-02 0. -1.
       1023    2    1    2    0    0  0.00000000000E+00  0.00000000000E+00  0.26209583839E+02  0.32969881270E+02  0.20001769571E+02 0.  0.
        -11    1    3    3    0    0  0.81912077407E+01 -0.57377457251E+01  0.13120075519E+02  0.16497090415E+02  0.51100000000E-03 0. -1.
         11    1    3    3    0    0 -0.81912077407E+01  0.57377457251E+01  0.13089508320E+02  0.16472790856E+02  0.51100000000E-03 0.  1.
<mgrwt>
<rscale>  0 0.20001770E+02</rscale>
<asrwt>0</asrwt>
<pdfrwt beam="1">  1        1 0.45522664E-02 0.20001770E+02</pdfrwt>
<pdfrwt beam="2">  1       -1 0.52002290E-03 0.20001770E+02</pdfrwt>
<totfact> 0.40420366E+06</totfact>
</mgrwt>
</event>
<event>
 5    1  0.9583198E-007  0.2000294E+02  0.7818608E-02  0.1745270E+00
         -1   -1    0    0    0  501 -0.00000000000E+00  0.00000000000E+00  0.11749297584E+01  0.11749390393E+01  0.46700000000E-02 0. -1.
          1   -1    0    0  501    0  0.00000000000E+00 -0.00000000000E+00 -0.85136115864E+02  0.85136115992E+02  0.46700000000E-02 0.  1.
       1023    2    1    2    0    0  0.00000000000E+00  0.00000000000E+00 -0.83961186106E+02  0.86311055031E+02  0.20002935994E+02 0.  0.
        -11    1    3    3    0    0 -0.99511350390E+01 -0.10015888969E+01 -0.41837942548E+02  0.43016760754E+02  0.51100000000E-03 0. -1.
         11    1    3    3    0    0  0.99511350390E+01  0.10015888969E+01 -0.42123243558E+02  0.43294294277E+02  0.51100000000E-03 0.  1.
<mgrwt>
<rscale>  0 0.20002936E+02</rscale>
<asrwt>0</asrwt>
<pdfrwt beam="2">  1        1 0.13097860E-01 0.20002936E+02</pdfrwt>
<pdfrwt beam="1">  1       -1 0.18075921E-03 0.20002936E+02</pdfrwt>
<totfact> 0.43608199E+06</totfact>
</mgrwt>
</event>
<event>
 4    1  0.9583198E-007  0.2009507E+02  0.7818608E-02  0.1743444E+00
          1   -1    0    0  501    0  0.00000000000E+00  0.00000000000E+00  0.23632478843E+02  0.23632479305E+02  0.46700000000E-02 0. -1.
         -1   -1    0    0    0  501 -0.00000000000E+00 -0.00000000000E+00 -0.42717858276E+01  0.42717883803E+01  0.46700000000E-02 0.  1.
        -11    1    1    2    0    0 -0.90364693927E+01  0.43191293988E+01  0.85692200982E+01  0.13181205984E+02  0.51100000000E-03 0.  1.
         11    1    1    2    0    0  0.90364693927E+01 -0.43191293988E+01  0.10791472917E+02  0.14723061701E+02  0.51100000000E-03 0. -1.
<mgrwt>
<rscale>  0 0.20095067E+02</rscale>
<asrwt>0</asrwt>
<pdfrwt beam="1">  1        1 0.36357662E-02 0.20095067E+02</pdfrwt>
<pdfrwt beam="2">  1       -1 0.65719805E-03 0.20095067E+02</pdfrwt>
<totfact> 0.39573602E+06</totfact>
</mgrwt>
</event>
<event>
 5    1  0.9583198E-007  0.2000025E+02  0.7818608E-02  0.1745323E+00
          1   -1    0    0  501    0  0.00000000000E+00  0.00000000000E+00  0.35904954935E+01  0.35904985305E+01  0.46700000000E-02 0.  1.
         -1   -1    0    0    0  501 -0.00000000000E+00 -0.00000000000E+00 -0.27851996710E+02  0.27851997101E+02  0.46700000000E-02 0. -1.
       1023    2    1    2    0    0  0.00000000000E+00  0.00000000000E+00 -0.24261501216E+02  0.31442495632E+02  0.20000252256E+02 0.  0.
        -11    1    3    3    0    0 -0.62848188993E+01  0.77782662696E+01 -0.12203604619E+02  0.15777463064E+02  0.51100000000E-03 0.  1.
         11    1    3    3    0    0  0.62848188993E+01 -0.77782662696E+01 -0.12057896597E+02  0.15665032568E+02  0.51100000000E-03 0. -1.
<mgrwt>
<rscale>  0 0.20000252E+02</rscale>
<asrwt>0</asrwt>
<pdfrwt beam="1">  1        1 0.55238420E-03 0.20000252E+02</pdfrwt>
<pdfrwt beam="2">  1       -1 0.42849227E-02 0.20000252E+02</pdfrwt>
<totfact> 0.36673567E+06</totfact>
</mgrwt>
</event>
<event>
 5    1  0.9583198E-007  0.2000032E+02  0.7818608E-02  0.1745322E+00
          1   -1    0    0  501    0  0.00000000000E+00  0.00000000000E+00  0.33453508461E+01  0.33453541057E+01  0.46700000000E-02 0.  1.
         -1   -1    0    0    0  501 -0.00000000000E+00 -0.00000000000E+00 -0.29893179244E+02  0.29893179609E+02  0.46700000000E-02 0. -1.
       1023    2    1    2    0    0  0.00000000000E+00  0.00000000000E+00 -0.26547828398E+02  0.33238533714E+02  0.20000323268E+02 0.  0.
        -11    1    3    3    0    0 -0.96650054635E+01  0.25670824892E+01 -0.13326187086E+02  0.16661017545E+02  0.51100000000E-03 0.  1.
         11    1    3    3    0    0  0.96650054635E+01 -0.25670824892E+01 -0.13221641311E+02  0.16577516169E+02  0.51100000000E-03 0. -1.
<mgrwt>
<rscale>  0 0.20000323E+02</rscale>
<asrwt>0</asrwt>
<pdfrwt beam="1">  1        1 0.51466966E-03 0.20000323E+02</pdfrwt>
<pdfrwt beam="2">  1       -1 0.45989507E-02 0.20000323E+02</pdfrwt>
<totfact> 0.36494435E+06</totfact>
</mgrwt>
</event>
<event>
 5    1  0.9639986E-007  0.2000093E+02  0.7818608E-02  0.1745310E+00
         -1   -1    0    0    0  501 -0.00000000000E+00  0.00000000000E+00  0.89686046764E+01  0.89686058922E+01  0.46700000000E-02 0.  1.
          1   -1    0    0  501    0  0.00000000000E+00 -0.00000000000E+00 -0.11151042986E+02  0.11151043964E+02  0.46700000000E-02 0. -1.
       1023    2    1    2    0    0  0.00000000000E+00  0.00000000000E+00 -0.21824383099E+01  0.20119649856E+02  0.20000931812E+02 0.  0.
        -11    1    3    3    0    0 -0.96253831241E+01  0.27131400271E+01 -0.11050480526E+01  0.10061324990E+02  0.51100000000E-03 0.  1.
         11    1    3    3    0    0  0.96253831241E+01 -0.27131400271E+01 -0.10773902572E+01  0.10058324866E+02  0.51100000000E-03 0. -1.
<mgrwt>
<rscale>  0 0.20000932E+02</rscale>
<asrwt>0</asrwt>
<pdfrwt beam="2">  1        1 0.17155452E-02 0.20000932E+02</pdfrwt>
<pdfrwt beam="1">  1       -1 0.13797855E-02 0.20000932E+02</pdfrwt>
<totfact> 0.38787479E+06</totfact>
</mgrwt>
</event>
<event>
 4    1  0.9583198E-007  0.2001900E+02  0.7818608E-02  0.1744951E+00
          1   -1    0    0  501    0  0.00000000000E+00  0.00000000000E+00  0.13877833335E+02  0.13877834121E+02  0.46700000000E-02 0.  1.
         -1   -1    0    0    0  501 -0.00000000000E+00 -0.00000000000E+00 -0.72194286072E+01  0.72194301176E+01  0.46700000000E-02 0. -1.
        -11    1    1    2    0    0  0.26731117805E+01 -0.96387991848E+01  0.37208006587E+01  0.10672222548E+02  0.51100000000E-03 0.  1.
         11    1    1    2    0    0 -0.26731117805E+01  0.96387991848E+01  0.29376040691E+01  0.10425041690E+02  0.51100000000E-03 0. -1.
<mgrwt>
<rscale>  0 0.20018996E+02</rscale>
<asrwt>0</asrwt>
<pdfrwt beam="1">  1        1 0.21350514E-02 0.20018996E+02</pdfrwt>
<pdfrwt beam="2">  1       -1 0.11106815E-02 0.20018996E+02</pdfrwt>
<totfact> 0.39041468E+06</totfact>
</mgrwt>
</event>
<event>
 5    1  0.9583198E-007  0.2000155E+02  0.7818608E-02  0.1745297E+00
         -1   -1    0    0    0  501 -0.00000000000E+00  0.00000000000E+00  0.35411206844E+02  0.35411207152E+02  0.46700000000E-02 0.  1.
          1   -1    0    0  501    0  0.00000000000E+00 -0.00000000000E+00 -0.28244008215E+01  0.28244046823E+01  0.46700000000E-02 0. -1.
       1023    2    1    2    0    0  0.00000000000E+00  0.00000000000E+00  0.32586806023E+02  0.38235611835E+02  0.20001552080E+02 0.  0.
        -11    1    3    3    0    0 -0.63872443234E+01 -0.76945971226E+01  0.16085691938E+02  0.18940781407E+02  0.51100000000E-03 0.  1.
         11    1    3    3    0    0  0.63872443234E+01  0.76945971226E+01  0.16501114085E+02  0.19294830428E+02  0.51100000000E-03 0. -1.
<mgrwt>
<rscale>  0 0.20001552E+02</rscale>
<asrwt>0</asrwt>
<pdfrwt beam="2">  1        1 0.43452354E-03 0.20001552E+02</pdfrwt>
<pdfrwt beam="1">  1       -1 0.54478781E-02 0.20001552E+02</pdfrwt>
<totfact> 0.36028158E+06</totfact>
</mgrwt>
</event>
<event>
 5    1  0.9583198E-007  0.2000073E+02  0.7818608E-02  0.1745313E+00
          1   -1    0    0  501    0  0.00000000000E+00  0.00000000000E+00  0.38017853059E+01  0.38017881741E+01  0.46700000000E-02 0. -1.
         -1   -1    0    0    0  501 -0.00000000000E+00 -0.00000000000E+00 -0.26305350975E+02  0.26305351390E+02  0.46700000000E-02 0.  1.
       1023    2    1    2    0    0  0.00000000000E+00  0.00000000000E+00 -0.22503565669E+02  0.30107139564E+02  0.20000734609E+02 0.  0.
        -11    1    3    3    0    0 -0.71671653579E+01  0.69739647081E+01 -0.11332886930E+02  0.15114190996E+02  0.51100000000E-03 0. -1.
         11    1    3    3    0    0  0.71671653579E+01 -0.69739647081E+01 -0.11170678739E+02  0.14992948568E+02  0.51100000000E-03 0.  1.
<mgrwt>
<rscale>  0 0.20000735E+02</rscale>
<asrwt>0</asrwt>
<pdfrwt beam="1">  1        1 0.58489032E-03 0.20000735E+02</pdfrwt>
<pdfrwt beam="2">  1       -1 0.40469772E-02 0.20000735E+02</pdfrwt>
<totfact> 0.36810286E+06</totfact>
</mgrwt>
</event>
<event>
 5    1  0.9723930E-007  0.2000112E+02  0.7818608E-02  0.1745306E+00
         -1   -1    0    0    0  501 -0.00000000000E+00  0.00000000000E+00  0.23371482169E+02  0.23371482636E+02  0.46700000000E-02 0.  1.
          1   -1    0    0  501    0  0.00000000000E+00 -0.00000000000E+00 -0.42791974181E+01  0.42791999664E+01  0.46700000000E-02 0. -1.
       1023    2    1    2    0    0  0.00000000000E+00  0.00000000000E+00  0.19092284751E+02  0.27650682602E+02  0.20001122752E+02 0.  0.
        -11    1    3    3    0    0  0.63463135574E+01  0.77282187466E+01  0.96855363163E+01  0.13921590238E+02  0.51100000000E-03 0.  1.
         11    1    3    3    0    0 -0.63463135574E+01 -0.77282187466E+01  0.94067484349E+01  0.13729092364E+02  0.51100000000E-03 0. -1.
<mgrwt>
<rscale>  0 0.20001123E+02</rscale>
<asrwt>0</asrwt>
<pdfrwt beam="2">  1        1 0.65833828E-03 0.20001123E+02</pdfrwt>
<pdfrwt beam="1">  1       -1 0.35956129E-02 0.20001123E+02</pdfrwt>
<totfact> 0.37080897E+06</totfact>
</mgrwt>
</event>
<event>
 5    1  0.9583198E-007  0.2000433E+02  0.7818608E-02  0.1745242E+00
         -1   -1    0    0    0  501 -0.00000000000E+00  0.00000000000E+00  0.14406190769E+01  0.14406266461E+01  0.46700000000E-02 0.  1.
          1   -1    0    0  501    0  0.00000000000E+00 -0.00000000000E+00 -0.69444477183E+02  0.69444477340E+02  0.46700000000E-02 0. -1.
       1023    2    1    2    0    0  0.00000000000E+00  0.00000000000E+00 -0.68003858106E+02  0.70885103986E+02  0.20004330776E+02 0.  0.
        -11    1    3    3    0    0  0.88022097207E+01  0.47500791734E+01 -0.34122827484E+02  0.35558536301E+02  0.51100000000E-03 0. -1.
         11    1    3    3    0    0 -0.88022097207E+01 -0.47500791734E+01 -0.33881030622E+02  0.35326567685E+02  0.51100000000E-03 0.  1.
<mgrwt>
<rscale>  0 0.20004331E+02</rscale>
<asrwt>0</asrwt>
<pdfrwt beam="2">  1        1 0.10683764E-01 0.20004331E+02</pdfrwt>
<pdfrwt beam="1">  1       -1 0.22163435E-03 0.20004331E+02</pdfrwt>
<totfact> 0.42783540E+06</totfact>
</mgrwt>
</event>
<event>
 5    1  0.9985032E-007  0.2000081E+02  0.7818608E-02  0.1745312E+00
         -1   -1    0    0    0  501 -0.00000000000E+00  0.00000000000E+00  0.35220921485E+01  0.35220952445E+01  0.46700000000E-02 0. -1.
          1   -1    0    0  501    0  0.00000000000E+00 -0.00000000000E+00 -0.28394490245E+02  0.28394490629E+02  0.46700000000E-02 0.  1.
       1023    2    1    2    0    0  0.00000000000E+00  0.00000000000E+00 -0.24872398097E+02  0.31916585874E+02  0.20000806653E+02 0.  0.
        -11    1    3    3    0    0 -0.94817826228E+01 -0.31782674416E+01 -0.12515680216E+02  0.16020232120E+02  0.51100000000E-03 0. -1.
         11    1    3    3    0    0  0.94817826228E+01  0.31782674416E+01 -0.12356717881E+02  0.15896353754E+02  0.51100000000E-03 0.  1.
<mgrwt>
<rscale>  0 0.20000807E+02</rscale>
<asrwt>0</asrwt>
<pdfrwt beam="2">  1        1 0.43683832E-02 0.20000807E+02</pdfrwt>
<pdfrwt beam="1">  1       -1 0.54186062E-03 0.20000807E+02</pdfrwt>
<totfact> 0.40341284E+06</totfact>
</mgrwt>
</event>
<event>
 4    1  0.9583198E-007  0.2001926E+02  0.7818608E-02  0.1744945E+00
          1   -1    0    0  501    0  0.00000000000E+00  0.00000000000E+00  0.65800233557E+02  0.65800233723E+02  0.46700000000E-02 0. -1.
         -1   -1    0    0    0  501 -0.00000000000E+00 -0.00000000000E+00 -0.15226756088E+01  0.15226827702E+01  0.46700000000E-02 0.  1.
        -11    1    1    2    0    0  0.14704262929E+01 -0.98977078621E+01  0.33001957354E+02  0.34485590670E+02  0.51100000000E-03 0.  1.
         11    1    1    2    0    0 -0.14704262929E+01  0.98977078621E+01  0.31275600594E+02  0.32837325823E+02  0.51100000000E-03 0. -1.
<mgrwt>
<rscale>  0 0.20019256E+02</rscale>
<asrwt>0</asrwt>
<pdfrwt beam="1">  1        1 0.10123115E-01 0.20019256E+02</pdfrwt>
<pdfrwt beam="2">  1       -1 0.23425830E-03 0.20019256E+02</pdfrwt>
<totfact> 0.42516030E+06</totfact>
</mgrwt>
</event>
<event>
 5    1  0.9583198E-007  0.2000135E+02  0.7818608E-02  0.1745301E+00
         -1   -1    0    0    0  501 -0.00000000000E+00  0.00000000000E+00  0.46047093439E+02  0.46047093676E+02  0.46700000000E-02 0.  1.
          1   -1    0    0  501    0  0.00000000000E+00 -0.00000000000E+00 -0.21719796422E+01  0.21719846627E+01  0.46700000000E-02 0. -1.
       1023    2    1    2    0    0  0.00000000000E+00  0.00000000000E+00  0.43875113797E+02  0.48219078339E+02  0.20001347583E+02 0.  0.
        -11    1    3    3    0    0  0.12216438776E+01  0.99256846735E+01  0.21833976453E+02  0.24015290088E+02  0.51100000000E-03 0.  1.
         11    1    3    3    0    0 -0.12216438776E+01 -0.99256846735E+01  0.22041137345E+02  0.24203788251E+02  0.51100000000E-03 0. -1.
<mgrwt>
<rscale>  0 0.20001348E+02</rscale>
<asrwt>0</asrwt>
<pdfrwt beam="2">  1        1 0.33415115E-03 0.20001348E+02</pdfrwt>
<pdfrwt beam="1">  1       -1 0.70841679E-02 0.20001348E+02</pdfrwt>
<totfact> 0.35210098E+06</totfact>
</mgrwt>
</event>
<event>
 4    1  0.9583198E-007  0.2004644E+02  0.7818608E-02  0.1744406E+00
         -1   -1    0    0    0  501 -0.00000000000E+00  0.00000000000E+00  0.18598326073E+02  0.18598326660E+02  0.46700000000E-02 0. -1.
          1   -1    0    0  501    0  0.00000000000E+00 -0.00000000000E+00 -0.54018236655E+01  0.54018256842E+01  0.46700000000E-02 0.  1.
        -11    1    1    2    0    0 -0.34151763874E+01 -0.94232273419E+01  0.65200581333E+01  0.11957081651E+02  0.51100000000E-03 0.  1.
         11    1    1    2    0    0  0.34151763874E+01  0.94232273419E+01  0.66764442744E+01  0.12043070692E+02  0.51100000000E-03 0. -1.
<mgrwt>
<rscale>  0 0.20046437E+02</rscale>
<asrwt>0</asrwt>
<pdfrwt beam="2">  1        1 0.83105001E-03 0.20046437E+02</pdfrwt>
<pdfrwt beam="1">  1       -1 0.28612811E-02 0.20046437E+02</pdfrwt>
<totfact> 0.37370839E+06</totfact>
</mgrwt>
</event>
<event>
 5    1  0.1010329E-006  0.2000074E+02  0.7818608E-02  0.1745313E+00
          1   -1    0    0  501    0  0.00000000000E+00  0.00000000000E+00  0.97068117210E+02  0.97068117323E+02  0.46700000000E-02 0. -1.
         -1   -1    0    0    0  501 -0.00000000000E+00 -0.00000000000E+00 -0.10302757188E+01  0.10302863028E+01  0.46700000000E-02 0.  1.
       1023    2    1    2    0    0  0.00000000000E+00  0.00000000000E+00  0.96037841491E+02  0.98098403625E+02  0.20000744874E+02 0.  0.
        -11    1    3    3    0    0  0.65787152267E+01  0.75317702013E+01  0.47921784797E+02  0.48954106210E+02  0.51100000000E-03 0. -1.
         11    1    3    3    0    0 -0.65787152267E+01 -0.75317702013E+01  0.48116056695E+02  0.49144297416E+02  0.51100000000E-03 0.  1.
<mgrwt>
<rscale>  0 0.20000745E+02</rscale>
<asrwt>0</asrwt>
<pdfrwt beam="1">  1        1 0.14933562E-01 0.20000745E+02</pdfrwt>
<pdfrwt beam="2">  1       -1 0.15850473E-03 0.20000745E+02</pdfrwt>
<totfact> 0.44214167E+06</totfact>
</mgrwt>
</event>
<event>
 5    1  0.1010038E-006  0.2000085E+02  0.7818608E-02  0.1745311E+00
         -1   -1    0    0    0  501 -0.00000000000E+00  0.00000000000E+00  0.12826772510E+01  0.12826857523E+01  0.46700000000E-02 0.  1.
          1   -1    0    0  501    0  0.00000000000E+00 -0.00000000000E+00 -0.77968315590E+02  0.77968315730E+02  0.46700000000E-02 0. -1.
       1023    2    1    2    0    0  0.00000000000E+00  0.00000000000E+00 -0.76685638339E+02  0.79251001482E+02  0.20000852693E+02 0.  0.
        -11    1    3    3    0    0 -0.95772571421E+01  0.28780509143E+01 -0.38189591082E+02  0.39477232663E+02  0.51100000000E-03 0. -1.
         11    1    3    3    0    0  0.95772571421E+01 -0.28780509143E+01 -0.38496047257E+02  0.39773768820E+02  0.51100000000E-03 0.  1.
<mgrwt>
<rscale>  0 0.20000853E+02</rscale>
<asrwt>0</asrwt>
<pdfrwt beam="2">  1        1 0.11995122E-01 0.20000853E+02</pdfrwt>
<pdfrwt beam="1">  1       -1 0.19733569E-03 0.20000853E+02</pdfrwt>
<totfact> 0.43250116E+06</totfact>
</mgrwt>
</event>
<event>
 4    1  0.9583198E-007  0.2002725E+02  0.7818608E-02  0.1744787E+00
         -1   -1    0    0    0  501 -0.00000000000E+00  0.00000000000E+00  0.94310697522E+00  0.94311853741E+00  0.46700000000E-02 0.  1.
          1   -1    0    0  501    0  0.00000000000E+00 -0.00000000000E+00 -0.10632101604E+03  0.10632101614E+03  0.46700000000E-02 0. -1.
        -11    1    1    2    0    0  0.77776316333E+01  0.63038924079E+01 -0.51589963525E+02  0.52552401944E+02  0.51100000000E-03 0. -1.
         11    1    1    2    0    0 -0.77776316333E+01 -0.63038924079E+01 -0.53787945537E+02  0.54711732733E+02  0.51100000000E-03 0.  1.
<mgrwt>
<rscale>  0 0.20027253E+02</rscale>
<asrwt>0</asrwt>
<pdfrwt beam="2">  1        1 0.16357071E-01 0.20027253E+02</pdfrwt>
<pdfrwt beam="1">  1       -1 0.14509436E-03 0.20027253E+02</pdfrwt>
<totfact> 0.44530101E+06</totfact>
</mgrwt>
</event>
<event>
 5    1  0.9583198E-007  0.2000026E+02  0.7818608E-02  0.1745323E+00
          1   -1    0    0  501    0  0.00000000000E+00  0.00000000000E+00  0.73131541794E+02  0.73131541943E+02  0.46700000000E-02 0.  1.
         -1   -1    0    0    0  501 -0.00000000000E+00 -0.00000000000E+00 -0.13674299943E+01  0.13674379687E+01  0.46700000000E-02 0. -1.
       1023    2    1    2    0    0  0.00000000000E+00  0.00000000000E+00  0.71764111800E+02  0.74498979912E+02  0.20000256636E+02 0.  0.
        -11    1    3    3    0    0 -0.98828600189E+01  0.15269248873E+01  0.35837302735E+02  0.37206379686E+02  0.51100000000E-03 0.  1.
         11    1    3    3    0    0  0.98828600189E+01 -0.15269248873E+01  0.35926809065E+02  0.37292600226E+02  0.51100000000E-03 0. -1.
<mgrwt>
<rscale>  0 0.20000257E+02</rscale>
<asrwt>0</asrwt>
<pdfrwt beam="1">  1        1 0.11251012E-01 0.20000257E+02</pdfrwt>
<pdfrwt beam="2">  1       -1 0.21037437E-03 0.20000257E+02</pdfrwt>
<totfact> 0.42999407E+06</totfact>
</mgrwt>
</event>
<event>
 5    1  0.9583198E-007  0.2000067E+02  0.7818608E-02  0.1745315E+00
         -1   -1    0    0    0  501 -0.00000000000E+00  0.00000000000E+00  0.85887498784E+01  0.85887511480E+01  0.46700000000E-02 0.  1.
          1   -1    0    0  501    0  0.00000000000E+00 -0.00000000000E+00 -0.11643913473E+02  0.11643914409E+02  0.46700000000E-02 0. -1.
       1023    2    1    2    0    0  0.00000000000E+00  0.00000000000E+00 -0.30551635944E+01  0.20232665557E+02  0.20000668263E+02 0.  0.
        -11    1    3    3    0    0 -0.34845286075E+01  0.93733217595E+01 -0.14520019964E+01  0.10104920113E+02  0.51100000000E-03 0.  1.
         11    1    3    3    0    0  0.34845286075E+01 -0.93733217595E+01 -0.16031615980E+01  0.10127745445E+02  0.51100000000E-03 0. -1.
<mgrwt>
<rscale>  0 0.20000668E+02</rscale>
<asrwt>0</asrwt>
<pdfrwt beam="2">  1        1 0.17913715E-02 0.20000668E+02</pdfrwt>
<pdfrwt beam="1">  1       -1 0.13213463E-02 0.20000668E+02</pdfrwt>
<totfact> 0.38854621E+06</totfact>
</mgrwt>
</event>
<event>
 5    1  0.9583198E-007  0.2000167E+02  0.7818608E-02  0.1745295E+00
          1   -1    0    0  501    0  0.00000000000E+00  0.00000000000E+00  0.18583300788E+01  0.18583359467E+01  0.46700000000E-02 0. -1.
         -1   -1    0    0    0  501 -0.00000000000E+00 -0.00000000000E+00 -0.53820653582E+02  0.53820653784E+02  0.46700000000E-02 0.  1.
       1023    2    1    2    0    0  0.00000000000E+00  0.00000000000E+00 -0.51962323503E+02  0.55678989731E+02  0.20001670771E+02 0.  0.
        -11    1    3    3    0    0 -0.30386479051E+01  0.95280281316E+01 -0.25973805074E+02  0.27832629259E+02  0.51100000000E-03 0. -1.
         11    1    3    3    0    0  0.30386479051E+01 -0.95280281316E+01 -0.25988518429E+02  0.27846360472E+02  0.51100000000E-03 0.  1.
<mgrwt>
<rscale>  0 0.20001671E+02</rscale>
<asrwt>0</asrwt>
<pdfrwt beam="1">  1        1 0.28589744E-03 0.20001671E+02</pdfrwt>
<pdfrwt beam="2">  1       -1 0.82800998E-02 0.20001671E+02</pdfrwt>
<totfact> 0.34655219E+06</totfact>
</mgrwt>
</event>
<event>
 5    1  0.9583198E-007  0.2000015E+02  0.7818608E-02  0.1745325E+00
          1   -1    0    0  501    0  0.00000000000E+00  0.00000000000E+00  0.10818409522E+03  0.10818409532E+03  0.46700000000E-02 0.  1.
         -1   -1    0    0    0  501 -0.00000000000E+00 -0.00000000000E+00 -0.92435788618E+00  0.92436968289E+00  0.46700000000E-02 0. -1.
       1023    2    1    2    0    0  0.00000000000E+00  0.00000000000E+00  0.10725973733E+03  0.10910846500E+03  0.20000147063E+02 0.  0.
        -11    1    3    3    0    0 -0.75127629323E+01 -0.65998829728E+01  0.53425147165E+02  0.54352979790E+02  0.51100000000E-03 0. -1.
         11    1    3    3    0    0  0.75127629323E+01  0.65998829728E+01  0.53834590165E+02  0.54755485211E+02  0.51100000000E-03 0.  1.
<mgrwt>
<rscale>  0 0.20000147E+02</rscale>
<asrwt>0</asrwt>
<pdfrwt beam="1">  1        1 0.16643693E-01 0.20000147E+02</pdfrwt>
<pdfrwt beam="2">  1       -1 0.14220995E-03 0.20000147E+02</pdfrwt>
<totfact> 0.44751434E+06</totfact>
</mgrwt>
</event>
<event>
 5    1  0.9583198E-007  0.2000282E+02  0.7818608E-02  0.1745272E+00
          1   -1    0    0  501    0  0.00000000000E+00  0.00000000000E+00  0.78433855847E+02  0.78433855986E+02  0.46700000000E-02 0. -1.
         -1   -1    0    0    0  501 -0.00000000000E+00 -0.00000000000E+00 -0.12753151247E+01  0.12753236751E+01  0.46700000000E-02 0.  1.
       1023    2    1    2    0    0  0.00000000000E+00  0.00000000000E+00  0.77158540723E+02  0.79709179662E+02  0.20002822697E+02 0.  0.
        -11    1    3    3    0    0 -0.99190821019E+01  0.12770965236E+01  0.38958640608E+02  0.40221820491E+02  0.51100000000E-03 0.  1.
         11    1    3    3    0    0  0.99190821019E+01 -0.12770965236E+01  0.38199900114E+02  0.39487359171E+02  0.51100000000E-03 0. -1.
<mgrwt>
<rscale>  0 0.20002823E+02</rscale>
<asrwt>0</asrwt>
<pdfrwt beam="1">  1        1 0.12066748E-01 0.20002823E+02</pdfrwt>
<pdfrwt beam="2">  1       -1 0.19620298E-03 0.20002823E+02</pdfrwt>
<totfact> 0.43264865E+06</totfact>
</mgrwt>
</event>
<event>
 5    1  0.9583198E-007  0.2000057E+02  0.7818608E-02  0.1745317E+00
          1   -1    0    0  501    0  0.00000000000E+00  0.00000000000E+00  0.93037855737E+00  0.93039027774E+00  0.46700000000E-02 0.  1.
         -1   -1    0    0    0  501 -0.00000000000E+00 -0.00000000000E+00 -0.10748856731E+03  0.10748856741E+03  0.46700000000E-02 0. -1.
       1023    2    1    2    0    0  0.00000000000E+00  0.00000000000E+00 -0.10655818875E+03  0.10841895769E+03  0.20000569896E+02 0.  0.
        -11    1    3    3    0    0  0.88536314213E+01 -0.46491046231E+01 -0.52906057032E+02  0.53842843852E+02  0.51100000000E-03 0.  1.
         11    1    3    3    0    0 -0.88536314213E+01  0.46491046231E+01 -0.53652131723E+02  0.54576113839E+02  0.51100000000E-03 0. -1.
<mgrwt>
<rscale>  0 0.20000570E+02</rscale>
<asrwt>0</asrwt>
<pdfrwt beam="1">  1        1 0.14313616E-03 0.20000570E+02</pdfrwt>
<pdfrwt beam="2">  1       -1 0.16536694E-01 0.20000570E+02</pdfrwt>
<totfact> 0.31469821E+06</totfact>
</mgrwt>
</event>
<event>
 5    1  0.9583198E-007  0.2000060E+02  0.7818608E-02  0.1745316E+00
          1   -1    0    0  501    0  0.00000000000E+00  0.00000000000E+00  0.46651735817E+02  0.46651736051E+02  0.46700000000E-02 0. -1.
         -1   -1    0    0    0  501 -0.00000000000E+00 -0.00000000000E+00 -0.21436698080E+01  0.21436748948E+01  0.46700000000E-02 0.  1.
       1023    2    1    2    0    0  0.00000000000E+00  0.00000000000E+00  0.44508066009E+02  0.48795410945E+02  0.20000604728E+02 0.  0.
        -11    1    3    3    0    0  0.88652062524E+01  0.46272245771E+01  0.22386720302E+02  0.24518734375E+02  0.51100000000E-03 0.  1.
         11    1    3    3    0    0 -0.88652062524E+01 -0.46272245771E+01  0.22121345707E+02  0.24276676571E+02  0.51100000000E-03 0. -1.
<mgrwt>
<rscale>  0 0.20000605E+02</rscale>
<asrwt>0</asrwt>
<pdfrwt beam="1">  1        1 0.71771902E-02 0.20000605E+02</pdfrwt>
<pdfrwt beam="2">  1       -1 0.32979578E-03 0.20000605E+02</pdfrwt>
<totfact> 0.41513867E+06</totfact>
</mgrwt>
</event>
<event>
 5    1  0.9583198E-007  0.2000507E+02  0.7818608E-02  0.1745227E+00
          1   -1    0    0  501    0  0.00000000000E+00  0.00000000000E+00  0.95502680761E+00  0.95503822549E+00  0.46700000000E-02 0.  1.
         -1   -1    0    0    0  501 -0.00000000000E+00 -0.00000000000E+00 -0.10476153319E+03  0.10476153329E+03  0.46700000000E-02 0. -1.
       1023    2    1    2    0    0  0.00000000000E+00  0.00000000000E+00 -0.10380650638E+03  0.10571657152E+03  0.20005067521E+02 0.  0.
        -11    1    3    3    0    0  0.83047341520E+01 -0.55730394721E+01 -0.52709948847E+02  0.53650406206E+02  0.51100000000E-03 0.  1.
         11    1    3    3    0    0 -0.83047341520E+01  0.55730394721E+01 -0.51096557535E+02  0.52066165314E+02  0.51100000000E-03 0. -1.
<mgrwt>
<rscale>  0 0.20005068E+02</rscale>
<asrwt>0</asrwt>
<pdfrwt beam="1">  1        1 0.14692817E-03 0.20005068E+02</pdfrwt>
<pdfrwt beam="2">  1       -1 0.16117151E-01 0.20005068E+02</pdfrwt>
<totfact> 0.31597108E+06</totfact>
</mgrwt>
</event>
<event>
 5    1  0.9583198E-007  0.2000815E+02  0.7818608E-02  0.1745166E+00
         -1   -1    0    0    0  501 -0.00000000000E+00  0.00000000000E+00  0.23908095630E+01  0.23908141240E+01  0.46700000000E-02 0. -1.
          1   -1    0    0  501    0  0.00000000000E+00 -0.00000000000E+00 -0.41860889522E+02  0.41860889782E+02  0.46700000000E-02 0.  1.
       1023    2    1    2    0    0  0.00000000000E+00  0.00000000000E+00 -0.39470079959E+02  0.44251703906E+02  0.20008150506E+02 0.  0.
        -11    1    3    3    0    0  0.23141540302E+01  0.97326835149E+01 -0.19807862068E+02  0.22190805241E+02  0.51100000000E-03 0.  1.
         11    1    3    3    0    0 -0.23141540302E+01 -0.97326835149E+01 -0.19662217891E+02  0.22060898665E+02  0.51100000000E-03 0. -1.
<mgrwt>
<rscale>  0 0.20008151E+02</rscale>
<asrwt>0</asrwt>
<pdfrwt beam="2">  1        1 0.64401367E-02 0.20008151E+02</pdfrwt>
<pdfrwt beam="1">  1       -1 0.36781726E-03 0.20008151E+02</pdfrwt>
<totfact> 0.41188538E+06</totfact>
</mgrwt>
</event>
<event>
 5    1  0.9632508E-007  0.2000108E+02  0.7818608E-02  0.1745307E+00
         -1   -1    0    0    0  501 -0.00000000000E+00  0.00000000000E+00  0.19719707763E+02  0.19719708316E+02  0.46700000000E-02 0. -1.
          1   -1    0    0  501    0  0.00000000000E+00 -0.00000000000E+00 -0.50716161730E+01  0.50716183231E+01  0.46700000000E-02 0.  1.
       1023    2    1    2    0    0  0.00000000000E+00  0.00000000000E+00  0.14648091590E+02  0.24791326639E+02  0.20001082203E+02 0.  0.
        -11    1    3    3    0    0 -0.77222447347E+01 -0.63535880953E+01  0.72021163816E+01  0.12323620656E+02  0.51100000000E-03 0.  1.
         11    1    3    3    0    0  0.77222447347E+01  0.63535880953E+01  0.74459752086E+01  0.12467705984E+02  0.51100000000E-03 0. -1.
<mgrwt>
<rscale>  0 0.20001082E+02</rscale>
<asrwt>0</asrwt>
<pdfrwt beam="2">  1        1 0.78024884E-03 0.20001082E+02</pdfrwt>
<pdfrwt beam="1">  1       -1 0.30338014E-02 0.20001082E+02</pdfrwt>
<totfact> 0.37440958E+06</totfact>
</mgrwt>
</event>
<event>
 5    1  0.9583198E-007  0.2000259E+02  0.7818608E-02  0.1745277E+00
         -1   -1    0    0    0  501 -0.00000000000E+00  0.00000000000E+00  0.54562988356E+02  0.54562988556E+02  0.46700000000E-02 0.  1.
          1   -1    0    0  501    0  0.00000000000E+00 -0.00000000000E+00 -0.18332159751E+01  0.18332219233E+01  0.46700000000E-02 0. -1.
       1023    2    1    2    0    0  0.00000000000E+00  0.00000000000E+00  0.52729772381E+02  0.56396210479E+02  0.20002591359E+02 0.  0.
        -11    1    3    3    0    0  0.45862729582E+01  0.88868538399E+01  0.26719780178E+02  0.28529926811E+02  0.51100000000E-03 0.  1.
         11    1    3    3    0    0 -0.45862729582E+01 -0.88868538399E+01  0.26009992203E+02  0.27866283668E+02  0.51100000000E-03 0. -1.
<mgrwt>
<rscale>  0 0.20002591E+02</rscale>
<asrwt>0</asrwt>
<pdfrwt beam="2">  1        1 0.28203371E-03 0.20002591E+02</pdfrwt>
<pdfrwt beam="1">  1       -1 0.83943061E-02 0.20002591E+02</pdfrwt>
<totfact> 0.34600518E+06</totfact>
</mgrwt>
</event>
<event>
 4    1  0.9583198E-007  0.2006478E+02  0.7818608E-02  0.1744043E+00
         -1   -1    0    0    0  501 -0.00000000000E+00  0.00000000000E+00  0.44854146490E+02  0.44854146733E+02  0.46700000000E-02 0.  1.
          1   -1    0    0  501    0  0.00000000000E+00 -0.00000000000E+00 -0.22439117374E+01  0.22439165970E+01  0.46700000000E-02 0. -1.
        -11    1    1    2    0    0 -0.23327704987E+01 -0.97515621515E+01  0.20512288889E+02  0.22831749348E+02  0.51100000000E-03 0. -1.
         11    1    1    2    0    0  0.23327704987E+01  0.97515621515E+01  0.22097945864E+02  0.24266313982E+02  0.51100000000E-03 0.  1.
<mgrwt>
<rscale>  0 0.20064782E+02</rscale>
<asrwt>0</asrwt>
<pdfrwt beam="2">  1        1 0.34521762E-03 0.20064782E+02</pdfrwt>
<pdfrwt beam="1">  1       -1 0.69006376E-02 0.20064782E+02</pdfrwt>
<totfact> 0.35053160E+06</totfact>
</mgrwt>
</event>
<event>
 5    1  0.9583198E-007  0.2000065E+02  0.7818608E-02  0.1745315E+00
          1   -1    0    0  501    0  0.00000000000E+00  0.00000000000E+00  0.17211129136E+01  0.17211192493E+01  0.46700000000E-02 0. -1.
         -1   -1    0    0    0  501 -0.00000000000E+00 -0.00000000000E+00 -0.58105589379E+02  0.58105589567E+02  0.46700000000E-02 0.  1.
       1023    2    1    2    0    0  0.00000000000E+00  0.00000000000E+00 -0.56384476466E+02  0.59826708816E+02  0.20000647526E+02 0.  0.
        -11    1    3    3    0    0  0.57909961517E+01  0.81528721798E+01 -0.28308623855E+02  0.30023043584E+02  0.51100000000E-03 0. -1.
         11    1    3    3    0    0 -0.57909961517E+01 -0.81528721798E+01 -0.28075852610E+02  0.29803665232E+02  0.51100000000E-03 0.  1.
<mgrwt>
<rscale>  0 0.20000648E+02</rscale>
<asrwt>0</asrwt>
<pdfrwt beam="1">  1        1 0.26478715E-03 0.20000648E+02</pdfrwt>
<pdfrwt beam="2">  1       -1 0.89393204E-02 0.20000648E+02</pdfrwt>
<totfact> 0.34367175E+06</totfact>
</mgrwt>
</event>
<event>
 5    1  0.9583198E-007  0.2000022E+02  0.7818608E-02  0.1745324E+00
          1   -1    0    0  501    0  0.00000000000E+00  0.00000000000E+00  0.23626907583E+01  0.23626953736E+01  0.46700000000E-02 0.  1.
         -1   -1    0    0    0  501 -0.00000000000E+00 -0.00000000000E+00 -0.42325493048E+02  0.42325493306E+02  0.46700000000E-02 0. -1.
       1023    2    1    2    0    0  0.00000000000E+00  0.00000000000E+00 -0.39962802290E+02  0.44688188680E+02  0.20000216013E+02 0.  0.
        -11    1    3    3    0    0 -0.83843754680E+01 -0.54501101075E+01 -0.20040842226E+02  0.22397250044E+02  0.51100000000E-03 0. -1.
         11    1    3    3    0    0  0.83843754680E+01  0.54501101075E+01 -0.19921960065E+02  0.22290938635E+02  0.51100000000E-03 0.  1.
<mgrwt>
<rscale>  0 0.20000216E+02</rscale>
<asrwt>0</asrwt>
<pdfrwt beam="1">  1        1 0.36349129E-03 0.20000216E+02</pdfrwt>
<pdfrwt beam="2">  1       -1 0.65116141E-02 0.20000216E+02</pdfrwt>
<totfact> 0.35492121E+06</totfact>
</mgrwt>
</event>
<event>
 5    1  0.9583198E-007  0.2000060E+02  0.7818608E-02  0.1745316E+00
         -1   -1    0    0    0  501 -0.00000000000E+00  0.00000000000E+00  0.26828846487E+02  0.26828846894E+02  0.46700000000E-02 0. -1.
          1   -1    0    0  501    0  0.00000000000E+00 -0.00000000000E+00 -0.37275517228E+01  0.37275546482E+01  0.46700000000E-02 0.  1.
       1023    2    1    2    0    0  0.00000000000E+00  0.00000000000E+00  0.23101294765E+02  0.30556401542E+02  0.20000596376E+02 0.  0.
        -11    1    3    3    0    0 -0.20650831456E+00  0.99980339494E+01  0.11472222523E+02  0.15218909896E+02  0.51100000000E-03 0.  1.
         11    1    3    3    0    0  0.20650831456E+00 -0.99980339494E+01  0.11629072242E+02  0.15337491647E+02  0.51100000000E-03 0. -1.
<mgrwt>
<rscale>  0 0.20000596E+02</rscale>
<asrwt>0</asrwt>
<pdfrwt beam="2">  1        1 0.57346974E-03 0.20000596E+02</pdfrwt>
<pdfrwt beam="1">  1       -1 0.41275152E-02 0.20000596E+02</pdfrwt>
<totfact> 0.36763588E+06</totfact>
</mgrwt>
</event>
<event>
 5    1  0.9583198E-007  0.2000129E+02  0.7818608E-02  0.1745303E+00
         -1   -1    0    0    0  501 -0.00000000000E+00  0.00000000000E+00  0.11720271892E+02  0.11720272822E+02  0.46700000000E-02 0.  1.
          1   -1    0    0  501    0  0.00000000000E+00 -0.00000000000E+00 -0.85333201283E+01  0.85333214062E+01  0.46700000000E-02 0. -1.
       1023    2    1    2    0    0  0.00000000000E+00  0.00000000000E+00  0.31869517638E+01  0.20253594229E+02  0.20001285400E+02 0.  0.
        -11    1    3    3    0    0  0.25517180568E+01  0.96696044533E+01  0.15748365473E+01  0.10123864170E+02  0.51100000000E-03 0. -1.
         11    1    3    3    0    0 -0.25517180568E+01 -0.96696044533E+01  0.16121152165E+01  0.10129730058E+02  0.51100000000E-03 0.  1.
<mgrwt>
<rscale>  0 0.20001285E+02</rscale>
<asrwt>0</asrwt>
<pdfrwt beam="2">  1        1 0.13128186E-02 0.20001285E+02</pdfrwt>
<pdfrwt beam="1">  1       -1 0.18031189E-02 0.20001285E+02</pdfrwt>
<totfact> 0.38368441E+06</totfact>
</mgrwt>
</event>
<event>
 5    1  0.9947931E-007  0.2000297E+02  0.7818608E-02  0.1745269E+00
         -1   -1    0    0    0  501 -0.00000000000E+00  0.00000000000E+00  0.94530916893E+00  0.94532070419E+00  0.46700000000E-02 0. -1.
          1   -1    0    0  501    0  0.00000000000E+00 -0.00000000000E+00 -0.10581625497E+03  0.10581625508E+03  0.46700000000E-02 0.  1.
       1023    2    1    2    0    0  0.00000000000E+00  0.00000000000E+00 -0.10487094581E+03  0.10676157578E+03  0.20002969511E+02 0.  0.
        -11    1    3    3    0    0 -0.12050808704E+00  0.10000221791E+02 -0.52988570986E+02  0.53924091216E+02  0.51100000000E-03 0.  1.
         11    1    3    3    0    0  0.12050808704E+00 -0.10000221791E+02 -0.51882374819E+02  0.52837484565E+02  0.51100000000E-03 0. -1.
<mgrwt>
<rscale>  0 0.20002970E+02</rscale>
<asrwt>0</asrwt>
<pdfrwt beam="2">  1        1 0.16279415E-01 0.20002970E+02</pdfrwt>
<pdfrwt beam="1">  1       -1 0.14543316E-03 0.20002970E+02</pdfrwt>
<totfact> 0.44625409E+06</totfact>
</mgrwt>
</event>
<event>
 5    1  0.9583198E-007  0.2000011E+02  0.7818608E-02  0.1745326E+00
         -1   -1    0    0    0  501 -0.00000000000E+00  0.00000000000E+00  0.44011231322E+02  0.44011231570E+02  0.46700000000E-02 0.  1.
          1   -1    0    0  501    0  0.00000000000E+00 -0.00000000000E+00 -0.22721692600E+01  0.22721740591E+01  0.46700000000E-02 0. -1.
       1023    2    1    2    0    0  0.00000000000E+00  0.00000000000E+00  0.41739062062E+02  0.46283405629E+02  0.20000108370E+02 0.  0.
        -11    1    3    3    0    0  0.99844675844E+01  0.55765000075E+00  0.20922147966E+02  0.23189153547E+02  0.51100000000E-03 0. -1.
         11    1    3    3    0    0 -0.99844675844E+01 -0.55765000075E+00  0.20816914096E+02  0.23094252082E+02  0.51100000000E-03 0.  1.
<mgrwt>
<rscale>  0 0.20000108E+02</rscale>
<asrwt>0</asrwt>
<pdfrwt beam="2">  1        1 0.34956487E-03 0.20000108E+02</pdfrwt>
<pdfrwt beam="1">  1       -1 0.67709595E-02 0.20000108E+02</pdfrwt>
<totfact> 0.35365677E+06</totfact>
</mgrwt>
</event>
<event>
 5    1  0.9583198E-007  0.2000051E+02  0.7818608E-02  0.1745318E+00
          1   -1    0    0  501    0  0.00000000000E+00  0.00000000000E+00  0.12873248865E+01  0.12873333571E+01  0.46700000000E-02 0. -1.
         -1   -1    0    0    0  501 -0.00000000000E+00 -0.00000000000E+00 -0.77684194933E+02  0.77684195073E+02  0.46700000000E-02 0.  1.
       1023    2    1    2    0    0  0.00000000000E+00  0.00000000000E+00 -0.76396870046E+02  0.78971528430E+02  0.20000513737E+02 0.  0.
        -11    1    3    3    0    0 -0.98708301287E+01  0.16036244464E+01 -0.38259397742E+02  0.39544739405E+02  0.51100000000E-03 0. -1.
         11    1    3    3    0    0  0.98708301287E+01 -0.16036244464E+01 -0.38137472304E+02  0.39426789025E+02  0.51100000000E-03 0.  1.
<mgrwt>
<rscale>  0 0.20000514E+02</rscale>
<asrwt>0</asrwt>
<pdfrwt beam="1">  1        1 0.19805071E-03 0.20000514E+02</pdfrwt>
<pdfrwt beam="2">  1       -1 0.11951412E-01 0.20000514E+02</pdfrwt>
<totfact> 0.33129211E+06</totfact>
</mgrwt>
</event>
<event>
 5    1  0.9675733E-007  0.2000118E+02  0.7818608E-02  0.1745305E+00
         -1   -1    0    0    0  501 -0.00000000000E+00  0.00000000000E+00  0.74577505558E+01  0.74577520180E+01  0.46700000000E-02 0.  1.
          1   -1    0    0  501    0  0.00000000000E+00 -0.00000000000E+00 -0.13410450317E+02  0.13410451130E+02  0.46700000000E-02 0. -1.
       1023    2    1    2    0    0  0.00000000000E+00  0.00000000000E+00 -0.59526997607E+01  0.20868203148E+02  0.20001181669E+02 0.  0.
        -11    1    3    3    0    0  0.90133117876E+01 -0.43321889122E+01 -0.30436974374E+01  0.10453312609E+02  0.51100000000E-03 0. -1.
         11    1    3    3    0    0 -0.90133117876E+01  0.43321889122E+01 -0.29090023233E+01  0.10414890539E+02  0.51100000000E-03 0.  1.
<mgrwt>
<rscale>  0 0.20001182E+02</rscale>
<asrwt>0</asrwt>
<pdfrwt beam="2">  1        1 0.20631464E-02 0.20001182E+02</pdfrwt>
<pdfrwt beam="1">  1       -1 0.11473464E-02 0.20001182E+02</pdfrwt>
<totfact> 0.39067547E+06</totfact>
</mgrwt>
</event>
<event>
 5    1  0.9839550E-007  0.2000123E+02  0.7818608E-02  0.1745304E+00
         -1   -1    0    0    0  501 -0.00000000000E+00  0.00000000000E+00  0.18287738418E+01  0.18287798045E+01  0.46700000000E-02 0.  1.
          1   -1    0    0  501    0  0.00000000000E+00 -0.00000000000E+00 -0.54688058741E+02  0.54688058941E+02  0.46700000000E-02 0. -1.
       1023    2    1    2    0    0  0.00000000000E+00  0.00000000000E+00 -0.52859284900E+02  0.56516838745E+02  0.20001226504E+02 0.  0.
        -11    1    3    3    0    0  0.83798051847E+01  0.54572500310E+01 -0.26153472953E+02  0.28000122511E+02  0.51100000000E-03 0.  1.
         11    1    3    3    0    0 -0.83798051847E+01 -0.54572500310E+01 -0.26705811946E+02  0.28516716235E+02  0.51100000000E-03 0. -1.
<mgrwt>
<rscale>  0 0.20001227E+02</rscale>
<asrwt>0</asrwt>
<pdfrwt beam="2">  1        1 0.84135467E-02 0.20001227E+02</pdfrwt>
<pdfrwt beam="1">  1       -1 0.28135034E-03 0.20001227E+02</pdfrwt>
<totfact> 0.41980584E+06</totfact>
</mgrwt>
</event>
<event>
 5    1  0.9601974E-007  0.2000062E+02  0.7818608E-02  0.1745316E+00
         -1   -1    0    0    0  501 -0.00000000000E+00  0.00000000000E+00  0.26368795885E+01  0.26368837239E+01  0.46700000000E-02 0. -1.
          1   -1    0    0  501    0  0.00000000000E+00 -0.00000000000E+00 -0.37925943250E+02  0.37925943537E+02  0.46700000000E-02 0.  1.
       1023    2    1    2    0    0  0.00000000000E+00  0.00000000000E+00 -0.35289063661E+02  0.40562827261E+02  0.20000623524E+02 0.  0.
        -11    1    3    3    0    0  0.55742533287E+01 -0.83022891841E+01 -0.17800696497E+02  0.20417274596E+02  0.51100000000E-03 0. -1.
         11    1    3    3    0    0 -0.55742533287E+01  0.83022891841E+01 -0.17488367164E+02  0.20145552665E+02  0.51100000000E-03 0.  1.
<mgrwt>
<rscale>  0 0.20000624E+02</rscale>
<asrwt>0</asrwt>
<pdfrwt beam="2">  1        1 0.58347605E-02 0.20000624E+02</pdfrwt>
<pdfrwt beam="1">  1       -1 0.40567415E-03 0.20000624E+02</pdfrwt>
<totfact> 0.40976816E+06</totfact>
</mgrwt>
</event>
<event>
 5    1  0.9722062E-007  0.2000064E+02  0.7818608E-02  0.1745315E+00
         -1   -1    0    0    0  501 -0.00000000000E+00  0.00000000000E+00  0.12872067600E+01  0.12872152314E+01  0.46700000000E-02 0.  1.
          1   -1    0    0  501    0  0.00000000000E+00 -0.00000000000E+00 -0.77692308865E+02  0.77692309006E+02  0.46700000000E-02 0. -1.
       1023    2    1    2    0    0  0.00000000000E+00  0.00000000000E+00 -0.76405102105E+02  0.78979524237E+02  0.20000640515E+02 0.  0.
        -11    1    3    3    0    0 -0.86306591287E+01 -0.50515333186E+01 -0.38155974198E+02  0.39444703487E+02  0.51100000000E-03 0. -1.
         11    1    3    3    0    0  0.86306591287E+01  0.50515333186E+01 -0.38249127907E+02  0.39534820750E+02  0.51100000000E-03 0.  1.
<mgrwt>
<rscale>  0 0.20000641E+02</rscale>
<asrwt>0</asrwt>
<pdfrwt beam="2">  1        1 0.11952660E-01 0.20000641E+02</pdfrwt>
<pdfrwt beam="1">  1       -1 0.19803253E-03 0.20000641E+02</pdfrwt>
<totfact> 0.43236781E+06</totfact>
</mgrwt>
</event>
<event>
 4    1  0.9583198E-007  0.2011944E+02  0.7818608E-02  0.1742963E+00
          1   -1    0    0  501    0  0.00000000000E+00  0.00000000000E+00  0.34864649576E+01  0.34864680852E+01  0.46700000000E-02 0.  1.
         -1   -1    0    0    0  501 -0.00000000000E+00 -0.00000000000E+00 -0.29025937630E+02  0.29025938006E+02  0.46700000000E-02 0. -1.
        -11    1    1    2    0    0  0.37230578364E+01  0.93303771412E+01 -0.13626160403E+02  0.16928949904E+02  0.51100000000E-03 0. -1.
         11    1    1    2    0    0 -0.37230578364E+01 -0.93303771412E+01 -0.11913312269E+02  0.15583456187E+02  0.51100000000E-03 0.  1.
<mgrwt>
<rscale>  0 0.20119440E+02</rscale>
<asrwt>0</asrwt>
<pdfrwt beam="1">  1        1 0.53637951E-03 0.20119440E+02</pdfrwt>
<pdfrwt beam="2">  1       -1 0.44655290E-02 0.20119440E+02</pdfrwt>
<totfact> 0.36095100E+06</totfact>
</mgrwt>
</event>
<event>
 5    1  0.9958464E-007  0.2000160E+02  0.7818608E-02  0.1745296E+00
         -1   -1    0    0    0  501 -0.00000000000E+00  0.00000000000E+00  0.16205086178E+01  0.16205153468E+01  0.46700000000E-02 0.  1.
          1   -1    0    0  501    0  0.00000000000E+00 -0.00000000000E+00 -0.61718765010E+02  0.61718765187E+02  0.46700000000E-02 0. -1.
       1023    2    1    2    0    0  0.00000000000E+00  0.00000000000E+00 -0.60098256393E+02  0.63339280534E+02  0.20001600864E+02 0.  0.
        -11    1    3    3    0    0 -0.12356079888E+01 -0.99239713818E+01 -0.29847005492E+02  0.31477860032E+02  0.51100000000E-03 0. -1.
         11    1    3    3    0    0  0.12356079888E+01  0.99239713818E+01 -0.30251250901E+02  0.31861420502E+02  0.51100000000E-03 0.  1.
<mgrwt>
<rscale>  0 0.20001601E+02</rscale>
<asrwt>0</asrwt>
<pdfrwt beam="2">  1        1 0.94951933E-02 0.20001601E+02</pdfrwt>
<pdfrwt beam="1">  1       -1 0.24930960E-03 0.20001601E+02</pdfrwt>
<totfact> 0.42374810E+06</totfact>
</mgrwt>
</event>
<event>
 5    1  0.9583198E-007  0.2000056E+02  0.7818608E-02  0.1745317E+00
          1   -1    0    0  501    0  0.00000000000E+00  0.00000000000E+00  0.11354899755E+01  0.11354995788E+01  0.46700000000E-02 0. -1.
         -1   -1    0    0    0  501 -0.00000000000E+00 -0.00000000000E+00 -0.88072280802E+02  0.88072280926E+02  0.46700000000E-02 0.  1.
       1023    2    1    2    0    0  0.00000000000E+00  0.00000000000E+00 -0.86936790827E+02  0.89207780505E+02  0.20000562576E+02 0.  0.
        -11    1    3    3    0    0 -0.89899482709E+00 -0.99597906431E+01 -0.43459226594E+02  0.44594954847E+02  0.51100000000E-03 0.  1.
         11    1    3    3    0    0  0.89899482709E+00  0.99597906431E+01 -0.43477564233E+02  0.44612825658E+02  0.51100000000E-03 0. -1.
<mgrwt>
<rscale>  0 0.20000563E+02</rscale>
<asrwt>0</asrwt>
<pdfrwt beam="1">  1        1 0.17469158E-03 0.20000563E+02</pdfrwt>
<pdfrwt beam="2">  1       -1 0.13549577E-01 0.20000563E+02</pdfrwt>
<totfact> 0.32524063E+06</totfact>
</mgrwt>
</event>
<event>
 4    1  0.9583198E-007  0.2001551E+02  0.7818608E-02  0.1745020E+00
          1   -1    0    0  501    0  0.00000000000E+00  0.00000000000E+00  0.10593998829E+02  0.10593999859E+02  0.46700000000E-02 0.  1.
         -1   -1    0    0    0  501 -0.00000000000E+00 -0.00000000000E+00 -0.94539528752E+01  0.94539540287E+01  0.46700000000E-02 0. -1.
        -11    1    1    2    0    0 -0.94214350027E+01  0.33716644757E+01  0.41605830661E+00  0.10015221596E+02  0.51100000000E-03 0. -1.
         11    1    1    2    0    0  0.94214350027E+01 -0.33716644757E+01  0.72398764736E+00  0.10032732291E+02  0.51100000000E-03 0.  1.
<mgrwt>
<rscale>  0 0.20015513E+02</rscale>
<asrwt>0</asrwt>
<pdfrwt beam="1">  1        1 0.16298461E-02 0.20015513E+02</pdfrwt>
<pdfrwt beam="2">  1       -1 0.14544545E-02 0.20015513E+02</pdfrwt>
<totfact> 0.38645123E+06</totfact>
</mgrwt>
</event>
<event>
 5    1  0.9583198E-007  0.2000445E+02  0.7818608E-02  0.1745240E+00
         -1   -1    0    0    0  501 -0.00000000000E+00  0.00000000000E+00  0.16655487073E+01  0.16655552543E+01  0.46700000000E-02 0.  1.
          1   -1    0    0  501    0  0.00000000000E+00 -0.00000000000E+00 -0.60066844297E+02  0.60066844478E+02  0.46700000000E-02 0. -1.
       1023    2    1    2    0    0  0.00000000000E+00  0.00000000000E+00 -0.58401295589E+02  0.61732399732E+02  0.20004445761E+02 0.  0.
        -11    1    3    3    0    0 -0.16868016420E+01 -0.98578896312E+01 -0.28751598979E+02  0.30441381898E+02  0.51100000000E-03 0. -1.
         11    1    3    3    0    0  0.16868016420E+01  0.98578896312E+01 -0.29649696610E+02  0.31291017834E+02  0.51100000000E-03 0.  1.
<mgrwt>
<rscale>  0 0.20004446E+02</rscale>
<asrwt>0</asrwt>
<pdfrwt beam="2">  1        1 0.92410518E-02 0.20004446E+02</pdfrwt>
<pdfrwt beam="1">  1       -1 0.25623883E-03 0.20004446E+02</pdfrwt>
<totfact> 0.42269510E+06</totfact>
</mgrwt>
</event>
<event>
 5    1  0.9583198E-007  0.2000031E+02  0.7818608E-02  0.1745322E+00
         -1   -1    0    0    0  501 -0.00000000000E+00  0.00000000000E+00  0.53801918291E+01  0.53801938559E+01  0.46700000000E-02 0.  1.
          1   -1    0    0  501    0  0.00000000000E+00 -0.00000000000E+00 -0.18587272222E+02  0.18587272809E+02  0.46700000000E-02 0. -1.
       1023    2    1    2    0    0  0.00000000000E+00  0.00000000000E+00 -0.13207080393E+02  0.23967466665E+02  0.20000312143E+02 0.  0.
        -11    1    3    3    0    0  0.78319071453E+01 -0.62179776205E+01 -0.66433928985E+01  0.12005693844E+02  0.51100000000E-03 0.  1.
         11    1    3    3    0    0 -0.78319071453E+01  0.62179776205E+01 -0.65636874948E+01  0.11961772821E+02  0.51100000000E-03 0. -1.
<mgrwt>
<rscale>  0 0.20000312E+02</rscale>
<asrwt>0</asrwt>
<pdfrwt beam="2">  1        1 0.28595805E-02 0.20000312E+02</pdfrwt>
<pdfrwt beam="1">  1       -1 0.82772203E-03 0.20000312E+02</pdfrwt>
<totfact> 0.39583307E+06</totfact>
</mgrwt>
</event>
<event>
 5    1  0.1002768E-006  0.2000173E+02  0.7818608E-02  0.1745294E+00
          1   -1    0    0  501    0  0.00000000000E+00  0.00000000000E+00  0.32918706566E+02  0.32918706897E+02  0.46700000000E-02 0.  1.
         -1   -1    0    0    0  501 -0.00000000000E+00 -0.00000000000E+00 -0.30383109940E+01  0.30383145830E+01  0.46700000000E-02 0. -1.
       1023    2    1    2    0    0  0.00000000000E+00  0.00000000000E+00  0.29880395572E+02  0.35957021480E+02  0.20001733780E+02 0.  0.
        -11    1    3    3    0    0  0.65094710862E+01  0.75914092875E+01  0.14722762141E+02  0.17797821050E+02  0.51100000000E-03 0. -1.
         11    1    3    3    0    0 -0.65094710862E+01 -0.75914092875E+01  0.15157633431E+02  0.18159200430E+02  0.51100000000E-03 0.  1.
<mgrwt>
<rscale>  0 0.20001734E+02</rscale>
<asrwt>0</asrwt>
<pdfrwt beam="1">  1        1 0.50644165E-02 0.20001734E+02</pdfrwt>
<pdfrwt beam="2">  1       -1 0.46743278E-03 0.20001734E+02</pdfrwt>
<totfact> 0.40646340E+06</totfact>
</mgrwt>
</event>
<event>
 5    1  0.9583198E-007  0.2000430E+02  0.7818608E-02  0.1745243E+00
         -1   -1    0    0    0  501 -0.00000000000E+00  0.00000000000E+00  0.16425586150E+01  0.16425652537E+01  0.46700000000E-02 0.  1.
          1   -1    0    0  501    0  0.00000000000E+00 -0.00000000000E+00 -0.60906681819E+02  0.60906681998E+02  0.46700000000E-02 0. -1.
       1023    2    1    2    0    0  0.00000000000E+00  0.00000000000E+00 -0.59264123204E+02  0.62549247251E+02  0.20004300353E+02 0.  0.
        -11    1    3    3    0    0 -0.92311587255E+01 -0.38459933126E+01 -0.29030189702E+02  0.30704362400E+02  0.51100000000E-03 0. -1.
         11    1    3    3    0    0  0.92311587255E+01  0.38459933126E+01 -0.30233933501E+02  0.31844884852E+02  0.51100000000E-03 0.  1.
<mgrwt>
<rscale>  0 0.20004300E+02</rscale>
<asrwt>0</asrwt>
<pdfrwt beam="2">  1        1 0.93702575E-02 0.20004300E+02</pdfrwt>
<pdfrwt beam="1">  1       -1 0.25270190E-03 0.20004300E+02</pdfrwt>
<totfact> 0.42317016E+06</totfact>
</mgrwt>
</event>
<event>
 5    1  0.9583198E-007  0.2000026E+02  0.7818608E-02  0.1745323E+00
         -1   -1    0    0    0  501 -0.00000000000E+00  0.00000000000E+00  0.15837205185E+02  0.15837205873E+02  0.46700000000E-02 0.  1.
          1   -1    0    0  501    0  0.00000000000E+00 -0.00000000000E+00 -0.63144096735E+01  0.63144114004E+01  0.46700000000E-02 0. -1.
       1023    2    1    2    0    0  0.00000000000E+00  0.00000000000E+00  0.95227955113E+01  0.22151617274E+02  0.20000262836E+02 0.  0.
        -11    1    3    3    0    0  0.94129905515E+01  0.33760314638E+01  0.47896036371E+01  0.11087934110E+02  0.51100000000E-03 0.  1.
         11    1    3    3    0    0 -0.94129905515E+01 -0.33760314638E+01  0.47331918742E+01  0.11063683164E+02  0.51100000000E-03 0. -1.
<mgrwt>
<rscale>  0 0.20000263E+02</rscale>
<asrwt>0</asrwt>
<pdfrwt beam="2">  1        1 0.97144783E-03 0.20000263E+02</pdfrwt>
<pdfrwt beam="1">  1       -1 0.24364933E-02 0.20000263E+02</pdfrwt>
<totfact> 0.37862027E+06</totfact>
</mgrwt>
</event>
<event>
 5    1  0.9583198E-007  0.2000861E+02  0.7818608E-02  0.1745157E+00
          1   -1    0    0  501    0  0.00000000000E+00  0.00000000000E+00  0.88797846741E+02  0.88797846864E+02  0.46700000000E-02 0. -1.
         -1   -1    0    0    0  501 -0.00000000000E+00 -0.00000000000E+00 -0.11271186656E+01  0.11271283402E+01  0.46700000000E-02 0.  1.
       1023    2    1    2    0    0  0.00000000000E+00  0.00000000000E+00  0.87670728076E+02  0.89924975204E+02  0.20008613249E+02 0.  0.
        -11    1    3    3    0    0 -0.96411235123E+01  0.26705771369E+01  0.44077638634E+02  0.45198688838E+02  0.51100000000E-03 0. -1.
         11    1    3    3    0    0  0.96411235123E+01 -0.26705771369E+01  0.43593089442E+02  0.44726286367E+02  0.51100000000E-03 0.  1.
<mgrwt>
<rscale>  0 0.20008613E+02</rscale>
<asrwt>0</asrwt>
<pdfrwt beam="1">  1        1 0.13661205E-01 0.20008613E+02</pdfrwt>
<pdfrwt beam="2">  1       -1 0.17340367E-03 0.20008613E+02</pdfrwt>
<totfact> 0.43765886E+06</totfact>
</mgrwt>
</event>
<event>
 5    1  0.9583198E-007  0.2000181E+02  0.7818608E-02  0.1745292E+00
          1   -1    0    0  501    0  0.00000000000E+00  0.00000000000E+00  0.11227551776E+03  0.11227551786E+03  0.46700000000E-02 0.  1.
         -1   -1    0    0    0  501 -0.00000000000E+00 -0.00000000000E+00 -0.89082129948E+00  0.89083354029E+00  0.46700000000E-02 0. -1.
       1023    2    1    2    0    0  0.00000000000E+00  0.00000000000E+00  0.11138469646E+03  0.11316635140E+03  0.20001811993E+02 0.  0.
        -11    1    3    3    0    0 -0.74068951370E+01  0.67193059372E+01  0.56164110115E+02  0.57047510315E+02  0.51100000000E-03 0. -1.
         11    1    3    3    0    0  0.74068951370E+01 -0.67193059372E+01  0.55220586346E+02  0.56118841083E+02  0.51100000000E-03 0.  1.
<mgrwt>
<rscale>  0 0.20001812E+02</rscale>
<asrwt>0</asrwt>
<pdfrwt beam="1">  1        1 0.17273145E-01 0.20001812E+02</pdfrwt>
<pdfrwt beam="2">  1       -1 0.13705048E-03 0.20001812E+02</pdfrwt>
<totfact> 0.44935116E+06</totfact>
</mgrwt>
</event>
<event>
 5    1  0.9583198E-007  0.2000130E+02  0.7818608E-02  0.1745302E+00
         -1   -1    0    0    0  501 -0.00000000000E+00  0.00000000000E+00  0.77773182774E+02  0.77773182914E+02  0.46700000000E-02 0. -1.
          1   -1    0    0  501    0  0.00000000000E+00 -0.00000000000E+00 -0.12859530309E+01  0.12859615105E+01  0.46700000000E-02 0.  1.
       1023    2    1    2    0    0  0.00000000000E+00  0.00000000000E+00  0.76487229743E+02  0.79059144425E+02  0.20001300043E+02 0.  0.
        -11    1    3    3    0    0  0.42639279038E+01  0.90460618316E+01  0.38140181029E+02  0.39429503230E+02  0.51100000000E-03 0.  1.
         11    1    3    3    0    0 -0.42639279038E+01 -0.90460618316E+01  0.38347048715E+02  0.39629641195E+02  0.51100000000E-03 0. -1.
<mgrwt>
<rscale>  0 0.20001300E+02</rscale>
<asrwt>0</asrwt>
<pdfrwt beam="2">  1        1 0.19783960E-03 0.20001300E+02</pdfrwt>
<pdfrwt beam="1">  1       -1 0.11965105E-01 0.20001300E+02</pdfrwt>
<totfact> 0.33121033E+06</totfact>
</mgrwt>
</event>
<event>
 4    1  0.9583198E-007  0.2001413E+02  0.7818608E-02  0.1745047E+00
          1   -1    0    0  501    0  0.00000000000E+00  0.00000000000E+00  0.73339892855E+01  0.73339907723E+01  0.46700000000E-02 0. -1.
         -1   -1    0    0    0  501 -0.00000000000E+00 -0.00000000000E+00 -0.13654412068E+02  0.13654412867E+02  0.46700000000E-02 0.  1.
        -11    1    1    2    0    0  0.57379032465E+01  0.81912879202E+01 -0.35243977815E+01  0.10603872474E+02  0.51100000000E-03 0. -1.
         11    1    1    2    0    0 -0.57379032465E+01 -0.81912879202E+01 -0.27960250014E+01  0.10384531165E+02  0.51100000000E-03 0.  1.
<mgrwt>
<rscale>  0 0.20014129E+02</rscale>
<asrwt>0</asrwt>
<pdfrwt beam="1">  1        1 0.11283062E-02 0.20014129E+02</pdfrwt>
<pdfrwt beam="2">  1       -1 0.21006790E-02 0.20014129E+02</pdfrwt>
<totfact> 0.38063139E+06</totfact>
</mgrwt>
</event>
<event>
 4    1  0.9583198E-007  0.2018424E+02  0.7818608E-02  0.1741689E+00
          1   -1    0    0  501    0  0.00000000000E+00  0.00000000000E+00  0.19406616354E+01  0.19406672543E+01  0.46700000000E-02 0.  1.
         -1   -1    0    0    0  501 -0.00000000000E+00 -0.00000000000E+00 -0.52482476829E+02  0.52482477037E+02  0.46700000000E-02 0. -1.
        -11    1    1    2    0    0 -0.10033561083E+02  0.80782823258E+00 -0.27226348756E+02  0.29027555896E+02  0.51100000000E-03 0.  1.
         11    1    1    2    0    0  0.10033561083E+02 -0.80782823258E+00 -0.23315466437E+02  0.25395588395E+02  0.51100000000E-03 0. -1.
<mgrwt>
<rscale>  0 0.20184240E+02</rscale>
<asrwt>0</asrwt>
<pdfrwt beam="1">  1        1 0.29856382E-03 0.20184240E+02</pdfrwt>
<pdfrwt beam="2">  1       -1 0.80742266E-02 0.20184240E+02</pdfrwt>
<totfact> 0.34060729E+06</totfact>
</mgrwt>
</event>
<event>
 5    1  0.9583198E-007  0.2000067E+02  0.7818608E-02  0.1745315E+00
         -1   -1    0    0    0  501 -0.00000000000E+00  0.00000000000E+00  0.27071914616E+01  0.27071954896E+01  0.46700000000E-02 0.  1.
          1   -1    0    0  501    0  0.00000000000E+00 -0.00000000000E+00 -0.36941108600E+02  0.36941108895E+02  0.46700000000E-02 0. -1.
       1023    2    1    2    0    0  0.00000000000E+00  0.00000000000E+00 -0.34233917138E+02  0.39648304385E+02  0.20000673937E+02 0.  0.
        -11    1    3    3    0    0  0.84246807588E+01  0.53876883529E+01 -0.16986853190E+02  0.19711814053E+02  0.51100000000E-03 0.  1.
         11    1    3    3    0    0 -0.84246807588E+01 -0.53876883529E+01 -0.17247063948E+02  0.19936490332E+02  0.51100000000E-03 0. -1.
<mgrwt>
<rscale>  0 0.20000674E+02</rscale>
<asrwt>0</asrwt>
<pdfrwt beam="2">  1        1 0.56832475E-02 0.20000674E+02</pdfrwt>
<pdfrwt beam="1">  1       -1 0.41649135E-03 0.20000674E+02</pdfrwt>
<totfact> 0.40913739E+06</totfact>
</mgrwt>
</event>
<event>
 5    1  0.9865296E-007  0.2000208E+02  0.7818608E-02  0.1745287E+00
         -1   -1    0    0    0  501 -0.00000000000E+00  0.00000000000E+00  0.45016392307E+01  0.45016416530E+01  0.46700000000E-02 0.  1.
          1   -1    0    0  501    0  0.00000000000E+00 -0.00000000000E+00 -0.22218746093E+02  0.22218746583E+02  0.46700000000E-02 0. -1.
       1023    2    1    2    0    0  0.00000000000E+00  0.00000000000E+00 -0.17717106862E+02  0.26720388237E+02  0.20002081690E+02 0.  0.
        -11    1    3    3    0    0  0.86575812438E+01 -0.50053356321E+01 -0.87020788737E+01  0.13256442765E+02  0.51100000000E-03 0. -1.
         11    1    3    3    0    0 -0.86575812438E+01  0.50053356321E+01 -0.90150279882E+01  0.13463945472E+02  0.51100000000E-03 0.  1.
<mgrwt>
<rscale>  0 0.20002082E+02</rscale>
<asrwt>0</asrwt>
<pdfrwt beam="2">  1        1 0.34182688E-02 0.20002082E+02</pdfrwt>
<pdfrwt beam="1">  1       -1 0.69256012E-03 0.20002082E+02</pdfrwt>
<totfact> 0.39876951E+06</totfact>
</mgrwt>
</event>
<event>
 5    1  0.9583198E-007  0.2000058E+02  0.7818608E-02  0.1745317E+00
          1   -1    0    0  501    0  0.00000000000E+00  0.00000000000E+00  0.43980420883E+02  0.43980421131E+02  0.46700000000E-02 0.  1.
         -1   -1    0    0    0  501 -0.00000000000E+00 -0.00000000000E+00 -0.22738674084E+01  0.22738722040E+01  0.46700000000E-02 0. -1.
       1023    2    1    2    0    0  0.00000000000E+00  0.00000000000E+00  0.41706553474E+02  0.46254293335E+02  0.20000576221E+02 0.  0.
        -11    1    3    3    0    0 -0.56818512108E+01  0.82290327700E+01  0.20684144464E+02  0.22974643544E+02  0.51100000000E-03 0.  1.
         11    1    3    3    0    0  0.56818512108E+01 -0.82290327700E+01  0.21022409010E+02  0.23279649790E+02  0.51100000000E-03 0. -1.
<mgrwt>
<rscale>  0 0.20000576E+02</rscale>
<asrwt>0</asrwt>
<pdfrwt beam="1">  1        1 0.67662181E-02 0.20000576E+02</pdfrwt>
<pdfrwt beam="2">  1       -1 0.34982619E-03 0.20000576E+02</pdfrwt>
<totfact> 0.41353018E+06</totfact>
</mgrwt>
</event>
<event>
 5    1  0.9583198E-007  0.2000123E+02  0.7818608E-02  0.1745304E+00
         -1   -1    0    0    0  501 -0.00000000000E+00  0.00000000000E+00  0.36057811236E+02  0.36057811539E+02  0.46700000000E-02 0.  1.
          1   -1    0    0  501    0  0.00000000000E+00 -0.00000000000E+00 -0.27736625963E+01  0.27736665277E+01  0.46700000000E-02 0. -1.
       1023    2    1    2    0    0  0.00000000000E+00  0.00000000000E+00  0.33284148640E+02  0.38831478066E+02  0.20001228415E+02 0.  0.
        -11    1    3    3    0    0 -0.12200759750E+01 -0.99258616329E+01  0.16581616437E+02  0.19363917953E+02  0.51100000000E-03 0. -1.
         11    1    3    3    0    0  0.12200759750E+01  0.99258616329E+01  0.16702532203E+02  0.19467560114E+02  0.51100000000E-03 0.  1.
<mgrwt>
<rscale>  0 0.20001228E+02</rscale>
<asrwt>0</asrwt>
<pdfrwt beam="2">  1        1 0.42671764E-03 0.20001228E+02</pdfrwt>
<pdfrwt beam="1">  1       -1 0.55473560E-02 0.20001228E+02</pdfrwt>
<totfact> 0.35977246E+06</totfact>
</mgrwt>
</event>
<event>
 5    1  0.9583198E-007  0.2000020E+02  0.7818608E-02  0.1745324E+00
         -1   -1    0    0    0  501 -0.00000000000E+00  0.00000000000E+00  0.45619939557E+01  0.45619963460E+01  0.46700000000E-02 0.  1.
          1   -1    0    0  501    0  0.00000000000E+00 -0.00000000000E+00 -0.21920673410E+02  0.21920673908E+02  0.46700000000E-02 0. -1.
       1023    2    1    2    0    0  0.00000000000E+00  0.00000000000E+00 -0.17358679455E+02  0.26482670254E+02  0.20000201783E+02 0.  0.
        -11    1    3    3    0    0 -0.16377762606E+01 -0.98649741893E+01 -0.87384189993E+01  0.13280060004E+02  0.51100000000E-03 0. -1.
         11    1    3    3    0    0  0.16377762606E+01  0.98649741893E+01 -0.86202604554E+01  0.13202610250E+02  0.51100000000E-03 0.  1.
<mgrwt>
<rscale>  0 0.20000202E+02</rscale>
<asrwt>0</asrwt>
<pdfrwt beam="2">  1        1 0.33724115E-02 0.20000202E+02</pdfrwt>
<pdfrwt beam="1">  1       -1 0.70184546E-03 0.20000202E+02</pdfrwt>
<totfact> 0.39861726E+06</totfact>
</mgrwt>
</event>
<event>
 4    1  0.9583198E-007  0.2003465E+02  0.7818608E-02  0.1744640E+00
          1   -1    0    0  501    0  0.00000000000E+00  0.00000000000E+00  0.21039098604E+02  0.21039099122E+02  0.46700000000E-02 0.  1.
         -1   -1    0    0    0  501 -0.00000000000E+00 -0.00000000000E+00 -0.47695351980E+01  0.47695374842E+01  0.46700000000E-02 0. -1.
        -11    1    1    2    0    0 -0.86140168304E+01  0.50810563081E+01  0.88729306964E+01  0.13369641677E+02  0.51100000000E-03 0.  1.
         11    1    1    2    0    0  0.86140168304E+01 -0.50810563081E+01  0.73966327097E+01  0.12438994930E+02  0.51100000000E-03 0. -1.
<mgrwt>
<rscale>  0 0.20034646E+02</rscale>
<asrwt>0</asrwt>
<pdfrwt beam="1">  1        1 0.32367846E-02 0.20034646E+02</pdfrwt>
<pdfrwt beam="2">  1       -1 0.73377487E-03 0.20034646E+02</pdfrwt>
<totfact> 0.39637624E+06</totfact>
</mgrwt>
</event>
<event>
 4    1  0.9583198E-007  0.2001312E+02  0.7818608E-02  0.1745067E+00
          1   -1    0    0  501    0  0.00000000000E+00  0.00000000000E+00  0.91252582834E+01  0.91252594784E+01  0.46700000000E-02 0.  1.
         -1   -1    0    0    0  501 -0.00000000000E+00 -0.00000000000E+00 -0.10972969102E+02  0.10972970096E+02  0.46700000000E-02 0. -1.
        -11    1    1    2    0    0  0.53427978395E+01  0.84605057055E+01 -0.99869332655E+00  0.10055994937E+02  0.51100000000E-03 0. -1.
         11    1    1    2    0    0 -0.53427978395E+01 -0.84605057055E+01 -0.84901749192E+00  0.10042234637E+02  0.51100000000E-03 0.  1.
<mgrwt>
<rscale>  0 0.20013116E+02</rscale>
<asrwt>0</asrwt>
<pdfrwt beam="1">  1        1 0.14038861E-02 0.20013116E+02</pdfrwt>
<pdfrwt beam="2">  1       -1 0.16881493E-02 0.20013116E+02</pdfrwt>
<totfact> 0.38423677E+06</totfact>
</mgrwt>
</event>
<event>
 4    1  0.9583198E-007  0.2010909E+02  0.7818608E-02  0.1743167E+00
         -1   -1    0    0    0  501 -0.00000000000E+00  0.00000000000E+00  0.13556959624E+02  0.13556960428E+02  0.46700000000E-02 0.  1.
          1   -1    0    0  501    0  0.00000000000E+00 -0.00000000000E+00 -0.74569735326E+01  0.74569749949E+01  0.46700000000E-02 0. -1.
        -11    1    1    2    0    0  0.51632863552E+01 -0.86160508830E+01  0.35150504215E+01  0.10641965915E+02  0.51100000000E-03 0. -1.
         11    1    1    2    0    0 -0.51632863552E+01  0.86160508830E+01  0.25849356698E+01  0.10371969508E+02  0.51100000000E-03 0.  1.
<mgrwt>
<rscale>  0 0.20109094E+02</rscale>
<asrwt>0</asrwt>
<pdfrwt beam="2">  1        1 0.11472269E-02 0.20109094E+02</pdfrwt>
<pdfrwt beam="1">  1       -1 0.20856862E-02 0.20109094E+02</pdfrwt>
<totfact> 0.37682039E+06</totfact>
</mgrwt>
</event>
<event>
 5    1  0.9583198E-007  0.2000019E+02  0.7818608E-02  0.1745324E+00
         -1   -1    0    0    0  501 -0.00000000000E+00  0.00000000000E+00  0.13539872756E+01  0.13539953292E+01  0.46700000000E-02 0. -1.
          1   -1    0    0  501    0  0.00000000000E+00 -0.00000000000E+00 -0.73857098092E+02  0.73857098239E+02  0.46700000000E-02 0.  1.
       1023    2    1    2    0    0  0.00000000000E+00  0.00000000000E+00 -0.72503110816E+02  0.75211093568E+02  0.20000187943E+02 0.  0.
        -11    1    3    3    0    0  0.19818185900E+01 -0.98017367648E+01 -0.36308667190E+02  0.37660602251E+02  0.51100000000E-03 0. -1.
         11    1    3    3    0    0 -0.19818185900E+01  0.98017367648E+01 -0.36194443626E+02  0.37550491317E+02  0.51100000000E-03 0.  1.
<mgrwt>
<rscale>  0 0.20000188E+02</rscale>
<asrwt>0</asrwt>
<pdfrwt beam="2">  1        1 0.11362628E-01 0.20000188E+02</pdfrwt>
<pdfrwt beam="1">  1       -1 0.20830642E-03 0.20000188E+02</pdfrwt>
<totfact> 0.43038054E+06</totfact>
</mgrwt>
</event>
<event>
 5    1  0.9583198E-007  0.2000032E+02  0.7818608E-02  0.1745322E+00
          1   -1    0    0  501    0  0.00000000000E+00  0.00000000000E+00  0.58770403924E+02  0.58770404109E+02  0.46700000000E-02 0. -1.
         -1   -1    0    0    0  501 -0.00000000000E+00 -0.00000000000E+00 -0.17015871161E+01  0.17015935244E+01  0.46700000000E-02 0.  1.
       1023    2    1    2    0    0  0.00000000000E+00  0.00000000000E+00  0.57068816808E+02  0.60471997634E+02  0.20000316147E+02 0.  0.
        -11    1    3    3    0    0 -0.50291554400E+01  0.86435067661E+01  0.28605160777E+02  0.30302769461E+02  0.51100000000E-03 0. -1.
         11    1    3    3    0    0  0.50291554400E+01 -0.86435067661E+01  0.28463656030E+02  0.30169228173E+02  0.51100000000E-03 0.  1.
<mgrwt>
<rscale>  0 0.20000316E+02</rscale>
<asrwt>0</asrwt>
<pdfrwt beam="1">  1        1 0.90416009E-02 0.20000316E+02</pdfrwt>
<pdfrwt beam="2">  1       -1 0.26178315E-03 0.20000316E+02</pdfrwt>
<totfact> 0.42216218E+06</totfact>
</mgrwt>
</event>
<event>
 5    1  0.9627239E-007  0.2000059E+02  0.7818608E-02  0.1745316E+00
          1   -1    0    0  501    0  0.00000000000E+00  0.00000000000E+00  0.56963342253E+02  0.56963342444E+02  0.46700000000E-02 0. -1.
         -1   -1    0    0    0  501 -0.00000000000E+00 -0.00000000000E+00 -0.17556146574E+01  0.17556208686E+01  0.46700000000E-02 0.  1.
       1023    2    1    2    0    0  0.00000000000E+00  0.00000000000E+00  0.55207727595E+02  0.58718963313E+02  0.20000586649E+02 0.  0.
        -11    1    3    3    0    0  0.99920997477E+01  0.40463574293E+00  0.27577792719E+02  0.29334969558E+02  0.51100000000E-03 0.  1.
         11    1    3    3    0    0 -0.99920997477E+01 -0.40463574293E+00  0.27629934876E+02  0.29383993755E+02  0.51100000000E-03 0. -1.
<mgrwt>
<rscale>  0 0.20000587E+02</rscale>
<asrwt>0</asrwt>
<pdfrwt beam="1">  1        1 0.87635900E-02 0.20000587E+02</pdfrwt>
<pdfrwt beam="2">  1       -1 0.27009510E-03 0.20000587E+02</pdfrwt>
<totfact> 0.42113035E+06</totfact>
</mgrwt>
</event>
<event>
 5    1  0.9583198E-007  0.2000030E+02  0.7818608E-02  0.1745322E+00
          1   -1    0    0  501    0  0.00000000000E+00  0.00000000000E+00  0.34628309152E+02  0.34628309467E+02  0.46700000000E-02 0.  1.
         -1   -1    0    0    0  501 -0.00000000000E+00 -0.00000000000E+00 -0.28878939790E+01  0.28878977549E+01  0.46700000000E-02 0. -1.
       1023    2    1    2    0    0  0.00000000000E+00  0.00000000000E+00  0.31740415173E+02  0.37516207222E+02  0.20000296222E+02 0.  0.
        -11    1    3    3    0    0 -0.94468483392E+00  0.99553261172E+01  0.15786017645E+02  0.18686875097E+02  0.51100000000E-03 0.  1.
         11    1    3    3    0    0  0.94468483392E+00 -0.99553261172E+01  0.15954397529E+02  0.18829332126E+02  0.51100000000E-03 0. -1.
<mgrwt>
<rscale>  0 0.20000296E+02</rscale>
<asrwt>0</asrwt>
<pdfrwt beam="1">  1        1 0.53274321E-02 0.20000296E+02</pdfrwt>
<pdfrwt beam="2">  1       -1 0.44429173E-03 0.20000296E+02</pdfrwt>
<totfact> 0.40765685E+06</totfact>
</mgrwt>
</event>
<event>
 5    1  0.9583198E-007  0.2000008E+02  0.7818608E-02  0.1745326E+00
          1   -1    0    0  501    0  0.00000000000E+00  0.00000000000E+00  0.86336080288E+02  0.86336080414E+02  0.46700000000E-02 0. -1.
         -1   -1    0    0    0  501 -0.00000000000E+00 -0.00000000000E+00 -0.11582687902E+01  0.11582782046E+01  0.46700000000E-02 0.  1.
       1023    2    1    2    0    0  0.00000000000E+00  0.00000000000E+00  0.85177811497E+02  0.87494358619E+02  0.20000080464E+02 0.  0.
        -11    1    3    3    0    0 -0.19193782344E+01  0.98141088628E+01  0.42622453047E+02  0.43779838391E+02  0.51100000000E-03 0. -1.
         11    1    3    3    0    0  0.19193782344E+01 -0.98141088628E+01  0.42555358451E+02  0.43714520227E+02  0.51100000000E-03 0.  1.
<mgrwt>
<rscale>  0 0.20000080E+02</rscale>
<asrwt>0</asrwt>
<pdfrwt beam="1">  1        1 0.13282480E-01 0.20000080E+02</pdfrwt>
<pdfrwt beam="2">  1       -1 0.17819586E-03 0.20000080E+02</pdfrwt>
<totfact> 0.43682893E+06</totfact>
</mgrwt>
</event>
<event>
 5    1  0.9583198E-007  0.2000011E+02  0.7818608E-02  0.1745326E+00
          1   -1    0    0  501    0  0.00000000000E+00  0.00000000000E+00  0.73040082038E+01  0.73040096968E+01  0.46700000000E-02 0.  1.
         -1   -1    0    0    0  501 -0.00000000000E+00 -0.00000000000E+00 -0.13691265796E+02  0.13691266592E+02  0.46700000000E-02 0. -1.
       1023    2    1    2    0    0  0.00000000000E+00  0.00000000000E+00 -0.63872575921E+01  0.20995276289E+02  0.20000114172E+02 0.  0.
        -11    1    3    3    0    0  0.79941041626E+01  0.60078965206E+01 -0.31675005306E+01  0.10489689311E+02  0.51100000000E-03 0.  1.
         11    1    3    3    0    0 -0.79941041626E+01 -0.60078965206E+01 -0.32197570615E+01  0.10505586978E+02  0.51100000000E-03 0. -1.
<mgrwt>
<rscale>  0 0.20000114E+02</rscale>
<asrwt>0</asrwt>
<pdfrwt beam="1">  1        1 0.11236937E-02 0.20000114E+02</pdfrwt>
<pdfrwt beam="2">  1       -1 0.21063488E-02 0.20000114E+02</pdfrwt>
<totfact> 0.38117067E+06</totfact>
</mgrwt>
</event>
<event>
 5    1  0.9870162E-007  0.2000117E+02  0.7818608E-02  0.1745305E+00
          1   -1    0    0  501    0  0.00000000000E+00  0.00000000000E+00  0.18625951861E+02  0.18625952446E+02  0.46700000000E-02 0. -1.
         -1   -1    0    0    0  501 -0.00000000000E+00 -0.00000000000E+00 -0.53694777346E+01  0.53694797654E+01  0.46700000000E-02 0.  1.
       1023    2    1    2    0    0  0.00000000000E+00  0.00000000000E+00  0.13256474126E+02  0.23995432212E+02  0.20001166485E+02 0.  0.
        -11    1    3    3    0    0  0.74746342570E+01 -0.66435478652E+01  0.67111764299E+01  0.12043536642E+02  0.51100000000E-03 0. -1.
         11    1    3    3    0    0 -0.74746342570E+01  0.66435478652E+01  0.65452976964E+01  0.11951895570E+02  0.51100000000E-03 0.  1.
<mgrwt>
<rscale>  0 0.20001166E+02</rscale>
<asrwt>0</asrwt>
<pdfrwt beam="1">  1        1 0.28655312E-02 0.20001166E+02</pdfrwt>
<pdfrwt beam="2">  1       -1 0.82607370E-03 0.20001166E+02</pdfrwt>
<totfact> 0.39582912E+06</totfact>
</mgrwt>
</event>
<event>
 5    1  0.9583198E-007  0.2000027E+02  0.7818608E-02  0.1745323E+00
          1   -1    0    0  501    0  0.00000000000E+00  0.00000000000E+00  0.56748135213E+01  0.56748154428E+01  0.46700000000E-02 0. -1.
         -1   -1    0    0    0  501 -0.00000000000E+00 -0.00000000000E+00 -0.17622197803E+02  0.17622198421E+02  0.46700000000E-02 0.  1.
       1023    2    1    2    0    0  0.00000000000E+00  0.00000000000E+00 -0.11947384281E+02  0.23297013864E+02  0.20000271594E+02 0.  0.
        -11    1    3    3    0    0 -0.70873559856E+01  0.70549136627E+01 -0.59936662414E+01  0.11658750230E+02  0.51100000000E-03 0. -1.
         11    1    3    3    0    0  0.70873559856E+01 -0.70549136627E+01 -0.59537180400E+01  0.11638263634E+02  0.51100000000E-03 0.  1.
<mgrwt>
<rscale>  0 0.20000272E+02</rscale>
<asrwt>0</asrwt>
<pdfrwt beam="1">  1        1 0.87304844E-03 0.20000272E+02</pdfrwt>
<pdfrwt beam="2">  1       -1 0.27111075E-02 0.20000272E+02</pdfrwt>
<totfact> 0.37664402E+06</totfact>
</mgrwt>
</event>
<event>
 5    1  0.9583198E-007  0.2000065E+02  0.7818608E-02  0.1745315E+00
         -1   -1    0    0    0  501 -0.00000000000E+00  0.00000000000E+00  0.27653023421E+01  0.27653062854E+01  0.46700000000E-02 0. -1.
          1   -1    0    0  501    0  0.00000000000E+00 -0.00000000000E+00 -0.36164739920E+02  0.36164740221E+02  0.46700000000E-02 0.  1.
       1023    2    1    2    0    0  0.00000000000E+00  0.00000000000E+00 -0.33399437577E+02  0.38930046506E+02  0.20000652252E+02 0.  0.
        -11    1    3    3    0    0  0.97181781444E+01  0.23581503882E+01 -0.16800157018E+02  0.19551192695E+02  0.51100000000E-03 0.  1.
         11    1    3    3    0    0 -0.97181781444E+01 -0.23581503882E+01 -0.16599280559E+02  0.19378853811E+02  0.51100000000E-03 0. -1.
<mgrwt>
<rscale>  0 0.20000652E+02</rscale>
<asrwt>0</asrwt>
<pdfrwt beam="2">  1        1 0.55638061E-02 0.20000652E+02</pdfrwt>
<pdfrwt beam="1">  1       -1 0.42543148E-03 0.20000652E+02</pdfrwt>
<totfact> 0.40863914E+06</totfact>
</mgrwt>
</event>
<event>
 5    1  0.9932533E-007  0.2000093E+02  0.7818608E-02  0.1745310E+00
         -1   -1    0    0    0  501 -0.00000000000E+00  0.00000000000E+00  0.19853682747E+01  0.19853737671E+01  0.46700000000E-02 0.  1.
          1   -1    0    0  501    0  0.00000000000E+00 -0.00000000000E+00 -0.50373075161E+02  0.50373075378E+02  0.46700000000E-02 0. -1.
       1023    2    1    2    0    0  0.00000000000E+00  0.00000000000E+00 -0.48387706886E+02  0.52358449145E+02  0.20000925456E+02 0.  0.
        -11    1    3    3    0    0 -0.87616203004E+01  0.48209711803E+01 -0.24092429042E+02  0.26085491960E+02  0.51100000000E-03 0. -1.
         11    1    3    3    0    0  0.87616203004E+01 -0.48209711803E+01 -0.24295277845E+02  0.26272957185E+02  0.51100000000E-03 0.  1.
<mgrwt>
<rscale>  0 0.20000925E+02</rscale>
<asrwt>0</asrwt>
<pdfrwt beam="2">  1        1 0.77497034E-02 0.20000925E+02</pdfrwt>
<pdfrwt beam="1">  1       -1 0.30544175E-03 0.20000925E+02</pdfrwt>
<totfact> 0.41732389E+06</totfact>
</mgrwt>
</event>
<event>
 5    1  0.9583198E-007  0.2000037E+02  0.7818608E-02  0.1745321E+00
          1   -1    0    0  501    0  0.00000000000E+00  0.00000000000E+00  0.20570415344E+01  0.20570468354E+01  0.46700000000E-02 0. -1.
         -1   -1    0    0    0  501 -0.00000000000E+00 -0.00000000000E+00 -0.48615224128E+02  0.48615224352E+02  0.46700000000E-02 0.  1.
       1023    2    1    2    0    0  0.00000000000E+00  0.00000000000E+00 -0.46558182593E+02  0.50672271187E+02  0.20000367519E+02 0.  0.
        -11    1    3    3    0    0  0.73568654781E+01  0.67734838956E+01 -0.23306985499E+02  0.25361765062E+02  0.51100000000E-03 0. -1.
         11    1    3    3    0    0 -0.73568654781E+01 -0.67734838956E+01 -0.23251197095E+02  0.25310506126E+02  0.51100000000E-03 0.  1.
<mgrwt>
<rscale>  0 0.20000368E+02</rscale>
<asrwt>0</asrwt>
<pdfrwt beam="1">  1        1 0.31646839E-03 0.20000368E+02</pdfrwt>
<pdfrwt beam="2">  1       -1 0.74792648E-02 0.20000368E+02</pdfrwt>
<totfact> 0.35027266E+06</totfact>
</mgrwt>
</event>
<event>
 5    1  0.9583198E-007  0.2000264E+02  0.7818608E-02  0.1745276E+00
          1   -1    0    0  501    0  0.00000000000E+00  0.00000000000E+00  0.75847073301E+01  0.75847087678E+01  0.46700000000E-02 0. -1.
         -1   -1    0    0    0  501 -0.00000000000E+00 -0.00000000000E+00 -0.13187904087E+02  0.13187904914E+02  0.46700000000E-02 0.  1.
       1023    2    1    2    0    0  0.00000000000E+00  0.00000000000E+00 -0.56031967572E+01  0.20772613682E+02  0.20002641458E+02 0.  0.
        -11    1    3    3    0    0  0.94403479912E+01  0.33015158478E+01 -0.27195707269E+01  0.10364180734E+02  0.51100000000E-03 0.  1.
         11    1    3    3    0    0 -0.94403479912E+01 -0.33015158478E+01 -0.28836260303E+01  0.10408432948E+02  0.51100000000E-03 0. -1.
<mgrwt>
<rscale>  0 0.20002641E+02</rscale>
<asrwt>0</asrwt>
<pdfrwt beam="1">  1        1 0.11668782E-02 0.20002641E+02</pdfrwt>
<pdfrwt beam="2">  1       -1 0.20289085E-02 0.20002641E+02</pdfrwt>
<totfact> 0.38169595E+06</totfact>
</mgrwt>
</event>
<event>
 5    1  0.9598562E-007  0.2000148E+02  0.7818608E-02  0.1745299E+00
         -1   -1    0    0    0  501 -0.00000000000E+00  0.00000000000E+00  0.26049708363E+02  0.26049708782E+02  0.46700000000E-02 0. -1.
          1   -1    0    0  501    0  0.00000000000E+00 -0.00000000000E+00 -0.38393798956E+01  0.38393827358E+01  0.46700000000E-02 0.  1.
       1023    2    1    2    0    0  0.00000000000E+00  0.00000000000E+00  0.22210328468E+02  0.29889091518E+02  0.20001477473E+02 0.  0.
        -11    1    3    3    0    0  0.17961863935E+01 -0.98381141072E+01  0.11104389720E+02  0.14943970224E+02  0.51100000000E-03 0. -1.
         11    1    3    3    0    0 -0.17961863935E+01  0.98381141072E+01  0.11105938747E+02  0.14945121293E+02  0.51100000000E-03 0.  1.
<mgrwt>
<rscale>  0 0.20001477E+02</rscale>
<asrwt>0</asrwt>
<pdfrwt beam="2">  1        1 0.59067409E-03 0.20001477E+02</pdfrwt>
<pdfrwt beam="1">  1       -1 0.40076477E-02 0.20001477E+02</pdfrwt>
<totfact> 0.36830490E+06</totfact>
</mgrwt>
</event>
<event>
 5    1  0.9583198E-007  0.2000507E+02  0.7818608E-02  0.1745227E+00
         -1   -1    0    0    0  501 -0.00000000000E+00  0.00000000000E+00  0.28122161687E+01  0.28122200463E+01  0.46700000000E-02 0.  1.
          1   -1    0    0  501    0  0.00000000000E+00 -0.00000000000E+00 -0.35577161167E+02  0.35577161474E+02  0.46700000000E-02 0. -1.
       1023    2    1    2    0    0  0.00000000000E+00  0.00000000000E+00 -0.32764944998E+02  0.38389381520E+02  0.20005074175E+02 0.  0.
        -11    1    3    3    0    0  0.20973042377E+01  0.97791288341E+01 -0.16106365025E+02  0.18959035851E+02  0.51100000000E-03 0. -1.
         11    1    3    3    0    0 -0.20973042377E+01 -0.97791288341E+01 -0.16658579973E+02  0.19430345669E+02  0.51100000000E-03 0.  1.
<mgrwt>
<rscale>  0 0.20005074E+02</rscale>
<asrwt>0</asrwt>
<pdfrwt beam="2">  1        1 0.54734094E-02 0.20005074E+02</pdfrwt>
<pdfrwt beam="1">  1       -1 0.43264899E-03 0.20005074E+02</pdfrwt>
<totfact> 0.40805780E+06</totfact>
</mgrwt>
</event>
<event>
 5    1  0.1010888E-006  0.2000137E+02  0.7818608E-02  0.1745301E+00
         -1   -1    0    0    0  501 -0.00000000000E+00  0.00000000000E+00  0.13526509242E+01  0.13526589857E+01  0.46700000000E-02 0. -1.
          1   -1    0    0  501    0  0.00000000000E+00 -0.00000000000E+00 -0.73938824174E+02  0.73938824321E+02  0.46700000000E-02 0.  1.
       1023    2    1    2    0    0  0.00000000000E+00  0.00000000000E+00 -0.72586173249E+02  0.75291483307E+02  0.20001372742E+02 0.  0.
        -11    1    3    3    0    0  0.54306863330E+01 -0.83976311088E+01 -0.36421589384E+02  0.37769627160E+02  0.51100000000E-03 0. -1.
         11    1    3    3    0    0 -0.54306863330E+01  0.83976311088E+01 -0.36164583865E+02  0.37521856147E+02  0.51100000000E-03 0.  1.
<mgrwt>
<rscale>  0 0.20001373E+02</rscale>
<asrwt>0</asrwt>
<pdfrwt beam="2">  1        1 0.11375201E-01 0.20001373E+02</pdfrwt>
<pdfrwt beam="1">  1       -1 0.20810083E-03 0.20001373E+02</pdfrwt>
<totfact> 0.43036722E+06</totfact>
</mgrwt>
</event>
<event>
 5    1  0.1002456E-006  0.2000082E+02  0.7818608E-02  0.1745312E+00
          1   -1    0    0  501    0  0.00000000000E+00  0.00000000000E+00  0.64196097795E+02  0.64196097964E+02  0.46700000000E-02 0.  1.
         -1   -1    0    0    0  501 -0.00000000000E+00 -0.00000000000E+00 -0.15578507536E+01  0.15578577533E+01  0.46700000000E-02 0. -1.
       1023    2    1    2    0    0  0.00000000000E+00  0.00000000000E+00  0.62638247041E+02  0.65753955718E+02  0.20000817487E+02 0.  0.
        -11    1    3    3    0    0  0.53006799994E+01  0.84799267858E+01  0.31179333196E+02  0.32743811409E+02  0.51100000000E-03 0.  1.
         11    1    3    3    0    0 -0.53006799994E+01 -0.84799267858E+01  0.31458913845E+02  0.33010144309E+02  0.51100000000E-03 0. -1.
<mgrwt>
<rscale>  0 0.20000817E+02</rscale>
<asrwt>0</asrwt>
<pdfrwt beam="1">  1        1 0.98763204E-02 0.20000817E+02</pdfrwt>
<pdfrwt beam="2">  1       -1 0.23966997E-03 0.20000817E+02</pdfrwt>
<totfact> 0.42515188E+06</totfact>
</mgrwt>
</event>
<event>
 5    1  0.9583198E-007  0.2000918E+02  0.7818608E-02  0.1745146E+00
          1   -1    0    0  501    0  0.00000000000E+00  0.00000000000E+00  0.93667224980E+01  0.93667236622E+01  0.46700000000E-02 0.  1.
         -1   -1    0    0    0  501 -0.00000000000E+00 -0.00000000000E+00 -0.10685898121E+02  0.10685899141E+02  0.46700000000E-02 0. -1.
       1023    2    1    2    0    0  0.00000000000E+00  0.00000000000E+00 -0.13191756227E+01  0.20052622803E+02  0.20009184315E+02 0.  0.
        -11    1    3    3    0    0  0.68572152493E+01 -0.72804565374E+01 -0.40326780036E+00  0.10009449213E+02  0.51100000000E-03 0.  1.
         11    1    3    3    0    0 -0.68572152493E+01  0.72804565374E+01 -0.91590782233E+00  0.10043173590E+02  0.51100000000E-03 0. -1.
<mgrwt>
<rscale>  0 0.20009184E+02</rscale>
<asrwt>0</asrwt>
<pdfrwt beam="1">  1        1 0.14410344E-02 0.20009184E+02</pdfrwt>
<pdfrwt beam="2">  1       -1 0.16439845E-02 0.20009184E+02</pdfrwt>
<totfact> 0.38481883E+06</totfact>
</mgrwt>
</event>
<event>
 4    1  0.9583198E-007  0.2002685E+02  0.7818608E-02  0.1744795E+00
          1   -1    0    0  501    0  0.00000000000E+00  0.00000000000E+00  0.99417244076E+01  0.99417255044E+01  0.46700000000E-02 0.  1.
         -1   -1    0    0    0  501 -0.00000000000E+00 -0.00000000000E+00 -0.10085641172E+02  0.10085642253E+02  0.46700000000E-02 0. -1.
        -11    1    1    2    0    0 -0.71392715342E+01 -0.70172633747E+01  0.16784614535E+00  0.10011960642E+02  0.51100000000E-03 0.  1.
         11    1    1    2    0    0  0.71392715342E+01  0.70172633747E+01 -0.31176290936E+00  0.10015407115E+02  0.51100000000E-03 0. -1.
<mgrwt>
<rscale>  0 0.20026851E+02</rscale>
<asrwt>0</asrwt>
<pdfrwt beam="1">  1        1 0.15294962E-02 0.20026851E+02</pdfrwt>
<pdfrwt beam="2">  1       -1 0.15516373E-02 0.20026851E+02</pdfrwt>
<totfact> 0.38497671E+06</totfact>
</mgrwt>
</event>
<event>
 5    1  0.1000814E-006  0.2000084E+02  0.7818608E-02  0.1745311E+00
         -1   -1    0    0    0  501 -0.00000000000E+00  0.00000000000E+00  0.12303370361E+01  0.12303458990E+01  0.46700000000E-02 0.  1.
          1   -1    0    0  501    0  0.00000000000E+00 -0.00000000000E+00 -0.81285048564E+02  0.81285048698E+02  0.46700000000E-02 0. -1.
       1023    2    1    2    0    0  0.00000000000E+00  0.00000000000E+00 -0.80054711528E+02  0.82515394597E+02  0.20000837675E+02 0.  0.
        -11    1    3    3    0    0 -0.86189166552E+01 -0.50717298304E+01 -0.40086982129E+02  0.41315545552E+02  0.51100000000E-03 0. -1.
         11    1    3    3    0    0  0.86189166552E+01  0.50717298304E+01 -0.39967729399E+02  0.41199849045E+02  0.51100000000E-03 0.  1.
<mgrwt>
<rscale>  0 0.20000838E+02</rscale>
<asrwt>0</asrwt>
<pdfrwt beam="2">  1        1 0.12505389E-01 0.20000838E+02</pdfrwt>
<pdfrwt beam="1">  1       -1 0.18928338E-03 0.20000838E+02</pdfrwt>
<totfact> 0.43421556E+06</totfact>
</mgrwt>
</event>
<event>
 5    1  0.9583198E-007  0.2000034E+02  0.7818608E-02  0.1745321E+00
         -1   -1    0    0    0  501 -0.00000000000E+00  0.00000000000E+00  0.85800481712E+00  0.85801752611E+00  0.46700000000E-02 0.  1.
          1   -1    0    0  501    0  0.00000000000E+00 -0.00000000000E+00 -0.11655253567E+03  0.11655253577E+03  0.46700000000E-02 0. -1.
       1023    2    1    2    0    0  0.00000000000E+00  0.00000000000E+00 -0.11569453086E+03  0.11741055329E+03  0.20000338860E+02 0.  0.
        -11    1    3    3    0    0 -0.81968460477E+01 -0.57282884062E+01 -0.58097374385E+02  0.58951730118E+02  0.51100000000E-03 0. -1.
         11    1    3    3    0    0  0.81968460477E+01  0.57282884062E+01 -0.57597156472E+02  0.58458823176E+02  0.51100000000E-03 0.  1.
<mgrwt>
<rscale>  0 0.20000339E+02</rscale>
<asrwt>0</asrwt>
<pdfrwt beam="2">  1        1 0.17931148E-01 0.20000339E+02</pdfrwt>
<pdfrwt beam="1">  1       -1 0.13200182E-03 0.20000339E+02</pdfrwt>
<totfact> 0.45140609E+06</totfact>
</mgrwt>
</event>
<event>
 5    1  0.9583198E-007  0.2000027E+02  0.7818608E-02  0.1745323E+00
          1   -1    0    0  501    0  0.00000000000E+00  0.00000000000E+00  0.21251505917E+01  0.21251557229E+01  0.46700000000E-02 0. -1.
         -1   -1    0    0    0  501 -0.00000000000E+00 -0.00000000000E+00 -0.47056719386E+02  0.47056719618E+02  0.46700000000E-02 0.  1.
       1023    2    1    2    0    0  0.00000000000E+00  0.00000000000E+00 -0.44931568794E+02  0.49181875341E+02  0.20000274691E+02 0.  0.
        -11    1    3    3    0    0 -0.63043098449E+01 -0.77626082711E+01 -0.22510918303E+02  0.24632171096E+02  0.51100000000E-03 0. -1.
         11    1    3    3    0    0  0.63043098449E+01  0.77626082711E+01 -0.22420650491E+02  0.24549704244E+02  0.51100000000E-03 0.  1.
<mgrwt>
<rscale>  0 0.20000275E+02</rscale>
<asrwt>0</asrwt>
<pdfrwt beam="1">  1        1 0.32694669E-03 0.20000275E+02</pdfrwt>
<pdfrwt beam="2">  1       -1 0.72394949E-02 0.20000275E+02</pdfrwt>
<totfact> 0.35140419E+06</totfact>
</mgrwt>
</event>
<event>
 5    1  0.9583198E-007  0.2000317E+02  0.7818608E-02  0.1745265E+00
         -1   -1    0    0    0  501 -0.00000000000E+00  0.00000000000E+00  0.43968211981E+01  0.43968236782E+01  0.46700000000E-02 0.  1.
          1   -1    0    0  501    0  0.00000000000E+00 -0.00000000000E+00 -0.22750895571E+02  0.22750896050E+02  0.46700000000E-02 0. -1.
       1023    2    1    2    0    0  0.00000000000E+00  0.00000000000E+00 -0.18354074372E+02  0.27147719728E+02  0.20003165759E+02 0.  0.
        -11    1    3    3    0    0 -0.92850611134E+01 -0.37170301762E+01 -0.91028678078E+01  0.13523715310E+02  0.51100000000E-03 0. -1.
         11    1    3    3    0    0  0.92850611134E+01  0.37170301762E+01 -0.92512065647E+01  0.13624004418E+02  0.51100000000E-03 0.  1.
<mgrwt>
<rscale>  0 0.20003166E+02</rscale>
<asrwt>0</asrwt>
<pdfrwt beam="2">  1        1 0.35001379E-02 0.20003166E+02</pdfrwt>
<pdfrwt beam="1">  1       -1 0.67643427E-03 0.20003166E+02</pdfrwt>
<totfact> 0.39913858E+06</totfact>
</mgrwt>
</event>
<event>
 5    1  0.9583198E-007  0.2000054E+02  0.7818608E-02  0.1745317E+00
          1   -1    0    0  501    0  0.00000000000E+00  0.00000000000E+00  0.42350089277E+01  0.42350115025E+01  0.46700000000E-02 0. -1.
         -1   -1    0    0    0  501 -0.00000000000E+00 -0.00000000000E+00 -0.23613957170E+02  0.23613957631E+02  0.46700000000E-02 0.  1.
       1023    2    1    2    0    0  0.00000000000E+00  0.00000000000E+00 -0.19378948242E+02  0.27848969134E+02  0.20000536164E+02 0.  0.
        -11    1    3    3    0    0 -0.81763765309E+00 -0.99665710182E+01 -0.97806984269E+01  0.13987963796E+02  0.51100000000E-03 0. -1.
         11    1    3    3    0    0  0.81763765309E+00  0.99665710182E+01 -0.95982498151E+01  0.13861005337E+02  0.51100000000E-03 0.  1.
<mgrwt>
<rscale>  0 0.20000536E+02</rscale>
<asrwt>0</asrwt>
<pdfrwt beam="1">  1        1 0.65154008E-03 0.20000536E+02</pdfrwt>
<pdfrwt beam="2">  1       -1 0.36329167E-02 0.20000536E+02</pdfrwt>
<totfact> 0.37060280E+06</totfact>
</mgrwt>
</event>
<event>
 5    1  0.9583198E-007  0.2001039E+02  0.7818608E-02  0.1745121E+00
         -1   -1    0    0    0  501 -0.00000000000E+00  0.00000000000E+00  0.66697346453E+01  0.66697362802E+01  0.46700000000E-02 0.  1.
          1   -1    0    0  501    0  0.00000000000E+00 -0.00000000000E+00 -0.15008681634E+02  0.15008682361E+02  0.46700000000E-02 0. -1.
       1023    2    1    2    0    0  0.00000000000E+00  0.00000000000E+00 -0.83389469890E+01  0.21678418641E+02  0.20010392247E+02 0.  0.
        -11    1    3    3    0    0  0.70327192827E+01 -0.71161242585E+01 -0.40885165705E+01  0.10808067958E+02  0.51100000000E-03 0. -1.
         11    1    3    3    0    0 -0.70327192827E+01  0.71161242585E+01 -0.42504304185E+01  0.10870350683E+02  0.51100000000E-03 0.  1.
<mgrwt>
<rscale>  0 0.20010392E+02</rscale>
<asrwt>0</asrwt>
<pdfrwt beam="2">  1        1 0.23090281E-02 0.20010392E+02</pdfrwt>
<pdfrwt beam="1">  1       -1 0.10261132E-02 0.20010392E+02</pdfrwt>
<totfact> 0.39199687E+06</totfact>
</mgrwt>
</event>
<event>
 5    1  0.9583198E-007  0.2000455E+02  0.7818608E-02  0.1745238E+00
         -1   -1    0    0    0  501 -0.00000000000E+00  0.00000000000E+00  0.76605375713E+01  0.76605389948E+01  0.46700000000E-02 0.  1.
          1   -1    0    0  501    0  0.00000000000E+00 -0.00000000000E+00 -0.13059855401E+02  0.13059856236E+02  0.46700000000E-02 0. -1.
       1023    2    1    2    0    0  0.00000000000E+00  0.00000000000E+00 -0.53993178296E+01  0.20720395231E+02  0.20004553119E+02 0.  0.
        -11    1    3    3    0    0 -0.74997389515E+01 -0.66175025180E+01 -0.27929496246E+01  0.10384507296E+02  0.51100000000E-03 0. -1.
         11    1    3    3    0    0  0.74997389515E+01  0.66175025180E+01 -0.26063682050E+01  0.10335887935E+02  0.51100000000E-03 0.  1.
<mgrwt>
<rscale>  0 0.20004553E+02</rscale>
<asrwt>0</asrwt>
<pdfrwt beam="2">  1        1 0.20092087E-02 0.20004553E+02</pdfrwt>
<pdfrwt beam="1">  1       -1 0.11785444E-02 0.20004553E+02</pdfrwt>
<totfact> 0.39012352E+06</totfact>
</mgrwt>
</event>
<event>
 4    1  0.9583198E-007  0.2001482E+02  0.7818608E-02  0.1745034E+00
         -1   -1    0    0    0  501 -0.00000000000E+00  0.00000000000E+00  0.41762499965E+02  0.41762500226E+02  0.46700000000E-02 0. -1.
          1   -1    0    0  501    0  0.00000000000E+00 -0.00000000000E+00 -0.23980400686E+01  0.23980446158E+01  0.46700000000E-02 0.  1.
        -11    1    1    2    0    0 -0.95833709045E+01  0.28820898391E+01  0.19745197412E+02  0.22136401262E+02  0.51100000000E-03 0.  1.
         11    1    1    2    0    0  0.95833709045E+01 -0.28820898391E+01  0.19619262485E+02  0.22024143580E+02  0.51100000000E-03 0. -1.
<mgrwt>
<rscale>  0 0.20014820E+02</rscale>
<asrwt>0</asrwt>
<pdfrwt beam="2">  1        1 0.36892964E-03 0.20014820E+02</pdfrwt>
<pdfrwt beam="1">  1       -1 0.64249999E-02 0.20014820E+02</pdfrwt>
<totfact> 0.35477915E+06</totfact>
</mgrwt>
</event>
<event>
 4    1  0.9583198E-007  0.2004007E+02  0.7818608E-02  0.1744532E+00
         -1   -1    0    0    0  501 -0.00000000000E+00  0.00000000000E+00  0.13848249201E+02  0.13848249988E+02  0.46700000000E-02 0. -1.
          1   -1    0    0  501    0  0.00000000000E+00 -0.00000000000E+00 -0.72500892663E+01  0.72500907703E+01  0.46700000000E-02 0.  1.
        -11    1    1    2    0    0  0.43845807227E+01 -0.89884344231E+01  0.39519612121E+01  0.10753348277E+02  0.51100000000E-03 0. -1.
         11    1    1    2    0    0 -0.43845807227E+01  0.89884344231E+01  0.26461987223E+01  0.10344992481E+02  0.51100000000E-03 0.  1.
<mgrwt>
<rscale>  0 0.20040067E+02</rscale>
<asrwt>0</asrwt>
<pdfrwt beam="2">  1        1 0.11153985E-02 0.20040067E+02</pdfrwt>
<pdfrwt beam="1">  1       -1 0.21305000E-02 0.20040067E+02</pdfrwt>
<totfact> 0.37931337E+06</totfact>
</mgrwt>
</event>
<event>
 5    1  0.9583198E-007  0.2000041E+02  0.7818608E-02  0.1745320E+00
         -1   -1    0    0    0  501 -0.00000000000E+00  0.00000000000E+00  0.25731145381E+02  0.25731145804E+02  0.46700000000E-02 0. -1.
          1   -1    0    0  501    0  0.00000000000E+00 -0.00000000000E+00 -0.38864964102E+01  0.38864992159E+01  0.46700000000E-02 0.  1.
       1023    2    1    2    0    0  0.00000000000E+00  0.00000000000E+00  0.21844648970E+02  0.29617645020E+02  0.20000405194E+02 0.  0.
        -11    1    3    3    0    0  0.86339501354E+01 -0.50454761451E+01  0.10854024527E+02  0.14758447519E+02  0.51100000000E-03 0.  1.
         11    1    3    3    0    0 -0.86339501354E+01  0.50454761451E+01  0.10990624443E+02  0.14859197501E+02  0.51100000000E-03 0. -1.
<mgrwt>
<rscale>  0 0.20000405E+02</rscale>
<asrwt>0</asrwt>
<pdfrwt beam="2">  1        1 0.59792279E-03 0.20000405E+02</pdfrwt>
<pdfrwt beam="1">  1       -1 0.39586379E-02 0.20000405E+02</pdfrwt>
<totfact> 0.36863886E+06</totfact>
</mgrwt>
</event>
<event>
 5    1  0.9899236E-007  0.2000111E+02  0.7818608E-02  0.1745306E+00
         -1   -1    0    0    0  501 -0.00000000000E+00  0.00000000000E+00  0.13631684208E+01  0.13631764201E+01  0.46700000000E-02 0. -1.
          1   -1    0    0  501    0  0.00000000000E+00 -0.00000000000E+00 -0.73366397690E+02  0.73366397838E+02  0.46700000000E-02 0.  1.
       1023    2    1    2    0    0  0.00000000000E+00  0.00000000000E+00 -0.72003229269E+02  0.74729574258E+02  0.20001106062E+02 0.  0.
        -11    1    3    3    0    0  0.89954487208E+01 -0.43695202968E+01 -0.35941910036E+02  0.37307260722E+02  0.51100000000E-03 0. -1.
         11    1    3    3    0    0 -0.89954487208E+01  0.43695202968E+01 -0.36061319233E+02  0.37422313536E+02  0.51100000000E-03 0.  1.
<mgrwt>
<rscale>  0 0.20001106E+02</rscale>
<asrwt>0</asrwt>
<pdfrwt beam="2">  1        1 0.11287136E-01 0.20001106E+02</pdfrwt>
<pdfrwt beam="1">  1       -1 0.20971890E-03 0.20001106E+02</pdfrwt>
<totfact> 0.43007777E+06</totfact>
</mgrwt>
</event>
<event>
 5    1  0.9590810E-007  0.2000150E+02  0.7818608E-02  0.1745298E+00
          1   -1    0    0  501    0  0.00000000000E+00  0.00000000000E+00  0.57374326647E+01  0.57374345652E+01  0.46700000000E-02 0.  1.
         -1   -1    0    0    0  501 -0.00000000000E+00 -0.00000000000E+00 -0.17432010164E+02  0.17432010789E+02  0.46700000000E-02 0. -1.
       1023    2    1    2    0    0  0.00000000000E+00  0.00000000000E+00 -0.11694577499E+02  0.23169445355E+02  0.20001501323E+02 0.  0.
        -11    1    3    3    0    0 -0.92823973028E+01 -0.37210168649E+01 -0.59381118651E+01  0.11630564861E+02  0.51100000000E-03 0. -1.
         11    1    3    3    0    0  0.92823973028E+01  0.37210168649E+01 -0.57564656341E+01  0.11538880494E+02  0.51100000000E-03 0.  1.
<mgrwt>
<rscale>  0 0.20001501E+02</rscale>
<asrwt>0</asrwt>
<pdfrwt beam="1">  1        1 0.88268215E-03 0.20001501E+02</pdfrwt>
<pdfrwt beam="2">  1       -1 0.26818479E-02 0.20001501E+02</pdfrwt>
<totfact> 0.37679863E+06</totfact>
</mgrwt>
</event>
<event>
 5    1  0.9772436E-007  0.2000194E+02  0.7818608E-02  0.1745289E+00
          1   -1    0    0  501    0  0.00000000000E+00  0.00000000000E+00  0.96374272543E+02  0.96374272656E+02  0.46700000000E-02 0. -1.
         -1   -1    0    0    0  501 -0.00000000000E+00 -0.00000000000E+00 -0.10378176453E+01  0.10378281524E+01  0.46700000000E-02 0.  1.
       1023    2    1    2    0    0  0.00000000000E+00  0.00000000000E+00  0.95336454898E+02  0.97412100809E+02  0.20001943693E+02 0.  0.
        -11    1    3    3    0    0 -0.31712963338E+01  0.94846457428E+01  0.47367526633E+02  0.48411756888E+02  0.51100000000E-03 0. -1.
         11    1    3    3    0    0  0.31712963338E+01 -0.94846457428E+01  0.47968928264E+02  0.49000343921E+02  0.51100000000E-03 0.  1.
<mgrwt>
<rscale>  0 0.20001944E+02</rscale>
<asrwt>0</asrwt>
<pdfrwt beam="1">  1        1 0.14826820E-01 0.20001944E+02</pdfrwt>
<pdfrwt beam="2">  1       -1 0.15966498E-03 0.20001944E+02</pdfrwt>
<totfact> 0.44174321E+06</totfact>
</mgrwt>
</event>
<event>
 5    1  0.9822568E-007  0.2000176E+02  0.7818608E-02  0.1745293E+00
          1   -1    0    0  501    0  0.00000000000E+00  0.00000000000E+00  0.22510816954E+02  0.22510817438E+02  0.46700000000E-02 0.  1.
         -1   -1    0    0    0  501 -0.00000000000E+00 -0.00000000000E+00 -0.44430901888E+01  0.44430926430E+01  0.46700000000E-02 0. -1.
       1023    2    1    2    0    0  0.00000000000E+00  0.00000000000E+00  0.18067726765E+02  0.26953910081E+02  0.20001762878E+02 0.  0.
        -11    1    3    3    0    0 -0.73761916536E+01  0.67534084600E+01  0.89934326643E+01  0.13449853549E+02  0.51100000000E-03 0.  1.
         11    1    3    3    0    0  0.73761916536E+01 -0.67534084600E+01  0.90742941004E+01  0.13504056532E+02  0.51100000000E-03 0. -1.
<mgrwt>
<rscale>  0 0.20001763E+02</rscale>
<asrwt>0</asrwt>
<pdfrwt beam="1">  1        1 0.34632028E-02 0.20001763E+02</pdfrwt>
<pdfrwt beam="2">  1       -1 0.68355256E-03 0.20001763E+02</pdfrwt>
<totfact> 0.39901355E+06</totfact>
</mgrwt>
</event>
<event>
 5    1  0.9583198E-007  0.2000051E+02  0.7818608E-02  0.1745318E+00
         -1   -1    0    0    0  501 -0.00000000000E+00  0.00000000000E+00  0.29464285708E+01  0.29464322717E+01  0.46700000000E-02 0.  1.
          1   -1    0    0  501    0  0.00000000000E+00 -0.00000000000E+00 -0.33941116066E+02  0.33941116387E+02  0.46700000000E-02 0. -1.
       1023    2    1    2    0    0  0.00000000000E+00  0.00000000000E+00 -0.30994687495E+02  0.36887548659E+02  0.20000514822E+02 0.  0.
        -11    1    3    3    0    0  0.98710825201E+01 -0.16015079340E+01 -0.15413833193E+02  0.18373604756E+02  0.51100000000E-03 0.  1.
         11    1    3    3    0    0 -0.98710825201E+01  0.16015079340E+01 -0.15580854302E+02  0.18513943903E+02  0.51100000000E-03 0. -1.
<mgrwt>
<rscale>  0 0.20000515E+02</rscale>
<asrwt>0</asrwt>
<pdfrwt beam="2">  1        1 0.52217102E-02 0.20000515E+02</pdfrwt>
<pdfrwt beam="1">  1       -1 0.45329704E-03 0.20000515E+02</pdfrwt>
<totfact> 0.40719553E+06</totfact>
</mgrwt>
</event>
<event>
 4    1  0.9583198E-007  0.2879269E+02  0.7818608E-02  0.1611830E+00
          1   -1    0    0  501    0  0.00000000000E+00  0.00000000000E+00  0.93807439279E+02  0.93807439395E+02  0.46700000000E-02 0. -1.
         -1   -1    0    0    0  501 -0.00000000000E+00 -0.00000000000E+00 -0.22093615702E+01  0.22093665058E+01  0.46700000000E-02 0.  1.
        -11    1    1    2    0    0 -0.12811356097E+02  0.64659007828E+01  0.41973387471E+02  0.44358809430E+02  0.51100000000E-03 0.  1.
         11    1    1    2    0    0  0.12811356097E+02 -0.64659007828E+01  0.49624690238E+02  0.51657996471E+02  0.51100000000E-03 0. -1.
<mgrwt>
<rscale>  0 0.28792693E+02</rscale>
<asrwt>0</asrwt>
<pdfrwt beam="1">  1        1 0.14431911E-01 0.28792693E+02</pdfrwt>
<pdfrwt beam="2">  1       -1 0.33990224E-03 0.28792693E+02</pdfrwt>
<totfact> 0.19214719E+06</totfact>
</mgrwt>
</event>
<event>
 5    1  0.9583198E-007  0.2000012E+02  0.7818608E-02  0.1745326E+00
         -1   -1    0    0    0  501 -0.00000000000E+00  0.00000000000E+00  0.38522794855E+01  0.38522823162E+01  0.46700000000E-02 0.  1.
          1   -1    0    0  501    0  0.00000000000E+00 -0.00000000000E+00 -0.25958962949E+02  0.25958963369E+02  0.46700000000E-02 0. -1.
       1023    2    1    2    0    0  0.00000000000E+00  0.00000000000E+00 -0.22106683463E+02  0.29811245685E+02  0.20000122888E+02 0.  0.
        -11    1    3    3    0    0 -0.78613454383E+01  0.61805931844E+01 -0.11094009897E+02  0.14935780531E+02  0.51100000000E-03 0. -1.
         11    1    3    3    0    0  0.78613454383E+01 -0.61805931844E+01 -0.11012673567E+02  0.14875465154E+02  0.51100000000E-03 0.  1.
<mgrwt>
<rscale>  0 0.20000123E+02</rscale>
<asrwt>0</asrwt>
<pdfrwt beam="2">  1        1 0.39936867E-02 0.20000123E+02</pdfrwt>
<pdfrwt beam="1">  1       -1 0.59265865E-03 0.20000123E+02</pdfrwt>
<totfact> 0.40169596E+06</totfact>
</mgrwt>
</event>
<event>
 5    1  0.9583198E-007  0.2000027E+02  0.7818608E-02  0.1745323E+00
          1   -1    0    0  501    0  0.00000000000E+00  0.00000000000E+00  0.25209109030E+02  0.25209109463E+02  0.46700000000E-02 0. -1.
         -1   -1    0    0    0  501 -0.00000000000E+00 -0.00000000000E+00 -0.39669269763E+01  0.39669297251E+01  0.46700000000E-02 0.  1.
       1023    2    1    2    0    0  0.00000000000E+00  0.00000000000E+00  0.21242182054E+02  0.29176039188E+02  0.20000274105E+02 0.  0.
        -11    1    3    3    0    0  0.32371999988E+01 -0.94616349272E+01  0.10581368166E+02  0.14559098593E+02  0.51100000000E-03 0. -1.
         11    1    3    3    0    0 -0.32371999988E+01  0.94616349272E+01  0.10660813888E+02  0.14616940594E+02  0.51100000000E-03 0.  1.
<mgrwt>
<rscale>  0 0.20000274E+02</rscale>
<asrwt>0</asrwt>
<pdfrwt beam="1">  1        1 0.38783246E-02 0.20000274E+02</pdfrwt>
<pdfrwt beam="2">  1       -1 0.61029671E-03 0.20000274E+02</pdfrwt>
<totfact> 0.40113652E+06</totfact>
</mgrwt>
</event>
<event>
 4    1  0.9583198E-007  0.2003844E+02  0.7818608E-02  0.1744565E+00
          1   -1    0    0  501    0  0.00000000000E+00  0.00000000000E+00  0.12189310613E+02  0.12189311507E+02  0.46700000000E-02 0. -1.
         -1   -1    0    0    0  501 -0.00000000000E+00 -0.00000000000E+00 -0.82354757578E+01  0.82354770819E+01  0.46700000000E-02 0.  1.
        -11    1    1    2    0    0 -0.28795078974E+01  0.95898626938E+01  0.16125874917E+01  0.10141867229E+02  0.51100000000E-03 0. -1.
         11    1    1    2    0    0  0.28795078974E+01 -0.95898626938E+01  0.23412473632E+01  0.10282921360E+02  0.51100000000E-03 0.  1.
<mgrwt>
<rscale>  0 0.20038443E+02</rscale>
<asrwt>0</asrwt>
<pdfrwt beam="1">  1        1 0.18752787E-02 0.20038443E+02</pdfrwt>
<pdfrwt beam="2">  1       -1 0.12669964E-02 0.20038443E+02</pdfrwt>
<totfact> 0.38758846E+06</totfact>
</mgrwt>
</event>
<event>
 5    1  0.9583198E-007  0.2000537E+02  0.7818608E-02  0.1745221E+00
         -1   -1    0    0    0  501 -0.00000000000E+00  0.00000000000E+00  0.10734236989E+02  0.10734238005E+02  0.46700000000E-02 0.  1.
          1   -1    0    0  501    0  0.00000000000E+00 -0.00000000000E+00 -0.93209855129E+01  0.93209866828E+01  0.46700000000E-02 0. -1.
       1023    2    1    2    0    0  0.00000000000E+00  0.00000000000E+00  0.14132514763E+01  0.20055224688E+02  0.20005368218E+02 0.  0.
        -11    1    3    3    0    0  0.31872220583E+01  0.94788944339E+01  0.49193089403E+00  0.10012483229E+02  0.51100000000E-03 0. -1.
         11    1    3    3    0    0 -0.31872220583E+01 -0.94788944339E+01  0.92132058225E+00  0.10042741459E+02  0.51100000000E-03 0.  1.
<mgrwt>
<rscale>  0 0.20005368E+02</rscale>
<asrwt>0</asrwt>
<pdfrwt beam="2">  1        1 0.14339979E-02 0.20005368E+02</pdfrwt>
<pdfrwt beam="1">  1       -1 0.16514212E-02 0.20005368E+02</pdfrwt>
<totfact> 0.38490858E+06</totfact>
</mgrwt>
</event>
<event>
 5    1  0.9583198E-007  0.2000018E+02  0.7818608E-02  0.1745325E+00
          1   -1    0    0  501    0  0.00000000000E+00  0.00000000000E+00  0.85859671255E+02  0.85859671382E+02  0.46700000000E-02 0.  1.
         -1   -1    0    0    0  501 -0.00000000000E+00 -0.00000000000E+00 -0.11647072343E+01  0.11647165967E+01  0.46700000000E-02 0. -1.
       1023    2    1    2    0    0  0.00000000000E+00  0.00000000000E+00  0.84694964020E+02  0.87024387978E+02  0.20000179314E+02 0.  0.
        -11    1    3    3    0    0 -0.93297623570E+01 -0.35996132781E+01  0.42301536925E+02  0.43467478738E+02  0.51100000000E-03 0.  1.
         11    1    3    3    0    0  0.93297623570E+01  0.35996132781E+01  0.42393427095E+02  0.43556909240E+02  0.51100000000E-03 0. -1.
<mgrwt>
<rscale>  0 0.20000179E+02</rscale>
<asrwt>0</asrwt>
<pdfrwt beam="1">  1        1 0.13209183E-01 0.20000179E+02</pdfrwt>
<pdfrwt beam="2">  1       -1 0.17918643E-03 0.20000179E+02</pdfrwt>
<totfact> 0.43658253E+06</totfact>
</mgrwt>
</event>
<event>
 5    1  0.9954582E-007  0.2000067E+02  0.7818608E-02  0.1745315E+00
          1   -1    0    0  501    0  0.00000000000E+00  0.00000000000E+00  0.99085007762E+02  0.99085007872E+02  0.46700000000E-02 0.  1.
         -1   -1    0    0    0  501 -0.00000000000E+00 -0.00000000000E+00 -0.10092962690E+01  0.10093070729E+01  0.46700000000E-02 0. -1.
       1023    2    1    2    0    0  0.00000000000E+00  0.00000000000E+00  0.98075711493E+02  0.10009431495E+03  0.20000667475E+02 0.  0.
        -11    1    3    3    0    0  0.96716008930E+01  0.25424048131E+01  0.48764269737E+02  0.49779088876E+02  0.51100000000E-03 0. -1.
         11    1    3    3    0    0 -0.96716008930E+01 -0.25424048131E+01  0.49311441756E+02  0.50315226069E+02  0.51100000000E-03 0.  1.
<mgrwt>
<rscale>  0 0.20000667E+02</rscale>
<asrwt>0</asrwt>
<pdfrwt beam="1">  1        1 0.15243846E-01 0.20000667E+02</pdfrwt>
<pdfrwt beam="2">  1       -1 0.15527721E-03 0.20000667E+02</pdfrwt>
<totfact> 0.44312962E+06</totfact>
</mgrwt>
</event>
<event>
 4    1  0.9583198E-007  0.2004040E+02  0.7818608E-02  0.1744526E+00
          1   -1    0    0  501    0  0.00000000000E+00  0.00000000000E+00  0.15693508758E+01  0.15693578241E+01  0.46700000000E-02 0.  1.
         -1   -1    0    0    0  501 -0.00000000000E+00 -0.00000000000E+00 -0.63978139447E+02  0.63978139617E+02  0.46700000000E-02 0. -1.
        -11    1    1    2    0    0  0.24679521188E+01  0.97089347834E+01 -0.30471713489E+02  0.32076151975E+02  0.51100000000E-03 0.  1.
         11    1    1    2    0    0 -0.24679521188E+01 -0.97089347834E+01 -0.31937075082E+02  0.33471345467E+02  0.51100000000E-03 0. -1.
<mgrwt>
<rscale>  0 0.20040397E+02</rscale>
<asrwt>0</asrwt>
<pdfrwt beam="1">  1        1 0.24143919E-03 0.20040397E+02</pdfrwt>
<pdfrwt beam="2">  1       -1 0.98427892E-02 0.20040397E+02</pdfrwt>
<totfact> 0.33832467E+06</totfact>
</mgrwt>
</event>
<event>
 5    1  0.9583198E-007  0.2000015E+02  0.7818608E-02  0.1745325E+00
         -1   -1    0    0    0  501 -0.00000000000E+00  0.00000000000E+00  0.17136098024E+01  0.17136161658E+01  0.46700000000E-02 0.  1.
          1   -1    0    0  501    0  0.00000000000E+00 -0.00000000000E+00 -0.58357103129E+02  0.58357103316E+02  0.46700000000E-02 0. -1.
       1023    2    1    2    0    0  0.00000000000E+00  0.00000000000E+00 -0.56643493327E+02  0.60070719482E+02  0.20000150070E+02 0.  0.
        -11    1    3    3    0    0 -0.73609142957E+00  0.99728873139E+01 -0.28218202943E+02  0.29937723520E+02  0.51100000000E-03 0.  1.
         11    1    3    3    0    0  0.73609142957E+00 -0.99728873139E+01 -0.28425290384E+02  0.30132995962E+02  0.51100000000E-03 0. -1.
<mgrwt>
<rscale>  0 0.20000150E+02</rscale>
<asrwt>0</asrwt>
<pdfrwt beam="2">  1        1 0.89780149E-02 0.20000150E+02</pdfrwt>
<pdfrwt beam="1">  1       -1 0.26363283E-03 0.20000150E+02</pdfrwt>
<totfact> 0.42193743E+06</totfact>
</mgrwt>
</event>
<event>
 5    1  0.9905763E-007  0.2000239E+02  0.7818608E-02  0.1745281E+00
          1   -1    0    0  501    0  0.00000000000E+00  0.00000000000E+00  0.28479922124E+02  0.28479922507E+02  0.46700000000E-02 0. -1.
         -1   -1    0    0    0  501 -0.00000000000E+00 -0.00000000000E+00 -0.35120820708E+01  0.35120851756E+01  0.46700000000E-02 0.  1.
       1023    2    1    2    0    0  0.00000000000E+00  0.00000000000E+00  0.24967840054E+02  0.31992007683E+02  0.20002387823E+02 0.  0.
        -11    1    3    3    0    0 -0.62107170115E+01  0.78377997191E+01  0.12708801568E+02  0.16171510375E+02  0.51100000000E-03 0.  1.
         11    1    3    3    0    0  0.62107170115E+01 -0.78377997191E+01  0.12259038485E+02  0.15820497308E+02  0.51100000000E-03 0. -1.
<mgrwt>
<rscale>  0 0.20002388E+02</rscale>
<asrwt>0</asrwt>
<pdfrwt beam="1">  1        1 0.43815268E-02 0.20002388E+02</pdfrwt>
<pdfrwt beam="2">  1       -1 0.54032059E-03 0.20002388E+02</pdfrwt>
<totfact> 0.40340168E+06</totfact>
</mgrwt>
</event>
<event>
 5    1  0.9583198E-007  0.2000387E+02  0.7818608E-02  0.1745251E+00
          1   -1    0    0  501    0  0.00000000000E+00  0.00000000000E+00  0.18957035793E+02  0.18957036368E+02  0.46700000000E-02 0.  1.
         -1   -1    0    0    0  501 -0.00000000000E+00 -0.00000000000E+00 -0.52771261193E+01  0.52771281857E+01  0.46700000000E-02 0. -1.
       1023    2    1    2    0    0  0.00000000000E+00  0.00000000000E+00  0.13679909674E+02  0.24234164554E+02  0.20003869699E+02 0.  0.
        -11    1    3    3    0    0 -0.80453466870E+01 -0.59422831788E+01  0.68167215874E+01  0.12103967372E+02  0.51100000000E-03 0.  1.
         11    1    3    3    0    0  0.80453466870E+01  0.59422831788E+01  0.68631880861E+01  0.12130197181E+02  0.51100000000E-03 0. -1.
<mgrwt>
<rscale>  0 0.20003870E+02</rscale>
<asrwt>0</asrwt>
<pdfrwt beam="1">  1        1 0.29164672E-02 0.20003870E+02</pdfrwt>
<pdfrwt beam="2">  1       -1 0.81186577E-03 0.20003870E+02</pdfrwt>
<totfact> 0.39599816E+06</totfact>
</mgrwt>
</event>
<event>
 5    1  0.9583198E-007  0.2000459E+02  0.7818608E-02  0.1745237E+00
          1   -1    0    0  501    0  0.00000000000E+00  0.00000000000E+00  0.14349834198E+01  0.14349910188E+01  0.46700000000E-02 0.  1.
         -1   -1    0    0    0  501 -0.00000000000E+00 -0.00000000000E+00 -0.69718998270E+02  0.69718998426E+02  0.46700000000E-02 0. -1.
       1023    2    1    2    0    0  0.00000000000E+00  0.00000000000E+00 -0.68284014850E+02  0.71153989445E+02  0.20004587721E+02 0.  0.
        -11    1    3    3    0    0 -0.97972375811E+01 -0.20088255931E+01 -0.33583704412E+02  0.35041210692E+02  0.51100000000E-03 0. -1.
         11    1    3    3    0    0  0.97972375811E+01  0.20088255931E+01 -0.34700310438E+02  0.36112778753E+02  0.51100000000E-03 0.  1.
<mgrwt>
<rscale>  0 0.20004588E+02</rscale>
<asrwt>0</asrwt>
<pdfrwt beam="1">  1        1 0.22076733E-03 0.20004588E+02</pdfrwt>
<pdfrwt beam="2">  1       -1 0.10725998E-01 0.20004588E+02</pdfrwt>
<totfact> 0.33601058E+06</totfact>
</mgrwt>
</event>
<event>
 5    1  0.9583198E-007  0.2000004E+02  0.7818608E-02  0.1745327E+00
          1   -1    0    0  501    0  0.00000000000E+00  0.00000000000E+00  0.53895189620E+02  0.53895189822E+02  0.46700000000E-02 0.  1.
         -1   -1    0    0    0  501 -0.00000000000E+00 -0.00000000000E+00 -0.18554571202E+01  0.18554629972E+01  0.46700000000E-02 0. -1.
       1023    2    1    2    0    0  0.00000000000E+00  0.00000000000E+00  0.52039732500E+02  0.55750652820E+02  0.20000038279E+02 0.  0.
        -11    1    3    3    0    0  0.67690602530E+01 -0.73607200385E+01  0.26012850733E+02  0.27868777866E+02  0.51100000000E-03 0. -1.
         11    1    3    3    0    0 -0.67690602530E+01  0.73607200385E+01  0.26026881767E+02  0.27881874954E+02  0.51100000000E-03 0.  1.
<mgrwt>
<rscale>  0 0.20000038E+02</rscale>
<asrwt>0</asrwt>
<pdfrwt beam="1">  1        1 0.82915672E-02 0.20000038E+02</pdfrwt>
<pdfrwt beam="2">  1       -1 0.28545544E-03 0.20000038E+02</pdfrwt>
<totfact> 0.41940666E+06</totfact>
</mgrwt>
</event>
<event>
 5    1  0.1005519E-006  0.2000079E+02  0.7818608E-02  0.1745312E+00
         -1   -1    0    0    0  501 -0.00000000000E+00  0.00000000000E+00  0.16617230011E+01  0.16617295632E+01  0.46700000000E-02 0.  1.
          1   -1    0    0  501    0  0.00000000000E+00 -0.00000000000E+00 -0.60183108178E+02  0.60183108359E+02  0.46700000000E-02 0. -1.
       1023    2    1    2    0    0  0.00000000000E+00  0.00000000000E+00 -0.58521385176E+02  0.61844837922E+02  0.20000786350E+02 0.  0.
        -11    1    3    3    0    0  0.60246596077E+01 -0.79815201439E+01 -0.29513343577E+02  0.31161492849E+02  0.51100000000E-03 0.  1.
         11    1    3    3    0    0 -0.60246596077E+01  0.79815201439E+01 -0.29008041599E+02  0.30683345073E+02  0.51100000000E-03 0. -1.
<mgrwt>
<rscale>  0 0.20000786E+02</rscale>
<asrwt>0</asrwt>
<pdfrwt beam="2">  1        1 0.92589386E-02 0.20000786E+02</pdfrwt>
<pdfrwt beam="1">  1       -1 0.25565026E-03 0.20000786E+02</pdfrwt>
<totfact> 0.42293162E+06</totfact>
</mgrwt>
</event>
<event>
 5    1  0.9583198E-007  0.2000021E+02  0.7818608E-02  0.1745324E+00
          1   -1    0    0  501    0  0.00000000000E+00  0.00000000000E+00  0.55229980831E+01  0.55230000575E+01  0.46700000000E-02 0.  1.
         -1   -1    0    0    0  501 -0.00000000000E+00 -0.00000000000E+00 -0.18106486857E+02  0.18106487459E+02  0.46700000000E-02 0. -1.
       1023    2    1    2    0    0  0.00000000000E+00  0.00000000000E+00 -0.12583488774E+02  0.23629487516E+02  0.20000212263E+02 0.  0.
        -11    1    3    3    0    0 -0.88294071228E+01 -0.46950687317E+01 -0.62862220277E+01  0.11811802918E+02  0.51100000000E-03 0. -1.
         11    1    3    3    0    0  0.88294071228E+01  0.46950687317E+01 -0.62972667459E+01  0.11817684598E+02  0.51100000000E-03 0.  1.
<mgrwt>
<rscale>  0 0.20000212E+02</rscale>
<asrwt>0</asrwt>
<pdfrwt beam="1">  1        1 0.84969222E-03 0.20000212E+02</pdfrwt>
<pdfrwt beam="2">  1       -1 0.27856135E-02 0.20000212E+02</pdfrwt>
<totfact> 0.37612812E+06</totfact>
</mgrwt>
</event>
<event>
 5    1  0.9583198E-007  0.2000013E+02  0.7818608E-02  0.1745326E+00
          1   -1    0    0  501    0  0.00000000000E+00  0.00000000000E+00  0.15761216142E+02  0.15761216834E+02  0.46700000000E-02 0.  1.
         -1   -1    0    0    0  501 -0.00000000000E+00 -0.00000000000E+00 -0.63447687058E+01  0.63447704245E+01  0.46700000000E-02 0. -1.
       1023    2    1    2    0    0  0.00000000000E+00  0.00000000000E+00  0.94164474362E+01  0.22105987258E+02  0.20000129758E+02 0.  0.
        -11    1    3    3    0    0  0.97991193753E+01  0.19944487948E+01  0.47381034156E+01  0.11065721430E+02  0.51100000000E-03 0. -1.
         11    1    3    3    0    0 -0.97991193753E+01 -0.19944487948E+01  0.46783440206E+01  0.11040265828E+02  0.51100000000E-03 0.  1.
<mgrwt>
<rscale>  0 0.20000130E+02</rscale>
<asrwt>0</asrwt>
<pdfrwt beam="1">  1        1 0.24248027E-02 0.20000130E+02</pdfrwt>
<pdfrwt beam="2">  1       -1 0.97611846E-03 0.20000130E+02</pdfrwt>
<totfact> 0.39321014E+06</totfact>
</mgrwt>
</event>
<event>
 5    1  0.9583198E-007  0.2000044E+02  0.7818608E-02  0.1745319E+00
          1   -1    0    0  501    0  0.00000000000E+00  0.00000000000E+00  0.62465957732E+02  0.62465957906E+02  0.46700000000E-02 0. -1.
         -1   -1    0    0    0  501 -0.00000000000E+00 -0.00000000000E+00 -0.16009381845E+01  0.16009449958E+01  0.46700000000E-02 0.  1.
       1023    2    1    2    0    0  0.00000000000E+00  0.00000000000E+00  0.60865019547E+02  0.64066902902E+02  0.20000436070E+02 0.  0.
        -11    1    3    3    0    0 -0.95203537770E+00  0.99547184673E+01  0.30559407933E+02  0.32154007598E+02  0.51100000000E-03 0. -1.
         11    1    3    3    0    0  0.95203537770E+00 -0.99547184673E+01  0.30305611614E+02  0.31912895304E+02  0.51100000000E-03 0.  1.
<mgrwt>
<rscale>  0 0.20000436E+02</rscale>
<asrwt>0</asrwt>
<pdfrwt beam="1">  1        1 0.96101467E-02 0.20000436E+02</pdfrwt>
<pdfrwt beam="2">  1       -1 0.24629875E-03 0.20000436E+02</pdfrwt>
<totfact> 0.42421666E+06</totfact>
</mgrwt>
</event>
<event>
 5    1  0.9661554E-007  0.2000104E+02  0.7818608E-02  0.1745307E+00
         -1   -1    0    0    0  501 -0.00000000000E+00  0.00000000000E+00  0.98353195973E+01  0.98353207060E+01  0.46700000000E-02 0.  1.
          1   -1    0    0  501    0  0.00000000000E+00 -0.00000000000E+00 -0.10168491431E+02  0.10168492503E+02  0.46700000000E-02 0. -1.
       1023    2    1    2    0    0  0.00000000000E+00  0.00000000000E+00 -0.33317183335E+00  0.20003813209E+02  0.20001038459E+02 0.  0.
        -11    1    3    3    0    0  0.22418394598E+00 -0.99976818646E+01 -0.24711719609E+00  0.10003247886E+02  0.51100000000E-03 0. -1.
         11    1    3    3    0    0 -0.22418394598E+00  0.99976818646E+01 -0.86054637255E-01  0.10000565323E+02  0.51100000000E-03 0.  1.
<mgrwt>
<rscale>  0 0.20001038E+02</rscale>
<asrwt>0</asrwt>
<pdfrwt beam="2">  1        1 0.15643835E-02 0.20001038E+02</pdfrwt>
<pdfrwt beam="1">  1       -1 0.15131263E-02 0.20001038E+02</pdfrwt>
<totfact> 0.38645274E+06</totfact>
</mgrwt>
</event>
<event>
 5    1  0.9583198E-007  0.2000029E+02  0.7818608E-02  0.1745322E+00
          1   -1    0    0  501    0  0.00000000000E+00  0.00000000000E+00  0.13317324448E+01  0.13317406330E+01  0.46700000000E-02 0. -1.
         -1   -1    0    0    0  501 -0.00000000000E+00 -0.00000000000E+00 -0.75092081322E+02  0.75092081468E+02  0.46700000000E-02 0.  1.
       1023    2    1    2    0    0  0.00000000000E+00  0.00000000000E+00 -0.73760348878E+02  0.76423822101E+02  0.20000287946E+02 0.  0.
        -11    1    3    3    0    0 -0.35517945468E+00 -0.99937301927E+01 -0.37054596234E+02  0.38380254011E+02  0.51100000000E-03 0.  1.
         11    1    3    3    0    0  0.35517945468E+00  0.99937301927E+01 -0.36705752643E+02  0.38043568090E+02  0.51100000000E-03 0. -1.
<mgrwt>
<rscale>  0 0.20000288E+02</rscale>
<asrwt>0</asrwt>
<pdfrwt beam="1">  1        1 0.20488261E-03 0.20000288E+02</pdfrwt>
<pdfrwt beam="2">  1       -1 0.11552625E-01 0.20000288E+02</pdfrwt>
<totfact> 0.33286158E+06</totfact>
</mgrwt>
</event>
<event>
 5    1  0.9583198E-007  0.2000070E+02  0.7818608E-02  0.1745314E+00
          1   -1    0    0  501    0  0.00000000000E+00  0.00000000000E+00  0.17848242109E+01  0.17848303205E+01  0.46700000000E-02 0.  1.
         -1   -1    0    0    0  501 -0.00000000000E+00 -0.00000000000E+00 -0.56031751035E+02  0.56031751230E+02  0.46700000000E-02 0. -1.
       1023    2    1    2    0    0  0.00000000000E+00  0.00000000000E+00 -0.54246926824E+02  0.57816581550E+02  0.20000700795E+02 0.  0.
        -11    1    3    3    0    0  0.92995815849E+00  0.99570139458E+01 -0.27145651651E+02  0.28929109090E+02  0.51100000000E-03 0.  1.
         11    1    3    3    0    0 -0.92995815849E+00 -0.99570139458E+01 -0.27101275173E+02  0.28887472461E+02  0.51100000000E-03 0. -1.
<mgrwt>
<rscale>  0 0.20000701E+02</rscale>
<asrwt>0</asrwt>
<pdfrwt beam="1">  1        1 0.27458887E-03 0.20000701E+02</pdfrwt>
<pdfrwt beam="2">  1       -1 0.86202685E-02 0.20000701E+02</pdfrwt>
<totfact> 0.34507182E+06</totfact>
</mgrwt>
</event>
<event>
 5    1  0.9805313E-007  0.2000061E+02  0.7818608E-02  0.1745316E+00
         -1   -1    0    0    0  501 -0.00000000000E+00  0.00000000000E+00  0.99736379053E+00  0.99737472375E+00  0.46700000000E-02 0.  1.
          1   -1    0    0  501    0  0.00000000000E+00 -0.00000000000E+00 -0.10026986926E+03  0.10026986937E+03  0.46700000000E-02 0. -1.
       1023    2    1    2    0    0  0.00000000000E+00  0.00000000000E+00 -0.99272505472E+02  0.10126724409E+03  0.20000609589E+02 0.  0.
        -11    1    3    3    0    0  0.99581992084E+01  0.91410040269E+00 -0.49286023029E+02  0.50290291084E+02  0.51100000000E-03 0. -1.
         11    1    3    3    0    0 -0.99581992084E+01 -0.91410040269E+00 -0.49986482443E+02  0.50976953011E+02  0.51100000000E-03 0.  1.
<mgrwt>
<rscale>  0 0.20000610E+02</rscale>
<asrwt>0</asrwt>
<pdfrwt beam="2">  1        1 0.15426127E-01 0.20000610E+02</pdfrwt>
<pdfrwt beam="1">  1       -1 0.15344151E-03 0.20000610E+02</pdfrwt>
<totfact> 0.44370773E+06</totfact>
</mgrwt>
</event>
<event>
 4    1  0.9583198E-007  0.2002080E+02  0.7818608E-02  0.1744915E+00
          1   -1    0    0  501    0  0.00000000000E+00  0.00000000000E+00  0.15845244319E+01  0.15845313137E+01  0.46700000000E-02 0. -1.
         -1   -1    0    0    0  501 -0.00000000000E+00 -0.00000000000E+00 -0.63241627354E+02  0.63241627526E+02  0.46700000000E-02 0.  1.
        -11    1    1    2    0    0 -0.77262296196E+00 -0.99723642442E+01 -0.32136363380E+02  0.33656958366E+02  0.51100000000E-03 0.  1.
         11    1    1    2    0    0  0.77262296196E+00  0.99723642442E+01 -0.29520739542E+02  0.31169200475E+02  0.51100000000E-03 0. -1.
<mgrwt>
<rscale>  0 0.20020802E+02</rscale>
<asrwt>0</asrwt>
<pdfrwt beam="1">  1        1 0.24377358E-03 0.20020802E+02</pdfrwt>
<pdfrwt beam="2">  1       -1 0.97294797E-02 0.20020802E+02</pdfrwt>
<totfact> 0.33952851E+06</totfact>
</mgrwt>
</event>
<event>
 5    1  0.9583198E-007  0.2000052E+02  0.7818608E-02  0.1745318E+00
          1   -1    0    0  501    0  0.00000000000E+00  0.00000000000E+00  0.23758392592E+02  0.23758393051E+02  0.46700000000E-02 0.  1.
         -1   -1    0    0    0  501 -0.00000000000E+00 -0.00000000000E+00 -0.42092569607E+01  0.42092595512E+01  0.46700000000E-02 0. -1.
       1023    2    1    2    0    0  0.00000000000E+00  0.00000000000E+00  0.19549135631E+02  0.27967652602E+02  0.20000522197E+02 0.  0.
        -11    1    3    3    0    0 -0.99302575203E+01  0.11809865385E+01  0.97439906134E+01  0.13962453114E+02  0.51100000000E-03 0.  1.
         11    1    3    3    0    0  0.99302575203E+01 -0.11809865385E+01  0.98051450180E+01  0.14005199488E+02  0.51100000000E-03 0. -1.
<mgrwt>
<rscale>  0 0.20000522E+02</rscale>
<asrwt>0</asrwt>
<pdfrwt beam="1">  1        1 0.36551375E-02 0.20000522E+02</pdfrwt>
<pdfrwt beam="2">  1       -1 0.64757824E-03 0.20000522E+02</pdfrwt>
<totfact> 0.40003389E+06</totfact>
</mgrwt>
</event>
<event>
 5    1  0.9583198E-007  0.2000022E+02  0.7818608E-02  0.1745324E+00
          1   -1    0    0  501    0  0.00000000000E+00  0.00000000000E+00  0.67577407949E+01  0.67577424085E+01  0.46700000000E-02 0. -1.
         -1   -1    0    0    0  501 -0.00000000000E+00 -0.00000000000E+00 -0.14798159706E+02  0.14798160443E+02  0.46700000000E-02 0.  1.
       1023    2    1    2    0    0  0.00000000000E+00  0.00000000000E+00 -0.80404189112E+01  0.21555902852E+02  0.20000215286E+02 0.  0.
        -11    1    3    3    0    0 -0.33172715957E+01 -0.94338646112E+01 -0.40118424270E+01  0.10774830498E+02  0.51100000000E-03 0.  1.
         11    1    3    3    0    0  0.33172715957E+01  0.94338646112E+01 -0.40285764842E+01  0.10781072354E+02  0.51100000000E-03 0. -1.
<mgrwt>
<rscale>  0 0.20000215E+02</rscale>
<asrwt>0</asrwt>
<pdfrwt beam="1">  1        1 0.10396526E-02 0.20000215E+02</pdfrwt>
<pdfrwt beam="2">  1       -1 0.22766401E-02 0.20000215E+02</pdfrwt>
<totfact> 0.37982730E+06</totfact>
</mgrwt>
</event>
<event>
 5    1  0.9583198E-007  0.2000027E+02  0.7818608E-02  0.1745323E+00
         -1   -1    0    0    0  501 -0.00000000000E+00  0.00000000000E+00  0.40984714812E+01  0.40984741418E+01  0.46700000000E-02 0. -1.
          1   -1    0    0  501    0  0.00000000000E+00 -0.00000000000E+00 -0.24400000021E+02  0.24400000468E+02  0.46700000000E-02 0.  1.
       1023    2    1    2    0    0  0.00000000000E+00  0.00000000000E+00 -0.20301528540E+02  0.28498474610E+02  0.20000274849E+02 0.  0.
        -11    1    3    3    0    0 -0.21128819795E+01  0.97742856643E+01 -0.10090013549E+02  0.14205960164E+02  0.51100000000E-03 0. -1.
         11    1    3    3    0    0  0.21128819795E+01 -0.97742856643E+01 -0.10211514991E+02  0.14292514445E+02  0.51100000000E-03 0.  1.
<mgrwt>
<rscale>  0 0.20000275E+02</rscale>
<asrwt>0</asrwt>
<pdfrwt beam="2">  1        1 0.37538463E-02 0.20000275E+02</pdfrwt>
<pdfrwt beam="1">  1       -1 0.63053433E-03 0.20000275E+02</pdfrwt>
<totfact> 0.40053154E+06</totfact>
</mgrwt>
</event>
<event>
 5    1  0.9583198E-007  0.2000019E+02  0.7818608E-02  0.1745324E+00
         -1   -1    0    0    0  501 -0.00000000000E+00  0.00000000000E+00  0.85418795349E+00  0.85420071926E+00  0.46700000000E-02 0. -1.
          1   -1    0    0  501    0  0.00000000000E+00 -0.00000000000E+00 -0.11707160460E+03  0.11707160470E+03  0.46700000000E-02 0.  1.
       1023    2    1    2    0    0  0.00000000000E+00  0.00000000000E+00 -0.11621741665E+03  0.11792580542E+03  0.20000191254E+02 0.  0.
        -11    1    3    3    0    0  0.99887431600E+01  0.47451070436E+00 -0.58356207001E+02  0.59206815876E+02  0.51100000000E-03 0.  1.
         11    1    3    3    0    0 -0.99887431600E+01 -0.47451070436E+00 -0.57861209651E+02  0.58718989542E+02  0.51100000000E-03 0. -1.
<mgrwt>
<rscale>  0 0.20000191E+02</rscale>
<asrwt>0</asrwt>
<pdfrwt beam="2">  1        1 0.18011004E-01 0.20000191E+02</pdfrwt>
<pdfrwt beam="1">  1       -1 0.13141461E-03 0.20000191E+02</pdfrwt>
<totfact> 0.45165232E+06</totfact>
</mgrwt>
</event>
<event>
 5    1  0.9583198E-007  0.2000118E+02  0.7818608E-02  0.1745305E+00
          1   -1    0    0  501    0  0.00000000000E+00  0.00000000000E+00  0.80247191776E+01  0.80247205364E+01  0.46700000000E-02 0. -1.
         -1   -1    0    0    0  501 -0.00000000000E+00 -0.00000000000E+00 -0.12462961035E+02  0.12462961910E+02  0.46700000000E-02 0.  1.
       1023    2    1    2    0    0  0.00000000000E+00  0.00000000000E+00 -0.44382418573E+01  0.20487682446E+02  0.20001178496E+02 0.  0.
        -11    1    3    3    0    0  0.43709146188E+01 -0.89948156681E+01 -0.22053195228E+01  0.10240851428E+02  0.51100000000E-03 0. -1.
         11    1    3    3    0    0 -0.43709146188E+01  0.89948156681E+01 -0.22329223344E+01  0.10246831018E+02  0.51100000000E-03 0.  1.
<mgrwt>
<rscale>  0 0.20001178E+02</rscale>
<asrwt>0</asrwt>
<pdfrwt beam="1">  1        1 0.12345724E-02 0.20001178E+02</pdfrwt>
<pdfrwt beam="2">  1       -1 0.19173788E-02 0.20001178E+02</pdfrwt>
<totfact> 0.38269215E+06</totfact>
</mgrwt>
</event>
<event>
 5    1  0.9583198E-007  0.2000032E+02  0.7818608E-02  0.1745322E+00
         -1   -1    0    0    0  501 -0.00000000000E+00  0.00000000000E+00  0.17224943533E+01  0.17225006839E+01  0.46700000000E-02 0. -1.
          1   -1    0    0  501    0  0.00000000000E+00 -0.00000000000E+00 -0.58057096129E+02  0.58057096317E+02  0.46700000000E-02 0.  1.
       1023    2    1    2    0    0  0.00000000000E+00  0.00000000000E+00 -0.56334601776E+02  0.59779597001E+02  0.20000321506E+02 0.  0.
        -11    1    3    3    0    0 -0.90487066462E+01  0.42570658059E+01 -0.28051017227E+02  0.29780216066E+02  0.51100000000E-03 0.  1.
         11    1    3    3    0    0  0.90487066462E+01 -0.42570658059E+01 -0.28283584549E+02  0.29999380934E+02  0.51100000000E-03 0. -1.
<mgrwt>
<rscale>  0 0.20000322E+02</rscale>
<asrwt>0</asrwt>
<pdfrwt beam="2">  1        1 0.89318599E-02 0.20000322E+02</pdfrwt>
<pdfrwt beam="1">  1       -1 0.26499968E-03 0.20000322E+02</pdfrwt>
<totfact> 0.42176035E+06</totfact>
</mgrwt>
</event>
<event>
 4    1  0.9583198E-007  0.2001521E+02  0.7818608E-02  0.1745026E+00
          1   -1    0    0  501    0  0.00000000000E+00  0.00000000000E+00  0.12806301453E+02  0.12806302304E+02  0.46700000000E-02 0.  1.
         -1   -1    0    0    0  501 -0.00000000000E+00 -0.00000000000E+00 -0.78205335036E+01  0.78205348979E+01  0.46700000000E-02 0. -1.
        -11    1    1    2    0    0 -0.58360534179E+01  0.81256179684E+01  0.27595290574E+01  0.10377870097E+02  0.51100000000E-03 0. -1.
         11    1    1    2    0    0  0.58360534179E+01 -0.81256179684E+01  0.22262388917E+01  0.10248967105E+02  0.51100000000E-03 0.  1.
<mgrwt>
<rscale>  0 0.20015207E+02</rscale>
<asrwt>0</asrwt>
<pdfrwt beam="1">  1        1 0.19702004E-02 0.20015207E+02</pdfrwt>
<pdfrwt beam="2">  1       -1 0.12031592E-02 0.20015207E+02</pdfrwt>
<totfact> 0.38935664E+06</totfact>
</mgrwt>
</event>
<event>
 5    1  0.9884800E-007  0.2000192E+02  0.7818608E-02  0.1745290E+00
          1   -1    0    0  501    0  0.00000000000E+00  0.00000000000E+00  0.55663174997E+02  0.55663175193E+02  0.46700000000E-02 0. -1.
         -1   -1    0    0    0  501 -0.00000000000E+00 -0.00000000000E+00 -0.17968612188E+01  0.17968672874E+01  0.46700000000E-02 0.  1.
       1023    2    1    2    0    0  0.00000000000E+00  0.00000000000E+00  0.53866313778E+02  0.57460042480E+02  0.20001917952E+02 0.  0.
        -11    1    3    3    0    0 -0.42326826451E+01 -0.90602328407E+01  0.27293780577E+02  0.29068090408E+02  0.51100000000E-03 0.  1.
         11    1    3    3    0    0  0.42326826451E+01  0.90602328407E+01  0.26572533201E+02  0.28391952073E+02  0.51100000000E-03 0. -1.
<mgrwt>
<rscale>  0 0.20001918E+02</rscale>
<asrwt>0</asrwt>
<pdfrwt beam="1">  1        1 0.85635659E-02 0.20001918E+02</pdfrwt>
<pdfrwt beam="2">  1       -1 0.27644067E-03 0.20001918E+02</pdfrwt>
<totfact> 0.42033015E+06</totfact>
</mgrwt>
</event>
<event>
 4    1  0.9583198E-007  0.2001282E+02  0.7818608E-02  0.1745073E+00
         -1   -1    0    0    0  501 -0.00000000000E+00  0.00000000000E+00  0.11364464274E+02  0.11364465233E+02  0.46700000000E-02 0.  1.
          1   -1    0    0  501    0  0.00000000000E+00 -0.00000000000E+00 -0.88106393698E+01  0.88106406075E+01  0.46700000000E-02 0. -1.
        -11    1    1    2    0    0  0.85981687739E+01 -0.51140529849E+01  0.14935364605E+01  0.10114973832E+02  0.51100000000E-03 0.  1.
         11    1    1    2    0    0 -0.85981687739E+01  0.51140529849E+01  0.10602884436E+01  0.10060132009E+02  0.51100000000E-03 0. -1.
<mgrwt>
<rscale>  0 0.20012818E+02</rscale>
<asrwt>0</asrwt>
<pdfrwt beam="2">  1        1 0.13554832E-02 0.20012818E+02</pdfrwt>
<pdfrwt beam="1">  1       -1 0.17483793E-02 0.20012818E+02</pdfrwt>
<totfact> 0.38369363E+06</totfact>
</mgrwt>
</event>
<event>
 5    1  0.9583198E-007  0.2000031E+02  0.7818608E-02  0.1745322E+00
         -1   -1    0    0    0  501 -0.00000000000E+00  0.00000000000E+00  0.24937096671E+01  0.24937140398E+01  0.46700000000E-02 0.  1.
          1   -1    0    0  501    0  0.00000000000E+00 -0.00000000000E+00 -0.40102100669E+02  0.40102100941E+02  0.46700000000E-02 0. -1.
       1023    2    1    2    0    0  0.00000000000E+00  0.00000000000E+00 -0.37608391002E+02  0.42595814981E+02  0.20000309501E+02 0.  0.
        -11    1    3    3    0    0  0.96281363570E+01  0.27020411051E+01 -0.18734890725E+02  0.21236717415E+02  0.51100000000E-03 0.  1.
         11    1    3    3    0    0 -0.96281363570E+01 -0.27020411051E+01 -0.18873500277E+02  0.21359097566E+02  0.51100000000E-03 0. -1.
<mgrwt>
<rscale>  0 0.20000310E+02</rscale>
<asrwt>0</asrwt>
<pdfrwt beam="2">  1        1 0.61695538E-02 0.20000310E+02</pdfrwt>
<pdfrwt beam="1">  1       -1 0.38364803E-03 0.20000310E+02</pdfrwt>
<totfact> 0.41115345E+06</totfact>
</mgrwt>
</event>
<event>
 5    1  0.9583198E-007  0.2000663E+02  0.7818608E-02  0.1745196E+00
          1   -1    0    0  501    0  0.00000000000E+00  0.00000000000E+00  0.16803855690E+02  0.16803856339E+02  0.46700000000E-02 0. -1.
         -1   -1    0    0    0  501 -0.00000000000E+00 -0.00000000000E+00 -0.59549579285E+01  0.59549597597E+01  0.46700000000E-02 0.  1.
       1023    2    1    2    0    0  0.00000000000E+00  0.00000000000E+00  0.10848897761E+02  0.22758816098E+02  0.20006627091E+02 0.  0.
        -11    1    3    3    0    0  0.85264237272E+01 -0.52286125989E+01  0.52341308592E+01  0.11288685371E+02  0.51100000000E-03 0. -1.
         11    1    3    3    0    0 -0.85264237272E+01  0.52286125989E+01  0.56147669020E+01  0.11470130728E+02  0.51100000000E-03 0.  1.
<mgrwt>
<rscale>  0 0.20006627E+02</rscale>
<asrwt>0</asrwt>
<pdfrwt beam="1">  1        1 0.25852088E-02 0.20006627E+02</pdfrwt>
<pdfrwt beam="2">  1       -1 0.91614756E-03 0.20006627E+02</pdfrwt>
<totfact> 0.39393025E+06</totfact>
</mgrwt>
</event>
<event>
 5    1  0.1021319E-006  0.2000109E+02  0.7818608E-02  0.1745306E+00
         -1   -1    0    0    0  501 -0.00000000000E+00  0.00000000000E+00  0.11696158962E+01  0.11696252193E+01  0.46700000000E-02 0.  1.
          1   -1    0    0  501    0  0.00000000000E+00 -0.00000000000E+00 -0.85507122631E+02  0.85507122759E+02  0.46700000000E-02 0. -1.
       1023    2    1    2    0    0  0.00000000000E+00  0.00000000000E+00 -0.84337506735E+02  0.86676747978E+02  0.20001089915E+02 0.  0.
        -11    1    3    3    0    0 -0.69091014079E+01  0.72297932696E+01 -0.42484428722E+02  0.43645529863E+02  0.51100000000E-03 0.  1.
         11    1    3    3    0    0  0.69091014079E+01 -0.72297932696E+01 -0.41853078013E+02  0.43031218115E+02  0.51100000000E-03 0. -1.
<mgrwt>
<rscale>  0 0.20001090E+02</rscale>
<asrwt>0</asrwt>
<pdfrwt beam="2">  1        1 0.13154938E-01 0.20001090E+02</pdfrwt>
<pdfrwt beam="1">  1       -1 0.17994170E-03 0.20001090E+02</pdfrwt>
<totfact> 0.43635957E+06</totfact>
</mgrwt>
</event>
<event>
 5    1  0.9583198E-007  0.2000289E+02  0.7818608E-02  0.1745271E+00
         -1   -1    0    0    0  501 -0.00000000000E+00  0.00000000000E+00  0.10650671911E+01  0.10650774294E+01  0.46700000000E-02 0. -1.
          1   -1    0    0  501    0  0.00000000000E+00 -0.00000000000E+00 -0.93917441909E+02  0.93917442026E+02  0.46700000000E-02 0.  1.
       1023    2    1    2    0    0  0.00000000000E+00  0.00000000000E+00 -0.92852374718E+02  0.94982519455E+02  0.20002887571E+02 0.  0.
        -11    1    3    3    0    0 -0.56269476991E+01  0.82683288547E+01 -0.46270493888E+02  0.47339057947E+02  0.51100000000E-03 0.  1.
         11    1    3    3    0    0  0.56269476991E+01 -0.82683288547E+01 -0.46581880831E+02  0.47643461508E+02  0.51100000000E-03 0. -1.
<mgrwt>
<rscale>  0 0.20002888E+02</rscale>
<asrwt>0</asrwt>
<pdfrwt beam="2">  1        1 0.14448831E-01 0.20002888E+02</pdfrwt>
<pdfrwt beam="1">  1       -1 0.16385736E-03 0.20002888E+02</pdfrwt>
<totfact> 0.44048738E+06</totfact>
</mgrwt>
</event>
<event>
 4    1  0.9583198E-007  0.2009066E+02  0.7818608E-02  0.1743531E+00
          1   -1    0    0  501    0  0.00000000000E+00  0.00000000000E+00  0.59386021100E+01  0.59386039462E+01  0.46700000000E-02 0. -1.
         -1   -1    0    0    0  501 -0.00000000000E+00 -0.00000000000E+00 -0.16991991040E+02  0.16991991682E+02  0.46700000000E-02 0.  1.
        -11    1    1    2    0    0 -0.11112451302E+01  0.99762352935E+01 -0.59666210374E+01  0.11677358573E+02  0.51100000000E-03 0.  1.
         11    1    1    2    0    0  0.11112451302E+01 -0.99762352935E+01 -0.50867678929E+01  0.11253237055E+02  0.51100000000E-03 0. -1.
<mgrwt>
<rscale>  0 0.20090665E+02</rscale>
<asrwt>0</asrwt>
<pdfrwt beam="1">  1        1 0.91363129E-03 0.20090665E+02</pdfrwt>
<pdfrwt beam="2">  1       -1 0.26141526E-02 0.20090665E+02</pdfrwt>
<totfact> 0.37361091E+06</totfact>
</mgrwt>
</event>
<event>
 5    1  0.9583198E-007  0.2000091E+02  0.7818608E-02  0.1745310E+00
         -1   -1    0    0    0  501 -0.00000000000E+00  0.00000000000E+00  0.33954093082E+02  0.33954093404E+02  0.46700000000E-02 0. -1.
          1   -1    0    0  501    0  0.00000000000E+00 -0.00000000000E+00 -0.29454189123E+01  0.29454226145E+01  0.46700000000E-02 0.  1.
       1023    2    1    2    0    0  0.00000000000E+00  0.00000000000E+00  0.31008674170E+02  0.36899516018E+02  0.20000910194E+02 0.  0.
        -11    1    3    3    0    0 -0.89371994948E+01  0.44869415256E+01  0.15604077655E+02  0.18533575446E+02  0.51100000000E-03 0.  1.
         11    1    3    3    0    0  0.89371994948E+01 -0.44869415256E+01  0.15404596515E+02  0.18365940572E+02  0.51100000000E-03 0. -1.
<mgrwt>
<rscale>  0 0.20000910E+02</rscale>
<asrwt>0</asrwt>
<pdfrwt beam="2">  1        1 0.45314168E-03 0.20000910E+02</pdfrwt>
<pdfrwt beam="1">  1       -1 0.52237069E-02 0.20000910E+02</pdfrwt>
<totfact> 0.36149666E+06</totfact>
</mgrwt>
</event>
<event>
 5    1  0.9583198E-007  0.2000831E+02  0.7818608E-02  0.1745163E+00
          1   -1    0    0  501    0  0.00000000000E+00  0.00000000000E+00  0.28208197925E+01  0.28208236582E+01  0.46700000000E-02 0.  1.
         -1   -1    0    0    0  501 -0.00000000000E+00 -0.00000000000E+00 -0.35480135556E+02  0.35480135864E+02  0.46700000000E-02 0. -1.
       1023    2    1    2    0    0  0.00000000000E+00  0.00000000000E+00 -0.32659315764E+02  0.38300959522E+02  0.20008313126E+02 0.  0.
        -11    1    3    3    0    0  0.90773627627E+01 -0.42007274387E+01 -0.15953944563E+02  0.18830108155E+02  0.51100000000E-03 0. -1.
         11    1    3    3    0    0 -0.90773627627E+01  0.42007274387E+01 -0.16705371201E+02  0.19470851367E+02  0.51100000000E-03 0.  1.
<mgrwt>
<rscale>  0 0.20008313E+02</rscale>
<asrwt>0</asrwt>
<pdfrwt beam="1">  1        1 0.43397262E-03 0.20008313E+02</pdfrwt>
<pdfrwt beam="2">  1       -1 0.54584824E-02 0.20008313E+02</pdfrwt>
<totfact> 0.35995807E+06</totfact>
</mgrwt>
</event>
<event>
 5    1  0.9583198E-007  0.2000680E+02  0.7818608E-02  0.1745193E+00
          1   -1    0    0  501    0  0.00000000000E+00  0.00000000000E+00  0.29877980339E+02  0.29877980704E+02  0.46700000000E-02 0. -1.
         -1   -1    0    0    0  501 -0.00000000000E+00 -0.00000000000E+00 -0.33492216408E+01  0.33492248966E+01  0.46700000000E-02 0.  1.
       1023    2    1    2    0    0  0.00000000000E+00  0.00000000000E+00  0.26528758698E+02  0.33227205601E+02  0.20006802692E+02 0.  0.
        -11    1    3    3    0    0 -0.98635017364E+01 -0.16668669486E+01  0.13314926002E+02  0.16653959488E+02  0.51100000000E-03 0.  1.
         11    1    3    3    0    0  0.98635017364E+01  0.16668669486E+01  0.13213832697E+02  0.16573246113E+02  0.51100000000E-03 0. -1.
<mgrwt>
<rscale>  0 0.20006803E+02</rscale>
<asrwt>0</asrwt>
<pdfrwt beam="1">  1        1 0.45966129E-02 0.20006803E+02</pdfrwt>
<pdfrwt beam="2">  1       -1 0.51526512E-03 0.20006803E+02</pdfrwt>
<totfact> 0.40417566E+06</totfact>
</mgrwt>
</event>
<event>
 5    1  0.9583198E-007  0.2000024E+02  0.7818608E-02  0.1745323E+00
          1   -1    0    0  501    0  0.00000000000E+00  0.00000000000E+00  0.62444692230E+01  0.62444709693E+01  0.46700000000E-02 0. -1.
         -1   -1    0    0    0  501 -0.00000000000E+00 -0.00000000000E+00 -0.16014558609E+02  0.16014559290E+02  0.46700000000E-02 0.  1.
       1023    2    1    2    0    0  0.00000000000E+00  0.00000000000E+00 -0.97700893864E+01  0.22259030260E+02  0.20000244536E+02 0.  0.
        -11    1    3    3    0    0 -0.70099251247E+01  0.71317038033E+01 -0.49371952694E+01  0.11152405426E+02  0.51100000000E-03 0.  1.
         11    1    3    3    0    0  0.70099251247E+01 -0.71317038033E+01 -0.48328941169E+01  0.11106624834E+02  0.51100000000E-03 0. -1.
<mgrwt>
<rscale>  0 0.20000245E+02</rscale>
<asrwt>0</asrwt>
<pdfrwt beam="1">  1        1 0.96068776E-03 0.20000245E+02</pdfrwt>
<pdfrwt beam="2">  1       -1 0.24637784E-02 0.20000245E+02</pdfrwt>
<totfact> 0.37841976E+06</totfact>
</mgrwt>
</event>
<event>
 5    1  0.9583198E-007  0.2000066E+02  0.7818608E-02  0.1745315E+00
         -1   -1    0    0    0  501 -0.00000000000E+00  0.00000000000E+00  0.15147620290E+02  0.15147621010E+02  0.46700000000E-02 0. -1.
          1   -1    0    0  501    0  0.00000000000E+00 -0.00000000000E+00 -0.66021341076E+01  0.66021357592E+01  0.46700000000E-02 0.  1.
       1023    2    1    2    0    0  0.00000000000E+00  0.00000000000E+00  0.85454861821E+01  0.21749756769E+02  0.20000664624E+02 0.  0.
        -11    1    3    3    0    0  0.99098504852E-01  0.99997687806E+01  0.42313354070E+01  0.10858609292E+02  0.51100000000E-03 0. -1.
         11    1    3    3    0    0 -0.99098504852E-01 -0.99997687806E+01  0.43141507751E+01  0.10891147476E+02  0.51100000000E-03 0.  1.
<mgrwt>
<rscale>  0 0.20000665E+02</rscale>
<asrwt>0</asrwt>
<pdfrwt beam="2">  1        1 0.10157131E-02 0.20000665E+02</pdfrwt>
<pdfrwt beam="1">  1       -1 0.23304033E-02 0.20000665E+02</pdfrwt>
<totfact> 0.37939813E+06</totfact>
</mgrwt>
</event>
<event>
 5    1  0.9583198E-007  0.2000293E+02  0.7818608E-02  0.1745270E+00
         -1   -1    0    0    0  501 -0.00000000000E+00  0.00000000000E+00  0.11109100904E+02  0.11109101885E+02  0.46700000000E-02 0.  1.
          1   -1    0    0  501    0  0.00000000000E+00 -0.00000000000E+00 -0.90042606644E+01  0.90042618754E+01  0.46700000000E-02 0. -1.
       1023    2    1    2    0    0  0.00000000000E+00  0.00000000000E+00  0.21048402393E+01  0.20113363761E+02  0.20002926019E+02 0.  0.
        -11    1    3    3    0    0  0.99835774801E+01 -0.59691383051E+00  0.10185197262E+01  0.10053134243E+02  0.51100000000E-03 0.  1.
         11    1    3    3    0    0 -0.99835774801E+01  0.59691383051E+00  0.10863205131E+01  0.10060229517E+02  0.51100000000E-03 0. -1.
<mgrwt>
<rscale>  0 0.20002926E+02</rscale>
<asrwt>0</asrwt>
<pdfrwt beam="2">  1        1 0.13852710E-02 0.20002926E+02</pdfrwt>
<pdfrwt beam="1">  1       -1 0.17090926E-02 0.20002926E+02</pdfrwt>
<totfact> 0.38447029E+06</totfact>
</mgrwt>
</event>
<event>
 5    1  0.9583198E-007  0.2000388E+02  0.7818608E-02  0.1745251E+00
         -1   -1    0    0    0  501 -0.00000000000E+00  0.00000000000E+00  0.94295541556E+01  0.94295553120E+01  0.46700000000E-02 0. -1.
          1   -1    0    0  501    0  0.00000000000E+00 -0.00000000000E+00 -0.10609071267E+02  0.10609072295E+02  0.46700000000E-02 0.  1.
       1023    2    1    2    0    0  0.00000000000E+00  0.00000000000E+00 -0.11795171116E+01  0.20038627607E+02  0.20003883017E+02 0.  0.
        -11    1    3    3    0    0 -0.87520348851E+01  0.48414251591E+01 -0.62617382202E+00  0.10021457285E+02  0.51100000000E-03 0.  1.
         11    1    3    3    0    0  0.87520348851E+01 -0.48414251591E+01 -0.55334328962E+00  0.10017170322E+02  0.51100000000E-03 0. -1.
<mgrwt>
<rscale>  0 0.20003883E+02</rscale>
<asrwt>0</asrwt>
<pdfrwt beam="2">  1        1 0.16321650E-02 0.20003883E+02</pdfrwt>
<pdfrwt beam="1">  1       -1 0.14507008E-02 0.20003883E+02</pdfrwt>
<totfact> 0.38698181E+06</totfact>
</mgrwt>
</event>
<event>
 5    1  0.9583198E-007  0.2000016E+02  0.7818608E-02  0.1745325E+00
          1   -1    0    0  501    0  0.00000000000E+00  0.00000000000E+00  0.23783412195E+02  0.23783412653E+02  0.46700000000E-02 0. -1.
         -1   -1    0    0    0  501 -0.00000000000E+00 -0.00000000000E+00 -0.42046762095E+01  0.42046788029E+01  0.46700000000E-02 0.  1.
       1023    2    1    2    0    0  0.00000000000E+00  0.00000000000E+00  0.19578735985E+02  0.27988091456E+02  0.20000159014E+02 0.  0.
        -11    1    3    3    0    0  0.70563162425E+01 -0.70858767608E+01  0.97635075862E+01  0.13975955389E+02  0.51100000000E-03 0.  1.
         11    1    3    3    0    0 -0.70563162425E+01  0.70858767608E+01  0.98152283989E+01  0.14012136067E+02  0.51100000000E-03 0. -1.
<mgrwt>
<rscale>  0 0.20000159E+02</rscale>
<asrwt>0</asrwt>
<pdfrwt beam="1">  1        1 0.36589867E-02 0.20000159E+02</pdfrwt>
<pdfrwt beam="2">  1       -1 0.64687350E-03 0.20000159E+02</pdfrwt>
<totfact> 0.40006924E+06</totfact>
</mgrwt>
</event>
<event>
 5    1  0.9583198E-007  0.2000029E+02  0.7818608E-02  0.1745322E+00
          1   -1    0    0  501    0  0.00000000000E+00  0.00000000000E+00  0.24114885592E+01  0.24114930811E+01  0.46700000000E-02 0. -1.
         -1   -1    0    0    0  501 -0.00000000000E+00 -0.00000000000E+00 -0.41469319956E+02  0.41469320219E+02  0.46700000000E-02 0.  1.
       1023    2    1    2    0    0  0.00000000000E+00  0.00000000000E+00 -0.39057831397E+02  0.43880813300E+02  0.20000289559E+02 0.  0.
        -11    1    3    3    0    0 -0.96735037784E+01  0.25349333175E+01 -0.19568957243E+02  0.21976047190E+02  0.51100000000E-03 0.  1.
         11    1    3    3    0    0  0.96735037784E+01 -0.25349333175E+01 -0.19488874154E+02  0.21904766110E+02  0.51100000000E-03 0. -1.
<mgrwt>
<rscale>  0 0.20000290E+02</rscale>
<asrwt>0</asrwt>
<pdfrwt beam="1">  1        1 0.37099864E-03 0.20000290E+02</pdfrwt>
<pdfrwt beam="2">  1       -1 0.63798952E-02 0.20000290E+02</pdfrwt>
<totfact> 0.35556996E+06</totfact>
</mgrwt>
</event>
<event>
 5    1  0.9673412E-007  0.2000202E+02  0.7818608E-02  0.1745288E+00
          1   -1    0    0  501    0  0.00000000000E+00  0.00000000000E+00  0.19133615799E+02  0.19133616369E+02  0.46700000000E-02 0.  1.
         -1   -1    0    0    0  501 -0.00000000000E+00 -0.00000000000E+00 -0.52274593926E+01  0.52274614786E+01  0.46700000000E-02 0. -1.
       1023    2    1    2    0    0  0.00000000000E+00  0.00000000000E+00  0.13906156406E+02  0.24361077847E+02  0.20002023095E+02 0.  0.
        -11    1    3    3    0    0  0.99658907463E+01  0.83161487614E+00  0.68333113327E+01  0.12112171800E+02  0.51100000000E-03 0.  1.
         11    1    3    3    0    0 -0.99658907463E+01 -0.83161487614E+00  0.70728450734E+01  0.12248906048E+02  0.51100000000E-03 0. -1.
<mgrwt>
<rscale>  0 0.20002023E+02</rscale>
<asrwt>0</asrwt>
<pdfrwt beam="1">  1        1 0.29436334E-02 0.20002023E+02</pdfrwt>
<pdfrwt beam="2">  1       -1 0.80422474E-03 0.20002023E+02</pdfrwt>
<totfact> 0.39623281E+06</totfact>
</mgrwt>
</event>
<event>
 5    1  0.9583198E-007  0.2000805E+02  0.7818608E-02  0.1745168E+00
          1   -1    0    0  501    0  0.00000000000E+00  0.00000000000E+00  0.50705842731E+02  0.50705842946E+02  0.46700000000E-02 0.  1.
         -1   -1    0    0    0  501 -0.00000000000E+00 -0.00000000000E+00 -0.19737440264E+01  0.19737495512E+01  0.46700000000E-02 0. -1.
       1023    2    1    2    0    0  0.00000000000E+00  0.00000000000E+00  0.48732098704E+02  0.52679592497E+02  0.20008048918E+02 0.  0.
        -11    1    3    3    0    0 -0.99369306836E+01  0.11316837297E+01  0.23736315403E+02  0.25757250797E+02  0.51100000000E-03 0.  1.
         11    1    3    3    0    0  0.99369306836E+01 -0.11316837297E+01  0.24995783302E+02  0.26922341700E+02  0.51100000000E-03 0. -1.
<mgrwt>
<rscale>  0 0.20008049E+02</rscale>
<asrwt>0</asrwt>
<pdfrwt beam="1">  1        1 0.78008981E-02 0.20008049E+02</pdfrwt>
<pdfrwt beam="2">  1       -1 0.30365342E-03 0.20008049E+02</pdfrwt>
<totfact> 0.41718816E+06</totfact>
</mgrwt>
</event>
<event>
 5    1  0.9583198E-007  0.2000028E+02  0.7818608E-02  0.1745323E+00
          1   -1    0    0  501    0  0.00000000000E+00  0.00000000000E+00  0.22778812123E+02  0.22778812602E+02  0.46700000000E-02 0. -1.
         -1   -1    0    0    0  501 -0.00000000000E+00 -0.00000000000E+00 -0.43901637493E+01  0.43901662331E+01  0.46700000000E-02 0.  1.
       1023    2    1    2    0    0  0.00000000000E+00  0.00000000000E+00  0.18388648374E+02  0.27168978835E+02  0.20000275546E+02 0.  0.
        -11    1    3    3    0    0 -0.82593607744E+01 -0.56378038963E+01  0.91539799045E+01  0.13557183392E+02  0.51100000000E-03 0. -1.
         11    1    3    3    0    0  0.82593607744E+01  0.56378038963E+01  0.92346684693E+01  0.13611795443E+02  0.51100000000E-03 0.  1.
<mgrwt>
<rscale>  0 0.20000276E+02</rscale>
<asrwt>0</asrwt>
<pdfrwt beam="1">  1        1 0.35044329E-02 0.20000276E+02</pdfrwt>
<pdfrwt beam="2">  1       -1 0.67541004E-03 0.20000276E+02</pdfrwt>
<totfact> 0.39928952E+06</totfact>
</mgrwt>
</event>
<event>
 5    1  0.9583198E-007  0.2000037E+02  0.7818608E-02  0.1745321E+00
          1   -1    0    0  501    0  0.00000000000E+00  0.00000000000E+00  0.23769237128E+02  0.23769237587E+02  0.46700000000E-02 0.  1.
         -1   -1    0    0    0  501 -0.00000000000E+00 -0.00000000000E+00 -0.42072739778E+01  0.42072765696E+01  0.46700000000E-02 0. -1.
       1023    2    1    2    0    0  0.00000000000E+00  0.00000000000E+00  0.19561963151E+02  0.27976514157E+02  0.20000373548E+02 0.  0.
        -11    1    3    3    0    0  0.21250843559E+01 -0.97717539009E+01  0.97473686105E+01  0.13964753951E+02  0.51100000000E-03 0.  1.
         11    1    3    3    0    0 -0.21250843559E+01  0.97717539009E+01  0.98145945401E+01  0.14011760206E+02  0.51100000000E-03 0. -1.
<mgrwt>
<rscale>  0 0.20000374E+02</rscale>
<asrwt>0</asrwt>
<pdfrwt beam="1">  1        1 0.36568060E-02 0.20000374E+02</pdfrwt>
<pdfrwt beam="2">  1       -1 0.64727315E-03 0.20000374E+02</pdfrwt>
<totfact> 0.40004882E+06</totfact>
</mgrwt>
</event>
<event>
 5    1  0.9583198E-007  0.2000776E+02  0.7818608E-02  0.1745174E+00
          1   -1    0    0  501    0  0.00000000000E+00  0.00000000000E+00  0.84654217440E+02  0.84654217568E+02  0.46700000000E-02 0. -1.
         -1   -1    0    0    0  501 -0.00000000000E+00 -0.00000000000E+00 -0.11821887482E+01  0.11821979721E+01  0.46700000000E-02 0.  1.
       1023    2    1    2    0    0  0.00000000000E+00  0.00000000000E+00  0.83472028691E+02  0.85836415540E+02  0.20007764967E+02 0.  0.
        -11    1    3    3    0    0 -0.51369503127E+01  0.85838819936E+01  0.41393449089E+02  0.42585078564E+02  0.51100000000E-03 0.  1.
         11    1    3    3    0    0  0.51369503127E+01 -0.85838819936E+01  0.42078579602E+02  0.43251336976E+02  0.51100000000E-03 0. -1.
<mgrwt>
<rscale>  0 0.20007765E+02</rscale>
<asrwt>0</asrwt>
<pdfrwt beam="1">  1        1 0.13023728E-01 0.20007765E+02</pdfrwt>
<pdfrwt beam="2">  1       -1 0.18187589E-03 0.20007765E+02</pdfrwt>
<totfact> 0.43560427E+06</totfact>
</mgrwt>
</event>
<event>
 4    1  0.9583198E-007  0.2003691E+02  0.7818608E-02  0.1744595E+00
         -1   -1    0    0    0  501 -0.00000000000E+00  0.00000000000E+00  0.44163968912E+01  0.44163993603E+01  0.46700000000E-02 0. -1.
          1   -1    0    0  501    0  0.00000000000E+00 -0.00000000000E+00 -0.22726537976E+02  0.22726538456E+02  0.46700000000E-02 0.  1.
        -11    1    1    2    0    0 -0.69340426719E+01  0.72295823131E+01 -0.89557798121E+01  0.13437030941E+02  0.51100000000E-03 0. -1.
         11    1    1    2    0    0  0.69340426719E+01 -0.72295823131E+01 -0.93543612726E+01  0.13705906875E+02  0.51100000000E-03 0.  1.
<mgrwt>
<rscale>  0 0.20036911E+02</rscale>
<asrwt>0</asrwt>
<pdfrwt beam="2">  1        1 0.34963906E-02 0.20036911E+02</pdfrwt>
<pdfrwt beam="1">  1       -1 0.67944592E-03 0.20036911E+02</pdfrwt>
<totfact> 0.39761558E+06</totfact>
</mgrwt>
</event>
<event>
 5    1  0.9583198E-007  0.2000362E+02  0.7818608E-02  0.1745256E+00
          1   -1    0    0  501    0  0.00000000000E+00  0.00000000000E+00  0.61164356740E+02  0.61164356918E+02  0.46700000000E-02 0. -1.
         -1   -1    0    0    0  501 -0.00000000000E+00 -0.00000000000E+00 -0.16355274817E+01  0.16355341490E+01  0.46700000000E-02 0.  1.
       1023    2    1    2    0    0  0.00000000000E+00  0.00000000000E+00  0.59528829258E+02  0.62799891067E+02  0.20003619802E+02 0.  0.
        -11    1    3    3    0    0  0.95340167001E+01 -0.30227167075E+01  0.29901629738E+02  0.31530013511E+02  0.51100000000E-03 0. -1.
         11    1    3    3    0    0 -0.95340167001E+01  0.30227167075E+01  0.29627199520E+02  0.31269877557E+02  0.51100000000E-03 0.  1.
<mgrwt>
<rscale>  0 0.20003620E+02</rscale>
<asrwt>0</asrwt>
<pdfrwt beam="1">  1        1 0.94099025E-02 0.20003620E+02</pdfrwt>
<pdfrwt beam="2">  1       -1 0.25162011E-03 0.20003620E+02</pdfrwt>
<totfact> 0.42334543E+06</totfact>
</mgrwt>
</event>
<event>
 5    1  0.9583198E-007  0.2000029E+02  0.7818608E-02  0.1745322E+00
         -1   -1    0    0    0  501 -0.00000000000E+00  0.00000000000E+00  0.61545388895E+02  0.61545389073E+02  0.46700000000E-02 0. -1.
          1   -1    0    0  501    0  0.00000000000E+00 -0.00000000000E+00 -0.16248602475E+01  0.16248669585E+01  0.46700000000E-02 0.  1.
       1023    2    1    2    0    0  0.00000000000E+00  0.00000000000E+00  0.59920528648E+02  0.63170256031E+02  0.20000287337E+02 0.  0.
        -11    1    3    3    0    0  0.65973269949E+01  0.75150301752E+01  0.29803255693E+02  0.31436196529E+02  0.51100000000E-03 0.  1.
         11    1    3    3    0    0 -0.65973269949E+01 -0.75150301752E+01  0.30117272955E+02  0.31734059502E+02  0.51100000000E-03 0. -1.
<mgrwt>
<rscale>  0 0.20000287E+02</rscale>
<asrwt>0</asrwt>
<pdfrwt beam="2">  1        1 0.24997902E-03 0.20000287E+02</pdfrwt>
<pdfrwt beam="1">  1       -1 0.94685221E-02 0.20000287E+02</pdfrwt>
<totfact> 0.34140142E+06</totfact>
</mgrwt>
</event>
<event>
 5    1  0.9583198E-007  0.2000195E+02  0.7818608E-02  0.1745289E+00
         -1   -1    0    0    0  501 -0.00000000000E+00  0.00000000000E+00  0.54715368351E+02  0.54715368550E+02  0.46700000000E-02 0.  1.
          1   -1    0    0  501    0  0.00000000000E+00 -0.00000000000E+00 -0.18279935437E+01  0.18279995090E+01  0.46700000000E-02 0. -1.
       1023    2    1    2    0    0  0.00000000000E+00  0.00000000000E+00  0.52887374807E+02  0.56543368059E+02  0.20001951342E+02 0.  0.
        -11    1    3    3    0    0 -0.91093297530E+01 -0.41261841438E+01  0.26106468970E+02  0.27956269538E+02  0.51100000000E-03 0. -1.
         11    1    3    3    0    0  0.91093297530E+01  0.41261841438E+01  0.26780905837E+02  0.28587098521E+02  0.51100000000E-03 0.  1.
<mgrwt>
<rscale>  0 0.20001951E+02</rscale>
<asrwt>0</asrwt>
<pdfrwt beam="2">  1        1 0.28123029E-03 0.20001951E+02</pdfrwt>
<pdfrwt beam="1">  1       -1 0.84177481E-02 0.20001951E+02</pdfrwt>
<totfact> 0.34592475E+06</totfact>
</mgrwt>
</event>
<event>
 5    1  0.9583198E-007  0.2000594E+02  0.7818608E-02  0.1745210E+00
          1   -1    0    0  501    0  0.00000000000E+00  0.00000000000E+00  0.21851254132E+02  0.21851254631E+02  0.46700000000E-02 0. -1.
         -1   -1    0    0    0  501 -0.00000000000E+00 -0.00000000000E+00 -0.45791125914E+01  0.45791149727E+01  0.46700000000E-02 0.  1.
       1023    2    1    2    0    0  0.00000000000E+00  0.00000000000E+00  0.17272141540E+02  0.26430369603E+02  0.20005938218E+02 0.  0.
        -11    1    3    3    0    0 -0.38758393143E+01 -0.92213135757E+01  0.87260266060E+01  0.13273970583E+02  0.51100000000E-03 0.  1.
         11    1    3    3    0    0  0.38758393143E+01  0.92213135757E+01  0.85461149342E+01  0.13156399020E+02  0.51100000000E-03 0. -1.
<mgrwt>
<rscale>  0 0.20005938E+02</rscale>
<asrwt>0</asrwt>
<pdfrwt beam="1">  1        1 0.33617317E-02 0.20005938E+02</pdfrwt>
<pdfrwt beam="2">  1       -1 0.70447906E-03 0.20005938E+02</pdfrwt>
<totfact> 0.39830599E+06</totfact>
</mgrwt>
</event>
<event>
 5    1  0.9583198E-007  0.2000337E+02  0.7818608E-02  0.1745261E+00
         -1   -1    0    0    0  501 -0.00000000000E+00  0.00000000000E+00  0.16370378506E+02  0.16370379172E+02  0.46700000000E-02 0.  1.
          1   -1    0    0  501    0  0.00000000000E+00 -0.00000000000E+00 -0.61106514148E+01  0.61106531993E+01  0.46700000000E-02 0. -1.
       1023    2    1    2    0    0  0.00000000000E+00  0.00000000000E+00  0.10259727091E+02  0.22481032371E+02  0.20003370128E+02 0.  0.
        -11    1    3    3    0    0  0.98891304097E+01 -0.14962621282E+01  0.51278385473E+01  0.11239592032E+02  0.51100000000E-03 0.  1.
         11    1    3    3    0    0 -0.98891304097E+01  0.14962621282E+01  0.51318885438E+01  0.11241440339E+02  0.51100000000E-03 0. -1.
<mgrwt>
<rscale>  0 0.20003370E+02</rscale>
<asrwt>0</asrwt>
<pdfrwt beam="2">  1        1 0.94010042E-03 0.20003370E+02</pdfrwt>
<pdfrwt beam="1">  1       -1 0.25185199E-02 0.20003370E+02</pdfrwt>
<totfact> 0.37788967E+06</totfact>
</mgrwt>
</event>
<event>
 5    1  0.9583198E-007  0.2000545E+02  0.7818608E-02  0.1745220E+00
          1   -1    0    0  501    0  0.00000000000E+00  0.00000000000E+00  0.26209126630E+02  0.26209127046E+02  0.46700000000E-02 0. -1.
         -1   -1    0    0    0  501 -0.00000000000E+00 -0.00000000000E+00 -0.38175410211E+01  0.38175438775E+01  0.46700000000E-02 0.  1.
       1023    2    1    2    0    0  0.00000000000E+00  0.00000000000E+00  0.22391585609E+02  0.30026670924E+02  0.20005445776E+02 0.  0.
        -11    1    3    3    0    0  0.22511526562E+01 -0.97449423992E+01  0.11422796283E+02  0.15182617226E+02  0.51100000000E-03 0. -1.
         11    1    3    3    0    0 -0.22511526562E+01  0.97449423992E+01  0.10968789326E+02  0.14844053698E+02  0.51100000000E-03 0.  1.
<mgrwt>
<rscale>  0 0.20005446E+02</rscale>
<asrwt>0</asrwt>
<pdfrwt beam="1">  1        1 0.40321737E-02 0.20005446E+02</pdfrwt>
<pdfrwt beam="2">  1       -1 0.58731424E-03 0.20005446E+02</pdfrwt>
<totfact> 0.40163964E+06</totfact>
</mgrwt>
</event>
<event>
 4    1  0.9583198E-007  0.2001291E+02  0.7818608E-02  0.1745071E+00
         -1   -1    0    0    0  501 -0.00000000000E+00  0.00000000000E+00  0.29292770919E+01  0.29292808145E+01  0.46700000000E-02 0. -1.
          1   -1    0    0  501    0  0.00000000000E+00 -0.00000000000E+00 -0.34182178827E+02  0.34182179146E+02  0.46700000000E-02 0.  1.
        -11    1    1    2    0    0  0.50219136634E+01  0.86508434494E+01 -0.16125546407E+02  0.18976036373E+02  0.51100000000E-03 0.  1.
         11    1    1    2    0    0 -0.50219136634E+01 -0.86508434494E+01 -0.15127355328E+02  0.18135423588E+02  0.51100000000E-03 0. -1.
<mgrwt>
<rscale>  0 0.20012911E+02</rscale>
<asrwt>0</asrwt>
<pdfrwt beam="2">  1        1 0.52587968E-02 0.20012911E+02</pdfrwt>
<pdfrwt beam="1">  1       -1 0.45065835E-03 0.20012911E+02</pdfrwt>
<totfact> 0.40679162E+06</totfact>
</mgrwt>
</event>
<event>
 5    1  0.9583198E-007  0.2000074E+02  0.7818608E-02  0.1745313E+00
          1   -1    0    0  501    0  0.00000000000E+00  0.00000000000E+00  0.11546299044E+03  0.11546299054E+03  0.46700000000E-02 0. -1.
         -1   -1    0    0    0  501 -0.00000000000E+00 -0.00000000000E+00 -0.86613638232E+00  0.86614897199E+00  0.46700000000E-02 0.  1.
       1023    2    1    2    0    0  0.00000000000E+00  0.00000000000E+00  0.11459685406E+03  0.11632913951E+03  0.20000743446E+02 0.  0.
        -11    1    3    3    0    0 -0.83165579080E+01  0.55534691188E+01  0.57090367421E+02  0.57959608412E+02  0.51100000000E-03 0.  1.
         11    1    3    3    0    0  0.83165579080E+01 -0.55534691188E+01  0.57506486640E+02  0.58369531098E+02  0.51100000000E-03 0. -1.
<mgrwt>
<rscale>  0 0.20000743E+02</rscale>
<asrwt>0</asrwt>
<pdfrwt beam="1">  1        1 0.17763530E-01 0.20000743E+02</pdfrwt>
<pdfrwt beam="2">  1       -1 0.13325279E-03 0.20000743E+02</pdfrwt>
<totfact> 0.45088342E+06</totfact>
</mgrwt>
</event>
<event>
 4    1  0.9583198E-007  0.2006526E+02  0.7818608E-02  0.1744033E+00
          1   -1    0    0  501    0  0.00000000000E+00  0.00000000000E+00  0.70584530896E+01  0.70584546344E+01  0.46700000000E-02 0.  1.
         -1   -1    0    0    0  501 -0.00000000000E+00 -0.00000000000E+00 -0.14260008304E+02  0.14260009068E+02  0.46700000000E-02 0. -1.
        -11    1    1    2    0    0 -0.68259308778E+01 -0.73507489891E+01 -0.34269077112E+01  0.10600497147E+02  0.51100000000E-03 0.  1.
         11    1    1    2    0    0  0.68259308778E+01  0.73507489891E+01 -0.37746475028E+01  0.10717966555E+02  0.51100000000E-03 0. -1.
<mgrwt>
<rscale>  0 0.20065256E+02</rscale>
<asrwt>0</asrwt>
<pdfrwt beam="1">  1        1 0.10859160E-02 0.20065256E+02</pdfrwt>
<pdfrwt beam="2">  1       -1 0.21938476E-02 0.20065256E+02</pdfrwt>
<totfact> 0.37777067E+06</totfact>
</mgrwt>
</event>
<event>
 5    1  0.9786134E-007  0.2000230E+02  0.7818608E-02  0.1745282E+00
         -1   -1    0    0    0  501 -0.00000000000E+00  0.00000000000E+00  0.10060951027E+01  0.10061059410E+01  0.46700000000E-02 0. -1.
          1   -1    0    0  501    0  0.00000000000E+00 -0.00000000000E+00 -0.99416506328E+02  0.99416506438E+02  0.46700000000E-02 0.  1.
       1023    2    1    2    0    0  0.00000000000E+00  0.00000000000E+00 -0.98410411225E+02  0.10042261238E+03  0.20002300853E+02 0.  0.
        -11    1    3    3    0    0 -0.10000099063E+02 -0.50379064192E-01 -0.48522515932E+02  0.49542295788E+02  0.51100000000E-03 0. -1.
         11    1    3    3    0    0  0.10000099063E+02  0.50379064192E-01 -0.49887895294E+02  0.50880316591E+02  0.51100000000E-03 0.  1.
<mgrwt>
<rscale>  0 0.20002301E+02</rscale>
<asrwt>0</asrwt>
<pdfrwt beam="2">  1        1 0.15294840E-01 0.20002301E+02</pdfrwt>
<pdfrwt beam="1">  1       -1 0.15478478E-03 0.20002301E+02</pdfrwt>
<totfact> 0.44321091E+06</totfact>
</mgrwt>
</event>
<event>
 5    1  0.9675772E-007  0.2000056E+02  0.7818608E-02  0.1745317E+00
         -1   -1    0    0    0  501 -0.00000000000E+00  0.00000000000E+00  0.39449446193E+01  0.39449473835E+01  0.46700000000E-02 0. -1.
          1   -1    0    0  501    0  0.00000000000E+00 -0.00000000000E+00 -0.25350312944E+02  0.25350313375E+02  0.46700000000E-02 0.  1.
       1023    2    1    2    0    0  0.00000000000E+00  0.00000000000E+00 -0.21405368325E+02  0.29295260758E+02  0.20000562736E+02 0.  0.
        -11    1    3    3    0    0  0.15936837466E+01 -0.98724211131E+01 -0.10654090320E+02  0.14612123984E+02  0.51100000000E-03 0.  1.
         11    1    3    3    0    0 -0.15936837466E+01  0.98724211131E+01 -0.10751278005E+02  0.14683136774E+02  0.51100000000E-03 0. -1.
<mgrwt>
<rscale>  0 0.20000563E+02</rscale>
<asrwt>0</asrwt>
<pdfrwt beam="2">  1        1 0.39000483E-02 0.20000563E+02</pdfrwt>
<pdfrwt beam="1">  1       -1 0.60691482E-03 0.20000563E+02</pdfrwt>
<totfact> 0.40122821E+06</totfact>
</mgrwt>
</event>
<event>
 5    1  0.9583198E-007  0.2000407E+02  0.7818608E-02  0.1745247E+00
         -1   -1    0    0    0  501 -0.00000000000E+00  0.00000000000E+00  0.69487798680E+02  0.69487798837E+02  0.46700000000E-02 0.  1.
          1   -1    0    0  501    0  0.00000000000E+00 -0.00000000000E+00 -0.14396839228E+01  0.14396914970E+01  0.46700000000E-02 0. -1.
       1023    2    1    2    0    0  0.00000000000E+00  0.00000000000E+00  0.68048114757E+02  0.70927490334E+02  0.20004073662E+02 0.  0.
        -11    1    3    3    0    0  0.49188496484E+01 -0.87087263716E+01  0.33807116005E+02  0.35255610755E+02  0.51100000000E-03 0. -1.
         11    1    3    3    0    0 -0.49188496484E+01  0.87087263716E+01  0.34240998752E+02  0.35671879579E+02  0.51100000000E-03 0.  1.
<mgrwt>
<rscale>  0 0.20004074E+02</rscale>
<asrwt>0</asrwt>
<pdfrwt beam="2">  1        1 0.22149046E-03 0.20004074E+02</pdfrwt>
<pdfrwt beam="1">  1       -1 0.10690430E-01 0.20004074E+02</pdfrwt>
<totfact> 0.33617397E+06</totfact>
</mgrwt>
</event>
<event>
 4    1  0.9583198E-007  0.2001433E+02  0.7818608E-02  0.1745043E+00
         -1   -1    0    0    0  501 -0.00000000000E+00  0.00000000000E+00  0.90169815965E+01  0.90169828058E+01  0.46700000000E-02 0.  1.
          1   -1    0    0  501    0  0.00000000000E+00 -0.00000000000E+00 -0.11106077460E+02  0.11106078442E+02  0.46700000000E-02 0. -1.
        -11    1    1    2    0    0 -0.72415748333E+01 -0.69052504452E+01 -0.90084460363E+00  0.10046611918E+02  0.51100000000E-03 0. -1.
         11    1    1    2    0    0  0.72415748333E+01  0.69052504452E+01 -0.11882512602E+01  0.10076449330E+02  0.51100000000E-03 0.  1.
<mgrwt>
<rscale>  0 0.20014327E+02</rscale>
<asrwt>0</asrwt>
<pdfrwt beam="2">  1        1 0.17086275E-02 0.20014327E+02</pdfrwt>
<pdfrwt beam="1">  1       -1 0.13872281E-02 0.20014327E+02</pdfrwt>
<totfact> 0.38722632E+06</totfact>
</mgrwt>
</event>
<event>
 5    1  0.9583198E-007  0.2000486E+02  0.7818608E-02  0.1745231E+00
         -1   -1    0    0    0  501 -0.00000000000E+00  0.00000000000E+00  0.94784577154E+00  0.94785727593E+00  0.46700000000E-02 0.  1.
          1   -1    0    0  501    0  0.00000000000E+00 -0.00000000000E+00 -0.10555300245E+03  0.10555300255E+03  0.46700000000E-02 0. -1.
       1023    2    1    2    0    0  0.00000000000E+00  0.00000000000E+00 -0.10460515667E+03  0.10650085983E+03  0.20004857926E+02 0.  0.
        -11    1    3    3    0    0  0.33970171580E+01  0.94073533749E+01 -0.51755453163E+02  0.52713043504E+02  0.51100000000E-03 0. -1.
         11    1    3    3    0    0 -0.33970171580E+01 -0.94073533749E+01 -0.52849703512E+02  0.53787816321E+02  0.51100000000E-03 0.  1.
<mgrwt>
<rscale>  0 0.20004858E+02</rscale>
<asrwt>0</asrwt>
<pdfrwt beam="2">  1        1 0.16238915E-01 0.20004858E+02</pdfrwt>
<pdfrwt beam="1">  1       -1 0.14582340E-03 0.20004858E+02</pdfrwt>
<totfact> 0.44603611E+06</totfact>
</mgrwt>
</event>
<event>
 5    1  0.9583198E-007  0.2000031E+02  0.7818608E-02  0.1745322E+00
          1   -1    0    0  501    0  0.00000000000E+00  0.00000000000E+00  0.14934160545E+01  0.14934233561E+01  0.46700000000E-02 0. -1.
         -1   -1    0    0    0  501 -0.00000000000E+00 -0.00000000000E+00 -0.66962450917E+02  0.66962451080E+02  0.46700000000E-02 0.  1.
       1023    2    1    2    0    0  0.00000000000E+00  0.00000000000E+00 -0.65469034863E+02  0.68455874436E+02  0.20000305472E+02 0.  0.
        -11    1    3    3    0    0 -0.12146452161E+00  0.99993262592E+01 -0.32590306181E+02  0.34090018136E+02  0.51100000000E-03 0.  1.
         11    1    3    3    0    0  0.12146452161E+00 -0.99993262592E+01 -0.32878728682E+02  0.34365856300E+02  0.51100000000E-03 0. -1.
<mgrwt>
<rscale>  0 0.20000305E+02</rscale>
<asrwt>0</asrwt>
<pdfrwt beam="1">  1        1 0.22975694E-03 0.20000305E+02</pdfrwt>
<pdfrwt beam="2">  1       -1 0.10301914E-01 0.20000305E+02</pdfrwt>
<totfact> 0.33790415E+06</totfact>
</mgrwt>
</event>
<event>
 5    1  0.9998003E-007  0.2000138E+02  0.7818608E-02  0.1745301E+00
         -1   -1    0    0    0  501 -0.00000000000E+00  0.00000000000E+00  0.54016254227E+01  0.54016274414E+01  0.46700000000E-02 0.  1.
          1   -1    0    0  501    0  0.00000000000E+00 -0.00000000000E+00 -0.18515504272E+02  0.18515504861E+02  0.46700000000E-02 0. -1.
       1023    2    1    2    0    0  0.00000000000E+00  0.00000000000E+00 -0.13113878849E+02  0.23917132302E+02  0.20001384929E+02 0.  0.
        -11    1    3    3    0    0 -0.65450315271E+01  0.75608676403E+01 -0.64392158236E+01  0.11894017734E+02  0.51100000000E-03 0.  1.
         11    1    3    3    0    0  0.65450315271E+01 -0.75608676403E+01 -0.66746630256E+01  0.12023114569E+02  0.51100000000E-03 0. -1.
<mgrwt>
<rscale>  0 0.20001385E+02</rscale>
<asrwt>0</asrwt>
<pdfrwt beam="2">  1        1 0.28485393E-02 0.20001385E+02</pdfrwt>
<pdfrwt beam="1">  1       -1 0.83101951E-03 0.20001385E+02</pdfrwt>
<totfact> 0.39572221E+06</totfact>
</mgrwt>
</event>
<event>
 5    1  0.9583198E-007  0.2000022E+02  0.7818608E-02  0.1745324E+00
         -1   -1    0    0    0  501 -0.00000000000E+00  0.00000000000E+00  0.12203488984E+01  0.12203578338E+01  0.46700000000E-02 0. -1.
          1   -1    0    0  501    0  0.00000000000E+00 -0.00000000000E+00 -0.81945266653E+02  0.81945266786E+02  0.46700000000E-02 0.  1.
       1023    2    1    2    0    0  0.00000000000E+00  0.00000000000E+00 -0.80724917754E+02  0.83165624620E+02  0.20000219297E+02 0.  0.
        -11    1    3    3    0    0  0.76505674477E+01 -0.64396766042E+01 -0.40197398267E+02  0.41422595823E+02  0.51100000000E-03 0.  1.
         11    1    3    3    0    0 -0.76505674477E+01  0.64396766042E+01 -0.40527519488E+02  0.41743028797E+02  0.51100000000E-03 0. -1.
<mgrwt>
<rscale>  0 0.20000219E+02</rscale>
<asrwt>0</asrwt>
<pdfrwt beam="2">  1        1 0.12606960E-01 0.20000219E+02</pdfrwt>
<pdfrwt beam="1">  1       -1 0.18774675E-03 0.20000219E+02</pdfrwt>
<totfact> 0.43458406E+06</totfact>
</mgrwt>
</event>
<event>
 5    1  0.9583198E-007  0.2000065E+02  0.7818608E-02  0.1745315E+00
         -1   -1    0    0    0  501 -0.00000000000E+00  0.00000000000E+00  0.34227513506E+02  0.34227513824E+02  0.46700000000E-02 0. -1.
          1   -1    0    0  501    0  0.00000000000E+00 -0.00000000000E+00 -0.29218125261E+01  0.29218162582E+01  0.46700000000E-02 0.  1.
       1023    2    1    2    0    0  0.00000000000E+00  0.00000000000E+00  0.31305700980E+02  0.37149330082E+02  0.20000645284E+02 0.  0.
        -11    1    3    3    0    0 -0.60472902311E+01  0.79647120055E+01  0.15634631892E+02  0.18559312248E+02  0.51100000000E-03 0. -1.
         11    1    3    3    0    0  0.60472902311E+01 -0.79647120055E+01  0.15671069088E+02  0.18590017834E+02  0.51100000000E-03 0.  1.
<mgrwt>
<rscale>  0 0.20000645E+02</rscale>
<asrwt>0</asrwt>
<pdfrwt beam="2">  1        1 0.44950989E-03 0.20000645E+02</pdfrwt>
<pdfrwt beam="1">  1       -1 0.52657721E-02 0.20000645E+02</pdfrwt>
<totfact> 0.36128250E+06</totfact>
</mgrwt>
</event>
<event>
 5    1  0.9583198E-007  0.2000064E+02  0.7818608E-02  0.1745315E+00
         -1   -1    0    0    0  501 -0.00000000000E+00  0.00000000000E+00  0.52626389985E+01  0.52626410706E+01  0.46700000000E-02 0.  1.
          1   -1    0    0  501    0  0.00000000000E+00 -0.00000000000E+00 -0.19003087195E+02  0.19003087769E+02  0.46700000000E-02 0. -1.
       1023    2    1    2    0    0  0.00000000000E+00  0.00000000000E+00 -0.13740448197E+02  0.24265728840E+02  0.20000641977E+02 0.  0.
        -11    1    3    3    0    0  0.74192755475E+01 -0.67052631686E+01 -0.68880467187E+01  0.12142956463E+02  0.51100000000E-03 0. -1.
         11    1    3    3    0    0 -0.74192755475E+01  0.67052631686E+01 -0.68524014781E+01  0.12122772376E+02  0.51100000000E-03 0.  1.
<mgrwt>
<rscale>  0 0.20000642E+02</rscale>
<asrwt>0</asrwt>
<pdfrwt beam="2">  1        1 0.29235520E-02 0.20000642E+02</pdfrwt>
<pdfrwt beam="1">  1       -1 0.80963698E-03 0.20000642E+02</pdfrwt>
<totfact> 0.39618148E+06</totfact>
</mgrwt>
</event>
<event>
 5    1  0.9583198E-007  0.2000045E+02  0.7818608E-02  0.1745319E+00
         -1   -1    0    0    0  501 -0.00000000000E+00  0.00000000000E+00  0.96980333904E+02  0.96980334017E+02  0.46700000000E-02 0. -1.
          1   -1    0    0  501    0  0.00000000000E+00 -0.00000000000E+00 -0.10311783878E+01  0.10311889625E+01  0.46700000000E-02 0.  1.
       1023    2    1    2    0    0  0.00000000000E+00  0.00000000000E+00  0.95949155517E+02  0.98011522979E+02  0.20000454804E+02 0.  0.
        -11    1    3    3    0    0  0.99787819626E+01 -0.65393014157E+00  0.48116076927E+02  0.49144283220E+02  0.51100000000E-03 0.  1.
         11    1    3    3    0    0 -0.99787819626E+01  0.65393014157E+00  0.47833078590E+02  0.48867239759E+02  0.51100000000E-03 0. -1.
<mgrwt>
<rscale>  0 0.20000455E+02</rscale>
<asrwt>0</asrwt>
<pdfrwt beam="2">  1        1 0.15864365E-03 0.20000455E+02</pdfrwt>
<pdfrwt beam="1">  1       -1 0.14920052E-01 0.20000455E+02</pdfrwt>
<totfact> 0.32029461E+06</totfact>
</mgrwt>
</event>
<event>
 5    1  0.9583198E-007  0.2000055E+02  0.7818608E-02  0.1745317E+00
          1   -1    0    0  501    0  0.00000000000E+00  0.00000000000E+00  0.58747618612E+01  0.58747637174E+01  0.46700000000E-02 0. -1.
         -1   -1    0    0    0  501 -0.00000000000E+00 -0.00000000000E+00 -0.17022903909E+02  0.17022904550E+02  0.46700000000E-02 0.  1.
       1023    2    1    2    0    0  0.00000000000E+00  0.00000000000E+00 -0.11148142048E+02  0.22897668267E+02  0.20000553516E+02 0.  0.
        -11    1    3    3    0    0 -0.90339792918E+01  0.42886182532E+01 -0.55483027228E+01  0.11436288372E+02  0.51100000000E-03 0. -1.
         11    1    3    3    0    0  0.90339792918E+01 -0.42886182532E+01 -0.55998393250E+01  0.11461379895E+02  0.51100000000E-03 0.  1.
<mgrwt>
<rscale>  0 0.20000554E+02</rscale>
<asrwt>0</asrwt>
<pdfrwt beam="1">  1        1 0.90380972E-03 0.20000554E+02</pdfrwt>
<pdfrwt beam="2">  1       -1 0.26189085E-02 0.20000554E+02</pdfrwt>
<totfact> 0.37728373E+06</totfact>
</mgrwt>
</event>
<event>
 5    1  0.9583198E-007  0.2000817E+02  0.7818608E-02  0.1745166E+00
          1   -1    0    0  501    0  0.00000000000E+00  0.00000000000E+00  0.21149528031E+02  0.21149528547E+02  0.46700000000E-02 0.  1.
         -1   -1    0    0    0  501 -0.00000000000E+00 -0.00000000000E+00 -0.47320979875E+01  0.47321002918E+01  0.46700000000E-02 0. -1.
       1023    2    1    2    0    0  0.00000000000E+00  0.00000000000E+00  0.16417430044E+02  0.25881628839E+02  0.20008165885E+02 0.  0.
        -11    1    3    3    0    0  0.76417093007E+01 -0.64564394552E+01  0.81847305314E+01  0.12925600396E+02  0.51100000000E-03 0. -1.
         11    1    3    3    0    0 -0.76417093007E+01  0.64564394552E+01  0.82326995124E+01  0.12956028442E+02  0.51100000000E-03 0.  1.
<mgrwt>
<rscale>  0 0.20008166E+02</rscale>
<asrwt>0</asrwt>
<pdfrwt beam="1">  1        1 0.32537737E-02 0.20008166E+02</pdfrwt>
<pdfrwt beam="2">  1       -1 0.72801530E-03 0.20008166E+02</pdfrwt>
<totfact> 0.39764286E+06</totfact>
</mgrwt>
</event>
<event>
 4    1  0.9583198E-007  0.2001531E+02  0.7818608E-02  0.1745024E+00
          1   -1    0    0  501    0  0.00000000000E+00  0.00000000000E+00  0.29442302536E+02  0.29442302907E+02  0.46700000000E-02 0. -1.
         -1   -1    0    0    0  501 -0.00000000000E+00 -0.00000000000E+00 -0.34016730003E+01  0.34016762059E+01  0.46700000000E-02 0.  1.
        -11    1    1    2    0    0  0.64868230445E+01  0.76190901502E+01  0.13273127264E+02  0.16622434104E+02  0.51100000000E-03 0. -1.
         11    1    1    2    0    0 -0.64868230445E+01 -0.76190901502E+01  0.12767502272E+02  0.16221545008E+02  0.51100000000E-03 0.  1.
<mgrwt>
<rscale>  0 0.20015309E+02</rscale>
<asrwt>0</asrwt>
<pdfrwt beam="1">  1        1 0.45295854E-02 0.20015309E+02</pdfrwt>
<pdfrwt beam="2">  1       -1 0.52333457E-03 0.20015309E+02</pdfrwt>
<totfact> 0.40349115E+06</totfact>
</mgrwt>
</event>
<event>
 5    1  0.9583198E-007  0.2000035E+02  0.7818608E-02  0.1745321E+00
         -1   -1    0    0    0  501 -0.00000000000E+00  0.00000000000E+00  0.20767716948E+01  0.20767769455E+01  0.46700000000E-02 0. -1.
          1   -1    0    0  501    0  0.00000000000E+00 -0.00000000000E+00 -0.48153299061E+02  0.48153299287E+02  0.46700000000E-02 0.  1.
       1023    2    1    2    0    0  0.00000000000E+00  0.00000000000E+00 -0.46076527366E+02  0.50230076233E+02  0.20000354603E+02 0.  0.
        -11    1    3    3    0    0  0.20964964950E+01 -0.97778522501E+01 -0.22930136096E+02  0.25015851651E+02  0.51100000000E-03 0. -1.
         11    1    3    3    0    0 -0.20964964950E+01  0.97778522501E+01 -0.23146391270E+02  0.25214224582E+02  0.51100000000E-03 0.  1.
<mgrwt>
<rscale>  0 0.20000355E+02</rscale>
<asrwt>0</asrwt>
<pdfrwt beam="2">  1        1 0.74081995E-02 0.20000355E+02</pdfrwt>
<pdfrwt beam="1">  1       -1 0.31950379E-03 0.20000355E+02</pdfrwt>
<totfact> 0.41604364E+06</totfact>
</mgrwt>
</event>
<event>
 5    1  0.9701529E-007  0.2000177E+02  0.7818608E-02  0.1745293E+00
         -1   -1    0    0    0  501 -0.00000000000E+00  0.00000000000E+00  0.15081877505E+01  0.15081949806E+01  0.46700000000E-02 0. -1.
          1   -1    0    0  501    0  0.00000000000E+00 -0.00000000000E+00 -0.66316294274E+02  0.66316294439E+02  0.46700000000E-02 0.  1.
       1023    2    1    2    0    0  0.00000000000E+00  0.00000000000E+00 -0.64808106524E+02  0.67824489419E+02  0.20001767267E+02 0.  0.
        -11    1    3    3    0    0 -0.99873932387E+01 -0.51927171282E+00 -0.32412611376E+02  0.33920422216E+02  0.51100000000E-03 0.  1.
         11    1    3    3    0    0  0.99873932387E+01  0.51927171282E+00 -0.32395495147E+02  0.33904067203E+02  0.51100000000E-03 0. -1.
<mgrwt>
<rscale>  0 0.20001767E+02</rscale>
<asrwt>0</asrwt>
<pdfrwt beam="2">  1        1 0.10202505E-01 0.20001767E+02</pdfrwt>
<pdfrwt beam="1">  1       -1 0.23202951E-03 0.20001767E+02</pdfrwt>
<totfact> 0.42626568E+06</totfact>
</mgrwt>
</event>
<event>
 5    1  0.9583198E-007  0.2000171E+02  0.7818608E-02  0.1745294E+00
          1   -1    0    0  501    0  0.00000000000E+00  0.00000000000E+00  0.24010907225E+01  0.24010952640E+01  0.46700000000E-02 0. -1.
         -1   -1    0    0    0  501 -0.00000000000E+00 -0.00000000000E+00 -0.41654800440E+02  0.41654800702E+02  0.46700000000E-02 0.  1.
       1023    2    1    2    0    0  0.00000000000E+00  0.00000000000E+00 -0.39253709718E+02  0.44055895966E+02  0.20001705996E+02 0.  0.
        -11    1    3    3    0    0 -0.85382530190E+01  0.52060502797E+01 -0.19871495967E+02  0.22245922691E+02  0.51100000000E-03 0.  1.
         11    1    3    3    0    0  0.85382530190E+01 -0.52060502797E+01 -0.19382213750E+02  0.21809973275E+02  0.51100000000E-03 0. -1.
<mgrwt>
<rscale>  0 0.20001706E+02</rscale>
<asrwt>0</asrwt>
<pdfrwt beam="1">  1        1 0.36939897E-03 0.20001706E+02</pdfrwt>
<pdfrwt beam="2">  1       -1 0.64084307E-02 0.20001706E+02</pdfrwt>
<totfact> 0.35537301E+06</totfact>
</mgrwt>
</event>
<event>
 5    1  0.9583198E-007  0.2000133E+02  0.7818608E-02  0.1745302E+00
          1   -1    0    0  501    0  0.00000000000E+00  0.00000000000E+00  0.85847735889E+00  0.85849006088E+00  0.46700000000E-02 0.  1.
         -1   -1    0    0    0  501 -0.00000000000E+00 -0.00000000000E+00 -0.11649993170E+03  0.11649993180E+03  0.46700000000E-02 0. -1.
       1023    2    1    2    0    0  0.00000000000E+00  0.00000000000E+00 -0.11564145434E+03  0.11735842186E+03  0.20001330407E+02 0.  0.
        -11    1    3    3    0    0 -0.68822142393E+01 -0.72557253911E+01 -0.58135637322E+02  0.58989513906E+02  0.51100000000E-03 0.  1.
         11    1    3    3    0    0  0.68822142393E+01  0.72557253911E+01 -0.57505817021E+02  0.58368907951E+02  0.51100000000E-03 0. -1.
<mgrwt>
<rscale>  0 0.20001330E+02</rscale>
<asrwt>0</asrwt>
<pdfrwt beam="1">  1        1 0.13207452E-03 0.20001330E+02</pdfrwt>
<pdfrwt beam="2">  1       -1 0.17923055E-01 0.20001330E+02</pdfrwt>
<totfact> 0.31006526E+06</totfact>
</mgrwt>
</event>
<event>
 5    1  0.9583198E-007  0.2000079E+02  0.7818608E-02  0.1745312E+00
         -1   -1    0    0    0  501 -0.00000000000E+00  0.00000000000E+00  0.16553631501E+02  0.16553632160E+02  0.46700000000E-02 0. -1.
          1   -1    0    0  501    0  0.00000000000E+00 -0.00000000000E+00 -0.60414460646E+01  0.60414478695E+01  0.46700000000E-02 0.  1.
       1023    2    1    2    0    0  0.00000000000E+00  0.00000000000E+00  0.10512185437E+02  0.22595080029E+02  0.20000789956E+02 0.  0.
        -11    1    3    3    0    0 -0.66883307502E+01  0.74346505905E+01  0.52446926238E+01  0.11292236209E+02  0.51100000000E-03 0.  1.
         11    1    3    3    0    0  0.66883307502E+01 -0.74346505905E+01  0.52674928128E+01  0.11302843820E+02  0.51100000000E-03 0. -1.
<mgrwt>
<rscale>  0 0.20000790E+02</rscale>
<asrwt>0</asrwt>
<pdfrwt beam="2">  1        1 0.92945344E-03 0.20000790E+02</pdfrwt>
<pdfrwt beam="1">  1       -1 0.25467127E-02 0.20000790E+02</pdfrwt>
<totfact> 0.37779222E+06</totfact>
</mgrwt>
</event>
<event>
 5    1  0.9702519E-007  0.2000340E+02  0.7818608E-02  0.1745260E+00
         -1   -1    0    0    0  501 -0.00000000000E+00  0.00000000000E+00  0.13877154807E+01  0.13877233385E+01  0.46700000000E-02 0. -1.
          1   -1    0    0  501    0  0.00000000000E+00 -0.00000000000E+00 -0.72085173073E+02  0.72085173225E+02  0.46700000000E-02 0.  1.
       1023    2    1    2    0    0  0.00000000000E+00  0.00000000000E+00 -0.70697457593E+02  0.73472896563E+02  0.20003400194E+02 0.  0.
        -11    1    3    3    0    0 -0.95264303827E+01 -0.30440152563E+01 -0.34897382772E+02  0.36302151855E+02  0.51100000000E-03 0. -1.
         11    1    3    3    0    0  0.95264303827E+01  0.30440152563E+01 -0.35800074821E+02  0.37170744708E+02  0.51100000000E-03 0.  1.
<mgrwt>
<rscale>  0 0.20003400E+02</rscale>
<asrwt>0</asrwt>
<pdfrwt beam="2">  1        1 0.11090024E-01 0.20003400E+02</pdfrwt>
<pdfrwt beam="1">  1       -1 0.21349536E-03 0.20003400E+02</pdfrwt>
<totfact> 0.42929014E+06</totfact>
</mgrwt>
</event>
<event>
 5    1  0.9583198E-007  0.2000481E+02  0.7818608E-02  0.1745233E+00
         -1   -1    0    0    0  501 -0.00000000000E+00  0.00000000000E+00  0.18928130091E+01  0.18928187700E+01  0.46700000000E-02 0. -1.
          1   -1    0    0  501    0  0.00000000000E+00 -0.00000000000E+00 -0.52856725878E+02  0.52856726084E+02  0.46700000000E-02 0.  1.
       1023    2    1    2    0    0  0.00000000000E+00  0.00000000000E+00 -0.50963912869E+02  0.54749544854E+02  0.20004805594E+02 0.  0.
        -11    1    3    3    0    0 -0.94737584480E+00 -0.99572210297E+01 -0.25302703617E+02  0.27207913963E+02  0.51100000000E-03 0. -1.
         11    1    3    3    0    0  0.94737584480E+00  0.99572210297E+01 -0.25661209252E+02  0.27541630891E+02  0.51100000000E-03 0.  1.
<mgrwt>
<rscale>  0 0.20004806E+02</rscale>
<asrwt>0</asrwt>
<pdfrwt beam="2">  1        1 0.81318033E-02 0.20004806E+02</pdfrwt>
<pdfrwt beam="1">  1       -1 0.29120250E-03 0.20004806E+02</pdfrwt>
<totfact> 0.41858692E+06</totfact>
</mgrwt>
</event>
<event>
 5    1  0.9583198E-007  0.2000037E+02  0.7818608E-02  0.1745321E+00
         -1   -1    0    0    0  501 -0.00000000000E+00  0.00000000000E+00  0.55140672247E+01  0.55140692023E+01  0.46700000000E-02 0.  1.
          1   -1    0    0  501    0  0.00000000000E+00 -0.00000000000E+00 -0.18136091597E+02  0.18136092198E+02  0.46700000000E-02 0. -1.
       1023    2    1    2    0    0  0.00000000000E+00  0.00000000000E+00 -0.12622024372E+02  0.23650161400E+02  0.20000365872E+02 0.  0.
        -11    1    3    3    0    0  0.98836048978E+01  0.15214188431E+01 -0.62431100757E+01  0.11788841536E+02  0.51100000000E-03 0. -1.
         11    1    3    3    0    0 -0.98836048978E+01 -0.15214188431E+01 -0.63789142963E+01  0.11861319865E+02  0.51100000000E-03 0.  1.
<mgrwt>
<rscale>  0 0.20000366E+02</rscale>
<asrwt>0</asrwt>
<pdfrwt beam="2">  1        1 0.27901681E-02 0.20000366E+02</pdfrwt>
<pdfrwt beam="1">  1       -1 0.84831824E-03 0.20000366E+02</pdfrwt>
<totfact> 0.39543053E+06</totfact>
</mgrwt>
</event>
<event>
 5    1  0.9583198E-007  0.2000014E+02  0.7818608E-02  0.1745325E+00
         -1   -1    0    0    0  501 -0.00000000000E+00  0.00000000000E+00  0.47321765675E+01  0.47321788719E+01  0.46700000000E-02 0.  1.
          1   -1    0    0  501    0  0.00000000000E+00 -0.00000000000E+00 -0.21132216707E+02  0.21132217223E+02  0.46700000000E-02 0. -1.
       1023    2    1    2    0    0  0.00000000000E+00  0.00000000000E+00 -0.16400040140E+02  0.25864396095E+02  0.20000141719E+02 0.  0.
        -11    1    3    3    0    0 -0.87448452796E+01  0.48506675312E+01 -0.82143316541E+01  0.12941272706E+02  0.51100000000E-03 0. -1.
         11    1    3    3    0    0  0.87448452796E+01 -0.48506675312E+01 -0.81857084857E+01  0.12923123389E+02  0.51100000000E-03 0.  1.
<mgrwt>
<rscale>  0 0.20000142E+02</rscale>
<asrwt>0</asrwt>
<pdfrwt beam="2">  1        1 0.32511104E-02 0.20000142E+02</pdfrwt>
<pdfrwt beam="1">  1       -1 0.72802739E-03 0.20000142E+02</pdfrwt>
<totfact> 0.39798646E+06</totfact>
</mgrwt>
</event>
<event>
 5    1  0.9583198E-007  0.2000312E+02  0.7818608E-02  0.1745266E+00
         -1   -1    0    0    0  501 -0.00000000000E+00  0.00000000000E+00  0.33310335834E+02  0.33310336161E+02  0.46700000000E-02 0. -1.
          1   -1    0    0  501    0  0.00000000000E+00 -0.00000000000E+00 -0.30030071126E+01  0.30030107438E+01  0.46700000000E-02 0.  1.
       1023    2    1    2    0    0  0.00000000000E+00  0.00000000000E+00  0.30307328721E+02  0.36313346905E+02  0.20003124487E+02 0.  0.
        -11    1    3    3    0    0 -0.95507575944E+01  0.29677007803E+01  0.15305859097E+02  0.18283696057E+02  0.51100000000E-03 0.  1.
         11    1    3    3    0    0  0.95507575944E+01 -0.29677007803E+01  0.15001469624E+02  0.18029650848E+02  0.51100000000E-03 0. -1.
<mgrwt>
<rscale>  0 0.20003124E+02</rscale>
<asrwt>0</asrwt>
<pdfrwt beam="2">  1        1 0.46200143E-03 0.20003124E+02</pdfrwt>
<pdfrwt beam="1">  1       -1 0.51246670E-02 0.20003124E+02</pdfrwt>
<totfact> 0.36194044E+06</totfact>
</mgrwt>
</event>
<event>
 5    1  0.1008656E-006  0.2000109E+02  0.7818608E-02  0.1745306E+00
          1   -1    0    0  501    0  0.00000000000E+00  0.00000000000E+00  0.10109435890E+03  0.10109435900E+03  0.46700000000E-02 0.  1.
         -1   -1    0    0    0  501 -0.00000000000E+00 -0.00000000000E+00 -0.98927741912E+00  0.98928844170E+00  0.46700000000E-02 0. -1.
       1023    2    1    2    0    0  0.00000000000E+00  0.00000000000E+00  0.10010508148E+03  0.10208364745E+03  0.20001093428E+02 0.  0.
        -11    1    3    3    0    0  0.78710374683E+01  0.61690758777E+01  0.49979232263E+02  0.50969936099E+02  0.51100000000E-03 0.  1.
         11    1    3    3    0    0 -0.78710374683E+01 -0.61690758777E+01  0.50125849213E+02  0.51113711347E+02  0.51100000000E-03 0. -1.
<mgrwt>
<rscale>  0 0.20001093E+02</rscale>
<asrwt>0</asrwt>
<pdfrwt beam="1">  1        1 0.15552982E-01 0.20001093E+02</pdfrwt>
<pdfrwt beam="2">  1       -1 0.15219735E-03 0.20001093E+02</pdfrwt>
<totfact> 0.44408313E+06</totfact>
</mgrwt>
</event>
<event>
 5    1  0.9583198E-007  0.2000001E+02  0.7818608E-02  0.1745328E+00
         -1   -1    0    0    0  501 -0.00000000000E+00  0.00000000000E+00  0.97958383680E+01  0.97958394812E+01  0.46700000000E-02 0.  1.
          1   -1    0    0  501    0  0.00000000000E+00 -0.00000000000E+00 -0.10208428942E+02  0.10208430010E+02  0.46700000000E-02 0. -1.
       1023    2    1    2    0    0  0.00000000000E+00  0.00000000000E+00 -0.41259057359E+00  0.20004269491E+02  0.20000014172E+02 0.  0.
        -11    1    3    3    0    0 -0.97957007485E+01  0.20110621545E+01 -0.21045752204E+00  0.10002220592E+02  0.51100000000E-03 0.  1.
         11    1    3    3    0    0  0.97957007485E+01 -0.20110621545E+01 -0.20213305155E+00  0.10002048899E+02  0.51100000000E-03 0. -1.
<mgrwt>
<rscale>  0 0.20000014E+02</rscale>
<asrwt>0</asrwt>
<pdfrwt beam="2">  1        1 0.15705277E-02 0.20000014E+02</pdfrwt>
<pdfrwt beam="1">  1       -1 0.15070522E-02 0.20000014E+02</pdfrwt>
<totfact> 0.38655814E+06</totfact>
</mgrwt>
</event>
<event>
 5    1  0.9583198E-007  0.2000108E+02  0.7818608E-02  0.1745307E+00
         -1   -1    0    0    0  501 -0.00000000000E+00  0.00000000000E+00  0.57105754470E+02  0.57105754661E+02  0.46700000000E-02 0. -1.
          1   -1    0    0  501    0  0.00000000000E+00 -0.00000000000E+00 -0.17513235699E+01  0.17513297963E+01  0.46700000000E-02 0.  1.
       1023    2    1    2    0    0  0.00000000000E+00  0.00000000000E+00  0.55354430901E+02  0.58857084458E+02  0.20001084234E+02 0.  0.
        -11    1    3    3    0    0  0.99855420425E+01  0.54708952588E+00  0.27742057639E+02  0.29489525584E+02  0.51100000000E-03 0. -1.
         11    1    3    3    0    0 -0.99855420425E+01 -0.54708952588E+00  0.27612373261E+02  0.29367558874E+02  0.51100000000E-03 0.  1.
<mgrwt>
<rscale>  0 0.20001084E+02</rscale>
<asrwt>0</asrwt>
<pdfrwt beam="2">  1        1 0.26943490E-03 0.20001084E+02</pdfrwt>
<pdfrwt beam="1">  1       -1 0.87855007E-02 0.20001084E+02</pdfrwt>
<totfact> 0.34432874E+06</totfact>
</mgrwt>
</event>
<event>
 5    1  0.9583198E-007  0.2000035E+02  0.7818608E-02  0.1745321E+00
          1   -1    0    0  501    0  0.00000000000E+00  0.00000000000E+00  0.11466312297E+03  0.11466312306E+03  0.46700000000E-02 0. -1.
         -1   -1    0    0    0  501 -0.00000000000E+00 -0.00000000000E+00 -0.87214437886E+00  0.87215688181E+00  0.46700000000E-02 0.  1.
       1023    2    1    2    0    0  0.00000000000E+00  0.00000000000E+00  0.11379097859E+03  0.11553527994E+03  0.20000352589E+02 0.  0.
        -11    1    3    3    0    0  0.74901801680E+01 -0.66256967770E+01  0.56725207503E+02  0.57599929021E+02  0.51100000000E-03 0.  1.
         11    1    3    3    0    0 -0.74901801680E+01  0.66256967770E+01  0.57065771084E+02  0.57935350921E+02  0.51100000000E-03 0. -1.
<mgrwt>
<rscale>  0 0.20000353E+02</rscale>
<asrwt>0</asrwt>
<pdfrwt beam="1">  1        1 0.17640468E-01 0.20000353E+02</pdfrwt>
<pdfrwt beam="2">  1       -1 0.13417713E-03 0.20000353E+02</pdfrwt>
<totfact> 0.45053285E+06</totfact>
</mgrwt>
</event>
<event>
 5    1  0.9583198E-007  0.2000140E+02  0.7818608E-02  0.1745300E+00
         -1   -1    0    0    0  501 -0.00000000000E+00  0.00000000000E+00  0.11185014002E+03  0.11185014012E+03  0.46700000000E-02 0.  1.
          1   -1    0    0  501    0  0.00000000000E+00 -0.00000000000E+00 -0.89417210853E+00  0.89418430347E+00  0.46700000000E-02 0. -1.
       1023    2    1    2    0    0  0.00000000000E+00  0.00000000000E+00  0.11095596791E+03  0.11274432442E+03  0.20001396801E+02 0.  0.
        -11    1    3    3    0    0 -0.64856251196E+01 -0.76125241322E+01  0.55418495165E+02  0.56313617034E+02  0.51100000000E-03 0. -1.
         11    1    3    3    0    0  0.64856251196E+01  0.76125241322E+01  0.55537472750E+02  0.56430707390E+02  0.51100000000E-03 0.  1.
<mgrwt>
<rscale>  0 0.20001397E+02</rscale>
<asrwt>0</asrwt>
<pdfrwt beam="2">  1        1 0.13756600E-03 0.20001397E+02</pdfrwt>
<pdfrwt beam="1">  1       -1 0.17207700E-01 0.20001397E+02</pdfrwt>
<totfact> 0.31241891E+06</totfact>
</mgrwt>
</event>
<event>
 5    1  0.9583198E-007  0.2000037E+02  0.7818608E-02  0.1745321E+00
         -1   -1    0    0    0  501 -0.00000000000E+00  0.00000000000E+00  0.61326966203E+02  0.61326966381E+02  0.46700000000E-02 0.  1.
          1   -1    0    0  501    0  0.00000000000E+00 -0.00000000000E+00 -0.16306602624E+01  0.16306669495E+01  0.46700000000E-02 0. -1.
       1023    2    1    2    0    0  0.00000000000E+00  0.00000000000E+00  0.59696305940E+02  0.62957633330E+02  0.20000366287E+02 0.  0.
        -11    1    3    3    0    0  0.75295453078E+01  0.65809405210E+01  0.29757358286E+02  0.31392725322E+02  0.51100000000E-03 0. -1.
         11    1    3    3    0    0 -0.75295453078E+01 -0.65809405210E+01  0.29938947654E+02  0.31564908008E+02  0.51100000000E-03 0.  1.
<mgrwt>
<rscale>  0 0.20000366E+02</rscale>
<asrwt>0</asrwt>
<pdfrwt beam="2">  1        1 0.25087133E-03 0.20000366E+02</pdfrwt>
<pdfrwt beam="1">  1       -1 0.94349189E-02 0.20000366E+02</pdfrwt>
<totfact> 0.34154196E+06</totfact>
</mgrwt>
</event>
<event>
 5    1  0.9583198E-007  0.2000243E+02  0.7818608E-02  0.1745280E+00
         -1   -1    0    0    0  501 -0.00000000000E+00  0.00000000000E+00  0.28459708333E+02  0.28459708716E+02  0.46700000000E-02 0. -1.
          1   -1    0    0  501    0  0.00000000000E+00 -0.00000000000E+00 -0.35145911665E+01  0.35145942691E+01  0.46700000000E-02 0.  1.
       1023    2    1    2    0    0  0.00000000000E+00  0.00000000000E+00  0.24945117167E+02  0.31974302985E+02  0.20002429376E+02 0.  0.
        -11    1    3    3    0    0 -0.54681947765E+01  0.83738592388E+01  0.12408173535E+02  0.15936920763E+02  0.51100000000E-03 0.  1.
         11    1    3    3    0    0  0.54681947765E+01 -0.83738592388E+01  0.12536943631E+02  0.16037382222E+02  0.51100000000E-03 0. -1.
<mgrwt>
<rscale>  0 0.20002429E+02</rscale>
<asrwt>0</asrwt>
<pdfrwt beam="2">  1        1 0.54070658E-03 0.20002429E+02</pdfrwt>
<pdfrwt beam="1">  1       -1 0.43784171E-02 0.20002429E+02</pdfrwt>
<totfact> 0.36611039E+06</totfact>
</mgrwt>
</event>
<event>
 5    1  0.9583198E-007  0.2000210E+02  0.7818608E-02  0.1745286E+00
         -1   -1    0    0    0  501 -0.00000000000E+00  0.00000000000E+00  0.12547050314E+02  0.12547051183E+02  0.46700000000E-02 0. -1.
          1   -1    0    0  501    0  0.00000000000E+00 -0.00000000000E+00 -0.79716730218E+01  0.79716743897E+01  0.46700000000E-02 0.  1.
       1023    2    1    2    0    0  0.00000000000E+00  0.00000000000E+00  0.45753772925E+01  0.20518725573E+02  0.20002100434E+02 0.  0.
        -11    1    3    3    0    0 -0.33690768893E+01 -0.94160592362E+01  0.21950536690E+01  0.10238706534E+02  0.51100000000E-03 0. -1.
         11    1    3    3    0    0  0.33690768893E+01  0.94160592362E+01  0.23803236235E+01  0.10280019039E+02  0.51100000000E-03 0.  1.
<mgrwt>
<rscale>  0 0.20002100E+02</rscale>
<asrwt>0</asrwt>
<pdfrwt beam="2">  1        1 0.12264114E-02 0.20002100E+02</pdfrwt>
<pdfrwt beam="1">  1       -1 0.19303156E-02 0.20002100E+02</pdfrwt>
<totfact> 0.38254329E+06</totfact>
</mgrwt>
</event>
<event>
 5    1  0.9583198E-007  0.2000036E+02  0.7818608E-02  0.1745321E+00
         -1   -1    0    0    0  501 -0.00000000000E+00  0.00000000000E+00  0.11641975687E+03  0.11641975697E+03  0.46700000000E-02 0.  1.
          1   -1    0    0  501    0  0.00000000000E+00 -0.00000000000E+00 -0.85898537759E+00  0.85899807206E+00  0.46700000000E-02 0. -1.
       1023    2    1    2    0    0  0.00000000000E+00  0.00000000000E+00  0.11556077149E+03  0.11727875504E+03  0.20000361867E+02 0.  0.
        -11    1    3    3    0    0  0.99829485359E+01  0.58598473164E+00  0.57963846586E+02  0.58820150891E+02  0.51100000000E-03 0.  1.
         11    1    3    3    0    0 -0.99829485359E+01 -0.58598473164E+00  0.57596924908E+02  0.58458604146E+02  0.51100000000E-03 0. -1.
<mgrwt>
<rscale>  0 0.20000362E+02</rscale>
<asrwt>0</asrwt>
<pdfrwt beam="2">  1        1 0.13215273E-03 0.20000362E+02</pdfrwt>
<pdfrwt beam="1">  1       -1 0.17910713E-01 0.20000362E+02</pdfrwt>
<totfact> 0.31013840E+06</totfact>
</mgrwt>
</event>
<event>
 5    1  0.1142572E-006  0.2000116E+02  0.7818608E-02  0.1745305E+00
         -1   -1    0    0    0  501 -0.00000000000E+00  0.00000000000E+00  0.56762974715E+02  0.56762974907E+02  0.46700000000E-02 0. -1.
          1   -1    0    0  501    0  0.00000000000E+00 -0.00000000000E+00 -0.17619129371E+01  0.17619191261E+01  0.46700000000E-02 0.  1.
       1023    2    1    2    0    0  0.00000000000E+00  0.00000000000E+00  0.55001061778E+02  0.58524894033E+02  0.20001160589E+02 0.  0.
        -11    1    3    3    0    0 -0.99896954060E+01  0.46645197444E+00  0.27489499556E+02  0.29252079889E+02  0.51100000000E-03 0.  1.
         11    1    3    3    0    0  0.99896954060E+01 -0.46645197444E+00  0.27511562222E+02  0.29272814144E+02  0.51100000000E-03 0. -1.
<mgrwt>
<rscale>  0 0.20001161E+02</rscale>
<asrwt>0</asrwt>
<pdfrwt beam="2">  1        1 0.27106404E-03 0.20001161E+02</pdfrwt>
<pdfrwt beam="1">  1       -1 0.87327653E-02 0.20001161E+02</pdfrwt>
<totfact> 0.34455779E+06</totfact>
</mgrwt>
</event>
<event>
 5    1  0.9583198E-007  0.2001047E+02  0.7818608E-02  0.1745120E+00
          1   -1    0    0  501    0  0.00000000000E+00  0.00000000000E+00  0.52331445939E+01  0.52331466776E+01  0.46700000000E-02 0.  1.
         -1   -1    0    0    0  501 -0.00000000000E+00 -0.00000000000E+00 -0.19128983900E+02  0.19128984470E+02  0.46700000000E-02 0. -1.
       1023    2    1    2    0    0  0.00000000000E+00  0.00000000000E+00 -0.13895839306E+02  0.24362131147E+02  0.20010474358E+02 0.  0.
        -11    1    3    3    0    0 -0.29245692773E+01 -0.95672564720E+01 -0.71169194604E+01  0.12277460842E+02  0.51100000000E-03 0.  1.
         11    1    3    3    0    0  0.29245692773E+01  0.95672564720E+01 -0.67789198453E+01  0.12084670305E+02  0.51100000000E-03 0. -1.
<mgrwt>
<rscale>  0 0.20010474E+02</rscale>
<asrwt>0</asrwt>
<pdfrwt beam="1">  1        1 0.80509938E-03 0.20010474E+02</pdfrwt>
<pdfrwt beam="2">  1       -1 0.29429208E-02 0.20010474E+02</pdfrwt>
<totfact> 0.37463227E+06</totfact>
</mgrwt>
</event>
<event>
 5    1  0.9583198E-007  0.2000030E+02  0.7818608E-02  0.1745322E+00
         -1   -1    0    0    0  501 -0.00000000000E+00  0.00000000000E+00  0.25431748941E+02  0.25431749370E+02  0.46700000000E-02 0.  1.
          1   -1    0    0  501    0  0.00000000000E+00 -0.00000000000E+00 -0.39322095210E+01  0.39322122941E+01  0.46700000000E-02 0. -1.
       1023    2    1    2    0    0  0.00000000000E+00  0.00000000000E+00  0.21499539420E+02  0.29363961664E+02  0.20000301231E+02 0.  0.
        -11    1    3    3    0    0 -0.95297263437E+01 -0.30309938002E+01  0.10720242613E+02  0.14660361849E+02  0.51100000000E-03 0.  1.
         11    1    3    3    0    0  0.95297263437E+01  0.30309938002E+01  0.10779296807E+02  0.14703599815E+02  0.51100000000E-03 0. -1.
<mgrwt>
<rscale>  0 0.20000301E+02</rscale>
<asrwt>0</asrwt>
<pdfrwt beam="2">  1        1 0.60495556E-03 0.20000301E+02</pdfrwt>
<pdfrwt beam="1">  1       -1 0.39125770E-02 0.20000301E+02</pdfrwt>
<totfact> 0.36891745E+06</totfact>
</mgrwt>
</event>
<event>
 5    1  0.9583198E-007  0.2000046E+02  0.7818608E-02  0.1745319E+00
          1   -1    0    0  501    0  0.00000000000E+00  0.00000000000E+00  0.98362179780E+00  0.98363288375E+00  0.46700000000E-02 0. -1.
         -1   -1    0    0    0  501 -0.00000000000E+00 -0.00000000000E+00 -0.10166914831E+03  0.10166914842E+03  0.46700000000E-02 0.  1.
       1023    2    1    2    0    0  0.00000000000E+00  0.00000000000E+00 -0.10068552651E+03  0.10265278130E+03  0.20000456490E+02 0.  0.
        -11    1    3    3    0    0  0.82528914376E+01  0.56474650378E+01 -0.50229585073E+02  0.51215381433E+02  0.51100000000E-03 0.  1.
         11    1    3    3    0    0 -0.82528914376E+01 -0.56474650378E+01 -0.50455941441E+02  0.51437399870E+02  0.51100000000E-03 0. -1.
<mgrwt>
<rscale>  0 0.20000456E+02</rscale>
<asrwt>0</asrwt>
<pdfrwt beam="1">  1        1 0.15132737E-03 0.20000456E+02</pdfrwt>
<pdfrwt beam="2">  1       -1 0.15641400E-01 0.20000456E+02</pdfrwt>
<totfact> 0.31776909E+06</totfact>
</mgrwt>
</event>
<event>
 5    1  0.9865307E-007  0.2000097E+02  0.7818608E-02  0.1745309E+00
          1   -1    0    0  501    0  0.00000000000E+00  0.00000000000E+00  0.31959255471E+02  0.31959255812E+02  0.46700000000E-02 0. -1.
         -1   -1    0    0    0  501 -0.00000000000E+00 -0.00000000000E+00 -0.31292863589E+01  0.31292898436E+01  0.46700000000E-02 0.  1.
       1023    2    1    2    0    0  0.00000000000E+00  0.00000000000E+00  0.28829969112E+02  0.35088545655E+02  0.20000972907E+02 0.  0.
        -11    1    3    3    0    0  0.78415111622E+01  0.62064198678E+01  0.14365857873E+02  0.17503908637E+02  0.51100000000E-03 0.  1.
         11    1    3    3    0    0 -0.78415111622E+01 -0.62064198678E+01  0.14464111239E+02  0.17584637019E+02  0.51100000000E-03 0. -1.
<mgrwt>
<rscale>  0 0.20000973E+02</rscale>
<asrwt>0</asrwt>
<pdfrwt beam="1">  1        1 0.49168089E-02 0.20000973E+02</pdfrwt>
<pdfrwt beam="2">  1       -1 0.48142896E-03 0.20000973E+02</pdfrwt>
<totfact> 0.40585601E+06</totfact>
</mgrwt>
</event>
<event>
 4    1  0.9583198E-007  0.2001393E+02  0.7818608E-02  0.1745051E+00
          1   -1    0    0  501    0  0.00000000000E+00  0.00000000000E+00  0.30456892701E+01  0.30456928504E+01  0.46700000000E-02 0. -1.
         -1   -1    0    0    0  501 -0.00000000000E+00 -0.00000000000E+00 -0.32879019517E+02  0.32879019849E+02  0.46700000000E-02 0.  1.
        -11    1    1    2    0    0  0.66745813957E+01 -0.74520438488E+01 -0.15342771484E+02  0.18316212256E+02  0.51100000000E-03 0. -1.
         11    1    1    2    0    0 -0.66745813957E+01  0.74520438488E+01 -0.14490558763E+02  0.17608500443E+02  0.51100000000E-03 0.  1.
<mgrwt>
<rscale>  0 0.20013930E+02</rscale>
<asrwt>0</asrwt>
<pdfrwt beam="1">  1        1 0.46856790E-03 0.20013930E+02</pdfrwt>
<pdfrwt beam="2">  1       -1 0.50583108E-02 0.20013930E+02</pdfrwt>
<totfact> 0.36186880E+06</totfact>
</mgrwt>
</event>
<event>
 5    1  0.9583198E-007  0.2000028E+02  0.7818608E-02  0.1745323E+00
          1   -1    0    0  501    0  0.00000000000E+00  0.00000000000E+00  0.33477249463E+02  0.33477249789E+02  0.46700000000E-02 0. -1.
         -1   -1    0    0    0  501 -0.00000000000E+00 -0.00000000000E+00 -0.29871848633E+01  0.29871885137E+01  0.46700000000E-02 0.  1.
       1023    2    1    2    0    0  0.00000000000E+00  0.00000000000E+00  0.30490064599E+02  0.36464438302E+02  0.20000280534E+02 0.  0.
        -11    1    3    3    0    0  0.55704164446E+00  0.99845237973E+01  0.15322260122E+02  0.18296793882E+02  0.51100000000E-03 0. -1.
         11    1    3    3    0    0 -0.55704164446E+00 -0.99845237973E+01  0.15167804477E+02  0.18167644420E+02  0.51100000000E-03 0.  1.
<mgrwt>
<rscale>  0 0.20000281E+02</rscale>
<asrwt>0</asrwt>
<pdfrwt beam="1">  1        1 0.51503462E-02 0.20000281E+02</pdfrwt>
<pdfrwt beam="2">  1       -1 0.45956723E-03 0.20000281E+02</pdfrwt>
<totfact> 0.40689996E+06</totfact>
</mgrwt>
</event>
<event>
 5    1  0.9583198E-007  0.2000033E+02  0.7818608E-02  0.1745321E+00
          1   -1    0    0  501    0  0.00000000000E+00  0.00000000000E+00  0.37274972052E+01  0.37275001306E+01  0.46700000000E-02 0. -1.
         -1   -1    0    0    0  501 -0.00000000000E+00 -0.00000000000E+00 -0.26828530626E+02  0.26828531033E+02  0.46700000000E-02 0.  1.
       1023    2    1    2    0    0  0.00000000000E+00  0.00000000000E+00 -0.23101033421E+02  0.30556031163E+02  0.20000332381E+02 0.  0.
        -11    1    3    3    0    0  0.97969892264E+01 -0.20053870241E+01 -0.11592316220E+02  0.15309616933E+02  0.51100000000E-03 0.  1.
         11    1    3    3    0    0 -0.97969892264E+01  0.20053870241E+01 -0.11508717201E+02  0.15246414231E+02  0.51100000000E-03 0. -1.
<mgrwt>
<rscale>  0 0.20000332E+02</rscale>
<asrwt>0</asrwt>
<pdfrwt beam="1">  1        1 0.57346138E-03 0.20000332E+02</pdfrwt>
<pdfrwt beam="2">  1       -1 0.41274664E-02 0.20000332E+02</pdfrwt>
<totfact> 0.36764684E+06</totfact>
</mgrwt>
</event>
<event>
 5    1  0.9583198E-007  0.2000334E+02  0.7818608E-02  0.1745262E+00
          1   -1    0    0  501    0  0.00000000000E+00  0.00000000000E+00  0.13931549343E+01  0.13931627615E+01  0.46700000000E-02 0.  1.
         -1   -1    0    0    0  501 -0.00000000000E+00 -0.00000000000E+00 -0.71803274482E+02  0.71803274633E+02  0.46700000000E-02 0. -1.
       1023    2    1    2    0    0  0.00000000000E+00  0.00000000000E+00 -0.70410119547E+02  0.73196437395E+02  0.20003337538E+02 0.  0.
        -11    1    3    3    0    0  0.62144431216E+01 -0.78355612676E+01 -0.35696733194E+02  0.37071175928E+02  0.51100000000E-03 0.  1.
         11    1    3    3    0    0 -0.62144431216E+01  0.78355612676E+01 -0.34713386354E+02  0.36125261467E+02  0.51100000000E-03 0. -1.
<mgrwt>
<rscale>  0 0.20003338E+02</rscale>
<asrwt>0</asrwt>
<pdfrwt beam="1">  1        1 0.21433220E-03 0.20003338E+02</pdfrwt>
<pdfrwt beam="2">  1       -1 0.11046655E-01 0.20003338E+02</pdfrwt>
<totfact> 0.33476288E+06</totfact>
</mgrwt>
</event>
<event>
 5    1  0.9668976E-007  0.2000059E+02  0.7818608E-02  0.1745316E+00
         -1   -1    0    0    0  501 -0.00000000000E+00  0.00000000000E+00  0.11742719441E+01  0.11742812302E+01  0.46700000000E-02 0. -1.
          1   -1    0    0  501    0  0.00000000000E+00 -0.00000000000E+00 -0.85163828628E+02  0.85163828756E+02  0.46700000000E-02 0.  1.
       1023    2    1    2    0    0  0.00000000000E+00  0.00000000000E+00 -0.83989556684E+02  0.86338109987E+02  0.20000590093E+02 0.  0.
        -11    1    3    3    0    0  0.82030972157E+01  0.57196327187E+01 -0.42124165365E+02  0.43294922454E+02  0.51100000000E-03 0.  1.
         11    1    3    3    0    0 -0.82030972157E+01 -0.57196327187E+01 -0.41865391320E+02  0.43043187533E+02  0.51100000000E-03 0. -1.
<mgrwt>
<rscale>  0 0.20000590E+02</rscale>
<asrwt>0</asrwt>
<pdfrwt beam="2">  1        1 0.13102123E-01 0.20000590E+02</pdfrwt>
<pdfrwt beam="1">  1       -1 0.18065801E-03 0.20000590E+02</pdfrwt>
<totfact> 0.43620913E+06</totfact>
</mgrwt>
</event>
<event>
 4    1  0.9583198E-007  0.2002689E+02  0.7818608E-02  0.1744794E+00
         -1   -1    0    0    0  501 -0.00000000000E+00  0.00000000000E+00  0.24773628522E+01  0.24773672539E+01  0.46700000000E-02 0.  1.
          1   -1    0    0  501    0  0.00000000000E+00 -0.00000000000E+00 -0.40474090736E+02  0.40474091005E+02  0.46700000000E-02 0. -1.
        -11    1    1    2    0    0  0.11774648638E+01 -0.99404288903E+01 -0.18428671817E+02  0.20971754701E+02  0.51100000000E-03 0.  1.
         11    1    1    2    0    0 -0.11774648638E+01  0.99404288903E+01 -0.19568056066E+02  0.21979703558E+02  0.51100000000E-03 0. -1.
<mgrwt>
<rscale>  0 0.20026893E+02</rscale>
<asrwt>0</asrwt>
<pdfrwt beam="2">  1        1 0.62267830E-02 0.20026893E+02</pdfrwt>
<pdfrwt beam="1">  1       -1 0.38113314E-03 0.20026893E+02</pdfrwt>
<totfact> 0.41017031E+06</totfact>
</mgrwt>
</event>
<event>
 5    1  0.9583198E-007  0.2000195E+02  0.7818608E-02  0.1745289E+00
          1   -1    0    0  501    0  0.00000000000E+00  0.00000000000E+00  0.54263017111E+01  0.54263037206E+01  0.46700000000E-02 0. -1.
         -1   -1    0    0    0  501 -0.00000000000E+00 -0.00000000000E+00 -0.18432348158E+02  0.18432348749E+02  0.46700000000E-02 0.  1.
       1023    2    1    2    0    0  0.00000000000E+00  0.00000000000E+00 -0.13006046447E+02  0.23858652470E+02  0.20001951243E+02 0.  0.
        -11    1    3    3    0    0  0.96347724792E+01 -0.26787640903E+01 -0.66486022318E+01  0.12008685593E+02  0.51100000000E-03 0.  1.
         11    1    3    3    0    0 -0.96347724792E+01  0.26787640903E+01 -0.63574442150E+01  0.11849966877E+02  0.51100000000E-03 0. -1.
<mgrwt>
<rscale>  0 0.20001951E+02</rscale>
<asrwt>0</asrwt>
<pdfrwt beam="1">  1        1 0.83481585E-03 0.20001951E+02</pdfrwt>
<pdfrwt beam="2">  1       -1 0.28357461E-02 0.20001951E+02</pdfrwt>
<totfact> 0.37571138E+06</totfact>
</mgrwt>
</event>
<event>
 4    1  0.1178575E-006  0.2057854E+02  0.7818608E-02  0.1734062E+00
          1   -1    0    0  501    0  0.00000000000E+00  0.00000000000E+00  0.67180371310E+02  0.67180371472E+02  0.46700000000E-02 0.  1.
         -1   -1    0    0    0  501 -0.00000000000E+00 -0.00000000000E+00 -0.15758887781E+01  0.15758956976E+01  0.46700000000E-02 0. -1.
        -11    1    1    2    0    0  0.10097532259E+02  0.94325814869E-01  0.39400496039E+02  0.40673924613E+02  0.51100000000E-03 0. -1.
         11    1    1    2    0    0 -0.10097532259E+02 -0.94325814869E-01  0.26203986493E+02  0.28082342556E+02  0.51100000000E-03 0.  1.
<mgrwt>
<rscale>  0 0.20578536E+02</rscale>
<asrwt>0</asrwt>
<pdfrwt beam="1">  1        1 0.10335440E-01 0.20578536E+02</pdfrwt>
<pdfrwt beam="2">  1       -1 0.24244503E-03 0.20578536E+02</pdfrwt>
<totfact> 0.40061188E+06</totfact>
</mgrwt>
</event>
<event>
 4    1  0.9583198E-007  0.2002161E+02  0.7818608E-02  0.1744899E+00
          1   -1    0    0  501    0  0.00000000000E+00  0.00000000000E+00  0.49616956984E+02  0.49616957204E+02  0.46700000000E-02 0. -1.
         -1   -1    0    0    0  501 -0.00000000000E+00 -0.00000000000E+00 -0.20197953705E+01  0.20198007693E+01  0.46700000000E-02 0.  1.
        -11    1    1    2    0    0  0.15129100269E+01  0.98881364570E+01  0.24804428750E+02  0.26745538417E+02  0.51100000000E-03 0.  1.
         11    1    1    2    0    0 -0.15129100269E+01 -0.98881364570E+01  0.22792732863E+02  0.24891219556E+02  0.51100000000E-03 0. -1.
<mgrwt>
<rscale>  0 0.20021613E+02</rscale>
<asrwt>0</asrwt>
<pdfrwt beam="1">  1        1 0.76333774E-02 0.20021613E+02</pdfrwt>
<pdfrwt beam="2">  1       -1 0.31073822E-03 0.20021613E+02</pdfrwt>
<totfact> 0.41592384E+06</totfact>
</mgrwt>
</event>
<event>
 5    1  0.9583198E-007  0.2000037E+02  0.7818608E-02  0.1745321E+00
         -1   -1    0    0    0  501 -0.00000000000E+00  0.00000000000E+00  0.20349246513E+01  0.20349300100E+01  0.46700000000E-02 0. -1.
          1   -1    0    0  501    0  0.00000000000E+00 -0.00000000000E+00 -0.49143626250E+02  0.49143626472E+02  0.46700000000E-02 0.  1.
       1023    2    1    2    0    0  0.00000000000E+00  0.00000000000E+00 -0.47108701599E+02  0.51178556482E+02  0.20000371928E+02 0.  0.
        -11    1    3    3    0    0 -0.41305094918E+01  0.91071952950E+01 -0.23656841805E+02  0.25683618889E+02  0.51100000000E-03 0.  1.
         11    1    3    3    0    0  0.41305094918E+01 -0.91071952950E+01 -0.23451859794E+02  0.25494937593E+02  0.51100000000E-03 0. -1.
<mgrwt>
<rscale>  0 0.20000372E+02</rscale>
<asrwt>0</asrwt>
<pdfrwt beam="2">  1        1 0.75605574E-02 0.20000372E+02</pdfrwt>
<pdfrwt beam="1">  1       -1 0.31306580E-03 0.20000372E+02</pdfrwt>
<totfact> 0.41662782E+06</totfact>
</mgrwt>
</event>
<event>
 4    1  0.9583198E-007  0.2010297E+02  0.7818608E-02  0.1743288E+00
          1   -1    0    0  501    0  0.00000000000E+00  0.00000000000E+00  0.25750445778E+01  0.25750488124E+01  0.46700000000E-02 0. -1.
         -1   -1    0    0    0  501 -0.00000000000E+00 -0.00000000000E+00 -0.39235161436E+02  0.39235161714E+02  0.46700000000E-02 0.  1.
        -11    1    1    2    0    0 -0.57976329656E+01 -0.81824127960E+01 -0.16907320673E+02  0.19657617347E+02  0.51100000000E-03 0.  1.
         11    1    1    2    0    0  0.57976329656E+01  0.81824127960E+01 -0.19752796186E+02  0.22152593180E+02  0.51100000000E-03 0. -1.
<mgrwt>
<rscale>  0 0.20102973E+02</rscale>
<asrwt>0</asrwt>
<pdfrwt beam="1">  1        1 0.39616108E-03 0.20102973E+02</pdfrwt>
<pdfrwt beam="2">  1       -1 0.60361786E-02 0.20102973E+02</pdfrwt>
<totfact> 0.35329102E+06</totfact>
</mgrwt>
</event>
<event>
 5    1  0.9583198E-007  0.2000013E+02  0.7818608E-02  0.1745326E+00
          1   -1    0    0  501    0  0.00000000000E+00  0.00000000000E+00  0.13328810924E+02  0.13328811742E+02  0.46700000000E-02 0. -1.
         -1   -1    0    0    0  501 -0.00000000000E+00 -0.00000000000E+00 -0.75026376366E+01  0.75026390900E+01  0.46700000000E-02 0.  1.
       1023    2    1    2    0    0  0.00000000000E+00  0.00000000000E+00  0.58261732873E+01  0.20831450832E+02  0.20000126214E+02 0.  0.
        -11    1    3    3    0    0 -0.44690629538E+00  0.99900608499E+01  0.28976073492E+01  0.10411396142E+02  0.51100000000E-03 0.  1.
         11    1    3    3    0    0  0.44690629538E+00 -0.99900608499E+01  0.29285659382E+01  0.10420054690E+02  0.51100000000E-03 0. -1.
<mgrwt>
<rscale>  0 0.20000126E+02</rscale>
<asrwt>0</asrwt>
<pdfrwt beam="1">  1        1 0.20505865E-02 0.20000126E+02</pdfrwt>
<pdfrwt beam="2">  1       -1 0.11542521E-02 0.20000126E+02</pdfrwt>
<totfact> 0.39062884E+06</totfact>
</mgrwt>
</event>
<event>
 5    1  0.9583198E-007  0.2000181E+02  0.7818608E-02  0.1745292E+00
          1   -1    0    0  501    0  0.00000000000E+00  0.00000000000E+00  0.17648419620E+01  0.17648481407E+01  0.46700000000E-02 0.  1.
         -1   -1    0    0    0  501 -0.00000000000E+00 -0.00000000000E+00 -0.56672430762E+02  0.56672430955E+02  0.46700000000E-02 0. -1.
       1023    2    1    2    0    0  0.00000000000E+00  0.00000000000E+00 -0.54907588800E+02  0.58437279096E+02  0.20001806924E+02 0.  0.
        -11    1    3    3    0    0 -0.92812404229E+01  0.37232256814E+01 -0.27802390771E+02  0.29546180228E+02  0.51100000000E-03 0.  1.
         11    1    3    3    0    0  0.92812404229E+01 -0.37232256814E+01 -0.27105198030E+02  0.28891098867E+02  0.51100000000E-03 0. -1.
<mgrwt>
<rscale>  0 0.20001807E+02</rscale>
<asrwt>0</asrwt>
<pdfrwt beam="1">  1        1 0.27151468E-03 0.20001807E+02</pdfrwt>
<pdfrwt beam="2">  1       -1 0.87188346E-02 0.20001807E+02</pdfrwt>
<totfact> 0.34459468E+06</totfact>
</mgrwt>
</event>
<event>
 5    1  0.9583198E-007  0.2000046E+02  0.7818608E-02  0.1745319E+00
         -1   -1    0    0    0  501 -0.00000000000E+00  0.00000000000E+00  0.87219972724E+02  0.87219972850E+02  0.46700000000E-02 0.  1.
          1   -1    0    0  501    0  0.00000000000E+00 -0.00000000000E+00 -0.11465741816E+01  0.11465836921E+01  0.46700000000E-02 0. -1.
       1023    2    1    2    0    0  0.00000000000E+00  0.00000000000E+00  0.86073398543E+02  0.88366556542E+02  0.20000459452E+02 0.  0.
        -11    1    3    3    0    0  0.64723185383E+01 -0.76231958292E+01  0.43142404959E+02  0.44286240841E+02  0.51100000000E-03 0.  1.
         11    1    3    3    0    0 -0.64723185383E+01  0.76231958292E+01  0.42930993584E+02  0.44080315701E+02  0.51100000000E-03 0. -1.
<mgrwt>
<rscale>  0 0.20000459E+02</rscale>
<asrwt>0</asrwt>
<pdfrwt beam="2">  1        1 0.17639672E-03 0.20000459E+02</pdfrwt>
<pdfrwt beam="1">  1       -1 0.13418462E-01 0.20000459E+02</pdfrwt>
<totfact> 0.32572896E+06</totfact>
</mgrwt>
</event>
<event>
 5    1  0.9583198E-007  0.2000015E+02  0.7818608E-02  0.1745325E+00
          1   -1    0    0  501    0  0.00000000000E+00  0.00000000000E+00  0.11057217774E+03  0.11057217783E+03  0.46700000000E-02 0. -1.
         -1   -1    0    0    0  501 -0.00000000000E+00 -0.00000000000E+00 -0.90439377970E+00  0.90440583681E+00  0.46700000000E-02 0.  1.
       1023    2    1    2    0    0  0.00000000000E+00  0.00000000000E+00  0.10966778396E+03  0.11147658367E+03  0.20000146729E+02 0.  0.
        -11    1    3    3    0    0  0.69585880511E+01 -0.71818322423E+01  0.54675748672E+02  0.55582714535E+02  0.51100000000E-03 0.  1.
         11    1    3    3    0    0 -0.69585880511E+01  0.71818322423E+01  0.54992035285E+02  0.55893869136E+02  0.51100000000E-03 0. -1.
<mgrwt>
<rscale>  0 0.20000147E+02</rscale>
<asrwt>0</asrwt>
<pdfrwt beam="1">  1        1 0.17011106E-01 0.20000147E+02</pdfrwt>
<pdfrwt beam="2">  1       -1 0.13913843E-03 0.20000147E+02</pdfrwt>
<totfact> 0.44863743E+06</totfact>
</mgrwt>
</event>
<event>
 5    1  0.9583198E-007  0.2000055E+02  0.7818608E-02  0.1745317E+00
         -1   -1    0    0    0  501 -0.00000000000E+00  0.00000000000E+00  0.13423315583E+02  0.13423316396E+02  0.46700000000E-02 0.  1.
          1   -1    0    0  501    0  0.00000000000E+00 -0.00000000000E+00 -0.74501311618E+01  0.74501326254E+01  0.46700000000E-02 0. -1.
       1023    2    1    2    0    0  0.00000000000E+00  0.00000000000E+00  0.59731844214E+01  0.20873449021E+02  0.20000548540E+02 0.  0.
        -11    1    3    3    0    0  0.97966729486E+01 -0.20075090523E+01  0.30119799545E+01  0.10443989514E+02  0.51100000000E-03 0.  1.
         11    1    3    3    0    0 -0.97966729486E+01  0.20075090523E+01  0.29612044669E+01  0.10429459507E+02  0.51100000000E-03 0. -1.
<mgrwt>
<rscale>  0 0.20000549E+02</rscale>
<asrwt>0</asrwt>
<pdfrwt beam="2">  1        1 0.11461742E-02 0.20000549E+02</pdfrwt>
<pdfrwt beam="1">  1       -1 0.20651257E-02 0.20000549E+02</pdfrwt>
<totfact> 0.38148654E+06</totfact>
</mgrwt>
</event>
<event>
 5    1  0.9583198E-007  0.2000039E+02  0.7818608E-02  0.1745320E+00
         -1   -1    0    0    0  501 -0.00000000000E+00  0.00000000000E+00  0.95813018321E+01  0.95813029702E+01  0.46700000000E-02 0. -1.
          1   -1    0    0  501    0  0.00000000000E+00 -0.00000000000E+00 -0.10437396749E+02  0.10437397794E+02  0.46700000000E-02 0.  1.
       1023    2    1    2    0    0  0.00000000000E+00  0.00000000000E+00 -0.85609491666E+00  0.20018700764E+02  0.20000387040E+02 0.  0.
        -11    1    3    3    0    0 -0.19364138600E+01 -0.98108383756E+01 -0.38773763403E+00  0.10007626542E+02  0.51100000000E-03 0. -1.
         11    1    3    3    0    0  0.19364138600E+01  0.98108383756E+01 -0.46835728263E+00  0.10011074222E+02  0.51100000000E-03 0.  1.
<mgrwt>
<rscale>  0 0.20000387E+02</rscale>
<asrwt>0</asrwt>
<pdfrwt beam="2">  1        1 0.16057535E-02 0.20000387E+02</pdfrwt>
<pdfrwt beam="1">  1       -1 0.14740466E-02 0.20000387E+02</pdfrwt>
<totfact> 0.38688393E+06</totfact>
</mgrwt>
</event>
<event>
 5    1  0.9583198E-007  0.2000089E+02  0.7818608E-02  0.1745310E+00
          1   -1    0    0  501    0  0.00000000000E+00  0.00000000000E+00  0.26114114195E+01  0.26114155951E+01  0.46700000000E-02 0.  1.
         -1   -1    0    0    0  501 -0.00000000000E+00 -0.00000000000E+00 -0.38296824311E+02  0.38296824595E+02  0.46700000000E-02 0. -1.
       1023    2    1    2    0    0  0.00000000000E+00  0.00000000000E+00 -0.35685412891E+02  0.40908240190E+02  0.20000885537E+02 0.  0.
        -11    1    3    3    0    0 -0.28972875517E+01  0.95715405049E+01 -0.17871084933E+02  0.20478875451E+02  0.51100000000E-03 0.  1.
         11    1    3    3    0    0  0.28972875517E+01 -0.95715405049E+01 -0.17814327958E+02  0.20429364739E+02  0.51100000000E-03 0. -1.
<mgrwt>
<rscale>  0 0.20000886E+02</rscale>
<asrwt>0</asrwt>
<pdfrwt beam="1">  1        1 0.40175597E-03 0.20000886E+02</pdfrwt>
<pdfrwt beam="2">  1       -1 0.58918191E-02 0.20000886E+02</pdfrwt>
<totfact> 0.35800530E+06</totfact>
</mgrwt>
</event>
<event>
 5    1  0.9583198E-007  0.2000496E+02  0.7818608E-02  0.1745229E+00
         -1   -1    0    0    0  501 -0.00000000000E+00  0.00000000000E+00  0.99465470786E+00  0.99466567085E+00  0.46700000000E-02 0. -1.
          1   -1    0    0  501    0  0.00000000000E+00 -0.00000000000E+00 -0.10058673075E+03  0.10058673086E+03  0.46700000000E-02 0.  1.
       1023    2    1    2    0    0  0.00000000000E+00  0.00000000000E+00 -0.99592076043E+02  0.10158139653E+03  0.20004962146E+02 0.  0.
        -11    1    3    3    0    0 -0.20231978239E+01 -0.97952732711E+01 -0.49316474877E+02  0.50320526651E+02  0.51100000000E-03 0.  1.
         11    1    3    3    0    0  0.20231978239E+01  0.97952732711E+01 -0.50275601166E+02  0.51260869879E+02  0.51100000000E-03 0. -1.
<mgrwt>
<rscale>  0 0.20004962E+02</rscale>
<asrwt>0</asrwt>
<pdfrwt beam="2">  1        1 0.15474875E-01 0.20004962E+02</pdfrwt>
<pdfrwt beam="1">  1       -1 0.15302473E-03 0.20004962E+02</pdfrwt>
<totfact> 0.44364818E+06</totfact>
</mgrwt>
</event>
<event>
 4    1  0.9583198E-007  0.2119803E+02  0.7818608E-02  0.1722502E+00
         -1   -1    0    0    0  501 -0.00000000000E+00  0.00000000000E+00  0.13246163061E+02  0.13246163884E+02  0.46700000000E-02 0.  1.
          1   -1    0    0  501    0  0.00000000000E+00 -0.00000000000E+00 -0.84808748708E+01  0.84808761566E+01  0.46700000000E-02 0. -1.
        -11    1    1    2    0    0  0.41741709332E+01 -0.97334782643E+01  0.28111344604E+01  0.10957498771E+02  0.51100000000E-03 0. -1.
         11    1    1    2    0    0 -0.41741709332E+01  0.97334782643E+01  0.19541537298E+01  0.10769541270E+02  0.51100000000E-03 0.  1.
<mgrwt>
<rscale>  0 0.21198026E+02</rscale>
<asrwt>0</asrwt>
<pdfrwt beam="2">  1        1 0.13047501E-02 0.21198026E+02</pdfrwt>
<pdfrwt beam="1">  1       -1 0.20378714E-02 0.21198026E+02</pdfrwt>
<totfact> 0.33578930E+06</totfact>
</mgrwt>
</event>
<event>
 5    1  0.9583198E-007  0.2000057E+02  0.7818608E-02  0.1745317E+00
          1   -1    0    0  501    0  0.00000000000E+00  0.00000000000E+00  0.79362725457E+01  0.79362739197E+01  0.46700000000E-02 0.  1.
         -1   -1    0    0    0  501 -0.00000000000E+00 -0.00000000000E+00 -0.12601092756E+02  0.12601093621E+02  0.46700000000E-02 0. -1.
       1023    2    1    2    0    0  0.00000000000E+00  0.00000000000E+00 -0.46648202100E+01  0.20537367541E+02  0.20000572940E+02 0.  0.
        -11    1    3    3    0    0  0.26006123582E+01 -0.96561763300E+01 -0.23615126796E+01  0.10275294076E+02  0.51100000000E-03 0. -1.
         11    1    3    3    0    0 -0.26006123582E+01  0.96561763300E+01 -0.23033075303E+01  0.10262073465E+02  0.51100000000E-03 0.  1.
<mgrwt>
<rscale>  0 0.20000573E+02</rscale>
<asrwt>0</asrwt>
<pdfrwt beam="1">  1        1 0.12209652E-02 0.20000573E+02</pdfrwt>
<pdfrwt beam="2">  1       -1 0.19386298E-02 0.20000573E+02</pdfrwt>
<totfact> 0.38253670E+06</totfact>
</mgrwt>
</event>
<event>
 5    1  0.9583198E-007  0.2000067E+02  0.7818608E-02  0.1745315E+00
          1   -1    0    0  501    0  0.00000000000E+00  0.00000000000E+00  0.12680250058E+02  0.12680250918E+02  0.46700000000E-02 0. -1.
         -1   -1    0    0    0  501 -0.00000000000E+00 -0.00000000000E+00 -0.78868082134E+01  0.78868095960E+01  0.46700000000E-02 0.  1.
       1023    2    1    2    0    0  0.00000000000E+00  0.00000000000E+00  0.47934418448E+01  0.20567060514E+02  0.20000672326E+02 0.  0.
        -11    1    3    3    0    0 -0.10000049738E+02  0.36014192062E-01  0.23282676891E+01  0.10267576271E+02  0.51100000000E-03 0. -1.
         11    1    3    3    0    0  0.10000049738E+02 -0.36014192062E-01  0.24651741557E+01  0.10299484243E+02  0.51100000000E-03 0.  1.
<mgrwt>
<rscale>  0 0.20000672E+02</rscale>
<asrwt>0</asrwt>
<pdfrwt beam="1">  1        1 0.19508079E-02 0.20000672E+02</pdfrwt>
<pdfrwt beam="2">  1       -1 0.12133553E-02 0.20000672E+02</pdfrwt>
<totfact> 0.38984459E+06</totfact>
</mgrwt>
</event>
<event>
 5    1  0.9583198E-007  0.2000026E+02  0.7818608E-02  0.1745323E+00
          1   -1    0    0  501    0  0.00000000000E+00  0.00000000000E+00  0.16901399730E+02  0.16901400375E+02  0.46700000000E-02 0. -1.
         -1   -1    0    0    0  501 -0.00000000000E+00 -0.00000000000E+00 -0.59168203032E+01  0.59168221461E+01  0.46700000000E-02 0.  1.
       1023    2    1    2    0    0  0.00000000000E+00  0.00000000000E+00  0.10984579427E+02  0.22818222522E+02  0.20000257345E+02 0.  0.
        -11    1    3    3    0    0  0.97977560029E+01  0.20013333366E+01  0.55320640874E+01  0.11428258448E+02  0.51100000000E-03 0. -1.
         11    1    3    3    0    0 -0.97977560029E+01 -0.20013333366E+01  0.54525153397E+01  0.11389964074E+02  0.51100000000E-03 0.  1.
<mgrwt>
<rscale>  0 0.20000257E+02</rscale>
<asrwt>0</asrwt>
<pdfrwt beam="1">  1        1 0.26002155E-02 0.20000257E+02</pdfrwt>
<pdfrwt beam="2">  1       -1 0.91028025E-03 0.20000257E+02</pdfrwt>
<totfact> 0.39430411E+06</totfact>
</mgrwt>
</event>
<event>
 5    1  0.9583198E-007  0.2000070E+02  0.7818608E-02  0.1745314E+00
          1   -1    0    0  501    0  0.00000000000E+00  0.00000000000E+00  0.40066999056E+01  0.40067026272E+01  0.46700000000E-02 0. -1.
         -1   -1    0    0    0  501 -0.00000000000E+00 -0.00000000000E+00 -0.24959922869E+02  0.24959923306E+02  0.46700000000E-02 0.  1.
       1023    2    1    2    0    0  0.00000000000E+00  0.00000000000E+00 -0.20953222964E+02  0.28966625933E+02  0.20000696623E+02 0.  0.
        -11    1    3    3    0    0 -0.24510742742E+01 -0.96952041394E+01 -0.10408408590E+02  0.14433977901E+02  0.51100000000E-03 0. -1.
         11    1    3    3    0    0  0.24510742742E+01  0.96952041394E+01 -0.10544814374E+02  0.14532648033E+02  0.51100000000E-03 0.  1.
<mgrwt>
<rscale>  0 0.20000697E+02</rscale>
<asrwt>0</asrwt>
<pdfrwt beam="1">  1        1 0.61641563E-03 0.20000697E+02</pdfrwt>
<pdfrwt beam="2">  1       -1 0.38399883E-02 0.20000697E+02</pdfrwt>
<totfact> 0.36933644E+06</totfact>
</mgrwt>
</event>
<event>
 5    1  0.9583198E-007  0.2000031E+02  0.7818608E-02  0.1745322E+00
         -1   -1    0    0    0  501 -0.00000000000E+00  0.00000000000E+00  0.19401777854E+01  0.19401834057E+01  0.46700000000E-02 0.  1.
          1   -1    0    0  501    0  0.00000000000E+00 -0.00000000000E+00 -0.51543209596E+02  0.51543209807E+02  0.46700000000E-02 0. -1.
       1023    2    1    2    0    0  0.00000000000E+00  0.00000000000E+00 -0.49603031811E+02  0.53483393213E+02  0.20000314617E+02 0.  0.
        -11    1    3    3    0    0 -0.38095734525E+01  0.92459744880E+01 -0.24928412064E+02  0.26859386114E+02  0.51100000000E-03 0. -1.
         11    1    3    3    0    0  0.38095734525E+01 -0.92459744880E+01 -0.24674619746E+02  0.26624007099E+02  0.51100000000E-03 0.  1.
<mgrwt>
<rscale>  0 0.20000315E+02</rscale>
<asrwt>0</asrwt>
<pdfrwt beam="2">  1        1 0.79297240E-02 0.20000315E+02</pdfrwt>
<pdfrwt beam="1">  1       -1 0.29848938E-03 0.20000315E+02</pdfrwt>
<totfact> 0.41803465E+06</totfact>
</mgrwt>
</event>
<event>
 5    1  0.9583198E-007  0.2000090E+02  0.7818608E-02  0.1745310E+00
         -1   -1    0    0    0  501 -0.00000000000E+00  0.00000000000E+00  0.25155621685E+02  0.25155622119E+02  0.46700000000E-02 0. -1.
          1   -1    0    0  501    0  0.00000000000E+00 -0.00000000000E+00 -0.39756118658E+01  0.39756146086E+01  0.46700000000E-02 0.  1.
       1023    2    1    2    0    0  0.00000000000E+00  0.00000000000E+00  0.21180009820E+02  0.29131236727E+02  0.20000903412E+02 0.  0.
        -11    1    3    3    0    0  0.99656707043E+01  0.83062545163E+00  0.10687740468E+02  0.14636677485E+02  0.51100000000E-03 0.  1.
         11    1    3    3    0    0 -0.99656707043E+01 -0.83062545163E+00  0.10492269351E+02  0.14494559242E+02  0.51100000000E-03 0. -1.
<mgrwt>
<rscale>  0 0.20000903E+02</rscale>
<asrwt>0</asrwt>
<pdfrwt beam="2">  1        1 0.61163282E-03 0.20000903E+02</pdfrwt>
<pdfrwt beam="1">  1       -1 0.38700960E-02 0.20000903E+02</pdfrwt>
<totfact> 0.36914721E+06</totfact>
</mgrwt>
</event>
<event>
 5    1  0.9583198E-007  0.2000277E+02  0.7818608E-02  0.1745273E+00
         -1   -1    0    0    0  501 -0.00000000000E+00  0.00000000000E+00  0.69841077824E+02  0.69841077980E+02  0.46700000000E-02 0.  1.
          1   -1    0    0  501    0  0.00000000000E+00 -0.00000000000E+00 -0.14322152506E+01  0.14322228643E+01  0.46700000000E-02 0. -1.
       1023    2    1    2    0    0  0.00000000000E+00  0.00000000000E+00  0.68408862574E+02  0.71273300845E+02  0.20002773174E+02 0.  0.
        -11    1    3    3    0    0  0.87048243935E+01 -0.49238225242E+01  0.34556039440E+02  0.35974127620E+02  0.51100000000E-03 0. -1.
         11    1    3    3    0    0 -0.87048243935E+01  0.49238225242E+01  0.33852823134E+02  0.35299173225E+02  0.51100000000E-03 0.  1.
<mgrwt>
<rscale>  0 0.20002773E+02</rscale>
<asrwt>0</asrwt>
<pdfrwt beam="2">  1        1 0.22034143E-03 0.20002773E+02</pdfrwt>
<pdfrwt beam="1">  1       -1 0.10744780E-01 0.20002773E+02</pdfrwt>
<totfact> 0.33600129E+06</totfact>
</mgrwt>
</event>
<event>
 5    1  0.9583198E-007  0.2000368E+02  0.7818608E-02  0.1745255E+00
          1   -1    0    0  501    0  0.00000000000E+00  0.00000000000E+00  0.81285129697E+01  0.81285143112E+01  0.46700000000E-02 0.  1.
         -1   -1    0    0    0  501 -0.00000000000E+00 -0.00000000000E+00 -0.12306904080E+02  0.12306904966E+02  0.46700000000E-02 0. -1.
       1023    2    1    2    0    0  0.00000000000E+00  0.00000000000E+00 -0.41783911106E+01  0.20435419278E+02  0.20003684880E+02 0.  0.
        -11    1    3    3    0    0 -0.50880955344E+01  0.86099216671E+01 -0.19544989864E+01  0.10190168489E+02  0.51100000000E-03 0. -1.
         11    1    3    3    0    0  0.50880955344E+01 -0.86099216671E+01 -0.22238921242E+01  0.10245250789E+02  0.51100000000E-03 0.  1.
<mgrwt>
<rscale>  0 0.20003685E+02</rscale>
<asrwt>0</asrwt>
<pdfrwt beam="1">  1        1 0.12505406E-02 0.20003685E+02</pdfrwt>
<pdfrwt beam="2">  1       -1 0.18933700E-02 0.20003685E+02</pdfrwt>
<totfact> 0.38279302E+06</totfact>
</mgrwt>
</event>
<event>
 4    1  0.9583198E-007  0.2004336E+02  0.7818608E-02  0.1744467E+00
          1   -1    0    0  501    0  0.00000000000E+00  0.00000000000E+00  0.29105933132E+01  0.29105970597E+01  0.46700000000E-02 0. -1.
         -1   -1    0    0    0  501 -0.00000000000E+00 -0.00000000000E+00 -0.34506373938E+02  0.34506374254E+02  0.46700000000E-02 0.  1.
        -11    1    1    2    0    0  0.21187391902E+01  0.97775543191E+01 -0.16893549525E+02  0.19633686359E+02  0.51100000000E-03 0. -1.
         11    1    1    2    0    0 -0.21187391902E+01 -0.97775543191E+01 -0.14702231100E+02  0.17783284955E+02  0.51100000000E-03 0.  1.
<mgrwt>
<rscale>  0 0.20043363E+02</rscale>
<asrwt>0</asrwt>
<pdfrwt beam="1">  1        1 0.44778392E-03 0.20043363E+02</pdfrwt>
<pdfrwt beam="2">  1       -1 0.53086729E-02 0.20043363E+02</pdfrwt>
<totfact> 0.35936332E+06</totfact>
</mgrwt>
</event>
<event>
 5    1  0.9583198E-007  0.2000043E+02  0.7818608E-02  0.1745320E+00
         -1   -1    0    0    0  501 -0.00000000000E+00  0.00000000000E+00  0.65935917479E+02  0.65935917644E+02  0.46700000000E-02 0.  1.
          1   -1    0    0  501    0  0.00000000000E+00 -0.00000000000E+00 -0.15166849898E+01  0.15166921794E+01  0.46700000000E-02 0. -1.
       1023    2    1    2    0    0  0.00000000000E+00  0.00000000000E+00  0.64419232489E+02  0.67452609823E+02  0.20000426434E+02 0.  0.
        -11    1    3    3    0    0 -0.86083610107E+01  0.50889763497E+01  0.32385007014E+02  0.33893808271E+02  0.51100000000E-03 0. -1.
         11    1    3    3    0    0  0.86083610107E+01 -0.50889763497E+01  0.32034225475E+02  0.33558801552E+02  0.51100000000E-03 0.  1.
<mgrwt>
<rscale>  0 0.20000426E+02</rscale>
<asrwt>0</asrwt>
<pdfrwt beam="2">  1        1 0.23333681E-03 0.20000426E+02</pdfrwt>
<pdfrwt beam="1">  1       -1 0.10143984E-01 0.20000426E+02</pdfrwt>
<totfact> 0.33855333E+06</totfact>
</mgrwt>
</event>
<event>
 5    1  0.9583198E-007  0.2000076E+02  0.7818608E-02  0.1745313E+00
         -1   -1    0    0    0  501 -0.00000000000E+00  0.00000000000E+00  0.71728291563E+02  0.71728291715E+02  0.46700000000E-02 0.  1.
          1   -1    0    0  501    0  0.00000000000E+00 -0.00000000000E+00 -0.13942525371E+01  0.13942603581E+01  0.46700000000E-02 0. -1.
       1023    2    1    2    0    0  0.00000000000E+00  0.00000000000E+00  0.70334039026E+02  0.73122552073E+02  0.20000764385E+02 0.  0.
        -11    1    3    3    0    0 -0.86709675331E+01 -0.49819428333E+01  0.34995095536E+02  0.36395908344E+02  0.51100000000E-03 0. -1.
         11    1    3    3    0    0  0.86709675331E+01  0.49819428333E+01  0.35338943490E+02  0.36726643729E+02  0.51100000000E-03 0.  1.
<mgrwt>
<rscale>  0 0.20000764E+02</rscale>
<asrwt>0</asrwt>
<pdfrwt beam="2">  1        1 0.21450099E-03 0.20000764E+02</pdfrwt>
<pdfrwt beam="1">  1       -1 0.11035123E-01 0.20000764E+02</pdfrwt>
<totfact> 0.33490371E+06</totfact>
</mgrwt>
</event>
<event>
 5    1  0.9583198E-007  0.2000213E+02  0.7818608E-02  0.1745286E+00
          1   -1    0    0  501    0  0.00000000000E+00  0.00000000000E+00  0.14516134010E+01  0.14516209129E+01  0.46700000000E-02 0. -1.
         -1   -1    0    0    0  501 -0.00000000000E+00 -0.00000000000E+00 -0.68903359675E+02  0.68903359833E+02  0.46700000000E-02 0.  1.
       1023    2    1    2    0    0  0.00000000000E+00  0.00000000000E+00 -0.67451746274E+02  0.70354980746E+02  0.20002130896E+02 0.  0.
        -11    1    3    3    0    0 -0.81070524644E+01 -0.58562493629E+01 -0.33855280649E+02  0.35301557818E+02  0.51100000000E-03 0. -1.
         11    1    3    3    0    0  0.81070524644E+01  0.58562493629E+01 -0.33596465625E+02  0.35053422929E+02  0.51100000000E-03 0.  1.
<mgrwt>
<rscale>  0 0.20002131E+02</rscale>
<asrwt>0</asrwt>
<pdfrwt beam="1">  1        1 0.22332578E-03 0.20002131E+02</pdfrwt>
<pdfrwt beam="2">  1       -1 0.10600515E-01 0.20002131E+02</pdfrwt>
<totfact> 0.33661170E+06</totfact>
</mgrwt>
</event>
<event>
 5    1  0.9583198E-007  0.2001036E+02  0.7818608E-02  0.1745122E+00
         -1   -1    0    0    0  501 -0.00000000000E+00  0.00000000000E+00  0.20807939756E+02  0.20807940280E+02  0.46700000000E-02 0.  1.
          1   -1    0    0  501    0  0.00000000000E+00 -0.00000000000E+00 -0.48108341385E+01  0.48108364051E+01  0.46700000000E-02 0. -1.
       1023    2    1    2    0    0  0.00000000000E+00  0.00000000000E+00  0.15997105617E+02  0.25618776685E+02  0.20010355587E+02 0.  0.
        -11    1    3    3    0    0  0.77995098687E+01 -0.62634880820E+01  0.82544327594E+01  0.12969167189E+02  0.51100000000E-03 0. -1.
         11    1    3    3    0    0 -0.77995098687E+01  0.62634880820E+01  0.77426728580E+01  0.12649609496E+02  0.51100000000E-03 0.  1.
<mgrwt>
<rscale>  0 0.20010356E+02</rscale>
<asrwt>0</asrwt>
<pdfrwt beam="2">  1        1 0.74012854E-03 0.20010356E+02</pdfrwt>
<pdfrwt beam="1">  1       -1 0.32012217E-02 0.20010356E+02</pdfrwt>
<totfact> 0.37292842E+06</totfact>
</mgrwt>
</event>
<event>
 5    1  0.9583198E-007  0.2000122E+02  0.7818608E-02  0.1745304E+00
          1   -1    0    0  501    0  0.00000000000E+00  0.00000000000E+00  0.12282212738E+01  0.12282301520E+01  0.46700000000E-02 0. -1.
         -1   -1    0    0    0  501 -0.00000000000E+00 -0.00000000000E+00 -0.81428211589E+02  0.81428211723E+02  0.46700000000E-02 0.  1.
       1023    2    1    2    0    0  0.00000000000E+00  0.00000000000E+00 -0.80199990315E+02  0.82656441875E+02  0.20001223384E+02 0.  0.
        -11    1    3    3    0    0  0.97631423858E+01  0.21637883221E+01 -0.39660603627E+02  0.40901887603E+02  0.51100000000E-03 0. -1.
         11    1    3    3    0    0 -0.97631423858E+01 -0.21637883221E+01 -0.40539386687E+02  0.41754554271E+02  0.51100000000E-03 0.  1.
<mgrwt>
<rscale>  0 0.20001223E+02</rscale>
<asrwt>0</asrwt>
<pdfrwt beam="1">  1        1 0.18895788E-03 0.20001223E+02</pdfrwt>
<pdfrwt beam="2">  1       -1 0.12527414E-01 0.20001223E+02</pdfrwt>
<totfact> 0.32904933E+06</totfact>
</mgrwt>
</event>
<event>
 4    1  0.9583198E-007  0.2004578E+02  0.7818608E-02  0.1744419E+00
          1   -1    0    0  501    0  0.00000000000E+00  0.00000000000E+00  0.18204491911E+01  0.18204551811E+01  0.46700000000E-02 0.  1.
         -1   -1    0    0    0  501 -0.00000000000E+00 -0.00000000000E+00 -0.55183174972E+02  0.55183175169E+02  0.46700000000E-02 0. -1.
        -11    1    1    2    0    0 -0.87697653691E+01 -0.48472273228E+01 -0.27341835897E+02  0.29120102813E+02  0.51100000000E-03 0.  1.
         11    1    1    2    0    0  0.87697653691E+01  0.48472273228E+01 -0.26020889884E+02  0.27883527538E+02  0.51100000000E-03 0. -1.
<mgrwt>
<rscale>  0 0.20045782E+02</rscale>
<asrwt>0</asrwt>
<pdfrwt beam="1">  1        1 0.28006963E-03 0.20045782E+02</pdfrwt>
<pdfrwt beam="2">  1       -1 0.84897184E-02 0.20045782E+02</pdfrwt>
<totfact> 0.34394532E+06</totfact>
</mgrwt>
</event>
<event>
 5    1  0.9836283E-007  0.2000142E+02  0.7818608E-02  0.1745300E+00
          1   -1    0    0  501    0  0.00000000000E+00  0.00000000000E+00  0.72603656975E+02  0.72603657126E+02  0.46700000000E-02 0.  1.
         -1   -1    0    0    0  501 -0.00000000000E+00 -0.00000000000E+00 -0.13775324992E+01  0.13775404151E+01  0.46700000000E-02 0. -1.
       1023    2    1    2    0    0  0.00000000000E+00  0.00000000000E+00  0.71226124476E+02  0.73981197541E+02  0.20001419491E+02 0.  0.
        -11    1    3    3    0    0 -0.10000463193E+02  0.69847205155E-01  0.35586274583E+02  0.36964808692E+02  0.51100000000E-03 0. -1.
         11    1    3    3    0    0  0.10000463193E+02 -0.69847205155E-01  0.35639849894E+02  0.37016388849E+02  0.51100000000E-03 0.  1.
<mgrwt>
<rscale>  0 0.20001419E+02</rscale>
<asrwt>0</asrwt>
<pdfrwt beam="1">  1        1 0.11169798E-01 0.20001419E+02</pdfrwt>
<pdfrwt beam="2">  1       -1 0.21192862E-03 0.20001419E+02</pdfrwt>
<totfact> 0.42965929E+06</totfact>
</mgrwt>
</event>
<event>
 5    1  0.9583198E-007  0.2000218E+02  0.7818608E-02  0.1745285E+00
         -1   -1    0    0    0  501 -0.00000000000E+00  0.00000000000E+00  0.86626882805E+01  0.86626895392E+01  0.46700000000E-02 0.  1.
          1   -1    0    0  501    0  0.00000000000E+00 -0.00000000000E+00 -0.11546276853E+02  0.11546277797E+02  0.46700000000E-02 0. -1.
       1023    2    1    2    0    0  0.00000000000E+00  0.00000000000E+00 -0.28835885721E+01  0.20208967336E+02  0.20002181825E+02 0.  0.
        -11    1    3    3    0    0  0.53243672153E+01  0.84659292738E+01 -0.14733333835E+01  0.10108983937E+02  0.51100000000E-03 0. -1.
         11    1    3    3    0    0 -0.53243672153E+01 -0.84659292738E+01 -0.14102551886E+01  0.10099983400E+02  0.51100000000E-03 0.  1.
<mgrwt>
<rscale>  0 0.20002182E+02</rscale>
<asrwt>0</asrwt>
<pdfrwt beam="2">  1        1 0.17763505E-02 0.20002182E+02</pdfrwt>
<pdfrwt beam="1">  1       -1 0.13327214E-02 0.20002182E+02</pdfrwt>
<totfact> 0.38835144E+06</totfact>
</mgrwt>
</event>
<event>
 5    1  0.9969790E-007  0.2000156E+02  0.7818608E-02  0.1745297E+00
          1   -1    0    0  501    0  0.00000000000E+00  0.00000000000E+00  0.27449989165E+02  0.27449989562E+02  0.46700000000E-02 0. -1.
         -1   -1    0    0    0  501 -0.00000000000E+00 -0.00000000000E+00 -0.36435545959E+01  0.36435575887E+01  0.46700000000E-02 0.  1.
       1023    2    1    2    0    0  0.00000000000E+00  0.00000000000E+00  0.23806434569E+02  0.31093547151E+02  0.20001558628E+02 0.  0.
        -11    1    3    3    0    0  0.64086609846E+01 -0.76775416749E+01  0.11899798846E+02  0.15544156285E+02  0.51100000000E-03 0. -1.
         11    1    3    3    0    0 -0.64086609846E+01  0.76775416749E+01  0.11906635723E+02  0.15549390865E+02  0.51100000000E-03 0.  1.
<mgrwt>
<rscale>  0 0.20001559E+02</rscale>
<asrwt>0</asrwt>
<pdfrwt beam="1">  1        1 0.42230756E-02 0.20001559E+02</pdfrwt>
<pdfrwt beam="2">  1       -1 0.56054711E-03 0.20001559E+02</pdfrwt>
<totfact> 0.40270954E+06</totfact>
</mgrwt>
</event>
<event>
 5    1  0.9583198E-007  0.2000030E+02  0.7818608E-02  0.1745322E+00
          1   -1    0    0  501    0  0.00000000000E+00  0.00000000000E+00  0.35044490183E+02  0.35044490495E+02  0.46700000000E-02 0. -1.
         -1   -1    0    0    0  501 -0.00000000000E+00 -0.00000000000E+00 -0.28535983071E+01  0.28536021284E+01  0.46700000000E-02 0.  1.
       1023    2    1    2    0    0  0.00000000000E+00  0.00000000000E+00  0.32190891876E+02  0.37898092623E+02  0.20000297614E+02 0.  0.
        -11    1    3    3    0    0 -0.99949567657E+01  0.32148358327E+00  0.16054652698E+02  0.18914396262E+02  0.51100000000E-03 0.  1.
         11    1    3    3    0    0  0.99949567657E+01 -0.32148358327E+00  0.16136239178E+02  0.18983696361E+02  0.51100000000E-03 0. -1.
<mgrwt>
<rscale>  0 0.20000298E+02</rscale>
<asrwt>0</asrwt>
<pdfrwt beam="1">  1        1 0.53914606E-02 0.20000298E+02</pdfrwt>
<pdfrwt beam="2">  1       -1 0.43901542E-03 0.20000298E+02</pdfrwt>
<totfact> 0.40792869E+06</totfact>
</mgrwt>
</event>
<event>
 5    1  0.9583198E-007  0.2000026E+02  0.7818608E-02  0.1745323E+00
         -1   -1    0    0    0  501 -0.00000000000E+00  0.00000000000E+00  0.43023305389E+01  0.43023330734E+01  0.46700000000E-02 0.  1.
          1   -1    0    0  501    0  0.00000000000E+00 -0.00000000000E+00 -0.23243806826E+02  0.23243807295E+02  0.46700000000E-02 0. -1.
       1023    2    1    2    0    0  0.00000000000E+00  0.00000000000E+00 -0.18941476287E+02  0.27546140368E+02  0.20000258130E+02 0.  0.
        -11    1    3    3    0    0  0.89901122022E+01  0.43792865145E+01 -0.95369808865E+01  0.13818620498E+02  0.51100000000E-03 0.  1.
         11    1    3    3    0    0 -0.89901122022E+01 -0.43792865145E+01 -0.94044954002E+01  0.13727519870E+02  0.51100000000E-03 0. -1.
<mgrwt>
<rscale>  0 0.20000258E+02</rscale>
<asrwt>0</asrwt>
<pdfrwt beam="2">  1        1 0.35759704E-02 0.20000258E+02</pdfrwt>
<pdfrwt beam="1">  1       -1 0.66189725E-03 0.20000258E+02</pdfrwt>
<totfact> 0.39965081E+06</totfact>
</mgrwt>
</event>
<event>
 5    1  0.9583198E-007  0.2000060E+02  0.7818608E-02  0.1745316E+00
         -1   -1    0    0    0  501 -0.00000000000E+00  0.00000000000E+00  0.18098689409E+02  0.18098690011E+02  0.46700000000E-02 0.  1.
          1   -1    0    0  501    0  0.00000000000E+00 -0.00000000000E+00 -0.55255929419E+01  0.55255949154E+01  0.46700000000E-02 0. -1.
       1023    2    1    2    0    0  0.00000000000E+00  0.00000000000E+00  0.12573096467E+02  0.23624284927E+02  0.20000602079E+02 0.  0.
        -11    1    3    3    0    0 -0.88793358037E+01  0.46001892414E+01  0.62382027794E+01  0.11786412497E+02  0.51100000000E-03 0. -1.
         11    1    3    3    0    0  0.88793358037E+01 -0.46001892414E+01  0.63348936876E+01  0.11837872430E+02  0.51100000000E-03 0.  1.
<mgrwt>
<rscale>  0 0.20000602E+02</rscale>
<asrwt>0</asrwt>
<pdfrwt beam="2">  1        1 0.85009140E-03 0.20000602E+02</pdfrwt>
<pdfrwt beam="1">  1       -1 0.27844140E-02 0.20000602E+02</pdfrwt>
<totfact> 0.37612031E+06</totfact>
</mgrwt>
</event>
<event>
 5    1  0.9583198E-007  0.2000065E+02  0.7818608E-02  0.1745315E+00
          1   -1    0    0  501    0  0.00000000000E+00  0.00000000000E+00  0.90287454614E+00  0.90288662354E+00  0.46700000000E-02 0. -1.
         -1   -1    0    0    0  501 -0.00000000000E+00 -0.00000000000E+00 -0.11076380730E+03  0.11076380740E+03  0.46700000000E-02 0.  1.
       1023    2    1    2    0    0  0.00000000000E+00  0.00000000000E+00 -0.10986093275E+03  0.11166669402E+03  0.20000650196E+02 0.  0.
        -11    1    3    3    0    0  0.28182709601E+01 -0.95947126187E+01 -0.54522462050E+02  0.55431940519E+02  0.51100000000E-03 0. -1.
         11    1    3    3    0    0 -0.28182709601E+01  0.95947126187E+01 -0.55338470701E+02  0.56234753500E+02  0.51100000000E-03 0.  1.
<mgrwt>
<rscale>  0 0.20000650E+02</rscale>
<asrwt>0</asrwt>
<pdfrwt beam="1">  1        1 0.13890480E-03 0.20000650E+02</pdfrwt>
<pdfrwt beam="2">  1       -1 0.17040576E-01 0.20000650E+02</pdfrwt>
<totfact> 0.31300129E+06</totfact>
</mgrwt>
</event>
<event>
 4    1  0.9583198E-007  0.2002076E+02  0.7818608E-02  0.1744916E+00
          1   -1    0    0  501    0  0.00000000000E+00  0.00000000000E+00  0.57202953466E+02  0.57202953657E+02  0.46700000000E-02 0. -1.
         -1   -1    0    0    0  501 -0.00000000000E+00 -0.00000000000E+00 -0.17517889804E+01  0.17517952051E+01  0.46700000000E-02 0.  1.
        -11    1    1    2    0    0  0.71464616290E+01 -0.70072853522E+01  0.27184765652E+02  0.28968697686E+02  0.51100000000E-03 0.  1.
         11    1    1    2    0    0 -0.71464616290E+01  0.70072853522E+01  0.28266398834E+02  0.29986051176E+02  0.51100000000E-03 0. -1.
<mgrwt>
<rscale>  0 0.20020758E+02</rscale>
<asrwt>0</asrwt>
<pdfrwt beam="1">  1        1 0.88004562E-02 0.20020758E+02</pdfrwt>
<pdfrwt beam="2">  1       -1 0.26950645E-03 0.20020758E+02</pdfrwt>
<totfact> 0.42032443E+06</totfact>
</mgrwt>
</event>
<event>
 5    1  0.9583198E-007  0.2000061E+02  0.7818608E-02  0.1745316E+00
          1   -1    0    0  501    0  0.00000000000E+00  0.00000000000E+00  0.94372633435E+01  0.94372644990E+01  0.46700000000E-02 0.  1.
         -1   -1    0    0    0  501 -0.00000000000E+00 -0.00000000000E+00 -0.10596931014E+02  0.10596932043E+02  0.46700000000E-02 0. -1.
       1023    2    1    2    0    0  0.00000000000E+00  0.00000000000E+00 -0.11596676706E+01  0.20034196542E+02  0.20000605040E+02 0.  0.
        -11    1    3    3    0    0  0.19919391174E+01 -0.97997574553E+01 -0.52512888606E+00  0.10013931707E+02  0.51100000000E-03 0.  1.
         11    1    3    3    0    0 -0.19919391174E+01  0.97997574553E+01 -0.63453878453E+00  0.10020264835E+02  0.51100000000E-03 0. -1.
<mgrwt>
<rscale>  0 0.20000605E+02</rscale>
<asrwt>0</asrwt>
<pdfrwt beam="1">  1        1 0.14518868E-02 0.20000605E+02</pdfrwt>
<pdfrwt beam="2">  1       -1 0.16302972E-02 0.20000605E+02</pdfrwt>
<totfact> 0.38531102E+06</totfact>
</mgrwt>
</event>
<event>
 5    1  0.9583198E-007  0.2000229E+02  0.7818608E-02  0.1745283E+00
          1   -1    0    0  501    0  0.00000000000E+00  0.00000000000E+00  0.21031641337E+01  0.21031693185E+01  0.46700000000E-02 0. -1.
         -1   -1    0    0    0  501 -0.00000000000E+00 -0.00000000000E+00 -0.47558229658E+02  0.47558229888E+02  0.46700000000E-02 0.  1.
       1023    2    1    2    0    0  0.00000000000E+00  0.00000000000E+00 -0.45455065525E+02  0.49661399206E+02  0.20002289601E+02 0.  0.
        -11    1    3    3    0    0  0.25770806383E+01 -0.96630740392E+01 -0.22526556630E+02  0.24646746202E+02  0.51100000000E-03 0.  1.
         11    1    3    3    0    0 -0.25770806383E+01  0.96630740392E+01 -0.22928508895E+02  0.25014653004E+02  0.51100000000E-03 0. -1.
<mgrwt>
<rscale>  0 0.20002290E+02</rscale>
<asrwt>0</asrwt>
<pdfrwt beam="1">  1        1 0.32356416E-03 0.20002290E+02</pdfrwt>
<pdfrwt beam="2">  1       -1 0.73166503E-02 0.20002290E+02</pdfrwt>
<totfact> 0.35096195E+06</totfact>
</mgrwt>
</event>
<event>
 5    1  0.9583198E-007  0.2000400E+02  0.7818608E-02  0.1745248E+00
         -1   -1    0    0    0  501 -0.00000000000E+00  0.00000000000E+00  0.24367358946E+02  0.24367359394E+02  0.46700000000E-02 0.  1.
          1   -1    0    0  501    0  0.00000000000E+00 -0.00000000000E+00 -0.41054923714E+01  0.41054950275E+01  0.46700000000E-02 0. -1.
       1023    2    1    2    0    0  0.00000000000E+00  0.00000000000E+00  0.20261866575E+02  0.28472854421E+02  0.20004004644E+02 0.  0.
        -11    1    3    3    0    0  0.57820623932E+01 -0.81595578232E+01  0.10375074604E+02  0.14410163174E+02  0.51100000000E-03 0. -1.
         11    1    3    3    0    0 -0.57820623932E+01  0.81595578232E+01  0.98867919707E+01  0.14062691247E+02  0.51100000000E-03 0.  1.
<mgrwt>
<rscale>  0 0.20004005E+02</rscale>
<asrwt>0</asrwt>
<pdfrwt beam="2">  1        1 0.63161446E-03 0.20004005E+02</pdfrwt>
<pdfrwt beam="1">  1       -1 0.37488246E-02 0.20004005E+02</pdfrwt>
<totfact> 0.36975307E+06</totfact>
</mgrwt>
</event>
<event>
 5    1  0.9583198E-007  0.2000022E+02  0.7818608E-02  0.1745324E+00
         -1   -1    0    0    0  501 -0.00000000000E+00  0.00000000000E+00  0.14146302166E+02  0.14146302937E+02  0.46700000000E-02 0.  1.
          1   -1    0    0  501    0  0.00000000000E+00 -0.00000000000E+00 -0.70691370195E+01  0.70691385620E+01  0.46700000000E-02 0. -1.
       1023    2    1    2    0    0  0.00000000000E+00  0.00000000000E+00  0.70771651469E+01  0.21215441499E+02  0.20000217286E+02 0.  0.
        -11    1    3    3    0    0  0.79260714111E+01 -0.60974922688E+01  0.35516875349E+01  0.10612092376E+02  0.51100000000E-03 0. -1.
         11    1    3    3    0    0 -0.79260714111E+01  0.60974922688E+01  0.35254776121E+01  0.10603349124E+02  0.51100000000E-03 0.  1.
<mgrwt>
<rscale>  0 0.20000217E+02</rscale>
<asrwt>0</asrwt>
<pdfrwt beam="2">  1        1 0.10875597E-02 0.20000217E+02</pdfrwt>
<pdfrwt beam="1">  1       -1 0.21763543E-02 0.20000217E+02</pdfrwt>
<totfact> 0.38060825E+06</totfact>
</mgrwt>
</event>
<event>
 5    1  0.9583198E-007  0.2000087E+02  0.7818608E-02  0.1745311E+00
         -1   -1    0    0    0  501 -0.00000000000E+00  0.00000000000E+00  0.75665797421E+02  0.75665797565E+02  0.46700000000E-02 0.  1.
          1   -1    0    0  501    0  0.00000000000E+00 -0.00000000000E+00 -0.13217111556E+01  0.13217194058E+01  0.46700000000E-02 0. -1.
       1023    2    1    2    0    0  0.00000000000E+00  0.00000000000E+00  0.74344086265E+02  0.76987516971E+02  0.20000865149E+02 0.  0.
        -11    1    3    3    0    0  0.78740732466E+01  0.61648727439E+01  0.37001371959E+02  0.38328947449E+02  0.51100000000E-03 0.  1.
         11    1    3    3    0    0 -0.78740732466E+01 -0.61648727439E+01  0.37342714306E+02  0.38658569522E+02  0.51100000000E-03 0. -1.
<mgrwt>
<rscale>  0 0.20000865E+02</rscale>
<asrwt>0</asrwt>
<pdfrwt beam="2">  1        1 0.20334079E-03 0.20000865E+02</pdfrwt>
<pdfrwt beam="1">  1       -1 0.11640895E-01 0.20000865E+02</pdfrwt>
<totfact> 0.33249305E+06</totfact>
</mgrwt>
</event>
<event>
 5    1  0.9583198E-007  0.2000018E+02  0.7818608E-02  0.1745324E+00
         -1   -1    0    0    0  501 -0.00000000000E+00  0.00000000000E+00  0.31489462994E+01  0.31489497623E+01  0.46700000000E-02 0. -1.
          1   -1    0    0  501    0  0.00000000000E+00 -0.00000000000E+00 -0.31757214684E+02  0.31757215027E+02  0.46700000000E-02 0.  1.
       1023    2    1    2    0    0  0.00000000000E+00  0.00000000000E+00 -0.28608268385E+02  0.34906164790E+02  0.20000183008E+02 0.  0.
        -11    1    3    3    0    0  0.99407378821E+01 -0.10879104144E+01 -0.14309954102E+02  0.17457852255E+02  0.51100000000E-03 0. -1.
         11    1    3    3    0    0 -0.99407378821E+01  0.10879104144E+01 -0.14298314283E+02  0.17448312534E+02  0.51100000000E-03 0.  1.
<mgrwt>
<rscale>  0 0.20000183E+02</rscale>
<asrwt>0</asrwt>
<pdfrwt beam="2">  1        1 0.48857254E-02 0.20000183E+02</pdfrwt>
<pdfrwt beam="1">  1       -1 0.48445359E-03 0.20000183E+02</pdfrwt>
<totfact> 0.40575573E+06</totfact>
</mgrwt>
</event>
<event>
 5    1  0.9583198E-007  0.2000031E+02  0.7818608E-02  0.1745322E+00
          1   -1    0    0  501    0  0.00000000000E+00  0.00000000000E+00  0.87900881405E+02  0.87900881529E+02  0.46700000000E-02 0.  1.
         -1   -1    0    0    0  501 -0.00000000000E+00 -0.00000000000E+00 -0.11376753386E+01  0.11376849234E+01  0.46700000000E-02 0. -1.
       1023    2    1    2    0    0  0.00000000000E+00  0.00000000000E+00  0.86763206066E+02  0.89038566452E+02  0.20000309722E+02 0.  0.
        -11    1    3    3    0    0 -0.68642371976E+01  0.72721493407E+01  0.43228117282E+02  0.44369719769E+02  0.51100000000E-03 0. -1.
         11    1    3    3    0    0  0.68642371976E+01 -0.72721493407E+01  0.43535088784E+02  0.44668846683E+02  0.51100000000E-03 0.  1.
<mgrwt>
<rscale>  0 0.20000310E+02</rscale>
<asrwt>0</asrwt>
<pdfrwt beam="1">  1        1 0.13523216E-01 0.20000310E+02</pdfrwt>
<pdfrwt beam="2">  1       -1 0.17502768E-03 0.20000310E+02</pdfrwt>
<totfact> 0.43760880E+06</totfact>
</mgrwt>
</event>
<event>
 5    1  0.9909740E-007  0.2000060E+02  0.7818608E-02  0.1745316E+00
          1   -1    0    0  501    0  0.00000000000E+00  0.00000000000E+00  0.99319242642E+02  0.99319242752E+02  0.46700000000E-02 0. -1.
         -1   -1    0    0    0  501 -0.00000000000E+00 -0.00000000000E+00 -0.10069094774E+01  0.10069203070E+01  0.46700000000E-02 0.  1.
       1023    2    1    2    0    0  0.00000000000E+00  0.00000000000E+00  0.98312333165E+02  0.10032616306E+03  0.20000603537E+02 0.  0.
        -11    1    3    3    0    0  0.68353159333E+01  0.72994776713E+01  0.48925368169E+02  0.49936915893E+02  0.51100000000E-03 0. -1.
         11    1    3    3    0    0 -0.68353159333E+01 -0.72994776713E+01  0.49386964995E+02  0.50389247165E+02  0.51100000000E-03 0.  1.
<mgrwt>
<rscale>  0 0.20000604E+02</rscale>
<asrwt>0</asrwt>
<pdfrwt beam="1">  1        1 0.15279886E-01 0.20000604E+02</pdfrwt>
<pdfrwt beam="2">  1       -1 0.15490997E-03 0.20000604E+02</pdfrwt>
<totfact> 0.44324666E+06</totfact>
</mgrwt>
</event>
<event>
 5    1  0.9583198E-007  0.2000047E+02  0.7818608E-02  0.1745319E+00
          1   -1    0    0  501    0  0.00000000000E+00  0.00000000000E+00  0.10363217924E+02  0.10363218976E+02  0.46700000000E-02 0.  1.
         -1   -1    0    0    0  501 -0.00000000000E+00 -0.00000000000E+00 -0.96499660389E+01  0.96499671689E+01  0.46700000000E-02 0. -1.
       1023    2    1    2    0    0  0.00000000000E+00  0.00000000000E+00  0.71325188487E+00  0.20013186145E+02  0.20000472280E+02 0.  0.
        -11    1    3    3    0    0 -0.53803083430E+01  0.84293799384E+01  0.30601135176E+00  0.10004789214E+02  0.51100000000E-03 0.  1.
         11    1    3    3    0    0  0.53803083430E+01 -0.84293799384E+01  0.40724053311E+00  0.10008396931E+02  0.51100000000E-03 0. -1.
<mgrwt>
<rscale>  0 0.20000472E+02</rscale>
<asrwt>0</asrwt>
<pdfrwt beam="1">  1        1 0.15943414E-02 0.20000472E+02</pdfrwt>
<pdfrwt beam="2">  1       -1 0.14846103E-02 0.20000472E+02</pdfrwt>
<totfact> 0.38677031E+06</totfact>
</mgrwt>
</event>
<event>
 5    1  0.9583198E-007  0.2000095E+02  0.7818608E-02  0.1745309E+00
         -1   -1    0    0    0  501 -0.00000000000E+00  0.00000000000E+00  0.44772515041E+02  0.44772515285E+02  0.46700000000E-02 0.  1.
          1   -1    0    0  501    0  0.00000000000E+00 -0.00000000000E+00 -0.22337224768E+01  0.22337273585E+01  0.46700000000E-02 0. -1.
       1023    2    1    2    0    0  0.00000000000E+00  0.00000000000E+00  0.42538792564E+02  0.47006242643E+02  0.20000949342E+02 0.  0.
        -11    1    3    3    0    0  0.49749513406E+01  0.86747680163E+01  0.21476326201E+02  0.23690384724E+02  0.51100000000E-03 0. -1.
         11    1    3    3    0    0 -0.49749513406E+01 -0.86747680163E+01  0.21062466363E+02  0.23315857920E+02  0.51100000000E-03 0.  1.
<mgrwt>
<rscale>  0 0.20000949E+02</rscale>
<asrwt>0</asrwt>
<pdfrwt beam="2">  1        1 0.34365005E-03 0.20000949E+02</pdfrwt>
<pdfrwt beam="1">  1       -1 0.68880788E-02 0.20000949E+02</pdfrwt>
<totfact> 0.35305726E+06</totfact>
</mgrwt>
</event>
<event>
 5    1  0.9646927E-007  0.2000178E+02  0.7818608E-02  0.1745293E+00
         -1   -1    0    0    0  501 -0.00000000000E+00  0.00000000000E+00  0.24176619184E+01  0.24176664288E+01  0.46700000000E-02 0. -1.
          1   -1    0    0  501    0  0.00000000000E+00 -0.00000000000E+00 -0.41369611176E+02  0.41369611440E+02  0.46700000000E-02 0.  1.
       1023    2    1    2    0    0  0.00000000000E+00  0.00000000000E+00 -0.38951949258E+02  0.43787277869E+02  0.20001783725E+02 0.  0.
        -11    1    3    3    0    0  0.57055880552E+01  0.82136531997E+01 -0.19480263935E+02  0.21897454582E+02  0.51100000000E-03 0.  1.
         11    1    3    3    0    0 -0.57055880552E+01 -0.82136531997E+01 -0.19471685323E+02  0.21889823287E+02  0.51100000000E-03 0. -1.
<mgrwt>
<rscale>  0 0.20001784E+02</rscale>
<asrwt>0</asrwt>
<pdfrwt beam="2">  1        1 0.63645554E-02 0.20001784E+02</pdfrwt>
<pdfrwt beam="1">  1       -1 0.37194838E-03 0.20001784E+02</pdfrwt>
<totfact> 0.41187388E+06</totfact>
</mgrwt>
</event>
<event>
 5    1  0.9774237E-007  0.2000154E+02  0.7818608E-02  0.1745297E+00
          1   -1    0    0  501    0  0.00000000000E+00  0.00000000000E+00  0.30076456584E+02  0.30076456947E+02  0.46700000000E-02 0.  1.
         -1   -1    0    0    0  501 -0.00000000000E+00 -0.00000000000E+00 -0.33253702436E+01  0.33253735228E+01  0.46700000000E-02 0. -1.
       1023    2    1    2    0    0  0.00000000000E+00  0.00000000000E+00  0.26751086341E+02  0.33401830470E+02  0.20001541399E+02 0.  0.
        -11    1    3    3    0    0 -0.98881612676E+01 -0.14960355731E+01  0.13309613893E+02  0.16648113344E+02  0.51100000000E-03 0. -1.
         11    1    3    3    0    0  0.98881612676E+01  0.14960355731E+01  0.13441472448E+02  0.16753717125E+02  0.51100000000E-03 0.  1.
<mgrwt>
<rscale>  0 0.20001541E+02</rscale>
<asrwt>0</asrwt>
<pdfrwt beam="1">  1        1 0.46271475E-02 0.20001541E+02</pdfrwt>
<pdfrwt beam="2">  1       -1 0.51159569E-03 0.20001541E+02</pdfrwt>
<totfact> 0.40454985E+06</totfact>
</mgrwt>
</event>
<event>
 5    1  0.9946617E-007  0.2000108E+02  0.7818608E-02  0.1745307E+00
          1   -1    0    0  501    0  0.00000000000E+00  0.00000000000E+00  0.18739262630E+02  0.18739263212E+02  0.46700000000E-02 0. -1.
         -1   -1    0    0    0  501 -0.00000000000E+00 -0.00000000000E+00 -0.53369642868E+01  0.53369663299E+01  0.46700000000E-02 0.  1.
       1023    2    1    2    0    0  0.00000000000E+00  0.00000000000E+00  0.13402298343E+02  0.24076229542E+02  0.20001080673E+02 0.  0.
        -11    1    3    3    0    0  0.65896508396E+01 -0.75220040821E+01  0.66021549629E+01  0.11983008554E+02  0.51100000000E-03 0.  1.
         11    1    3    3    0    0 -0.65896508396E+01  0.75220040821E+01  0.68001433805E+01  0.12093220988E+02  0.51100000000E-03 0. -1.
<mgrwt>
<rscale>  0 0.20001081E+02</rscale>
<asrwt>0</asrwt>
<pdfrwt beam="1">  1        1 0.28829637E-02 0.20001081E+02</pdfrwt>
<pdfrwt beam="2">  1       -1 0.82107164E-03 0.20001081E+02</pdfrwt>
<totfact> 0.39593228E+06</totfact>
</mgrwt>
</event>
<event>
 5    1  0.9823100E-007  0.2000125E+02  0.7818608E-02  0.1745303E+00
         -1   -1    0    0    0  501 -0.00000000000E+00  0.00000000000E+00  0.30796351742E+01  0.30796387150E+01  0.46700000000E-02 0.  1.
          1   -1    0    0  501    0  0.00000000000E+00 -0.00000000000E+00 -0.32475410350E+02  0.32475410686E+02  0.46700000000E-02 0. -1.
       1023    2    1    2    0    0  0.00000000000E+00  0.00000000000E+00 -0.29395775176E+02  0.35555049400E+02  0.20001248453E+02 0.  0.
        -11    1    3    3    0    0  0.89554630153E+01 -0.44500594527E+01 -0.14527960384E+02  0.17637034335E+02  0.51100000000E-03 0.  1.
         11    1    3    3    0    0 -0.89554630153E+01  0.44500594527E+01 -0.14867814792E+02  0.17918015066E+02  0.51100000000E-03 0. -1.
<mgrwt>
<rscale>  0 0.20001248E+02</rscale>
<asrwt>0</asrwt>
<pdfrwt beam="2">  1        1 0.49962170E-02 0.20001248E+02</pdfrwt>
<pdfrwt beam="1">  1       -1 0.47379035E-03 0.20001248E+02</pdfrwt>
<totfact> 0.40618968E+06</totfact>
</mgrwt>
</event>
<event>
 5    1  0.9583198E-007  0.2000059E+02  0.7818608E-02  0.1745316E+00
         -1   -1    0    0    0  501 -0.00000000000E+00  0.00000000000E+00  0.56856252701E+01  0.56856271880E+01  0.46700000000E-02 0.  1.
          1   -1    0    0  501    0  0.00000000000E+00 -0.00000000000E+00 -0.17589254882E+02  0.17589255502E+02  0.46700000000E-02 0. -1.
       1023    2    1    2    0    0  0.00000000000E+00  0.00000000000E+00 -0.11903629611E+02  0.23274882690E+02  0.20000594148E+02 0.  0.
        -11    1    3    3    0    0 -0.99254965819E+01  0.12184231598E+01 -0.58623989127E+01  0.11591710774E+02  0.51100000000E-03 0. -1.
         11    1    3    3    0    0  0.99254965819E+01 -0.12184231598E+01 -0.60412306988E+01  0.11683171916E+02  0.51100000000E-03 0.  1.
<mgrwt>
<rscale>  0 0.20000594E+02</rscale>
<asrwt>0</asrwt>
<pdfrwt beam="2">  1        1 0.27060394E-02 0.20000594E+02</pdfrwt>
<pdfrwt beam="1">  1       -1 0.87471178E-03 0.20000594E+02</pdfrwt>
<totfact> 0.39492628E+06</totfact>
</mgrwt>
</event>
<event>
 5    1  0.9583198E-007  0.2000796E+02  0.7818608E-02  0.1745170E+00
          1   -1    0    0  501    0  0.00000000000E+00  0.00000000000E+00  0.25925953841E+02  0.25925954261E+02  0.46700000000E-02 0.  1.
         -1   -1    0    0    0  501 -0.00000000000E+00 -0.00000000000E+00 -0.38602084306E+01  0.38602112554E+01  0.46700000000E-02 0. -1.
       1023    2    1    2    0    0  0.00000000000E+00  0.00000000000E+00  0.22065745410E+02  0.29786165517E+02  0.20007961807E+02 0.  0.
        -11    1    3    3    0    0  0.45374344168E+01  0.89144910790E+01  0.11259487182E+02  0.15060959934E+02  0.51100000000E-03 0. -1.
         11    1    3    3    0    0 -0.45374344168E+01 -0.89144910790E+01  0.10806258228E+02  0.14725205582E+02  0.51100000000E-03 0.  1.
<mgrwt>
<rscale>  0 0.20007962E+02</rscale>
<asrwt>0</asrwt>
<pdfrwt beam="1">  1        1 0.39886085E-02 0.20007962E+02</pdfrwt>
<pdfrwt beam="2">  1       -1 0.59387848E-03 0.20007962E+02</pdfrwt>
<totfact> 0.40131990E+06</totfact>
</mgrwt>
</event>
<event>
 5    1  0.9583198E-007  0.2000042E+02  0.7818608E-02  0.1745320E+00
         -1   -1    0    0    0  501 -0.00000000000E+00  0.00000000000E+00  0.59194378854E+02  0.59194379038E+02  0.46700000000E-02 0.  1.
          1   -1    0    0  501    0  0.00000000000E+00 -0.00000000000E+00 -0.16894172903E+01  0.16894237449E+01  0.46700000000E-02 0. -1.
       1023    2    1    2    0    0  0.00000000000E+00  0.00000000000E+00  0.57504961564E+02  0.60883802783E+02  0.20000420918E+02 0.  0.
        -11    1    3    3    0    0  0.23409653949E+01  0.97222577399E+01  0.28623529830E+02  0.30320106773E+02  0.51100000000E-03 0. -1.
         11    1    3    3    0    0 -0.23409653949E+01 -0.97222577399E+01  0.28881431733E+02  0.30563696010E+02  0.51100000000E-03 0.  1.
<mgrwt>
<rscale>  0 0.20000421E+02</rscale>
<asrwt>0</asrwt>
<pdfrwt beam="2">  1        1 0.25991087E-03 0.20000421E+02</pdfrwt>
<pdfrwt beam="1">  1       -1 0.91068279E-02 0.20000421E+02</pdfrwt>
<totfact> 0.34295176E+06</totfact>
</mgrwt>
</event>
<event>
 5    1  0.1020440E-006  0.2000142E+02  0.7818608E-02  0.1745300E+00
          1   -1    0    0  501    0  0.00000000000E+00  0.00000000000E+00  0.27398634453E+02  0.27398634851E+02  0.46700000000E-02 0.  1.
         -1   -1    0    0    0  501 -0.00000000000E+00 -0.00000000000E+00 -0.36503318944E+01  0.36503348817E+01  0.46700000000E-02 0. -1.
       1023    2    1    2    0    0  0.00000000000E+00  0.00000000000E+00  0.23748302558E+02  0.31048969732E+02  0.20001416126E+02 0.  0.
        -11    1    3    3    0    0 -0.74007845556E+01 -0.67256499405E+01  0.12014570057E+02  0.15631886421E+02  0.51100000000E-03 0.  1.
         11    1    3    3    0    0  0.74007845556E+01  0.67256499405E+01  0.11733732501E+02  0.15417083311E+02  0.51100000000E-03 0. -1.
<mgrwt>
<rscale>  0 0.20001416E+02</rscale>
<asrwt>0</asrwt>
<pdfrwt beam="1">  1        1 0.42151748E-02 0.20001416E+02</pdfrwt>
<pdfrwt beam="2">  1       -1 0.56158978E-03 0.20001416E+02</pdfrwt>
<totfact> 0.40267925E+06</totfact>
</mgrwt>
</event>
<event>
 5    1  0.9583198E-007  0.2000124E+02  0.7818608E-02  0.1745303E+00
          1   -1    0    0  501    0  0.00000000000E+00  0.00000000000E+00  0.10535339914E+02  0.10535340949E+02  0.46700000000E-02 0. -1.
         -1   -1    0    0    0  501 -0.00000000000E+00 -0.00000000000E+00 -0.94930393722E+01  0.94930405209E+01  0.46700000000E-02 0.  1.
       1023    2    1    2    0    0  0.00000000000E+00  0.00000000000E+00  0.10423005422E+01  0.20028381470E+02  0.20001241809E+02 0.  0.
        -11    1    3    3    0    0  0.95595350505E+01 -0.29372400975E+01  0.53929782848E+00  0.10015135155E+02  0.51100000000E-03 0. -1.
         11    1    3    3    0    0 -0.95595350505E+01  0.29372400975E+01  0.50300271371E+00  0.10013246315E+02  0.51100000000E-03 0.  1.
<mgrwt>
<rscale>  0 0.20001242E+02</rscale>
<asrwt>0</asrwt>
<pdfrwt beam="1">  1        1 0.16208217E-02 0.20001242E+02</pdfrwt>
<pdfrwt beam="2">  1       -1 0.14604678E-02 0.20001242E+02</pdfrwt>
<totfact> 0.38699025E+06</totfact>
</mgrwt>
</event>
<event>
 5    1  0.9583198E-007  0.2000042E+02  0.7818608E-02  0.1745320E+00
         -1   -1    0    0    0  501 -0.00000000000E+00  0.00000000000E+00  0.71292866786E+02  0.71292866939E+02  0.46700000000E-02 0. -1.
          1   -1    0    0  501    0  0.00000000000E+00 -0.00000000000E+00 -0.14027203599E+01  0.14027281337E+01  0.46700000000E-02 0.  1.
       1023    2    1    2    0    0  0.00000000000E+00  0.00000000000E+00  0.69890146427E+02  0.72695595073E+02  0.20000424383E+02 0.  0.
        -11    1    3    3    0    0  0.94016264973E+01 -0.34078713865E+01  0.34913504618E+02  0.36317447228E+02  0.51100000000E-03 0.  1.
         11    1    3    3    0    0 -0.94016264973E+01  0.34078713865E+01  0.34976641809E+02  0.36378147845E+02  0.51100000000E-03 0. -1.
<mgrwt>
<rscale>  0 0.20000424E+02</rscale>
<asrwt>0</asrwt>
<pdfrwt beam="2">  1        1 0.21580376E-03 0.20000424E+02</pdfrwt>
<pdfrwt beam="1">  1       -1 0.10968133E-01 0.20000424E+02</pdfrwt>
<totfact> 0.33518559E+06</totfact>
</mgrwt>
</event>
<event>
 5    1  0.9583198E-007  0.2000265E+02  0.7818608E-02  0.1745275E+00
         -1   -1    0    0    0  501 -0.00000000000E+00  0.00000000000E+00  0.41628859258E+01  0.41628885452E+01  0.46700000000E-02 0.  1.
          1   -1    0    0  501    0  0.00000000000E+00 -0.00000000000E+00 -0.24028160032E+02  0.24028160486E+02  0.46700000000E-02 0. -1.
       1023    2    1    2    0    0  0.00000000000E+00  0.00000000000E+00 -0.19865274107E+02  0.28191049031E+02  0.20002653078E+02 0.  0.
        -11    1    3    3    0    0  0.96831662872E+01  0.24995715785E+01 -0.10105046059E+02  0.14217015282E+02  0.51100000000E-03 0.  1.
         11    1    3    3    0    0 -0.96831662872E+01 -0.24995715785E+01 -0.97602280479E+01  0.13974033749E+02  0.51100000000E-03 0. -1.
<mgrwt>
<rscale>  0 0.20002653E+02</rscale>
<asrwt>0</asrwt>
<pdfrwt beam="2">  1        1 0.36966401E-02 0.20002653E+02</pdfrwt>
<pdfrwt beam="1">  1       -1 0.64044424E-03 0.20002653E+02</pdfrwt>
<totfact> 0.40014381E+06</totfact>
</mgrwt>
</event>
<event>
 5    1  0.9950510E-007  0.2000257E+02  0.7818608E-02  0.1745277E+00
         -1   -1    0    0    0  501 -0.00000000000E+00  0.00000000000E+00  0.10782424174E+01  0.10782525305E+01  0.46700000000E-02 0. -1.
          1   -1    0    0  501    0  0.00000000000E+00 -0.00000000000E+00 -0.92766926460E+02  0.92766926577E+02  0.46700000000E-02 0.  1.
       1023    2    1    2    0    0  0.00000000000E+00  0.00000000000E+00 -0.91688684042E+02  0.93845179108E+02  0.20002571344E+02 0.  0.
        -11    1    3    3    0    0 -0.46304220667E-01  0.10000341043E+02 -0.45237143655E+02  0.46329344172E+02  0.51100000000E-03 0. -1.
         11    1    3    3    0    0  0.46304220667E-01 -0.10000341043E+02 -0.46451540387E+02  0.47515834936E+02  0.51100000000E-03 0.  1.
<mgrwt>
<rscale>  0 0.20002571E+02</rscale>
<asrwt>0</asrwt>
<pdfrwt beam="2">  1        1 0.14271829E-01 0.20002571E+02</pdfrwt>
<pdfrwt beam="1">  1       -1 0.16588431E-03 0.20002571E+02</pdfrwt>
<totfact> 0.43993294E+06</totfact>
</mgrwt>
</event>
<event>
 5    1  0.9583198E-007  0.2000062E+02  0.7818608E-02  0.1745316E+00
          1   -1    0    0  501    0  0.00000000000E+00  0.00000000000E+00  0.85385899742E+01  0.85385912512E+01  0.46700000000E-02 0. -1.
         -1   -1    0    0    0  501 -0.00000000000E+00 -0.00000000000E+00 -0.11712259170E+02  0.11712260101E+02  0.46700000000E-02 0.  1.
       1023    2    1    2    0    0  0.00000000000E+00  0.00000000000E+00 -0.31736691956E+01  0.20250851352E+02  0.20000620098E+02 0.  0.
        -11    1    3    3    0    0  0.93573939149E+01 -0.35270592704E+01 -0.16600780232E+01  0.10136904226E+02  0.51100000000E-03 0. -1.
         11    1    3    3    0    0 -0.93573939149E+01  0.35270592704E+01 -0.15135911724E+01  0.10113947126E+02  0.51100000000E-03 0.  1.
<mgrwt>
<rscale>  0 0.20000620E+02</rscale>
<asrwt>0</asrwt>
<pdfrwt beam="1">  1        1 0.13136294E-02 0.20000620E+02</pdfrwt>
<pdfrwt beam="2">  1       -1 0.18018862E-02 0.20000620E+02</pdfrwt>
<totfact> 0.38372334E+06</totfact>
</mgrwt>
</event>
<event>
 4    1  0.9583198E-007  0.2002914E+02  0.7818608E-02  0.1744749E+00
          1   -1    0    0  501    0  0.00000000000E+00  0.00000000000E+00  0.53873760607E+01  0.53873780848E+01  0.46700000000E-02 0. -1.
         -1   -1    0    0    0  501 -0.00000000000E+00 -0.00000000000E+00 -0.18616038314E+02  0.18616038900E+02  0.46700000000E-02 0.  1.
        -11    1    1    2    0    0 -0.81130883799E+01  0.58709167543E+01 -0.66646595871E+01  0.12029445302E+02  0.51100000000E-03 0.  1.
         11    1    1    2    0    0  0.81130883799E+01 -0.58709167543E+01 -0.65640026659E+01  0.11973971683E+02  0.51100000000E-03 0. -1.
<mgrwt>
<rscale>  0 0.20029142E+02</rscale>
<asrwt>0</asrwt>
<pdfrwt beam="1">  1        1 0.82882730E-03 0.20029142E+02</pdfrwt>
<pdfrwt beam="2">  1       -1 0.28640061E-02 0.20029142E+02</pdfrwt>
<totfact> 0.37439924E+06</totfact>
</mgrwt>
</event>
<event>
 5    1  0.9583198E-007  0.2000018E+02  0.7818608E-02  0.1745324E+00
         -1   -1    0    0    0  501 -0.00000000000E+00  0.00000000000E+00  0.32716657024E+01  0.32716690354E+01  0.46700000000E-02 0. -1.
          1   -1    0    0  501    0  0.00000000000E+00 -0.00000000000E+00 -0.30566010686E+02  0.30566011042E+02  0.46700000000E-02 0.  1.
       1023    2    1    2    0    0  0.00000000000E+00  0.00000000000E+00 -0.27294344983E+02  0.33837680078E+02  0.20000183124E+02 0.  0.
        -11    1    3    3    0    0  0.29705353943E+01  0.95486857657E+01 -0.13615493215E+02  0.16893286718E+02  0.51100000000E-03 0. -1.
         11    1    3    3    0    0 -0.29705353943E+01 -0.95486857657E+01 -0.13678851768E+02  0.16944393360E+02  0.51100000000E-03 0.  1.
<mgrwt>
<rscale>  0 0.20000183E+02</rscale>
<asrwt>0</asrwt>
<pdfrwt beam="2">  1        1 0.47024633E-02 0.20000183E+02</pdfrwt>
<pdfrwt beam="1">  1       -1 0.50333349E-03 0.20000183E+02</pdfrwt>
<totfact> 0.40494699E+06</totfact>
</mgrwt>
</event>
<event>
 5    1  0.9993953E-007  0.2000062E+02  0.7818608E-02  0.1745316E+00
          1   -1    0    0  501    0  0.00000000000E+00  0.00000000000E+00  0.98421669082E+02  0.98421669193E+02  0.46700000000E-02 0.  1.
         -1   -1    0    0    0  501 -0.00000000000E+00 -0.00000000000E+00 -0.10160934899E+01  0.10161042216E+01  0.46700000000E-02 0. -1.
       1023    2    1    2    0    0  0.00000000000E+00  0.00000000000E+00  0.97405575592E+02  0.99437773415E+02  0.20000615620E+02 0.  0.
        -11    1    3    3    0    0 -0.70725743457E+01 -0.70696752508E+01  0.48367794261E+02  0.49390739395E+02  0.51100000000E-03 0.  1.
         11    1    3    3    0    0  0.70725743457E+01  0.70696752508E+01  0.49037781331E+02  0.50047034019E+02  0.51100000000E-03 0. -1.
<mgrwt>
<rscale>  0 0.20000616E+02</rscale>
<asrwt>0</asrwt>
<pdfrwt beam="1">  1        1 0.15141793E-01 0.20000616E+02</pdfrwt>
<pdfrwt beam="2">  1       -1 0.15632294E-03 0.20000616E+02</pdfrwt>
<totfact> 0.44280915E+06</totfact>
</mgrwt>
</event>
<event>
 5    1  0.9583198E-007  0.2000447E+02  0.7818608E-02  0.1745239E+00
         -1   -1    0    0    0  501 -0.00000000000E+00  0.00000000000E+00  0.17165279758E+01  0.17165343284E+01  0.46700000000E-02 0.  1.
          1   -1    0    0  501    0  0.00000000000E+00 -0.00000000000E+00 -0.58283064305E+02  0.58283064492E+02  0.46700000000E-02 0. -1.
       1023    2    1    2    0    0  0.00000000000E+00  0.00000000000E+00 -0.56566536329E+02  0.59999598820E+02  0.20004470159E+02 0.  0.
        -11    1    3    3    0    0  0.93954051974E+01  0.34287279778E+01 -0.28649281710E+02  0.30344870359E+02  0.51100000000E-03 0. -1.
         11    1    3    3    0    0 -0.93954051974E+01 -0.34287279778E+01 -0.27917254619E+02  0.29654728461E+02  0.51100000000E-03 0.  1.
<mgrwt>
<rscale>  0 0.20004470E+02</rscale>
<asrwt>0</asrwt>
<pdfrwt beam="2">  1        1 0.89666243E-02 0.20004470E+02</pdfrwt>
<pdfrwt beam="1">  1       -1 0.26408178E-03 0.20004470E+02</pdfrwt>
<totfact> 0.42169359E+06</totfact>
</mgrwt>
</event>
<event>
 5    1  0.9950980E-007  0.2000060E+02  0.7818608E-02  0.1745316E+00
         -1   -1    0    0    0  501 -0.00000000000E+00  0.00000000000E+00  0.21916940799E+01  0.21916990553E+01  0.46700000000E-02 0. -1.
          1   -1    0    0  501    0  0.00000000000E+00 -0.00000000000E+00 -0.45629468144E+02  0.45629468383E+02  0.46700000000E-02 0.  1.
       1023    2    1    2    0    0  0.00000000000E+00  0.00000000000E+00 -0.43437774064E+02  0.47821167438E+02  0.20000595979E+02 0.  0.
        -11    1    3    3    0    0  0.81826060763E+00  0.99667484475E+01 -0.21762621792E+02  0.23950309655E+02  0.51100000000E-03 0.  1.
         11    1    3    3    0    0 -0.81826060763E+00 -0.99667484475E+01 -0.21675152272E+02  0.23870857783E+02  0.51100000000E-03 0. -1.
<mgrwt>
<rscale>  0 0.20000596E+02</rscale>
<asrwt>0</asrwt>
<pdfrwt beam="2">  1        1 0.70199179E-02 0.20000596E+02</pdfrwt>
<pdfrwt beam="1">  1       -1 0.33718414E-03 0.20000596E+02</pdfrwt>
<totfact> 0.41452621E+06</totfact>
</mgrwt>
</event>
<event>
 5    1  0.9583198E-007  0.2000283E+02  0.7818608E-02  0.1745272E+00
         -1   -1    0    0    0  501 -0.00000000000E+00  0.00000000000E+00  0.29916551229E+02  0.29916551593E+02  0.46700000000E-02 0.  1.
          1   -1    0    0  501    0  0.00000000000E+00 -0.00000000000E+00 -0.33435765608E+01  0.33435798221E+01  0.46700000000E-02 0. -1.
       1023    2    1    2    0    0  0.00000000000E+00  0.00000000000E+00  0.26572974668E+02  0.33260131415E+02  0.20002833776E+02 0.  0.
        -11    1    3    3    0    0 -0.93618014089E+01  0.35189753528E+01  0.13215427437E+02  0.16573292846E+02  0.51100000000E-03 0. -1.
         11    1    3    3    0    0  0.93618014089E+01 -0.35189753528E+01  0.13357547231E+02  0.16686838569E+02  0.51100000000E-03 0.  1.
<mgrwt>
<rscale>  0 0.20002834E+02</rscale>
<asrwt>0</asrwt>
<pdfrwt beam="2">  1        1 0.51439669E-03 0.20002834E+02</pdfrwt>
<pdfrwt beam="1">  1       -1 0.46025465E-02 0.20002834E+02</pdfrwt>
<totfact> 0.36482341E+06</totfact>
</mgrwt>
</event>
<event>
 4    1  0.9583198E-007  0.2001580E+02  0.7818608E-02  0.1745014E+00
         -1   -1    0    0    0  501 -0.00000000000E+00  0.00000000000E+00  0.76185719357E+01  0.76185733670E+01  0.46700000000E-02 0. -1.
          1   -1    0    0  501    0  0.00000000000E+00 -0.00000000000E+00 -0.13146564081E+02  0.13146564910E+02  0.46700000000E-02 0.  1.
        -11    1    1    2    0    0 -0.95043796113E+01  0.31310280407E+01 -0.29161106377E+01  0.10423064324E+02  0.51100000000E-03 0. -1.
         11    1    1    2    0    0  0.95043796113E+01 -0.31310280407E+01 -0.26118815075E+01  0.10342073953E+02  0.51100000000E-03 0.  1.
<mgrwt>
<rscale>  0 0.20015801E+02</rscale>
<asrwt>0</asrwt>
<pdfrwt beam="2">  1        1 0.20225485E-02 0.20015801E+02</pdfrwt>
<pdfrwt beam="1">  1       -1 0.11720882E-02 0.20015801E+02</pdfrwt>
<totfact> 0.38972990E+06</totfact>
</mgrwt>
</event>
<event>
 5    1  0.9583198E-007  0.2000004E+02  0.7818608E-02  0.1745327E+00
          1   -1    0    0  501    0  0.00000000000E+00  0.00000000000E+00  0.82537676638E+02  0.82537676770E+02  0.46700000000E-02 0.  1.
         -1   -1    0    0    0  501 -0.00000000000E+00 -0.00000000000E+00 -0.12115686753E+01  0.12115776755E+01  0.46700000000E-02 0. -1.
       1023    2    1    2    0    0  0.00000000000E+00  0.00000000000E+00  0.81326107962E+02  0.83749254445E+02  0.20000044596E+02 0.  0.
        -11    1    3    3    0    0  0.89421845847E+01 -0.44763579398E+01  0.40661467544E+02  0.41873086686E+02  0.51100000000E-03 0.  1.
         11    1    3    3    0    0 -0.89421845847E+01  0.44763579398E+01  0.40664640418E+02  0.41876167759E+02  0.51100000000E-03 0. -1.
<mgrwt>
<rscale>  0 0.20000045E+02</rscale>
<asrwt>0</asrwt>
<pdfrwt beam="1">  1        1 0.12698108E-01 0.20000045E+02</pdfrwt>
<pdfrwt beam="2">  1       -1 0.18639584E-03 0.20000045E+02</pdfrwt>
<totfact> 0.43489586E+06</totfact>
</mgrwt>
</event>
<event>
 5    1  0.9583198E-007  0.2000090E+02  0.7818608E-02  0.1745310E+00
          1   -1    0    0  501    0  0.00000000000E+00  0.00000000000E+00  0.35777316793E+01  0.35777347272E+01  0.46700000000E-02 0.  1.
         -1   -1    0    0    0  501 -0.00000000000E+00 -0.00000000000E+00 -0.27953164348E+02  0.27953164738E+02  0.46700000000E-02 0. -1.
       1023    2    1    2    0    0  0.00000000000E+00  0.00000000000E+00 -0.24375432669E+02  0.31530899465E+02  0.20000897562E+02 0.  0.
        -11    1    3    3    0    0 -0.91719817140E+01 -0.39848905369E+01 -0.12083449362E+02  0.15684844593E+02  0.51100000000E-03 0.  1.
         11    1    3    3    0    0  0.91719817140E+01  0.39848905369E+01 -0.12291983307E+02  0.15846054872E+02  0.51100000000E-03 0. -1.
<mgrwt>
<rscale>  0 0.20000898E+02</rscale>
<asrwt>0</asrwt>
<pdfrwt beam="1">  1        1 0.55042054E-03 0.20000898E+02</pdfrwt>
<pdfrwt beam="2">  1       -1 0.43004870E-02 0.20000898E+02</pdfrwt>
<totfact> 0.36661984E+06</totfact>
</mgrwt>
</event>
<event>
 5    1  0.9583198E-007  0.2000052E+02  0.7818608E-02  0.1745318E+00
         -1   -1    0    0    0  501 -0.00000000000E+00  0.00000000000E+00  0.11566768985E+03  0.11566768995E+03  0.46700000000E-02 0.  1.
          1   -1    0    0  501    0  0.00000000000E+00 -0.00000000000E+00 -0.86458462417E+00  0.86459723643E+00  0.46700000000E-02 0. -1.
       1023    2    1    2    0    0  0.00000000000E+00  0.00000000000E+00  0.11480310523E+03  0.11653228718E+03  0.20000524645E+02 0.  0.
        -11    1    3    3    0    0  0.92515911689E+01  0.37964599555E+01  0.57483726317E+02  0.58347097948E+02  0.51100000000E-03 0.  1.
         11    1    3    3    0    0 -0.92515911689E+01 -0.37964599555E+01  0.57319378913E+02  0.58185189237E+02  0.51100000000E-03 0. -1.
<mgrwt>
<rscale>  0 0.20000525E+02</rscale>
<asrwt>0</asrwt>
<pdfrwt beam="2">  1        1 0.13301400E-03 0.20000525E+02</pdfrwt>
<pdfrwt beam="1">  1       -1 0.17795029E-01 0.20000525E+02</pdfrwt>
<totfact> 0.31051105E+06</totfact>
</mgrwt>
</event>
<event>
 5    1  0.9583198E-007  0.2000189E+02  0.7818608E-02  0.1745291E+00
          1   -1    0    0  501    0  0.00000000000E+00  0.00000000000E+00  0.17360661314E+01  0.17360724125E+01  0.46700000000E-02 0.  1.
         -1   -1    0    0    0  501 -0.00000000000E+00 -0.00000000000E+00 -0.57612255163E+02  0.57612255352E+02  0.46700000000E-02 0. -1.
       1023    2    1    2    0    0  0.00000000000E+00  0.00000000000E+00 -0.55876189032E+02  0.59348327765E+02  0.20001887606E+02 0.  0.
        -11    1    3    3    0    0  0.50099973653E+01 -0.86552528332E+01 -0.27720025573E+02  0.29468852933E+02  0.51100000000E-03 0. -1.
         11    1    3    3    0    0 -0.50099973653E+01  0.86552528332E+01 -0.28156163459E+02  0.29879474832E+02  0.51100000000E-03 0.  1.
<mgrwt>
<rscale>  0 0.20001888E+02</rscale>
<asrwt>0</asrwt>
<pdfrwt beam="1">  1        1 0.26708764E-03 0.20001888E+02</pdfrwt>
<pdfrwt beam="2">  1       -1 0.88634229E-02 0.20001888E+02</pdfrwt>
<totfact> 0.34395668E+06</totfact>
</mgrwt>
</event>
<event>
 5    1  0.9583198E-007  0.2000072E+02  0.7818608E-02  0.1745314E+00
         -1   -1    0    0    0  501 -0.00000000000E+00  0.00000000000E+00  0.95336377305E+01  0.95336388743E+01  0.46700000000E-02 0.  1.
          1   -1    0    0  501    0  0.00000000000E+00 -0.00000000000E+00 -0.10489930934E+02  0.10489931973E+02  0.46700000000E-02 0. -1.
       1023    2    1    2    0    0  0.00000000000E+00  0.00000000000E+00 -0.95629320350E+00  0.20023570848E+02  0.20000722307E+02 0.  0.
        -11    1    3    3    0    0  0.81914991370E+01  0.57359303316E+01 -0.55351912296E+00  0.10015385093E+02  0.51100000000E-03 0.  1.
         11    1    3    3    0    0 -0.81914991370E+01 -0.57359303316E+01 -0.40277408054E+00  0.10008185755E+02  0.51100000000E-03 0. -1.
<mgrwt>
<rscale>  0 0.20000722E+02</rscale>
<asrwt>0</asrwt>
<pdfrwt beam="2">  1        1 0.16138357E-02 0.20000722E+02</pdfrwt>
<pdfrwt beam="1">  1       -1 0.14667137E-02 0.20000722E+02</pdfrwt>
<totfact> 0.38694654E+06</totfact>
</mgrwt>
</event>
<event>
 5    1  0.9583198E-007  0.2000005E+02  0.7818608E-02  0.1745327E+00
         -1   -1    0    0    0  501 -0.00000000000E+00  0.00000000000E+00  0.36912882131E+02  0.36912882427E+02  0.46700000000E-02 0. -1.
          1   -1    0    0  501    0  0.00000000000E+00 -0.00000000000E+00 -0.27090926797E+01  0.27090967048E+01  0.46700000000E-02 0.  1.
       1023    2    1    2    0    0  0.00000000000E+00  0.00000000000E+00  0.34203789452E+02  0.39621979131E+02  0.20000050436E+02 0.  0.
        -11    1    3    3    0    0  0.79210484163E+01 -0.61038742412E+01  0.17072823515E+02  0.19785893758E+02  0.51100000000E-03 0.  1.
         11    1    3    3    0    0 -0.79210484163E+01  0.61038742412E+01  0.17130965937E+02  0.19836085374E+02  0.51100000000E-03 0. -1.
<mgrwt>
<rscale>  0 0.20000050E+02</rscale>
<asrwt>0</asrwt>
<pdfrwt beam="2">  1        1 0.41678382E-03 0.20000050E+02</pdfrwt>
<pdfrwt beam="1">  1       -1 0.56789052E-02 0.20000050E+02</pdfrwt>
<totfact> 0.35913417E+06</totfact>
</mgrwt>
</event>
<event>
 5    1  0.9583198E-007  0.2000033E+02  0.7818608E-02  0.1745321E+00
         -1   -1    0    0    0  501 -0.00000000000E+00  0.00000000000E+00  0.12511643315E+01  0.12511730469E+01  0.46700000000E-02 0. -1.
          1   -1    0    0  501    0  0.00000000000E+00 -0.00000000000E+00 -0.79927935913E+02  0.79927936049E+02  0.46700000000E-02 0.  1.
       1023    2    1    2    0    0  0.00000000000E+00  0.00000000000E+00 -0.78676771581E+02  0.81179109096E+02  0.20000334177E+02 0.  0.
        -11    1    3    3    0    0 -0.11690592786E+01  0.99314720445E+01 -0.39135239762E+02  0.40392670475E+02  0.51100000000E-03 0.  1.
         11    1    3    3    0    0  0.11690592786E+01 -0.99314720445E+01 -0.39541531819E+02  0.40786438621E+02  0.51100000000E-03 0. -1.
<mgrwt>
<rscale>  0 0.20000334E+02</rscale>
<asrwt>0</asrwt>
<pdfrwt beam="2">  1        1 0.12296602E-01 0.20000334E+02</pdfrwt>
<pdfrwt beam="1">  1       -1 0.19248756E-03 0.20000334E+02</pdfrwt>
<totfact> 0.43354088E+06</totfact>
</mgrwt>
</event>
<event>
 5    1  0.9583198E-007  0.2000032E+02  0.7818608E-02  0.1745322E+00
         -1   -1    0    0    0  501 -0.00000000000E+00  0.00000000000E+00  0.51232610430E+02  0.51232610642E+02  0.46700000000E-02 0. -1.
          1   -1    0    0  501    0  0.00000000000E+00 -0.00000000000E+00 -0.19519414126E+01  0.19519469990E+01  0.46700000000E-02 0.  1.
       1023    2    1    2    0    0  0.00000000000E+00  0.00000000000E+00  0.49280669017E+02  0.53184557641E+02  0.20000320816E+02 0.  0.
        -11    1    3    3    0    0 -0.72163797223E+01  0.69227788105E+01  0.24515461163E+02  0.26476571513E+02  0.51100000000E-03 0. -1.
         11    1    3    3    0    0  0.72163797223E+01 -0.69227788105E+01  0.24765207854E+02  0.26707986129E+02  0.51100000000E-03 0.  1.
<mgrwt>
<rscale>  0 0.20000321E+02</rscale>
<asrwt>0</asrwt>
<pdfrwt beam="2">  1        1 0.30029921E-03 0.20000321E+02</pdfrwt>
<pdfrwt beam="1">  1       -1 0.78819384E-02 0.20000321E+02</pdfrwt>
<totfact> 0.34841072E+06</totfact>
</mgrwt>
</event>
<event>
 5    1  0.9583198E-007  0.2000038E+02  0.7818608E-02  0.1745321E+00
         -1   -1    0    0    0  501 -0.00000000000E+00  0.00000000000E+00  0.20719658943E+01  0.20719711571E+01  0.46700000000E-02 0.  1.
          1   -1    0    0  501    0  0.00000000000E+00 -0.00000000000E+00 -0.48265102631E+02  0.48265102857E+02  0.46700000000E-02 0. -1.
       1023    2    1    2    0    0  0.00000000000E+00  0.00000000000E+00 -0.46193136737E+02  0.50337074014E+02  0.20000378464E+02 0.  0.
        -11    1    3    3    0    0  0.92829702593E+01 -0.37188887625E+01 -0.23069701378E+02  0.25143881808E+02  0.51100000000E-03 0. -1.
         11    1    3    3    0    0 -0.92829702593E+01  0.37188887625E+01 -0.23123435360E+02  0.25193192206E+02  0.51100000000E-03 0.  1.
<mgrwt>
<rscale>  0 0.20000378E+02</rscale>
<asrwt>0</asrwt>
<pdfrwt beam="2">  1        1 0.74254000E-02 0.20000378E+02</pdfrwt>
<pdfrwt beam="1">  1       -1 0.31876444E-03 0.20000378E+02</pdfrwt>
<totfact> 0.41610874E+06</totfact>
</mgrwt>
</event>
<event>
 5    1  0.9944956E-007  0.2000069E+02  0.7818608E-02  0.1745314E+00
         -1   -1    0    0    0  501 -0.00000000000E+00  0.00000000000E+00  0.13795158049E+01  0.13795237094E+01  0.46700000000E-02 0. -1.
          1   -1    0    0  501    0  0.00000000000E+00 -0.00000000000E+00 -0.72493963030E+02  0.72493963181E+02  0.46700000000E-02 0.  1.
       1023    2    1    2    0    0  0.00000000000E+00  0.00000000000E+00 -0.71114447225E+02  0.73873486890E+02  0.20000686517E+02 0.  0.
        -11    1    3    3    0    0 -0.71366216857E+01 -0.70052744762E+01 -0.35706136017E+02  0.37080094243E+02  0.51100000000E-03 0.  1.
         11    1    3    3    0    0  0.71366216857E+01  0.70052744762E+01 -0.35408311208E+02  0.36793392647E+02  0.51100000000E-03 0. -1.
<mgrwt>
<rscale>  0 0.20000687E+02</rscale>
<asrwt>0</asrwt>
<pdfrwt beam="2">  1        1 0.11152915E-01 0.20000687E+02</pdfrwt>
<pdfrwt beam="1">  1       -1 0.21223388E-03 0.20000687E+02</pdfrwt>
<totfact> 0.42963598E+06</totfact>
</mgrwt>
</event>
<event>
 5    1  0.9583198E-007  0.2000556E+02  0.7818608E-02  0.1745217E+00
         -1   -1    0    0    0  501 -0.00000000000E+00  0.00000000000E+00  0.65608982357E+01  0.65608998977E+01  0.46700000000E-02 0.  1.
          1   -1    0    0  501    0  0.00000000000E+00 -0.00000000000E+00 -0.15250292870E+02  0.15250293586E+02  0.46700000000E-02 0. -1.
       1023    2    1    2    0    0  0.00000000000E+00  0.00000000000E+00 -0.86893946348E+01  0.21811193483E+02  0.20005563777E+02 0.  0.
        -11    1    3    3    0    0 -0.79649637291E+01  0.60493093375E+01 -0.45021425075E+01  0.10968321571E+02  0.51100000000E-03 0. -1.
         11    1    3    3    0    0  0.79649637291E+01 -0.60493093375E+01 -0.41872521273E+01  0.10842871912E+02  0.51100000000E-03 0.  1.
<mgrwt>
<rscale>  0 0.20005564E+02</rscale>
<asrwt>0</asrwt>
<pdfrwt beam="2">  1        1 0.23461991E-02 0.20005564E+02</pdfrwt>
<pdfrwt beam="1">  1       -1 0.10093692E-02 0.20005564E+02</pdfrwt>
<totfact> 0.39245718E+06</totfact>
</mgrwt>
</event>
<event>
 5    1  0.9583198E-007  0.2000031E+02  0.7818608E-02  0.1745322E+00
         -1   -1    0    0    0  501 -0.00000000000E+00  0.00000000000E+00  0.99649055262E+00  0.99650149541E+00  0.46700000000E-02 0. -1.
          1   -1    0    0  501    0  0.00000000000E+00 -0.00000000000E+00 -0.10035474017E+03  0.10035474028E+03  0.46700000000E-02 0.  1.
       1023    2    1    2    0    0  0.00000000000E+00  0.00000000000E+00 -0.99358249617E+02  0.10135124177E+03  0.20000311050E+02 0.  0.
        -11    1    3    3    0    0 -0.99653920036E+01  0.83307080937E+00 -0.49720139786E+02  0.50715829337E+02  0.51100000000E-03 0.  1.
         11    1    3    3    0    0  0.99653920036E+01 -0.83307080937E+00 -0.49638109831E+02  0.50635412436E+02  0.51100000000E-03 0. -1.
<mgrwt>
<rscale>  0 0.20000311E+02</rscale>
<asrwt>0</asrwt>
<pdfrwt beam="2">  1        1 0.15439184E-01 0.20000311E+02</pdfrwt>
<pdfrwt beam="1">  1       -1 0.15330717E-03 0.20000311E+02</pdfrwt>
<totfact> 0.44376347E+06</totfact>
</mgrwt>
</event>
<event>
 5    1  0.9583198E-007  0.2000039E+02  0.7818608E-02  0.1745320E+00
          1   -1    0    0  501    0  0.00000000000E+00  0.00000000000E+00  0.26658570535E+02  0.26658570944E+02  0.46700000000E-02 0.  1.
         -1   -1    0    0    0  501 -0.00000000000E+00 -0.00000000000E+00 -0.37512848992E+01  0.37512878060E+01  0.46700000000E-02 0. -1.
       1023    2    1    2    0    0  0.00000000000E+00  0.00000000000E+00  0.22907285636E+02  0.30409858750E+02  0.20000394346E+02 0.  0.
        -11    1    3    3    0    0  0.99530200367E+01 -0.96819894666E+00  0.11548913958E+02  0.15276695680E+02  0.51100000000E-03 0. -1.
         11    1    3    3    0    0 -0.99530200367E+01  0.96819894666E+00  0.11358371678E+02  0.15133163070E+02  0.51100000000E-03 0.  1.
<mgrwt>
<rscale>  0 0.20000394E+02</rscale>
<asrwt>0</asrwt>
<pdfrwt beam="1">  1        1 0.41013189E-02 0.20000394E+02</pdfrwt>
<pdfrwt beam="2">  1       -1 0.57712099E-03 0.20000394E+02</pdfrwt>
<totfact> 0.40219293E+06</totfact>
</mgrwt>
</event>
<event>
 5    1  0.9583198E-007  0.2000437E+02  0.7818608E-02  0.1745241E+00
          1   -1    0    0  501    0  0.00000000000E+00  0.00000000000E+00  0.27753060796E+02  0.27753061189E+02  0.46700000000E-02 0.  1.
         -1   -1    0    0    0  501 -0.00000000000E+00 -0.00000000000E+00 -0.36047802412E+01  0.36047832662E+01  0.46700000000E-02 0. -1.
       1023    2    1    2    0    0  0.00000000000E+00  0.00000000000E+00  0.24148280555E+02  0.31357844455E+02  0.20004373400E+02 0.  0.
        -11    1    3    3    0    0  0.67963892222E+01  0.73381590128E+01  0.12176384425E+02  0.15757659156E+02  0.51100000000E-03 0.  1.
         11    1    3    3    0    0 -0.67963892222E+01 -0.73381590128E+01  0.11971896131E+02  0.15600185300E+02  0.51100000000E-03 0. -1.
<mgrwt>
<rscale>  0 0.20004373E+02</rscale>
<asrwt>0</asrwt>
<pdfrwt beam="1">  1        1 0.42697021E-02 0.20004373E+02</pdfrwt>
<pdfrwt beam="2">  1       -1 0.55458182E-03 0.20004373E+02</pdfrwt>
<totfact> 0.40279869E+06</totfact>
</mgrwt>
</event>
<event>
 5    1  0.9583198E-007  0.2000032E+02  0.7818608E-02  0.1745322E+00
         -1   -1    0    0    0  501 -0.00000000000E+00  0.00000000000E+00  0.40972973671E+02  0.40972973937E+02  0.46700000000E-02 0.  1.
          1   -1    0    0  501    0  0.00000000000E+00 -0.00000000000E+00 -0.24407092870E+01  0.24407137548E+01  0.46700000000E-02 0. -1.
       1023    2    1    2    0    0  0.00000000000E+00  0.00000000000E+00  0.38532264384E+02  0.43413687691E+02  0.20000322009E+02 0.  0.
        -11    1    3    3    0    0 -0.99983838409E+01 -0.18586040812E+00  0.19197616328E+02  0.21646031887E+02  0.51100000000E-03 0.  1.
         11    1    3    3    0    0  0.99983838409E+01  0.18586040812E+00  0.19334648056E+02  0.21767655804E+02  0.51100000000E-03 0. -1.
<mgrwt>
<rscale>  0 0.20000322E+02</rscale>
<asrwt>0</asrwt>
<pdfrwt beam="2">  1        1 0.37549413E-03 0.20000322E+02</pdfrwt>
<pdfrwt beam="1">  1       -1 0.63035343E-02 0.20000322E+02</pdfrwt>
<totfact> 0.35594877E+06</totfact>
</mgrwt>
</event>
<event>
 5    1  0.9583198E-007  0.2000033E+02  0.7818608E-02  0.1745322E+00
          1   -1    0    0  501    0  0.00000000000E+00  0.00000000000E+00  0.10173719255E+03  0.10173719265E+03  0.46700000000E-02 0.  1.
         -1   -1    0    0    0  501 -0.00000000000E+00 -0.00000000000E+00 -0.98295127546E+00  0.98296236898E+00  0.46700000000E-02 0. -1.
       1023    2    1    2    0    0  0.00000000000E+00  0.00000000000E+00  0.10075424127E+03  0.10272015502E+03  0.20000327842E+02 0.  0.
        -11    1    3    3    0    0 -0.95237687145E+01 -0.30497716210E+01  0.50381469221E+02  0.51364342871E+02  0.51100000000E-03 0. -1.
         11    1    3    3    0    0  0.95237687145E+01  0.30497716210E+01  0.50372772050E+02  0.51355812151E+02  0.51100000000E-03 0.  1.
<mgrwt>
<rscale>  0 0.20000328E+02</rscale>
<asrwt>0</asrwt>
<pdfrwt beam="1">  1        1 0.15651870E-01 0.20000328E+02</pdfrwt>
<pdfrwt beam="2">  1       -1 0.15122420E-03 0.20000328E+02</pdfrwt>
<totfact> 0.44443104E+06</totfact>
</mgrwt>
</event>
<event>
 5    1  0.9583198E-007  0.2000077E+02  0.7818608E-02  0.1745313E+00
          1   -1    0    0  501    0  0.00000000000E+00  0.00000000000E+00  0.15982597831E+01  0.15982666058E+01  0.46700000000E-02 0.  1.
         -1   -1    0    0    0  501 -0.00000000000E+00 -0.00000000000E+00 -0.62572722713E+02  0.62572722887E+02  0.46700000000E-02 0. -1.
       1023    2    1    2    0    0  0.00000000000E+00  0.00000000000E+00 -0.60974462930E+02  0.64170989493E+02  0.20000769058E+02 0.  0.
        -11    1    3    3    0    0  0.28391380658E+00  0.99963472572E+01 -0.30523093355E+02  0.32119570261E+02  0.51100000000E-03 0.  1.
         11    1    3    3    0    0 -0.28391380658E+00 -0.99963472572E+01 -0.30451369574E+02  0.32051419231E+02  0.51100000000E-03 0. -1.
<mgrwt>
<rscale>  0 0.20000769E+02</rscale>
<asrwt>0</asrwt>
<pdfrwt beam="1">  1        1 0.24588671E-03 0.20000769E+02</pdfrwt>
<pdfrwt beam="2">  1       -1 0.96265714E-02 0.20000769E+02</pdfrwt>
<totfact> 0.34071115E+06</totfact>
</mgrwt>
</event>
<event>
 5    1  0.9583198E-007  0.2000058E+02  0.7818608E-02  0.1745316E+00
          1   -1    0    0  501    0  0.00000000000E+00  0.00000000000E+00  0.39190382842E+01  0.39190410666E+01  0.46700000000E-02 0. -1.
         -1   -1    0    0    0  501 -0.00000000000E+00 -0.00000000000E+00 -0.25517938406E+02  0.25517938833E+02  0.46700000000E-02 0.  1.
       1023    2    1    2    0    0  0.00000000000E+00  0.00000000000E+00 -0.21598900122E+02  0.29436979900E+02  0.20000582470E+02 0.  0.
        -11    1    3    3    0    0 -0.28182394371E+01 -0.95949133369E+01 -0.10845737388E+02  0.14752452515E+02  0.51100000000E-03 0. -1.
         11    1    3    3    0    0  0.28182394371E+01  0.95949133369E+01 -0.10753162734E+02  0.14684527385E+02  0.51100000000E-03 0.  1.
<mgrwt>
<rscale>  0 0.20000582E+02</rscale>
<asrwt>0</asrwt>
<pdfrwt beam="1">  1        1 0.60292923E-03 0.20000582E+02</pdfrwt>
<pdfrwt beam="2">  1       -1 0.39258368E-02 0.20000582E+02</pdfrwt>
<totfact> 0.36882693E+06</totfact>
</mgrwt>
</event>
<event>
 5    1  0.9583198E-007  0.2000147E+02  0.7818608E-02  0.1745299E+00
          1   -1    0    0  501    0  0.00000000000E+00  0.00000000000E+00  0.13396710072E+01  0.13396791468E+01  0.46700000000E-02 0.  1.
         -1   -1    0    0    0  501 -0.00000000000E+00 -0.00000000000E+00 -0.74655964510E+02  0.74655964656E+02  0.46700000000E-02 0. -1.
       1023    2    1    2    0    0  0.00000000000E+00  0.00000000000E+00 -0.73316293503E+02  0.75995643803E+02  0.20001474546E+02 0.  0.
        -11    1    3    3    0    0 -0.67944351325E+01 -0.73382775427E+01 -0.36692063000E+02  0.38030542377E+02  0.51100000000E-03 0. -1.
         11    1    3    3    0    0  0.67944351325E+01  0.73382775427E+01 -0.36624230503E+02  0.37965101426E+02  0.51100000000E-03 0.  1.
<mgrwt>
<rscale>  0 0.20001475E+02</rscale>
<asrwt>0</asrwt>
<pdfrwt beam="1">  1        1 0.20610393E-03 0.20001475E+02</pdfrwt>
<pdfrwt beam="2">  1       -1 0.11485530E-01 0.20001475E+02</pdfrwt>
<totfact> 0.33308309E+06</totfact>
</mgrwt>
</event>
<event>
 4    1  0.9583198E-007  0.2001261E+02  0.7818608E-02  0.1745077E+00
          1   -1    0    0  501    0  0.00000000000E+00  0.00000000000E+00  0.20260712817E+01  0.20260766638E+01  0.46700000000E-02 0. -1.
         -1   -1    0    0    0  501 -0.00000000000E+00 -0.00000000000E+00 -0.49418799663E+02  0.49418799884E+02  0.46700000000E-02 0.  1.
        -11    1    1    2    0    0  0.99904789302E+01  0.55317265856E+00 -0.23433137124E+02  0.25479944760E+02  0.51100000000E-03 0.  1.
         11    1    1    2    0    0 -0.99904789302E+01 -0.55317265856E+00 -0.23959591257E+02  0.25964931787E+02  0.51100000000E-03 0. -1.
<mgrwt>
<rscale>  0 0.20012612E+02</rscale>
<asrwt>0</asrwt>
<pdfrwt beam="1">  1        1 0.31170374E-03 0.20012612E+02</pdfrwt>
<pdfrwt beam="2">  1       -1 0.76028918E-02 0.20012612E+02</pdfrwt>
<totfact> 0.34922635E+06</totfact>
</mgrwt>
</event>
<event>
 5    1  0.9583198E-007  0.2000848E+02  0.7818608E-02  0.1745159E+00
          1   -1    0    0  501    0  0.00000000000E+00  0.00000000000E+00  0.77206246554E+01  0.77206260678E+01  0.46700000000E-02 0. -1.
         -1   -1    0    0    0  501 -0.00000000000E+00 -0.00000000000E+00 -0.12963307432E+02  0.12963308273E+02  0.46700000000E-02 0.  1.
       1023    2    1    2    0    0  0.00000000000E+00  0.00000000000E+00 -0.52426827765E+01  0.20683934341E+02  0.20008483629E+02 0.  0.
        -11    1    3    3    0    0 -0.56326698471E+01 -0.82633843614E+01 -0.23394392779E+01  0.10270514452E+02  0.51100000000E-03 0.  1.
         11    1    3    3    0    0  0.56326698471E+01  0.82633843614E+01 -0.29032434985E+01  0.10413419889E+02  0.51100000000E-03 0. -1.
<mgrwt>
<rscale>  0 0.20008484E+02</rscale>
<asrwt>0</asrwt>
<pdfrwt beam="1">  1        1 0.11877886E-02 0.20008484E+02</pdfrwt>
<pdfrwt beam="2">  1       -1 0.19943552E-02 0.20008484E+02</pdfrwt>
<totfact> 0.38173777E+06</totfact>
</mgrwt>
</event>
<event>
 4    1  0.9583198E-007  0.2001674E+02  0.7818608E-02  0.1744995E+00
         -1   -1    0    0    0  501 -0.00000000000E+00  0.00000000000E+00  0.94554337758E+00  0.94555490998E+00  0.46700000000E-02 0. -1.
          1   -1    0    0  501    0  0.00000000000E+00 -0.00000000000E+00 -0.10593574004E+03  0.10593574014E+03  0.46700000000E-02 0.  1.
        -11    1    1    2    0    0 -0.98326763810E+01  0.18448250289E+01 -0.54029289542E+02  0.54947693608E+02  0.51100000000E-03 0. -1.
         11    1    1    2    0    0  0.98326763810E+01 -0.18448250289E+01 -0.50960907117E+02  0.51933601441E+02  0.51100000000E-03 0.  1.
<mgrwt>
<rscale>  0 0.20016739E+02</rscale>
<asrwt>0</asrwt>
<pdfrwt beam="2">  1        1 0.16297798E-01 0.20016739E+02</pdfrwt>
<pdfrwt beam="1">  1       -1 0.14546919E-03 0.20016739E+02</pdfrwt>
<totfact> 0.44563426E+06</totfact>
</mgrwt>
</event>
<event>
 5    1  0.9583198E-007  0.2000064E+02  0.7818608E-02  0.1745315E+00
          1   -1    0    0  501    0  0.00000000000E+00  0.00000000000E+00  0.26604084838E+01  0.26604125826E+01  0.46700000000E-02 0. -1.
         -1   -1    0    0    0  501 -0.00000000000E+00 -0.00000000000E+00 -0.37590590703E+02  0.37590590993E+02  0.46700000000E-02 0.  1.
       1023    2    1    2    0    0  0.00000000000E+00  0.00000000000E+00 -0.34930182219E+02  0.40251003576E+02  0.20000641464E+02 0.  0.
        -11    1    3    3    0    0 -0.81222105719E+01  0.58340299806E+01 -0.17493841866E+02  0.20150451952E+02  0.51100000000E-03 0. -1.
         11    1    3    3    0    0  0.81222105719E+01 -0.58340299806E+01 -0.17436340353E+02  0.20100551624E+02  0.51100000000E-03 0.  1.
<mgrwt>
<rscale>  0 0.20000641E+02</rscale>
<asrwt>0</asrwt>
<pdfrwt beam="1">  1        1 0.40929398E-03 0.20000641E+02</pdfrwt>
<pdfrwt beam="2">  1       -1 0.57831678E-02 0.20000641E+02</pdfrwt>
<totfact> 0.35857226E+06</totfact>
</mgrwt>
</event>
<event>
 5    1  0.9583198E-007  0.2000508E+02  0.7818608E-02  0.1745227E+00
         -1   -1    0    0    0  501 -0.00000000000E+00  0.00000000000E+00  0.27842932317E+02  0.27842932709E+02  0.46700000000E-02 0.  1.
          1   -1    0    0  501    0  0.00000000000E+00 -0.00000000000E+00 -0.35933971737E+01  0.35934002083E+01  0.46700000000E-02 0. -1.
       1023    2    1    2    0    0  0.00000000000E+00  0.00000000000E+00  0.24249535143E+02  0.31436332917E+02  0.20005076171E+02 0.  0.
        -11    1    3    3    0    0  0.58998634810E+01 -0.80772726312E+01  0.12114151867E+02  0.15709977657E+02  0.51100000000E-03 0.  1.
         11    1    3    3    0    0 -0.58998634810E+01  0.80772726312E+01  0.12135383276E+02  0.15726355260E+02  0.51100000000E-03 0. -1.
<mgrwt>
<rscale>  0 0.20005076E+02</rscale>
<asrwt>0</asrwt>
<pdfrwt beam="2">  1        1 0.55283060E-03 0.20005076E+02</pdfrwt>
<pdfrwt beam="1">  1       -1 0.42835283E-02 0.20005076E+02</pdfrwt>
<totfact> 0.36654924E+06</totfact>
</mgrwt>
</event>
<event>
 5    1  0.9928556E-007  0.2000100E+02  0.7818608E-02  0.1745308E+00
          1   -1    0    0  501    0  0.00000000000E+00  0.00000000000E+00  0.47352621704E+02  0.47352621935E+02  0.46700000000E-02 0. -1.
         -1   -1    0    0    0  501 -0.00000000000E+00 -0.00000000000E+00 -0.21120229760E+01  0.21120281390E+01  0.46700000000E-02 0.  1.
       1023    2    1    2    0    0  0.00000000000E+00  0.00000000000E+00  0.45240598728E+02  0.49464650074E+02  0.20000995815E+02 0.  0.
        -11    1    3    3    0    0  0.99811340918E+01 -0.62086514390E+00  0.22526228392E+02  0.24646287289E+02  0.51100000000E-03 0. -1.
         11    1    3    3    0    0 -0.99811340918E+01  0.62086514390E+00  0.22714370336E+02  0.24818362785E+02  0.51100000000E-03 0.  1.
<mgrwt>
<rscale>  0 0.20000996E+02</rscale>
<asrwt>0</asrwt>
<pdfrwt beam="1">  1        1 0.72850187E-02 0.20000996E+02</pdfrwt>
<pdfrwt beam="2">  1       -1 0.32492705E-03 0.20000996E+02</pdfrwt>
<totfact> 0.41553860E+06</totfact>
</mgrwt>
</event>
<event>
 5    1  0.9583198E-007  0.2000183E+02  0.7818608E-02  0.1745292E+00
         -1   -1    0    0    0  501 -0.00000000000E+00  0.00000000000E+00  0.40247124687E+02  0.40247124958E+02  0.46700000000E-02 0. -1.
          1   -1    0    0  501    0  0.00000000000E+00 -0.00000000000E+00 -0.24851024959E+01  0.24851068838E+01  0.46700000000E-02 0.  1.
       1023    2    1    2    0    0  0.00000000000E+00  0.00000000000E+00  0.37762022192E+02  0.42732231842E+02  0.20001832871E+02 0.  0.
        -11    1    3    3    0    0 -0.18558731066E+01  0.98271329530E+01  0.18797657224E+02  0.21292456985E+02  0.51100000000E-03 0.  1.
         11    1    3    3    0    0  0.18558731066E+01 -0.98271329530E+01  0.18964364967E+02  0.21439774857E+02  0.51100000000E-03 0. -1.
<mgrwt>
<rscale>  0 0.20001833E+02</rscale>
<asrwt>0</asrwt>
<pdfrwt beam="2">  1        1 0.38232380E-03 0.20001833E+02</pdfrwt>
<pdfrwt beam="1">  1       -1 0.61918659E-02 0.20001833E+02</pdfrwt>
<totfact> 0.35644850E+06</totfact>
</mgrwt>
</event>
<event>
 5    1  0.9661750E-007  0.2000147E+02  0.7818608E-02  0.1745299E+00
         -1   -1    0    0    0  501 -0.00000000000E+00  0.00000000000E+00  0.33278308457E+02  0.33278308785E+02  0.46700000000E-02 0.  1.
          1   -1    0    0  501    0  0.00000000000E+00 -0.00000000000E+00 -0.30054007442E+01  0.30054043725E+01  0.46700000000E-02 0. -1.
       1023    2    1    2    0    0  0.00000000000E+00  0.00000000000E+00  0.30272907713E+02  0.36283713157E+02  0.20001472423E+02 0.  0.
        -11    1    3    3    0    0  0.67411897299E+01 -0.73863311619E+01  0.15344852860E+02  0.18315731942E+02  0.51100000000E-03 0. -1.
         11    1    3    3    0    0 -0.67411897299E+01  0.73863311619E+01  0.14928054853E+02  0.17967981216E+02  0.51100000000E-03 0.  1.
<mgrwt>
<rscale>  0 0.20001472E+02</rscale>
<asrwt>0</asrwt>
<pdfrwt beam="2">  1        1 0.46236964E-03 0.20001472E+02</pdfrwt>
<pdfrwt beam="1">  1       -1 0.51197401E-02 0.20001472E+02</pdfrwt>
<totfact> 0.36203277E+06</totfact>
</mgrwt>
</event>
<event>
 5    1  0.9692200E-007  0.2000096E+02  0.7818608E-02  0.1745309E+00
         -1   -1    0    0    0  501 -0.00000000000E+00  0.00000000000E+00  0.23647912306E+02  0.23647912767E+02  0.46700000000E-02 0. -1.
          1   -1    0    0  501    0  0.00000000000E+00 -0.00000000000E+00 -0.42291058782E+01  0.42291084566E+01  0.46700000000E-02 0.  1.
       1023    2    1    2    0    0  0.00000000000E+00  0.00000000000E+00  0.19418806428E+02  0.27877021224E+02  0.20000956708E+02 0.  0.
        -11    1    3    3    0    0  0.17267676062E+01  0.98500847762E+01  0.97938461181E+01  0.13997332550E+02  0.51100000000E-03 0.  1.
         11    1    3    3    0    0 -0.17267676062E+01 -0.98500847762E+01  0.96249603099E+01  0.13879688674E+02  0.51100000000E-03 0. -1.
<mgrwt>
<rscale>  0 0.20000957E+02</rscale>
<asrwt>0</asrwt>
<pdfrwt beam="2">  1        1 0.65063192E-03 0.20000957E+02</pdfrwt>
<pdfrwt beam="1">  1       -1 0.36381405E-02 0.20000957E+02</pdfrwt>
<totfact> 0.37055353E+06</totfact>
</mgrwt>
</event>
<event>
 5    1  0.9583198E-007  0.2000046E+02  0.7818608E-02  0.1745319E+00
         -1   -1    0    0    0  501 -0.00000000000E+00  0.00000000000E+00  0.20553421874E+01  0.20553474928E+01  0.46700000000E-02 0.  1.
          1   -1    0    0  501    0  0.00000000000E+00 -0.00000000000E+00 -0.48655872971E+02  0.48655873195E+02  0.46700000000E-02 0. -1.
       1023    2    1    2    0    0  0.00000000000E+00  0.00000000000E+00 -0.46600530783E+02  0.50711220687E+02  0.20000460853E+02 0.  0.
        -11    1    3    3    0    0  0.97947425057E+01  0.20163205079E+01 -0.23184651489E+02  0.25249368192E+02  0.51100000000E-03 0. -1.
         11    1    3    3    0    0 -0.97947425057E+01 -0.20163205079E+01 -0.23415879294E+02  0.25461852496E+02  0.51100000000E-03 0.  1.
<mgrwt>
<rscale>  0 0.20000461E+02</rscale>
<asrwt>0</asrwt>
<pdfrwt beam="2">  1        1 0.74855185E-02 0.20000461E+02</pdfrwt>
<pdfrwt beam="1">  1       -1 0.31620695E-03 0.20000461E+02</pdfrwt>
<totfact> 0.41633600E+06</totfact>
</mgrwt>
</event>
<event>
 5    1  0.9583198E-007  0.2000033E+02  0.7818608E-02  0.1745321E+00
         -1   -1    0    0    0  501 -0.00000000000E+00  0.00000000000E+00  0.17246026565E+01  0.17246089794E+01  0.46700000000E-02 0. -1.
          1   -1    0    0  501    0  0.00000000000E+00 -0.00000000000E+00 -0.57986181669E+02  0.57986181857E+02  0.46700000000E-02 0.  1.
       1023    2    1    2    0    0  0.00000000000E+00  0.00000000000E+00 -0.56261579013E+02  0.59710790837E+02  0.20000331731E+02 0.  0.
        -11    1    3    3    0    0  0.95239671099E+01  0.30490607542E+01 -0.28057899397E+02  0.29786715828E+02  0.51100000000E-03 0. -1.
         11    1    3    3    0    0 -0.95239671099E+01 -0.30490607542E+01 -0.28203679616E+02  0.29924075009E+02  0.51100000000E-03 0.  1.
<mgrwt>
<rscale>  0 0.20000332E+02</rscale>
<asrwt>0</asrwt>
<pdfrwt beam="2">  1        1 0.89209500E-02 0.20000332E+02</pdfrwt>
<pdfrwt beam="1">  1       -1 0.26532403E-03 0.20000332E+02</pdfrwt>
<totfact> 0.42171988E+06</totfact>
</mgrwt>
</event>
<event>
 5    1  0.9931593E-007  0.2000068E+02  0.7818608E-02  0.1745314E+00
         -1   -1    0    0    0  501 -0.00000000000E+00  0.00000000000E+00  0.13259311024E+01  0.13259393264E+01  0.46700000000E-02 0. -1.
          1   -1    0    0  501    0  0.00000000000E+00 -0.00000000000E+00 -0.75423616332E+02  0.75423616476E+02  0.46700000000E-02 0.  1.
       1023    2    1    2    0    0  0.00000000000E+00  0.00000000000E+00 -0.74097685229E+02  0.76749555803E+02  0.20000683978E+02 0.  0.
        -11    1    3    3    0    0 -0.42131156868E+01  0.90694809361E+01 -0.36926805938E+02  0.38256957867E+02  0.51100000000E-03 0. -1.
         11    1    3    3    0    0  0.42131156868E+01 -0.90694809361E+01 -0.37170879291E+02  0.38492597935E+02  0.51100000000E-03 0.  1.
<mgrwt>
<rscale>  0 0.20000684E+02</rscale>
<asrwt>0</asrwt>
<pdfrwt beam="2">  1        1 0.11603631E-01 0.20000684E+02</pdfrwt>
<pdfrwt beam="1">  1       -1 0.20399010E-03 0.20000684E+02</pdfrwt>
<totfact> 0.43118081E+06</totfact>
</mgrwt>
</event>
<event>
 5    1  0.9583198E-007  0.2000026E+02  0.7818608E-02  0.1745323E+00
          1   -1    0    0  501    0  0.00000000000E+00  0.00000000000E+00  0.20186819984E+02  0.20186820524E+02  0.46700000000E-02 0. -1.
         -1   -1    0    0    0  501 -0.00000000000E+00 -0.00000000000E+00 -0.49538522979E+01  0.49538544991E+01  0.46700000000E-02 0.  1.
       1023    2    1    2    0    0  0.00000000000E+00  0.00000000000E+00  0.15232967686E+02  0.25140675023E+02  0.20000255901E+02 0.  0.
        -11    1    3    3    0    0 -0.64720064377E+01  0.76232925839E+01  0.76582049853E+01  0.12595616738E+02  0.51100000000E-03 0.  1.
         11    1    3    3    0    0  0.64720064377E+01 -0.76232925839E+01  0.75747627007E+01  0.12545058285E+02  0.51100000000E-03 0. -1.
<mgrwt>
<rscale>  0 0.20000256E+02</rscale>
<asrwt>0</asrwt>
<pdfrwt beam="1">  1        1 0.31056648E-02 0.20000256E+02</pdfrwt>
<pdfrwt beam="2">  1       -1 0.76213134E-03 0.20000256E+02</pdfrwt>
<totfact> 0.39720381E+06</totfact>
</mgrwt>
</event>
<event>
 5    1  0.9583198E-007  0.2000023E+02  0.7818608E-02  0.1745323E+00
         -1   -1    0    0    0  501 -0.00000000000E+00  0.00000000000E+00  0.13740309313E+01  0.13740388673E+01  0.46700000000E-02 0. -1.
          1   -1    0    0  501    0  0.00000000000E+00 -0.00000000000E+00 -0.72780030442E+02  0.72780030592E+02  0.46700000000E-02 0.  1.
       1023    2    1    2    0    0  0.00000000000E+00  0.00000000000E+00 -0.71405999510E+02  0.74154069459E+02  0.20000231279E+02 0.  0.
        -11    1    3    3    0    0  0.36891710052E+00 -0.99932895341E+01 -0.35774990074E+02  0.37146357165E+02  0.51100000000E-03 0. -1.
         11    1    3    3    0    0 -0.36891710052E+00  0.99932895341E+01 -0.35631009436E+02  0.37007712294E+02  0.51100000000E-03 0.  1.
<mgrwt>
<rscale>  0 0.20000231E+02</rscale>
<asrwt>0</asrwt>
<pdfrwt beam="2">  1        1 0.11196925E-01 0.20000231E+02</pdfrwt>
<pdfrwt beam="1">  1       -1 0.21139005E-03 0.20000231E+02</pdfrwt>
<totfact> 0.42980921E+06</totfact>
</mgrwt>
</event>
<event>
 5    1  0.9695013E-007  0.2000083E+02  0.7818608E-02  0.1745312E+00
         -1   -1    0    0    0  501 -0.00000000000E+00  0.00000000000E+00  0.38189116031E+02  0.38189116317E+02  0.46700000000E-02 0. -1.
          1   -1    0    0  501    0  0.00000000000E+00 -0.00000000000E+00 -0.26187615907E+01  0.26187657547E+01  0.46700000000E-02 0.  1.
       1023    2    1    2    0    0  0.00000000000E+00  0.00000000000E+00  0.35570354441E+02  0.40807882072E+02  0.20000828086E+02 0.  0.
        -11    1    3    3    0    0 -0.77120790961E+01  0.63658676274E+01  0.17604449811E+02  0.20246409263E+02  0.51100000000E-03 0. -1.
         11    1    3    3    0    0  0.77120790961E+01 -0.63658676274E+01  0.17965904629E+02  0.20561472808E+02  0.51100000000E-03 0.  1.
<mgrwt>
<rscale>  0 0.20000828E+02</rscale>
<asrwt>0</asrwt>
<pdfrwt beam="2">  1        1 0.40288678E-03 0.20000828E+02</pdfrwt>
<pdfrwt beam="1">  1       -1 0.58752484E-02 0.20000828E+02</pdfrwt>
<totfact> 0.35809231E+06</totfact>
</mgrwt>
</event>
<event>
 5    1  0.9583198E-007  0.2000054E+02  0.7818608E-02  0.1745317E+00
          1   -1    0    0  501    0  0.00000000000E+00  0.00000000000E+00  0.24485701240E+01  0.24485745774E+01  0.46700000000E-02 0. -1.
         -1   -1    0    0    0  501 -0.00000000000E+00 -0.00000000000E+00 -0.40842341258E+02  0.40842341525E+02  0.46700000000E-02 0.  1.
       1023    2    1    2    0    0  0.00000000000E+00  0.00000000000E+00 -0.38393771134E+02  0.43290916103E+02  0.20000543870E+02 0.  0.
        -11    1    3    3    0    0 -0.88727021527E+01  0.46126713564E+01 -0.19331327581E+02  0.21764691747E+02  0.51100000000E-03 0.  1.
         11    1    3    3    0    0  0.88727021527E+01 -0.46126713564E+01 -0.19062443553E+02  0.21526224356E+02  0.51100000000E-03 0. -1.
<mgrwt>
<rscale>  0 0.20000544E+02</rscale>
<asrwt>0</asrwt>
<pdfrwt beam="1">  1        1 0.37670349E-03 0.20000544E+02</pdfrwt>
<pdfrwt beam="2">  1       -1 0.62834370E-02 0.20000544E+02</pdfrwt>
<totfact> 0.35604040E+06</totfact>
</mgrwt>
</event>
<event>
 5    1  0.9583198E-007  0.2000039E+02  0.7818608E-02  0.1745320E+00
          1   -1    0    0  501    0  0.00000000000E+00  0.00000000000E+00  0.41231425109E+02  0.41231425374E+02  0.46700000000E-02 0. -1.
         -1   -1    0    0    0  501 -0.00000000000E+00 -0.00000000000E+00 -0.24254255206E+01  0.24254300165E+01  0.46700000000E-02 0.  1.
       1023    2    1    2    0    0  0.00000000000E+00  0.00000000000E+00  0.38805999589E+02  0.43656855390E+02  0.20000385458E+02 0.  0.
        -11    1    3    3    0    0 -0.26563840395E+01 -0.96409272439E+01  0.19403588025E+02  0.21828950566E+02  0.51100000000E-03 0. -1.
         11    1    3    3    0    0  0.26563840395E+01  0.96409272439E+01  0.19402411564E+02  0.21827904825E+02  0.51100000000E-03 0.  1.
<mgrwt>
<rscale>  0 0.20000385E+02</rscale>
<asrwt>0</asrwt>
<pdfrwt beam="1">  1        1 0.63432967E-02 0.20000385E+02</pdfrwt>
<pdfrwt beam="2">  1       -1 0.37314274E-03 0.20000385E+02</pdfrwt>
<totfact> 0.41185244E+06</totfact>
</mgrwt>
</event>
<event>
 5    1  0.9583198E-007  0.2000024E+02  0.7818608E-02  0.1745323E+00
          1   -1    0    0  501    0  0.00000000000E+00  0.00000000000E+00  0.10266332779E+01  0.10266438994E+01  0.46700000000E-02 0. -1.
         -1   -1    0    0    0  501 -0.00000000000E+00 -0.00000000000E+00 -0.97407605372E+02  0.97407605484E+02  0.46700000000E-02 0.  1.
       1023    2    1    2    0    0  0.00000000000E+00  0.00000000000E+00 -0.96380972095E+02  0.98434249384E+02  0.20000241745E+02 0.  0.
        -11    1    3    3    0    0  0.97502318100E+01  0.22213584751E+01 -0.48037726202E+02  0.49067551322E+02  0.51100000000E-03 0.  1.
         11    1    3    3    0    0 -0.97502318100E+01 -0.22213584751E+01 -0.48343245893E+02  0.49366698062E+02  0.51100000000E-03 0. -1.
<mgrwt>
<rscale>  0 0.20000242E+02</rscale>
<asrwt>0</asrwt>
<pdfrwt beam="1">  1        1 0.15794448E-03 0.20000242E+02</pdfrwt>
<pdfrwt beam="2">  1       -1 0.14985779E-01 0.20000242E+02</pdfrwt>
<totfact> 0.32006978E+06</totfact>
</mgrwt>
</event>
<event>
 5    1  0.9583198E-007  0.2000059E+02  0.7818608E-02  0.1745316E+00
         -1   -1    0    0    0  501 -0.00000000000E+00  0.00000000000E+00  0.85694022437E+01  0.85694035161E+01  0.46700000000E-02 0.  1.
          1   -1    0    0  501    0  0.00000000000E+00 -0.00000000000E+00 -0.11670109676E+02  0.11670110610E+02  0.46700000000E-02 0. -1.
       1023    2    1    2    0    0  0.00000000000E+00  0.00000000000E+00 -0.31007074322E+01  0.20239514126E+02  0.20000588629E+02 0.  0.
        -11    1    3    3    0    0  0.96713914646E+01 -0.25431130745E+01 -0.14982690484E+01  0.10111777656E+02  0.51100000000E-03 0. -1.
         11    1    3    3    0    0 -0.96713914646E+01  0.25431130745E+01 -0.16024383838E+01  0.10127736470E+02  0.51100000000E-03 0.  1.
<mgrwt>
<rscale>  0 0.20000589E+02</rscale>
<asrwt>0</asrwt>
<pdfrwt beam="2">  1        1 0.17954017E-02 0.20000589E+02</pdfrwt>
<pdfrwt beam="1">  1       -1 0.13183697E-02 0.20000589E+02</pdfrwt>
<totfact> 0.38858395E+06</totfact>
</mgrwt>
</event>
<event>
 4    1  0.9583198E-007  0.2005771E+02  0.7818608E-02  0.1744183E+00
          1   -1    0    0  501    0  0.00000000000E+00  0.00000000000E+00  0.41493447014E+01  0.41493473294E+01  0.46700000000E-02 0.  1.
         -1   -1    0    0    0  501 -0.00000000000E+00 -0.00000000000E+00 -0.24239470470E+02  0.24239470920E+02  0.46700000000E-02 0. -1.
        -11    1    1    2    0    0  0.10028449810E+02  0.89306036486E-01 -0.10064085386E+02  0.14207870920E+02  0.51100000000E-03 0. -1.
         11    1    1    2    0    0 -0.10028449810E+02 -0.89306036486E-01 -0.10026040382E+02  0.14180947329E+02  0.51100000000E-03 0.  1.
<mgrwt>
<rscale>  0 0.20057713E+02</rscale>
<asrwt>0</asrwt>
<pdfrwt beam="1">  1        1 0.63836097E-03 0.20057713E+02</pdfrwt>
<pdfrwt beam="2">  1       -1 0.37291495E-02 0.20057713E+02</pdfrwt>
<totfact> 0.36769804E+06</totfact>
</mgrwt>
</event>
<event>
 5    1  0.9583198E-007  0.2000050E+02  0.7818608E-02  0.1745318E+00
          1   -1    0    0  501    0  0.00000000000E+00  0.00000000000E+00  0.22879896739E+01  0.22879944398E+01  0.46700000000E-02 0.  1.
         -1   -1    0    0    0  501 -0.00000000000E+00 -0.00000000000E+00 -0.43708644251E+02  0.43708644500E+02  0.46700000000E-02 0. -1.
       1023    2    1    2    0    0  0.00000000000E+00  0.00000000000E+00 -0.41420654577E+02  0.45996638940E+02  0.20000504199E+02 0.  0.
        -11    1    3    3    0    0 -0.72145049069E+01  0.69247999100E+01 -0.20582137932E+02  0.22882883056E+02  0.51100000000E-03 0.  1.
         11    1    3    3    0    0  0.72145049069E+01 -0.69247999100E+01 -0.20838516645E+02  0.23113755884E+02  0.51100000000E-03 0. -1.
<mgrwt>
<rscale>  0 0.20000504E+02</rscale>
<asrwt>0</asrwt>
<pdfrwt beam="1">  1        1 0.35199883E-03 0.20000504E+02</pdfrwt>
<pdfrwt beam="2">  1       -1 0.67244066E-02 0.20000504E+02</pdfrwt>
<totfact> 0.35386772E+06</totfact>
</mgrwt>
</event>
<event>
 5    1  0.9583198E-007  0.2000380E+02  0.7818608E-02  0.1745253E+00
          1   -1    0    0  501    0  0.00000000000E+00  0.00000000000E+00  0.88001089989E+01  0.88001102381E+01  0.46700000000E-02 0.  1.
         -1   -1    0    0    0  501 -0.00000000000E+00 -0.00000000000E+00 -0.11367807570E+02  0.11367808529E+02  0.46700000000E-02 0. -1.
       1023    2    1    2    0    0  0.00000000000E+00  0.00000000000E+00 -0.25676985711E+01  0.20167918767E+02  0.20003796426E+02 0.  0.
        -11    1    3    3    0    0  0.96576414073E+01 -0.25955504803E+01 -0.11061998809E+01  0.10061341774E+02  0.51100000000E-03 0.  1.
         11    1    3    3    0    0 -0.96576414073E+01  0.25955504803E+01 -0.14614986902E+01  0.10106576994E+02  0.51100000000E-03 0. -1.
<mgrwt>
<rscale>  0 0.20003796E+02</rscale>
<asrwt>0</asrwt>
<pdfrwt beam="1">  1        1 0.13538631E-02 0.20003796E+02</pdfrwt>
<pdfrwt beam="2">  1       -1 0.17488937E-02 0.20003796E+02</pdfrwt>
<totfact> 0.38406775E+06</totfact>
</mgrwt>
</event>
<event>
 5    1  0.9583198E-007  0.2000102E+02  0.7818608E-02  0.1745308E+00
         -1   -1    0    0    0  501 -0.00000000000E+00  0.00000000000E+00  0.93704139746E+01  0.93704151383E+01  0.46700000000E-02 0.  1.
          1   -1    0    0  501    0  0.00000000000E+00 -0.00000000000E+00 -0.10672971581E+02  0.10672972603E+02  0.46700000000E-02 0. -1.
       1023    2    1    2    0    0  0.00000000000E+00  0.00000000000E+00 -0.13025576068E+01  0.20043387741E+02  0.20001018370E+02 0.  0.
        -11    1    3    3    0    0  0.85440028031E+01 -0.51968529829E+01 -0.59713776251E+00  0.10018175412E+02  0.51100000000E-03 0. -1.
         11    1    3    3    0    0 -0.85440028031E+01  0.51968529829E+01 -0.70541984432E+00  0.10025212329E+02  0.51100000000E-03 0.  1.
<mgrwt>
<rscale>  0 0.20001018E+02</rscale>
<asrwt>0</asrwt>
<pdfrwt beam="2">  1        1 0.16419958E-02 0.20001018E+02</pdfrwt>
<pdfrwt beam="1">  1       -1 0.14416023E-02 0.20001018E+02</pdfrwt>
<totfact> 0.38719953E+06</totfact>
</mgrwt>
</event>
<event>
 5    1  0.9583198E-007  0.2000015E+02  0.7818608E-02  0.1745325E+00
         -1   -1    0    0    0  501 -0.00000000000E+00  0.00000000000E+00  0.63613391944E+02  0.63613392115E+02  0.46700000000E-02 0.  1.
          1   -1    0    0  501    0  0.00000000000E+00 -0.00000000000E+00 -0.15720163320E+01  0.15720232686E+01  0.46700000000E-02 0. -1.
       1023    2    1    2    0    0  0.00000000000E+00  0.00000000000E+00  0.62041375612E+02  0.65185415384E+02  0.20000152273E+02 0.  0.
        -11    1    3    3    0    0  0.99895706268E+01 -0.45727924832E+00  0.31118294246E+02  0.32685606353E+02  0.51100000000E-03 0. -1.
         11    1    3    3    0    0 -0.99895706268E+01  0.45727924832E+00  0.30923081366E+02  0.32499809031E+02  0.51100000000E-03 0.  1.
<mgrwt>
<rscale>  0 0.20000152E+02</rscale>
<asrwt>0</asrwt>
<pdfrwt beam="2">  1        1 0.24184924E-03 0.20000152E+02</pdfrwt>
<pdfrwt beam="1">  1       -1 0.97866753E-02 0.20000152E+02</pdfrwt>
<totfact> 0.34005767E+06</totfact>
</mgrwt>
</event>
<event>
 5    1  0.9583198E-007  0.2000013E+02  0.7818608E-02  0.1745326E+00
          1   -1    0    0  501    0  0.00000000000E+00  0.00000000000E+00  0.28819062764E+01  0.28819100602E+01  0.46700000000E-02 0. -1.
         -1   -1    0    0    0  501 -0.00000000000E+00 -0.00000000000E+00 -0.34699675496E+02  0.34699675811E+02  0.46700000000E-02 0.  1.
       1023    2    1    2    0    0  0.00000000000E+00  0.00000000000E+00 -0.31817769220E+02  0.37581585871E+02  0.20000128960E+02 0.  0.
        -11    1    3    3    0    0 -0.79469730323E+01  0.60701343869E+01 -0.15945393494E+02  0.18821702521E+02  0.51100000000E-03 0. -1.
         11    1    3    3    0    0  0.79469730323E+01 -0.60701343869E+01 -0.15872375726E+02  0.18759883350E+02  0.51100000000E-03 0.  1.
<mgrwt>
<rscale>  0 0.20000129E+02</rscale>
<asrwt>0</asrwt>
<pdfrwt beam="1">  1        1 0.44337054E-03 0.20000129E+02</pdfrwt>
<pdfrwt beam="2">  1       -1 0.53384116E-02 0.20000129E+02</pdfrwt>
<totfact> 0.36091658E+06</totfact>
</mgrwt>
</event>
<event>
 5    1  0.9583198E-007  0.2000974E+02  0.7818608E-02  0.1745134E+00
         -1   -1    0    0    0  501 -0.00000000000E+00  0.00000000000E+00  0.14138921109E+02  0.14138921880E+02  0.46700000000E-02 0. -1.
          1   -1    0    0  501    0  0.00000000000E+00 -0.00000000000E+00 -0.70795669672E+01  0.70795685074E+01  0.46700000000E-02 0.  1.
       1023    2    1    2    0    0  0.00000000000E+00  0.00000000000E+00  0.70593541420E+01  0.21218490388E+02  0.20009743962E+02 0.  0.
        -11    1    3    3    0    0 -0.81123923046E+01 -0.58521077428E+01  0.33192210677E+01  0.10539226855E+02  0.51100000000E-03 0.  1.
         11    1    3    3    0    0  0.81123923046E+01  0.58521077428E+01  0.37401330743E+01  0.10679263533E+02  0.51100000000E-03 0. -1.
<mgrwt>
<rscale>  0 0.20009744E+02</rscale>
<asrwt>0</asrwt>
<pdfrwt beam="2">  1        1 0.10891643E-02 0.20009744E+02</pdfrwt>
<pdfrwt beam="1">  1       -1 0.21752188E-02 0.20009744E+02</pdfrwt>
<totfact> 0.38021994E+06</totfact>
</mgrwt>
</event>
<event>
 5    1  0.9583589E-007  0.2000080E+02  0.7818608E-02  0.1745312E+00
         -1   -1    0    0    0  501 -0.00000000000E+00  0.00000000000E+00  0.18904998964E+02  0.18904999541E+02  0.46700000000E-02 0. -1.
          1   -1    0    0  501    0  0.00000000000E+00 -0.00000000000E+00 -0.52900252721E+01  0.52900273334E+01  0.46700000000E-02 0.  1.
       1023    2    1    2    0    0  0.00000000000E+00  0.00000000000E+00  0.13614973692E+02  0.24195026874E+02  0.20000795405E+02 0.  0.
        -11    1    3    3    0    0 -0.99151473276E+01 -0.13002559985E+01  0.69097175252E+01  0.12155040466E+02  0.51100000000E-03 0.  1.
         11    1    3    3    0    0  0.99151473276E+01  0.13002559985E+01  0.67052561667E+01  0.12039986408E+02  0.51100000000E-03 0. -1.
<mgrwt>
<rscale>  0 0.20000795E+02</rscale>
<asrwt>0</asrwt>
<pdfrwt beam="2">  1        1 0.81385026E-03 0.20000795E+02</pdfrwt>
<pdfrwt beam="1">  1       -1 0.29084615E-02 0.20000795E+02</pdfrwt>
<totfact> 0.37526386E+06</totfact>
</mgrwt>
</event>
<event>
 5    1  0.9583198E-007  0.2000293E+02  0.7818608E-02  0.1745270E+00
         -1   -1    0    0    0  501 -0.00000000000E+00  0.00000000000E+00  0.66855974682E+01  0.66855990992E+01  0.46700000000E-02 0.  1.
          1   -1    0    0  501    0  0.00000000000E+00 -0.00000000000E+00 -0.14961899916E+02  0.14961900645E+02  0.46700000000E-02 0. -1.
       1023    2    1    2    0    0  0.00000000000E+00  0.00000000000E+00 -0.82763024480E+01  0.21647499744E+02  0.20002926360E+02 0.  0.
        -11    1    3    3    0    0  0.66159228675E+01 -0.74999908901E+01 -0.42406294210E+01  0.10862929480E+02  0.51100000000E-03 0. -1.
         11    1    3    3    0    0 -0.66159228675E+01  0.74999908901E+01 -0.40356730270E+01  0.10784570264E+02  0.51100000000E-03 0.  1.
<mgrwt>
<rscale>  0 0.20002926E+02</rscale>
<asrwt>0</asrwt>
<pdfrwt beam="2">  1        1 0.23018309E-02 0.20002926E+02</pdfrwt>
<pdfrwt beam="1">  1       -1 0.10285536E-02 0.20002926E+02</pdfrwt>
<totfact> 0.39227799E+06</totfact>
</mgrwt>
</event>
<event>
 5    1  0.9750280E-007  0.2000185E+02  0.7818608E-02  0.1745291E+00
         -1   -1    0    0    0  501 -0.00000000000E+00  0.00000000000E+00  0.68717933392E+01  0.68717949261E+01  0.46700000000E-02 0.  1.
          1   -1    0    0  501    0  0.00000000000E+00 -0.00000000000E+00 -0.14554928928E+02  0.14554929677E+02  0.46700000000E-02 0. -1.
       1023    2    1    2    0    0  0.00000000000E+00  0.00000000000E+00 -0.76831355887E+01  0.21426724603E+02  0.20001848783E+02 0.  0.
        -11    1    3    3    0    0  0.99164693372E+01 -0.12961918693E+01 -0.38896059290E+01  0.10730587683E+02  0.51100000000E-03 0.  1.
         11    1    3    3    0    0 -0.99164693372E+01  0.12961918693E+01 -0.37935296596E+01  0.10696136920E+02  0.51100000000E-03 0. -1.
<mgrwt>
<rscale>  0 0.20001849E+02</rscale>
<asrwt>0</asrwt>
<pdfrwt beam="2">  1        1 0.22392200E-02 0.20001849E+02</pdfrwt>
<pdfrwt beam="1">  1       -1 0.10571992E-02 0.20001849E+02</pdfrwt>
<totfact> 0.39190017E+06</totfact>
</mgrwt>
</event>
<event>
 5    1  0.9583198E-007  0.2000084E+02  0.7818608E-02  0.1745311E+00
         -1   -1    0    0    0  501 -0.00000000000E+00  0.00000000000E+00  0.27057920256E+02  0.27057920659E+02  0.46700000000E-02 0.  1.
          1   -1    0    0  501    0  0.00000000000E+00 -0.00000000000E+00 -0.36960847161E+01  0.36960876664E+01  0.46700000000E-02 0. -1.
       1023    2    1    2    0    0  0.00000000000E+00  0.00000000000E+00  0.23361835540E+02  0.30754008325E+02  0.20000841689E+02 0.  0.
        -11    1    3    3    0    0  0.44205096566E+01 -0.89702321391E+01  0.11604862194E+02  0.15319229650E+02  0.51100000000E-03 0. -1.
         11    1    3    3    0    0 -0.44205096566E+01  0.89702321391E+01  0.11756973345E+02  0.15434778675E+02  0.51100000000E-03 0.  1.
<mgrwt>
<rscale>  0 0.20000842E+02</rscale>
<asrwt>0</asrwt>
<pdfrwt beam="2">  1        1 0.56862868E-03 0.20000842E+02</pdfrwt>
<pdfrwt beam="1">  1       -1 0.41627572E-02 0.20000842E+02</pdfrwt>
<totfact> 0.36742032E+06</totfact>
</mgrwt>
</event>
<event>
 5    1  0.9991084E-007  0.2000111E+02  0.7818608E-02  0.1745306E+00
          1   -1    0    0  501    0  0.00000000000E+00  0.00000000000E+00  0.55407283625E+02  0.55407283822E+02  0.46700000000E-02 0.  1.
         -1   -1    0    0    0  501 -0.00000000000E+00 -0.00000000000E+00 -0.18050145179E+01  0.18050205591E+01  0.46700000000E-02 0. -1.
       1023    2    1    2    0    0  0.00000000000E+00  0.00000000000E+00  0.53602269107E+02  0.57212304381E+02  0.20001112948E+02 0.  0.
        -11    1    3    3    0    0 -0.98454918882E+01  0.17534940668E+01  0.26653119742E+02  0.28467476955E+02  0.51100000000E-03 0. -1.
         11    1    3    3    0    0  0.98454918882E+01 -0.17534940668E+01  0.26949149365E+02  0.28744827426E+02  0.51100000000E-03 0.  1.
<mgrwt>
<rscale>  0 0.20001113E+02</rscale>
<asrwt>0</asrwt>
<pdfrwt beam="1">  1        1 0.85242000E-02 0.20001113E+02</pdfrwt>
<pdfrwt beam="2">  1       -1 0.27769495E-03 0.20001113E+02</pdfrwt>
<totfact> 0.42022191E+06</totfact>
</mgrwt>
</event>
<event>
 5    1  0.1026301E-006  0.2000559E+02  0.7818608E-02  0.1745217E+00
          1   -1    0    0  501    0  0.00000000000E+00  0.00000000000E+00  0.31607798837E+02  0.31607799182E+02  0.46700000000E-02 0. -1.
         -1   -1    0    0    0  501 -0.00000000000E+00 -0.00000000000E+00 -0.31655434941E+01  0.31655469388E+01  0.46700000000E-02 0.  1.
       1023    2    1    2    0    0  0.00000000000E+00  0.00000000000E+00  0.28442255342E+02  0.34773346120E+02  0.20005592004E+02 0.  0.
        -11    1    3    3    0    0 -0.99988541741E+01 -0.26758869933E+00  0.14073238254E+02  0.17265709477E+02  0.51100000000E-03 0.  1.
         11    1    3    3    0    0  0.99988541741E+01  0.26758869933E+00  0.14369017088E+02  0.17507636644E+02  0.51100000000E-03 0. -1.
<mgrwt>
<rscale>  0 0.20005592E+02</rscale>
<asrwt>0</asrwt>
<pdfrwt beam="1">  1        1 0.48627385E-02 0.20005592E+02</pdfrwt>
<pdfrwt beam="2">  1       -1 0.48700699E-03 0.20005592E+02</pdfrwt>
<totfact> 0.40541013E+06</totfact>
</mgrwt>
</event>
<event>
 5    1  0.9583198E-007  0.2000269E+02  0.7818608E-02  0.1745275E+00
          1   -1    0    0  501    0  0.00000000000E+00  0.00000000000E+00  0.36476696805E+02  0.36476697104E+02  0.46700000000E-02 0. -1.
         -1   -1    0    0    0  501 -0.00000000000E+00 -0.00000000000E+00 -0.27422126037E+01  0.27422165803E+01  0.46700000000E-02 0.  1.
       1023    2    1    2    0    0  0.00000000000E+00  0.00000000000E+00  0.33734484202E+02  0.39218913685E+02  0.20002693975E+02 0.  0.
        -11    1    3    3    0    0  0.26640686552E+01  0.96399183063E+01  0.16946995065E+02  0.19678057036E+02  0.51100000000E-03 0. -1.
         11    1    3    3    0    0 -0.26640686552E+01 -0.96399183063E+01  0.16787489137E+02  0.19540856648E+02  0.51100000000E-03 0.  1.
<mgrwt>
<rscale>  0 0.20002694E+02</rscale>
<asrwt>0</asrwt>
<pdfrwt beam="1">  1        1 0.56118001E-02 0.20002694E+02</pdfrwt>
<pdfrwt beam="2">  1       -1 0.42187917E-03 0.20002694E+02</pdfrwt>
<totfact> 0.40874714E+06</totfact>
</mgrwt>
</event>
<event>
 5    1  0.9583198E-007  0.2000096E+02  0.7818608E-02  0.1745309E+00
          1   -1    0    0  501    0  0.00000000000E+00  0.00000000000E+00  0.33934166304E+01  0.33934198438E+01  0.46700000000E-02 0.  1.
         -1   -1    0    0    0  501 -0.00000000000E+00 -0.00000000000E+00 -0.29471648945E+02  0.29471649315E+02  0.46700000000E-02 0. -1.
       1023    2    1    2    0    0  0.00000000000E+00  0.00000000000E+00 -0.26078232315E+02  0.32865069159E+02  0.20000964231E+02 0.  0.
        -11    1    3    3    0    0 -0.90350635495E+01  0.42862455276E+01 -0.13159508416E+02  0.16528065104E+02  0.51100000000E-03 0. -1.
         11    1    3    3    0    0  0.90350635495E+01 -0.42862455276E+01 -0.12918723899E+02  0.16337004055E+02  0.51100000000E-03 0.  1.
<mgrwt>
<rscale>  0 0.20000964E+02</rscale>
<asrwt>0</asrwt>
<pdfrwt beam="1">  1        1 0.52206439E-03 0.20000964E+02</pdfrwt>
<pdfrwt beam="2">  1       -1 0.45340999E-02 0.20000964E+02</pdfrwt>
<totfact> 0.36528398E+06</totfact>
</mgrwt>
</event>
<event>
 4    1  0.9583198E-007  0.2001247E+02  0.7818608E-02  0.1745080E+00
         -1   -1    0    0    0  501 -0.00000000000E+00  0.00000000000E+00  0.16035560223E+02  0.16035560903E+02  0.46700000000E-02 0. -1.
          1   -1    0    0  501    0  0.00000000000E+00 -0.00000000000E+00 -0.62439173310E+01  0.62439190775E+01  0.46700000000E-02 0.  1.
        -11    1    1    2    0    0  0.24346463649E+01  0.97039759979E+01  0.47027193123E+01  0.11054873237E+02  0.51100000000E-03 0.  1.
         11    1    1    2    0    0 -0.24346463649E+01 -0.97039759979E+01  0.50889235796E+01  0.11224606744E+02  0.51100000000E-03 0. -1.
<mgrwt>
<rscale>  0 0.20012470E+02</rscale>
<asrwt>0</asrwt>
<pdfrwt beam="2">  1        1 0.96060287E-03 0.20012470E+02</pdfrwt>
<pdfrwt beam="1">  1       -1 0.24670094E-02 0.20012470E+02</pdfrwt>
<totfact> 0.37788882E+06</totfact>
</mgrwt>
</event>
<event>
 5    1  0.9583198E-007  0.2000161E+02  0.7818608E-02  0.1745296E+00
         -1   -1    0    0    0  501 -0.00000000000E+00  0.00000000000E+00  0.11440666262E+02  0.11440667215E+02  0.46700000000E-02 0. -1.
          1   -1    0    0  501    0  0.00000000000E+00 -0.00000000000E+00 -0.87421546752E+01  0.87421559226E+01  0.46700000000E-02 0.  1.
       1023    2    1    2    0    0  0.00000000000E+00  0.00000000000E+00  0.26985115866E+01  0.20182823137E+02  0.20001609561E+02 0.  0.
        -11    1    3    3    0    0  0.81121328183E+01  0.58484534464E+01  0.12779800319E+01  0.10081881759E+02  0.51100000000E-03 0. -1.
         11    1    3    3    0    0 -0.81121328183E+01 -0.58484534464E+01  0.14205315547E+01  0.10100941379E+02  0.51100000000E-03 0.  1.
<mgrwt>
<rscale>  0 0.20001610E+02</rscale>
<asrwt>0</asrwt>
<pdfrwt beam="2">  1        1 0.13449470E-02 0.20001610E+02</pdfrwt>
<pdfrwt beam="1">  1       -1 0.17601027E-02 0.20001610E+02</pdfrwt>
<totfact> 0.38405770E+06</totfact>
</mgrwt>
</event>
<event>
 5    1  0.9583198E-007  0.2000213E+02  0.7818608E-02  0.1745286E+00
          1   -1    0    0  501    0  0.00000000000E+00  0.00000000000E+00  0.63181799497E+01  0.63181816756E+01  0.46700000000E-02 0. -1.
         -1   -1    0    0    0  501 -0.00000000000E+00 -0.00000000000E+00 -0.15830717318E+02  0.15830718007E+02  0.46700000000E-02 0.  1.
       1023    2    1    2    0    0  0.00000000000E+00  0.00000000000E+00 -0.95125373682E+01  0.22148899682E+02  0.20002134635E+02 0.  0.
        -11    1    3    3    0    0 -0.69388176036E+01  0.72010947100E+01 -0.49064430575E+01  0.11138946920E+02  0.51100000000E-03 0.  1.
         11    1    3    3    0    0  0.69388176036E+01 -0.72010947100E+01 -0.46060943107E+01  0.11009952762E+02  0.51100000000E-03 0. -1.
<mgrwt>
<rscale>  0 0.20002135E+02</rscale>
<asrwt>0</asrwt>
<pdfrwt beam="1">  1        1 0.97202787E-03 0.20002135E+02</pdfrwt>
<pdfrwt beam="2">  1       -1 0.24354951E-02 0.20002135E+02</pdfrwt>
<totfact> 0.37854990E+06</totfact>
</mgrwt>
</event>
<event>
 5    1  0.9887747E-007  0.2000226E+02  0.7818608E-02  0.1745283E+00
         -1   -1    0    0    0  501 -0.00000000000E+00  0.00000000000E+00  0.45190104398E+01  0.45190128528E+01  0.46700000000E-02 0.  1.
          1   -1    0    0  501    0  0.00000000000E+00 -0.00000000000E+00 -0.22133738271E+02  0.22133738764E+02  0.46700000000E-02 0. -1.
       1023    2    1    2    0    0  0.00000000000E+00  0.00000000000E+00 -0.17614727831E+02  0.26652751616E+02  0.20002263176E+02 0.  0.
        -11    1    3    3    0    0  0.55986071386E+01 -0.82861066100E+01 -0.86253043976E+01  0.13206053190E+02  0.51100000000E-03 0.  1.
         11    1    3    3    0    0 -0.55986071386E+01  0.82861066100E+01 -0.89894234336E+01  0.13446698427E+02  0.51100000000E-03 0. -1.
<mgrwt>
<rscale>  0 0.20002263E+02</rscale>
<asrwt>0</asrwt>
<pdfrwt beam="2">  1        1 0.34051907E-02 0.20002263E+02</pdfrwt>
<pdfrwt beam="1">  1       -1 0.69523261E-03 0.20002263E+02</pdfrwt>
<totfact> 0.39869423E+06</totfact>
</mgrwt>
</event>
<event>
 5    1  0.9583198E-007  0.2000012E+02  0.7818608E-02  0.1745326E+00
          1   -1    0    0  501    0  0.00000000000E+00  0.00000000000E+00  0.41636540010E+02  0.41636540272E+02  0.46700000000E-02 0.  1.
         -1   -1    0    0    0  501 -0.00000000000E+00 -0.00000000000E+00 -0.24017625434E+01  0.24017670836E+01  0.46700000000E-02 0. -1.
       1023    2    1    2    0    0  0.00000000000E+00  0.00000000000E+00  0.39234777467E+02  0.44038307355E+02  0.20000118797E+02 0.  0.
        -11    1    3    3    0    0  0.20560290664E+01  0.97863601109E+01  0.19544760364E+02  0.21954447332E+02  0.51100000000E-03 0. -1.
         11    1    3    3    0    0 -0.20560290664E+01 -0.97863601109E+01  0.19690017103E+02  0.22083860023E+02  0.51100000000E-03 0.  1.
<mgrwt>
<rscale>  0 0.20000119E+02</rscale>
<asrwt>0</asrwt>
<pdfrwt beam="1">  1        1 0.64056217E-02 0.20000119E+02</pdfrwt>
<pdfrwt beam="2">  1       -1 0.36950231E-03 0.20000119E+02</pdfrwt>
<totfact> 0.41211525E+06</totfact>
</mgrwt>
</event>
<event>
 5    1  0.9583198E-007  0.2000228E+02  0.7818608E-02  0.1745283E+00
         -1   -1    0    0    0  501 -0.00000000000E+00  0.00000000000E+00  0.94606307932E+02  0.94606308048E+02  0.46700000000E-02 0. -1.
          1   -1    0    0  501    0  0.00000000000E+00 -0.00000000000E+00 -0.10572475358E+01  0.10572578497E+01  0.46700000000E-02 0.  1.
       1023    2    1    2    0    0  0.00000000000E+00  0.00000000000E+00  0.93549060396E+02  0.95663565897E+02  0.20002278348E+02 0.  0.
        -11    1    3    3    0    0 -0.58011673043E+01  0.81454656433E+01  0.46087562244E+02  0.47159999433E+02  0.51100000000E-03 0.  1.
         11    1    3    3    0    0  0.58011673043E+01 -0.81454656433E+01  0.47461498152E+02  0.48503566464E+02  0.51100000000E-03 0. -1.
<mgrwt>
<rscale>  0 0.20002278E+02</rscale>
<asrwt>0</asrwt>
<pdfrwt beam="2">  1        1 0.16265429E-03 0.20002278E+02</pdfrwt>
<pdfrwt beam="1">  1       -1 0.14554815E-01 0.20002278E+02</pdfrwt>
<totfact> 0.32152950E+06</totfact>
</mgrwt>
</event>
<event>
 5    1  0.9583198E-007  0.2000104E+02  0.7818608E-02  0.1745307E+00
          1   -1    0    0  501    0  0.00000000000E+00  0.00000000000E+00  0.11415081578E+01  0.11415177105E+01  0.46700000000E-02 0. -1.
         -1   -1    0    0    0  501 -0.00000000000E+00 -0.00000000000E+00 -0.87612098453E+02  0.87612098577E+02  0.46700000000E-02 0.  1.
       1023    2    1    2    0    0  0.00000000000E+00  0.00000000000E+00 -0.86470590295E+02  0.88753616288E+02  0.20001035428E+02 0.  0.
        -11    1    3    3    0    0  0.58771887701E+01 -0.80909560380E+01 -0.42908100111E+02  0.44058029607E+02  0.51100000000E-03 0. -1.
         11    1    3    3    0    0 -0.58771887701E+01  0.80909560380E+01 -0.43562490184E+02  0.44695586681E+02  0.51100000000E-03 0.  1.
<mgrwt>
<rscale>  0 0.20001035E+02</rscale>
<asrwt>0</asrwt>
<pdfrwt beam="1">  1        1 0.17561745E-03 0.20001035E+02</pdfrwt>
<pdfrwt beam="2">  1       -1 0.13478780E-01 0.20001035E+02</pdfrwt>
<totfact> 0.32548520E+06</totfact>
</mgrwt>
</event>
<event>
 4    1  0.9583198E-007  0.2002350E+02  0.7818608E-02  0.1744861E+00
          1   -1    0    0  501    0  0.00000000000E+00  0.00000000000E+00  0.24272108269E+02  0.24272108718E+02  0.46700000000E-02 0. -1.
         -1   -1    0    0    0  501 -0.00000000000E+00 -0.00000000000E+00 -0.41296429368E+01  0.41296455773E+01  0.46700000000E-02 0.  1.
        -11    1    1    2    0    0  0.55847510905E+01  0.83041688343E+01  0.10488449304E+02  0.14496766323E+02  0.51100000000E-03 0. -1.
         11    1    1    2    0    0 -0.55847510905E+01 -0.83041688343E+01  0.96540160283E+01  0.13904987972E+02  0.51100000000E-03 0.  1.
<mgrwt>
<rscale>  0 0.20023505E+02</rscale>
<asrwt>0</asrwt>
<pdfrwt beam="1">  1        1 0.37341707E-02 0.20023505E+02</pdfrwt>
<pdfrwt beam="2">  1       -1 0.63532992E-03 0.20023505E+02</pdfrwt>
<totfact> 0.39939604E+06</totfact>
</mgrwt>
</event>
<event>
 5    1  0.9583198E-007  0.2000193E+02  0.7818608E-02  0.1745290E+00
         -1   -1    0    0    0  501 -0.00000000000E+00  0.00000000000E+00  0.12739605799E+02  0.12739606655E+02  0.46700000000E-02 0.  1.
          1   -1    0    0  501    0  0.00000000000E+00 -0.00000000000E+00 -0.78510525328E+01  0.78510539217E+01  0.46700000000E-02 0. -1.
       1023    2    1    2    0    0  0.00000000000E+00  0.00000000000E+00  0.48885532660E+01  0.20590660576E+02  0.20001933655E+02 0.  0.
        -11    1    3    3    0    0 -0.83327490235E+01  0.55301616714E+01  0.24896514532E+01  0.10306102999E+02  0.51100000000E-03 0. -1.
         11    1    3    3    0    0  0.83327490235E+01 -0.55301616714E+01  0.23989018128E+01  0.10284557578E+02  0.51100000000E-03 0.  1.
<mgrwt>
<rscale>  0 0.20001934E+02</rscale>
<asrwt>0</asrwt>
<pdfrwt beam="2">  1        1 0.12078544E-02 0.20001934E+02</pdfrwt>
<pdfrwt beam="1">  1       -1 0.19599395E-02 0.20001934E+02</pdfrwt>
<totfact> 0.38229971E+06</totfact>
</mgrwt>
</event>
<event>
 5    1  0.9583198E-007  0.2000140E+02  0.7818608E-02  0.1745300E+00
          1   -1    0    0  501    0  0.00000000000E+00  0.00000000000E+00  0.61767125750E+01  0.61767143404E+01  0.46700000000E-02 0. -1.
         -1   -1    0    0    0  501 -0.00000000000E+00 -0.00000000000E+00 -0.16192100091E+02  0.16192100764E+02  0.46700000000E-02 0.  1.
       1023    2    1    2    0    0  0.00000000000E+00  0.00000000000E+00 -0.10015387516E+02  0.22368815105E+02  0.20001397504E+02 0.  0.
        -11    1    3    3    0    0 -0.42006209529E+01 -0.90754640778E+01 -0.50844516199E+01  0.11218775029E+02  0.51100000000E-03 0. -1.
         11    1    3    3    0    0  0.42006209529E+01  0.90754640778E+01 -0.49309358960E+01  0.11150040076E+02  0.51100000000E-03 0.  1.
<mgrwt>
<rscale>  0 0.20001398E+02</rscale>
<asrwt>0</asrwt>
<pdfrwt beam="1">  1        1 0.95026367E-03 0.20001398E+02</pdfrwt>
<pdfrwt beam="2">  1       -1 0.24910925E-02 0.20001398E+02</pdfrwt>
<totfact> 0.37817156E+06</totfact>
</mgrwt>
</event>
<event>
 5    1  0.9583198E-007  0.2000001E+02  0.7818608E-02  0.1745328E+00
          1   -1    0    0  501    0  0.00000000000E+00  0.00000000000E+00  0.13355694644E+01  0.13355776290E+01  0.46700000000E-02 0.  1.
         -1   -1    0    0    0  501 -0.00000000000E+00 -0.00000000000E+00 -0.74874284112E+02  0.74874284258E+02  0.46700000000E-02 0. -1.
       1023    2    1    2    0    0  0.00000000000E+00  0.00000000000E+00 -0.73538714648E+02  0.76209861887E+02  0.20000012419E+02 0.  0.
        -11    1    3    3    0    0 -0.99589784778E+01  0.90488700395E+00 -0.36796600364E+02  0.38131219118E+02  0.51100000000E-03 0.  1.
         11    1    3    3    0    0  0.99589784778E+01 -0.90488700395E+00 -0.36742114283E+02  0.38078642768E+02  0.51100000000E-03 0. -1.
<mgrwt>
<rscale>  0 0.20000012E+02</rscale>
<asrwt>0</asrwt>
<pdfrwt beam="1">  1        1 0.20547292E-03 0.20000012E+02</pdfrwt>
<pdfrwt beam="2">  1       -1 0.11519118E-01 0.20000012E+02</pdfrwt>
<totfact> 0.33300384E+06</totfact>
</mgrwt>
</event>
<event>
 5    1  0.1060772E-006  0.2000164E+02  0.7818608E-02  0.1745295E+00
          1   -1    0    0  501    0  0.00000000000E+00  0.00000000000E+00  0.77597046967E+02  0.77597047107E+02  0.46700000000E-02 0. -1.
         -1   -1    0    0    0  501 -0.00000000000E+00 -0.00000000000E+00 -0.12889158543E+01  0.12889243144E+01  0.46700000000E-02 0.  1.
       1023    2    1    2    0    0  0.00000000000E+00  0.00000000000E+00  0.76308131112E+02  0.78885971422E+02  0.20001640264E+02 0.  0.
        -11    1    3    3    0    0 -0.81174021524E+01 -0.58403923084E+01  0.38620773531E+02  0.39894442575E+02  0.51100000000E-03 0.  1.
         11    1    3    3    0    0  0.81174021524E+01  0.58403923084E+01  0.37687357582E+02  0.38991528846E+02  0.51100000000E-03 0. -1.
<mgrwt>
<rscale>  0 0.20001640E+02</rscale>
<asrwt>0</asrwt>
<pdfrwt beam="1">  1        1 0.11938008E-01 0.20001640E+02</pdfrwt>
<pdfrwt beam="2">  1       -1 0.19829540E-03 0.20001640E+02</pdfrwt>
<totfact> 0.43227046E+06</totfact>
</mgrwt>
</event>
<event>
 5    1  0.9583198E-007  0.2000270E+02  0.7818608E-02  0.1745274E+00
         -1   -1    0    0    0  501 -0.00000000000E+00  0.00000000000E+00  0.15156725136E+02  0.15156725855E+02  0.46700000000E-02 0. -1.
          1   -1    0    0  501    0  0.00000000000E+00 -0.00000000000E+00 -0.65995136733E+01  0.65995153256E+01  0.46700000000E-02 0.  1.
       1023    2    1    2    0    0  0.00000000000E+00  0.00000000000E+00  0.85572114627E+01  0.21756241181E+02  0.20002703875E+02 0.  0.
        -11    1    3    3    0    0  0.48179320713E+01  0.87639585646E+01  0.43734333531E+01  0.10915418394E+02  0.51100000000E-03 0.  1.
         11    1    3    3    0    0 -0.48179320713E+01 -0.87639585646E+01  0.41837781097E+01  0.10840822787E+02  0.51100000000E-03 0. -1.
<mgrwt>
<rscale>  0 0.20002704E+02</rscale>
<asrwt>0</asrwt>
<pdfrwt beam="2">  1        1 0.10153100E-02 0.20002704E+02</pdfrwt>
<pdfrwt beam="1">  1       -1 0.23318040E-02 0.20002704E+02</pdfrwt>
<totfact> 0.37930266E+06</totfact>
</mgrwt>
</event>
<event>
 5    1  0.1011533E-006  0.2000115E+02  0.7818608E-02  0.1745305E+00
          1   -1    0    0  501    0  0.00000000000E+00  0.00000000000E+00  0.30474610833E+02  0.30474611191E+02  0.46700000000E-02 0. -1.
         -1   -1    0    0    0  501 -0.00000000000E+00 -0.00000000000E+00 -0.32817953757E+01  0.32817986984E+01  0.46700000000E-02 0.  1.
       1023    2    1    2    0    0  0.00000000000E+00  0.00000000000E+00  0.27192815457E+02  0.33756409889E+02  0.20001149870E+02 0.  0.
        -11    1    3    3    0    0 -0.81978303876E+01 -0.57276286042E+01  0.13658333088E+02  0.16928089541E+02  0.51100000000E-03 0.  1.
         11    1    3    3    0    0  0.81978303876E+01  0.57276286042E+01  0.13534482369E+02  0.16828320348E+02  0.51100000000E-03 0. -1.
<mgrwt>
<rscale>  0 0.20001150E+02</rscale>
<asrwt>0</asrwt>
<pdfrwt beam="1">  1        1 0.46884018E-02 0.20001150E+02</pdfrwt>
<pdfrwt beam="2">  1       -1 0.50489190E-03 0.20001150E+02</pdfrwt>
<totfact> 0.40484076E+06</totfact>
</mgrwt>
</event>
<event>
 5    1  0.9583198E-007  0.2000480E+02  0.7818608E-02  0.1745233E+00
         -1   -1    0    0    0  501 -0.00000000000E+00  0.00000000000E+00  0.46239454904E+02  0.46239455140E+02  0.46700000000E-02 0. -1.
          1   -1    0    0  501    0  0.00000000000E+00 -0.00000000000E+00 -0.21636899440E+01  0.21636949838E+01  0.46700000000E-02 0.  1.
       1023    2    1    2    0    0  0.00000000000E+00  0.00000000000E+00  0.44075764960E+02  0.48403150123E+02  0.20004796552E+02 0.  0.
        -11    1    3    3    0    0 -0.99558452097E+01  0.95713166187E+00  0.22313928044E+02  0.24452941334E+02  0.51100000000E-03 0. -1.
         11    1    3    3    0    0  0.99558452097E+01 -0.95713166187E+00  0.21761836916E+02  0.23950208789E+02  0.51100000000E-03 0.  1.
<mgrwt>
<rscale>  0 0.20004797E+02</rscale>
<asrwt>0</asrwt>
<pdfrwt beam="2">  1        1 0.33287582E-03 0.20004797E+02</pdfrwt>
<pdfrwt beam="1">  1       -1 0.71137619E-02 0.20004797E+02</pdfrwt>
<totfact> 0.35182646E+06</totfact>
</mgrwt>
</event>
<event>
 5    1  0.9583198E-007  0.2000014E+02  0.7818608E-02  0.1745325E+00
          1   -1    0    0  501    0  0.00000000000E+00  0.00000000000E+00  0.10834845471E+03  0.10834845481E+03  0.46700000000E-02 0.  1.
         -1   -1    0    0    0  501 -0.00000000000E+00 -0.00000000000E+00 -0.92295521243E+00  0.92296702707E+00  0.46700000000E-02 0. -1.
       1023    2    1    2    0    0  0.00000000000E+00  0.00000000000E+00  0.10742549949E+03  0.10927142183E+03  0.20000142202E+02 0.  0.
        -11    1    3    3    0    0  0.94717026100E+01  0.32075263048E+01  0.53749982006E+02  0.54672314211E+02  0.51100000000E-03 0.  1.
         11    1    3    3    0    0 -0.94717026100E+01 -0.32075263048E+01  0.53675517487E+02  0.54599107622E+02  0.51100000000E-03 0. -1.
<mgrwt>
<rscale>  0 0.20000142E+02</rscale>
<asrwt>0</asrwt>
<pdfrwt beam="1">  1        1 0.16668994E-01 0.20000142E+02</pdfrwt>
<pdfrwt beam="2">  1       -1 0.14199403E-03 0.20000142E+02</pdfrwt>
<totfact> 0.44759217E+06</totfact>
</mgrwt>
</event>
<event>
 5    1  0.1005934E-006  0.2000078E+02  0.7818608E-02  0.1745313E+00
         -1   -1    0    0    0  501 -0.00000000000E+00  0.00000000000E+00  0.12665620561E+01  0.12665706655E+01  0.46700000000E-02 0.  1.
          1   -1    0    0  501    0  0.00000000000E+00 -0.00000000000E+00 -0.78959762317E+02  0.78959762455E+02  0.46700000000E-02 0. -1.
       1023    2    1    2    0    0  0.00000000000E+00  0.00000000000E+00 -0.77693200261E+02  0.80226333120E+02  0.20000778965E+02 0.  0.
        -11    1    3    3    0    0 -0.11075266720E+01 -0.99388703113E+01 -0.38824214585E+02  0.40091487835E+02  0.51100000000E-03 0. -1.
         11    1    3    3    0    0  0.11075266720E+01  0.99388703113E+01 -0.38868985675E+02  0.40134845285E+02  0.51100000000E-03 0.  1.
<mgrwt>
<rscale>  0 0.20000779E+02</rscale>
<asrwt>0</asrwt>
<pdfrwt beam="2">  1        1 0.12147653E-01 0.20000779E+02</pdfrwt>
<pdfrwt beam="1">  1       -1 0.19485644E-03 0.20000779E+02</pdfrwt>
<totfact> 0.43301902E+06</totfact>
</mgrwt>
</event>
<event>
 5    1  0.9583198E-007  0.2000055E+02  0.7818608E-02  0.1745317E+00
          1   -1    0    0  501    0  0.00000000000E+00  0.00000000000E+00  0.15812897922E+01  0.15812966881E+01  0.46700000000E-02 0.  1.
         -1   -1    0    0    0  501 -0.00000000000E+00 -0.00000000000E+00 -0.63242868169E+02  0.63242868341E+02  0.46700000000E-02 0. -1.
       1023    2    1    2    0    0  0.00000000000E+00  0.00000000000E+00 -0.61661578377E+02  0.64824165029E+02  0.20000553089E+02 0.  0.
        -11    1    3    3    0    0 -0.29508114498E+01  0.95547943864E+01 -0.30622077203E+02  0.32213552994E+02  0.51100000000E-03 0.  1.
         11    1    3    3    0    0  0.29508114498E+01 -0.95547943864E+01 -0.31039501174E+02  0.32610612036E+02  0.51100000000E-03 0. -1.
<mgrwt>
<rscale>  0 0.20000553E+02</rscale>
<asrwt>0</asrwt>
<pdfrwt beam="1">  1        1 0.24327594E-03 0.20000553E+02</pdfrwt>
<pdfrwt beam="2">  1       -1 0.97296706E-02 0.20000553E+02</pdfrwt>
<totfact> 0.34028307E+06</totfact>
</mgrwt>
</event>
<event>
 5    1  0.9583198E-007  0.2000051E+02  0.7818608E-02  0.1745318E+00
         -1   -1    0    0    0  501 -0.00000000000E+00  0.00000000000E+00  0.51315471986E+02  0.51315472198E+02  0.46700000000E-02 0. -1.
          1   -1    0    0  501    0  0.00000000000E+00 -0.00000000000E+00 -0.19488260793E+01  0.19488316746E+01  0.46700000000E-02 0.  1.
       1023    2    1    2    0    0  0.00000000000E+00  0.00000000000E+00  0.49366645907E+02  0.53264303873E+02  0.20000508469E+02 0.  0.
        -11    1    3    3    0    0  0.92410469846E+01 -0.38219595798E+01  0.24609900683E+02  0.26564102400E+02  0.51100000000E-03 0. -1.
         11    1    3    3    0    0 -0.92410469846E+01  0.38219595798E+01  0.24756745223E+02  0.26700201473E+02  0.51100000000E-03 0.  1.
<mgrwt>
<rscale>  0 0.20000508E+02</rscale>
<asrwt>0</asrwt>
<pdfrwt beam="2">  1        1 0.29981992E-03 0.20000508E+02</pdfrwt>
<pdfrwt beam="1">  1       -1 0.78946864E-02 0.20000508E+02</pdfrwt>
<totfact> 0.34834514E+06</totfact>
</mgrwt>
</event>
<event>
 5    1  0.1017819E-006  0.2000130E+02  0.7818608E-02  0.1745302E+00
          1   -1    0    0  501    0  0.00000000000E+00  0.00000000000E+00  0.77883177839E+02  0.77883177979E+02  0.46700000000E-02 0. -1.
         -1   -1    0    0    0  501 -0.00000000000E+00 -0.00000000000E+00 -0.12841368297E+01  0.12841453213E+01  0.46700000000E-02 0.  1.
       1023    2    1    2    0    0  0.00000000000E+00  0.00000000000E+00  0.76599041010E+02  0.79167323301E+02  0.20001299833E+02 0.  0.
        -11    1    3    3    0    0  0.68340096139E+01  0.73008357066E+01  0.38633249664E+02  0.39906564238E+02  0.51100000000E-03 0.  1.
         11    1    3    3    0    0 -0.68340096139E+01 -0.73008357066E+01  0.37965791345E+02  0.39260759062E+02  0.51100000000E-03 0. -1.
<mgrwt>
<rscale>  0 0.20001300E+02</rscale>
<asrwt>0</asrwt>
<pdfrwt beam="1">  1        1 0.11982026E-01 0.20001300E+02</pdfrwt>
<pdfrwt beam="2">  1       -1 0.19756021E-03 0.20001300E+02</pdfrwt>
<totfact> 0.43243553E+06</totfact>
</mgrwt>
</event>
<event>
 5    1  0.9583198E-007  0.2000728E+02  0.7818608E-02  0.1745183E+00
         -1   -1    0    0    0  501 -0.00000000000E+00  0.00000000000E+00  0.11781462013E+02  0.11781462938E+02  0.46700000000E-02 0. -1.
          1   -1    0    0  501    0  0.00000000000E+00 -0.00000000000E+00 -0.84940854960E+01  0.84940867798E+01  0.46700000000E-02 0.  1.
       1023    2    1    2    0    0  0.00000000000E+00  0.00000000000E+00  0.32873765168E+01  0.20275549718E+02  0.20007275477E+02 0.  0.
        -11    1    3    3    0    0  0.85146985699E+01  0.52490830215E+01  0.17862998984E+01  0.10160897199E+02  0.51100000000E-03 0. -1.
         11    1    3    3    0    0 -0.85146985699E+01 -0.52490830215E+01  0.15010766184E+01  0.10114652519E+02  0.51100000000E-03 0.  1.
<mgrwt>
<rscale>  0 0.20007275E+02</rscale>
<asrwt>0</asrwt>
<pdfrwt beam="2">  1        1 0.13067826E-02 0.20007275E+02</pdfrwt>
<pdfrwt beam="1">  1       -1 0.18125328E-02 0.20007275E+02</pdfrwt>
<totfact> 0.38334923E+06</totfact>
</mgrwt>
</event>
<event>
 5    1  0.9583198E-007  0.2000376E+02  0.7818608E-02  0.1745253E+00
         -1   -1    0    0    0  501 -0.00000000000E+00  0.00000000000E+00  0.10650955692E+02  0.10650956716E+02  0.46700000000E-02 0.  1.
          1   -1    0    0  501    0  0.00000000000E+00 -0.00000000000E+00 -0.93923541454E+01  0.93923553064E+01  0.46700000000E-02 0. -1.
       1023    2    1    2    0    0  0.00000000000E+00  0.00000000000E+00  0.12586015463E+01  0.20043312022E+02  0.20003756621E+02 0.  0.
        -11    1    3    3    0    0 -0.61271734761E+01  0.79053891596E+01  0.61757694077E+00  0.10020919824E+02  0.51100000000E-03 0. -1.
         11    1    3    3    0    0  0.61271734761E+01 -0.79053891596E+01  0.64102460553E+00  0.10022392198E+02  0.51100000000E-03 0.  1.
<mgrwt>
<rscale>  0 0.20003757E+02</rscale>
<asrwt>0</asrwt>
<pdfrwt beam="2">  1        1 0.14449777E-02 0.20003757E+02</pdfrwt>
<pdfrwt beam="1">  1       -1 0.16386087E-02 0.20003757E+02</pdfrwt>
<totfact> 0.38509860E+06</totfact>
</mgrwt>
</event>
<event>
 5    1  0.9583198E-007  0.2000546E+02  0.7818608E-02  0.1745220E+00
          1   -1    0    0  501    0  0.00000000000E+00  0.00000000000E+00  0.14275955412E+02  0.14275956176E+02  0.46700000000E-02 0. -1.
         -1   -1    0    0    0  501 -0.00000000000E+00 -0.00000000000E+00 -0.70086073017E+01  0.70086088575E+01  0.46700000000E-02 0.  1.
       1023    2    1    2    0    0  0.00000000000E+00  0.00000000000E+00  0.72673481105E+01  0.21284565034E+02  0.20005458258E+02 0.  0.
        -11    1    3    3    0    0 -0.13364725886E+00 -0.10001455677E+02  0.35408457063E+01  0.10610587440E+02  0.51100000000E-03 0.  1.
         11    1    3    3    0    0  0.13364725886E+00  0.10001455677E+02  0.37265024041E+01  0.10673977594E+02  0.51100000000E-03 0. -1.
<mgrwt>
<rscale>  0 0.20005458E+02</rscale>
<asrwt>0</asrwt>
<pdfrwt beam="1">  1        1 0.21963010E-02 0.20005458E+02</pdfrwt>
<pdfrwt beam="2">  1       -1 0.10782475E-02 0.20005458E+02</pdfrwt>
<totfact> 0.39144358E+06</totfact>
</mgrwt>
</event>
<event>
 5    1  0.9583198E-007  0.2000022E+02  0.7818608E-02  0.1745324E+00
         -1   -1    0    0    0  501 -0.00000000000E+00  0.00000000000E+00  0.10095970528E+01  0.10096078535E+01  0.46700000000E-02 0. -1.
          1   -1    0    0  501    0  0.00000000000E+00 -0.00000000000E+00 -0.99051062739E+02  0.99051062849E+02  0.46700000000E-02 0.  1.
       1023    2    1    2    0    0  0.00000000000E+00  0.00000000000E+00 -0.98041465687E+02  0.10006067070E+03  0.20000220688E+02 0.  0.
        -11    1    3    3    0    0  0.77664409930E+01 -0.62995308021E+01 -0.48907461755E+02  0.49919350052E+02  0.51100000000E-03 0.  1.
         11    1    3    3    0    0 -0.77664409930E+01  0.62995308021E+01 -0.49134003932E+02  0.50141320651E+02  0.51100000000E-03 0. -1.
<mgrwt>
<rscale>  0 0.20000221E+02</rscale>
<asrwt>0</asrwt>
<pdfrwt beam="2">  1        1 0.15238618E-01 0.20000221E+02</pdfrwt>
<pdfrwt beam="1">  1       -1 0.15532354E-03 0.20000221E+02</pdfrwt>
<totfact> 0.44313493E+06</totfact>
</mgrwt>
</event>
<event>
 5    1  0.9611348E-007  0.2000358E+02  0.7818608E-02  0.1745257E+00
         -1   -1    0    0    0  501 -0.00000000000E+00  0.00000000000E+00  0.12041273288E+01  0.12041363847E+01  0.46700000000E-02 0. -1.
          1   -1    0    0  501    0  0.00000000000E+00 -0.00000000000E+00 -0.83077125270E+02  0.83077125401E+02  0.46700000000E-02 0.  1.
       1023    2    1    2    0    0  0.00000000000E+00  0.00000000000E+00 -0.81872997941E+02  0.84281261786E+02  0.20003582088E+02 0.  0.
        -11    1    3    3    0    0 -0.28454851682E+01  0.95884591416E+01 -0.41029695668E+02  0.42231164576E+02  0.51100000000E-03 0. -1.
         11    1    3    3    0    0  0.28454851682E+01 -0.95884591416E+01 -0.40843302273E+02  0.42050097210E+02  0.51100000000E-03 0.  1.
<mgrwt>
<rscale>  0 0.20003582E+02</rscale>
<asrwt>0</asrwt>
<pdfrwt beam="2">  1        1 0.12781092E-01 0.20003582E+02</pdfrwt>
<pdfrwt beam="1">  1       -1 0.18525113E-03 0.20003582E+02</pdfrwt>
<totfact> 0.43500148E+06</totfact>
</mgrwt>
</event>
<event>
 5    1  0.9583198E-007  0.2000107E+02  0.7818608E-02  0.1745307E+00
          1   -1    0    0  501    0  0.00000000000E+00  0.00000000000E+00  0.83196037054E+01  0.83196050161E+01  0.46700000000E-02 0. -1.
         -1   -1    0    0    0  501 -0.00000000000E+00 -0.00000000000E+00 -0.12021090131E+02  0.12021091038E+02  0.46700000000E-02 0.  1.
       1023    2    1    2    0    0  0.00000000000E+00  0.00000000000E+00 -0.37014864259E+01  0.20340696055E+02  0.20001072827E+02 0.  0.
        -11    1    3    3    0    0  0.46810971243E+01 -0.88373009357E+01 -0.18640100503E+01  0.10172762252E+02  0.51100000000E-03 0. -1.
         11    1    3    3    0    0 -0.46810971243E+01  0.88373009357E+01 -0.18374763757E+01  0.10167933802E+02  0.51100000000E-03 0.  1.
<mgrwt>
<rscale>  0 0.20001073E+02</rscale>
<asrwt>0</asrwt>
<pdfrwt beam="1">  1        1 0.12799392E-02 0.20001073E+02</pdfrwt>
<pdfrwt beam="2">  1       -1 0.18493986E-02 0.20001073E+02</pdfrwt>
<totfact> 0.38328442E+06</totfact>
</mgrwt>
</event>
<event>
 5    1  0.9746343E-007  0.2000097E+02  0.7818608E-02  0.1745309E+00
         -1   -1    0    0    0  501 -0.00000000000E+00  0.00000000000E+00  0.36386728461E+02  0.36386728761E+02  0.46700000000E-02 0. -1.
          1   -1    0    0  501    0  0.00000000000E+00 -0.00000000000E+00 -0.27485193773E+01  0.27485233447E+01  0.46700000000E-02 0.  1.
       1023    2    1    2    0    0  0.00000000000E+00  0.00000000000E+00  0.33638209084E+02  0.39135252105E+02  0.20000971151E+02 0.  0.
        -11    1    3    3    0    0 -0.70081155846E+00  0.99756487421E+01  0.16680652897E+02  0.19448621699E+02  0.51100000000E-03 0. -1.
         11    1    3    3    0    0  0.70081155846E+00 -0.99756487421E+01  0.16957556187E+02  0.19686630407E+02  0.51100000000E-03 0.  1.
<mgrwt>
<rscale>  0 0.20000971E+02</rscale>
<asrwt>0</asrwt>
<pdfrwt beam="2">  1        1 0.42284948E-03 0.20000971E+02</pdfrwt>
<pdfrwt beam="1">  1       -1 0.55979583E-02 0.20000971E+02</pdfrwt>
<totfact> 0.35951849E+06</totfact>
</mgrwt>
</event>
<event>
 5    1  0.9583198E-007  0.2000237E+02  0.7818608E-02  0.1745281E+00
         -1   -1    0    0    0  501 -0.00000000000E+00  0.00000000000E+00  0.10959575870E+02  0.10959576865E+02  0.46700000000E-02 0. -1.
          1   -1    0    0  501    0  0.00000000000E+00 -0.00000000000E+00 -0.91266037238E+01  0.91266049186E+01  0.46700000000E-02 0.  1.
       1023    2    1    2    0    0  0.00000000000E+00  0.00000000000E+00  0.18329721459E+01  0.20086181783E+02  0.20002372653E+02 0.  0.
        -11    1    3    3    0    0 -0.74466322479E+01  0.66754955589E+01  0.82040402817E+00  0.10034322888E+02  0.51100000000E-03 0. -1.
         11    1    3    3    0    0  0.74466322479E+01 -0.66754955589E+01  0.10125681177E+01  0.10051858895E+02  0.51100000000E-03 0.  1.
<mgrwt>
<rscale>  0 0.20002373E+02</rscale>
<asrwt>0</asrwt>
<pdfrwt beam="2">  1        1 0.14040931E-02 0.20002373E+02</pdfrwt>
<pdfrwt beam="1">  1       -1 0.16860888E-02 0.20002373E+02</pdfrwt>
<totfact> 0.38470769E+06</totfact>
</mgrwt>
</event>
<event>
 5    1  0.9583198E-007  0.2000096E+02  0.7818608E-02  0.1745309E+00
          1   -1    0    0  501    0  0.00000000000E+00  0.00000000000E+00  0.19176858596E+01  0.19176915459E+01  0.46700000000E-02 0.  1.
         -1   -1    0    0    0  501 -0.00000000000E+00 -0.00000000000E+00 -0.52151097285E+02  0.52151097494E+02  0.46700000000E-02 0. -1.
       1023    2    1    2    0    0  0.00000000000E+00  0.00000000000E+00 -0.50233411426E+02  0.54068789040E+02  0.20000958098E+02 0.  0.
        -11    1    3    3    0    0  0.50810977596E+01 -0.86134792329E+01 -0.25120535353E+02  0.27037952504E+02  0.51100000000E-03 0.  1.
         11    1    3    3    0    0 -0.50810977596E+01  0.86134792329E+01 -0.25112876073E+02  0.27030836536E+02  0.51100000000E-03 0. -1.
<mgrwt>
<rscale>  0 0.20000958E+02</rscale>
<asrwt>0</asrwt>
<pdfrwt beam="1">  1        1 0.29502909E-03 0.20000958E+02</pdfrwt>
<pdfrwt beam="2">  1       -1 0.80232451E-02 0.20000958E+02</pdfrwt>
<totfact> 0.34774107E+06</totfact>
</mgrwt>
</event>
<event>
 5    1  0.9583198E-007  0.2000056E+02  0.7818608E-02  0.1745317E+00
          1   -1    0    0  501    0  0.00000000000E+00  0.00000000000E+00  0.30251924895E+02  0.30251925255E+02  0.46700000000E-02 0. -1.
         -1   -1    0    0    0  501 -0.00000000000E+00 -0.00000000000E+00 -0.33057566382E+01  0.33057599369E+01  0.46700000000E-02 0.  1.
       1023    2    1    2    0    0  0.00000000000E+00  0.00000000000E+00  0.26946168256E+02  0.33557685192E+02  0.20000556286E+02 0.  0.
        -11    1    3    3    0    0 -0.45713221873E+01 -0.88942923823E+01  0.13492876343E+02  0.16794735360E+02  0.51100000000E-03 0. -1.
         11    1    3    3    0    0  0.45713221873E+01  0.88942923823E+01  0.13453291913E+02  0.16762949832E+02  0.51100000000E-03 0.  1.
<mgrwt>
<rscale>  0 0.20000556E+02</rscale>
<asrwt>0</asrwt>
<pdfrwt beam="1">  1        1 0.46541427E-02 0.20000556E+02</pdfrwt>
<pdfrwt beam="2">  1       -1 0.50857822E-03 0.20000556E+02</pdfrwt>
<totfact> 0.40471494E+06</totfact>
</mgrwt>
</event>
<event>
 5    1  0.9583198E-007  0.2000053E+02  0.7818608E-02  0.1745317E+00
          1   -1    0    0  501    0  0.00000000000E+00  0.00000000000E+00  0.49708399408E+02  0.49708399627E+02  0.46700000000E-02 0.  1.
         -1   -1    0    0    0  501 -0.00000000000E+00 -0.00000000000E+00 -0.20118368713E+01  0.20118422914E+01  0.46700000000E-02 0. -1.
       1023    2    1    2    0    0  0.00000000000E+00  0.00000000000E+00  0.47696562536E+02  0.51720241918E+02  0.20000533651E+02 0.  0.
        -11    1    3    3    0    0  0.86970684292E+01  0.49358473712E+01  0.24006590516E+02  0.26006114223E+02  0.51100000000E-03 0. -1.
         11    1    3    3    0    0 -0.86970684292E+01 -0.49358473712E+01  0.23689972020E+02  0.25714127695E+02  0.51100000000E-03 0.  1.
<mgrwt>
<rscale>  0 0.20000534E+02</rscale>
<asrwt>0</asrwt>
<pdfrwt beam="1">  1        1 0.76474457E-02 0.20000534E+02</pdfrwt>
<pdfrwt beam="2">  1       -1 0.30951383E-03 0.20000534E+02</pdfrwt>
<totfact> 0.41695248E+06</totfact>
</mgrwt>
</event>
<event>
 5    1  0.9583198E-007  0.2000899E+02  0.7818608E-02  0.1745149E+00
         -1   -1    0    0    0  501 -0.00000000000E+00  0.00000000000E+00  0.36568497547E+01  0.36568527366E+01  0.46700000000E-02 0.  1.
          1   -1    0    0  501    0  0.00000000000E+00 -0.00000000000E+00 -0.27370526514E+02  0.27370526912E+02  0.46700000000E-02 0. -1.
       1023    2    1    2    0    0  0.00000000000E+00  0.00000000000E+00 -0.23713676759E+02  0.31027379649E+02  0.20008993539E+02 0.  0.
        -11    1    3    3    0    0 -0.49595014697E+01 -0.86877238740E+01 -0.12057555493E+02  0.15667094359E+02  0.51100000000E-03 0.  1.
         11    1    3    3    0    0  0.49595014697E+01  0.86877238740E+01 -0.11656121266E+02  0.15360285289E+02  0.51100000000E-03 0. -1.
<mgrwt>
<rscale>  0 0.20008994E+02</rscale>
<asrwt>0</asrwt>
<pdfrwt beam="2">  1        1 0.42108504E-02 0.20008994E+02</pdfrwt>
<pdfrwt beam="1">  1       -1 0.56259255E-03 0.20008994E+02</pdfrwt>
<totfact> 0.40231836E+06</totfact>
</mgrwt>
</event>
<event>
 5    1  0.9583198E-007  0.2000048E+02  0.7818608E-02  0.1745319E+00
          1   -1    0    0  501    0  0.00000000000E+00  0.00000000000E+00  0.29969437062E+02  0.29969437426E+02  0.46700000000E-02 0.  1.
         -1   -1    0    0    0  501 -0.00000000000E+00 -0.00000000000E+00 -0.33368904723E+01  0.33368937401E+01  0.46700000000E-02 0. -1.
       1023    2    1    2    0    0  0.00000000000E+00  0.00000000000E+00  0.26632546590E+02  0.33306331166E+02  0.20000478941E+02 0.  0.
        -11    1    3    3    0    0 -0.97428779769E+01  0.22540080106E+01  0.13276661181E+02  0.16621490781E+02  0.51100000000E-03 0. -1.
         11    1    3    3    0    0  0.97428779769E+01 -0.22540080106E+01  0.13355885409E+02  0.16684840386E+02  0.51100000000E-03 0.  1.
<mgrwt>
<rscale>  0 0.20000479E+02</rscale>
<asrwt>0</asrwt>
<pdfrwt beam="1">  1        1 0.46106828E-02 0.20000479E+02</pdfrwt>
<pdfrwt beam="2">  1       -1 0.51336806E-03 0.20000479E+02</pdfrwt>
<totfact> 0.40452416E+06</totfact>
</mgrwt>
</event>
<event>
 5    1  0.1016683E-006  0.2000090E+02  0.7818608E-02  0.1745310E+00
         -1   -1    0    0    0  501 -0.00000000000E+00  0.00000000000E+00  0.14337171840E+01  0.14337247897E+01  0.46700000000E-02 0.  1.
          1   -1    0    0  501    0  0.00000000000E+00 -0.00000000000E+00 -0.69754872539E+02  0.69754872695E+02  0.46700000000E-02 0. -1.
       1023    2    1    2    0    0  0.00000000000E+00  0.00000000000E+00 -0.68321155355E+02  0.71188597485E+02  0.20000903551E+02 0.  0.
        -11    1    3    3    0    0 -0.88257488607E+01 -0.47020775148E+01 -0.33892814098E+02  0.35337320550E+02  0.51100000000E-03 0.  1.
         11    1    3    3    0    0  0.88257488607E+01  0.47020775148E+01 -0.34428341257E+02  0.35851276935E+02  0.51100000000E-03 0. -1.
<mgrwt>
<rscale>  0 0.20000904E+02</rscale>
<asrwt>0</asrwt>
<pdfrwt beam="2">  1        1 0.10731517E-01 0.20000904E+02</pdfrwt>
<pdfrwt beam="1">  1       -1 0.22057253E-03 0.20000904E+02</pdfrwt>
<totfact> 0.42816446E+06</totfact>
</mgrwt>
</event>
<event>
 5    1  0.9583198E-007  0.2000087E+02  0.7818608E-02  0.1745311E+00
          1   -1    0    0  501    0  0.00000000000E+00  0.00000000000E+00  0.99448473732E+01  0.99448484697E+01  0.46700000000E-02 0. -1.
         -1   -1    0    0    0  501 -0.00000000000E+00 -0.00000000000E+00 -0.10056326717E+02  0.10056327802E+02  0.46700000000E-02 0.  1.
       1023    2    1    2    0    0  0.00000000000E+00  0.00000000000E+00 -0.11147934416E+00  0.20001176271E+02  0.20000865596E+02 0.  0.
        -11    1    3    3    0    0  0.36137640615E+01  0.93243210829E+01  0.24271188586E-01  0.10000142184E+02  0.51100000000E-03 0. -1.
         11    1    3    3    0    0 -0.36137640615E+01 -0.93243210829E+01 -0.13575053275E+00  0.10001034087E+02  0.51100000000E-03 0.  1.
<mgrwt>
<rscale>  0 0.20000866E+02</rscale>
<asrwt>0</asrwt>
<pdfrwt beam="1">  1        1 0.15299767E-02 0.20000866E+02</pdfrwt>
<pdfrwt beam="2">  1       -1 0.15471273E-02 0.20000866E+02</pdfrwt>
<totfact> 0.38611600E+06</totfact>
</mgrwt>
</event>
<event>
 5    1  0.9936952E-007  0.2000198E+02  0.7818608E-02  0.1745289E+00
         -1   -1    0    0    0  501 -0.00000000000E+00  0.00000000000E+00  0.16869128033E+01  0.16869192674E+01  0.46700000000E-02 0. -1.
          1   -1    0    0  501    0  0.00000000000E+00 -0.00000000000E+00 -0.59291504739E+02  0.59291504923E+02  0.46700000000E-02 0.  1.
       1023    2    1    2    0    0  0.00000000000E+00  0.00000000000E+00 -0.57604591936E+02  0.60978424191E+02  0.20001980018E+02 0.  0.
        -11    1    3    3    0    0  0.96420645284E+01 -0.26525635698E+01 -0.29166845601E+02  0.30833591819E+02  0.51100000000E-03 0. -1.
         11    1    3    3    0    0 -0.96420645284E+01  0.26525635698E+01 -0.28437746335E+02  0.30144832372E+02  0.51100000000E-03 0.  1.
<mgrwt>
<rscale>  0 0.20001980E+02</rscale>
<asrwt>0</asrwt>
<pdfrwt beam="2">  1        1 0.91217689E-02 0.20001980E+02</pdfrwt>
<pdfrwt beam="1">  1       -1 0.25952560E-03 0.20001980E+02</pdfrwt>
<totfact> 0.42237676E+06</totfact>
</mgrwt>
</event>
<event>
 5    1  0.9583198E-007  0.2000385E+02  0.7818608E-02  0.1745252E+00
         -1   -1    0    0    0  501 -0.00000000000E+00  0.00000000000E+00  0.22605782558E+02  0.22605783040E+02  0.46700000000E-02 0.  1.
          1   -1    0    0  501    0  0.00000000000E+00 -0.00000000000E+00 -0.44253483230E+01  0.44253507871E+01  0.46700000000E-02 0. -1.
       1023    2    1    2    0    0  0.00000000000E+00  0.00000000000E+00  0.18180434235E+02  0.27031133827E+02  0.20003849805E+02 0.  0.
        -11    1    3    3    0    0  0.99486722742E+01  0.10186954445E+01  0.93025086359E+01  0.13658348641E+02  0.51100000000E-03 0.  1.
         11    1    3    3    0    0 -0.99486722742E+01 -0.10186954445E+01  0.88779255990E+01  0.13372785186E+02  0.51100000000E-03 0. -1.
<mgrwt>
<rscale>  0 0.20003850E+02</rscale>
<asrwt>0</asrwt>
<pdfrwt beam="2">  1        1 0.68082304E-03 0.20003850E+02</pdfrwt>
<pdfrwt beam="1">  1       -1 0.34778129E-02 0.20003850E+02</pdfrwt>
<totfact> 0.37143083E+06</totfact>
</mgrwt>
</event>
<event>
 5    1  0.9583198E-007  0.2000412E+02  0.7818608E-02  0.1745246E+00
         -1   -1    0    0    0  501 -0.00000000000E+00  0.00000000000E+00  0.12872145338E+01  0.12872230051E+01  0.46700000000E-02 0.  1.
          1   -1    0    0  501    0  0.00000000000E+00 -0.00000000000E+00 -0.77718866548E+02  0.77718866688E+02  0.46700000000E-02 0. -1.
       1023    2    1    2    0    0  0.00000000000E+00  0.00000000000E+00 -0.76431652014E+02  0.79006089693E+02  0.20004119051E+02 0.  0.
        -11    1    3    3    0    0 -0.94011717368E+01 -0.34145513916E+01 -0.38208690565E+02  0.39496141915E+02  0.51100000000E-03 0.  1.
         11    1    3    3    0    0  0.94011717368E+01  0.34145513916E+01 -0.38222961449E+02  0.39509947778E+02  0.51100000000E-03 0. -1.
<mgrwt>
<rscale>  0 0.20004119E+02</rscale>
<asrwt>0</asrwt>
<pdfrwt beam="2">  1        1 0.11956746E-01 0.20004119E+02</pdfrwt>
<pdfrwt beam="1">  1       -1 0.19803373E-03 0.20004119E+02</pdfrwt>
<totfact> 0.43221533E+06</totfact>
</mgrwt>
</event>
<event>
 5    1  0.9583198E-007  0.2000113E+02  0.7818608E-02  0.1745306E+00
         -1   -1    0    0    0  501 -0.00000000000E+00  0.00000000000E+00  0.14462910322E+02  0.14462911076E+02  0.46700000000E-02 0.  1.
          1   -1    0    0  501    0  0.00000000000E+00 -0.00000000000E+00 -0.69150150355E+01  0.69150166125E+01  0.46700000000E-02 0. -1.
       1023    2    1    2    0    0  0.00000000000E+00  0.00000000000E+00  0.75478952860E+01  0.21377927688E+02  0.20001126693E+02 0.  0.
        -11    1    3    3    0    0  0.48020241191E+01 -0.87720626972E+01  0.38299711969E+01  0.10708744055E+02  0.51100000000E-03 0.  1.
         11    1    3    3    0    0 -0.48020241191E+01  0.87720626972E+01  0.37179240891E+01  0.10669183633E+02  0.51100000000E-03 0. -1.
<mgrwt>
<rscale>  0 0.20001127E+02</rscale>
<asrwt>0</asrwt>
<pdfrwt beam="2">  1        1 0.10638487E-02 0.20001127E+02</pdfrwt>
<pdfrwt beam="1">  1       -1 0.22250633E-02 0.20001127E+02</pdfrwt>
<totfact> 0.38018838E+06</totfact>
</mgrwt>
</event>
<event>
 5    1  0.9583198E-007  0.2000024E+02  0.7818608E-02  0.1745323E+00
         -1   -1    0    0    0  501 -0.00000000000E+00  0.00000000000E+00  0.20497584516E+01  0.20497637715E+01  0.46700000000E-02 0.  1.
          1   -1    0    0  501    0  0.00000000000E+00 -0.00000000000E+00 -0.48787339732E+02  0.48787339956E+02  0.46700000000E-02 0. -1.
       1023    2    1    2    0    0  0.00000000000E+00  0.00000000000E+00 -0.46737581281E+02  0.50837103727E+02  0.20000240284E+02 0.  0.
        -11    1    3    3    0    0  0.53459746954E+01  0.84510959447E+01 -0.23256994258E+02  0.25315770782E+02  0.51100000000E-03 0.  1.
         11    1    3    3    0    0 -0.53459746954E+01 -0.84510959447E+01 -0.23480587022E+02  0.25521332945E+02  0.51100000000E-03 0. -1.
<mgrwt>
<rscale>  0 0.20000240E+02</rscale>
<asrwt>0</asrwt>
<pdfrwt beam="2">  1        1 0.75057442E-02 0.20000240E+02</pdfrwt>
<pdfrwt beam="1">  1       -1 0.31534792E-03 0.20000240E+02</pdfrwt>
<totfact> 0.41642384E+06</totfact>
</mgrwt>
</event>
<event>
 4    1  0.9583198E-007  0.2002089E+02  0.7818608E-02  0.1744913E+00
          1   -1    0    0  501    0  0.00000000000E+00  0.00000000000E+00  0.96989769306E+02  0.96989769419E+02  0.46700000000E-02 0. -1.
         -1   -1    0    0    0  501 -0.00000000000E+00 -0.00000000000E+00 -0.10331862109E+01  0.10331967650E+01  0.46700000000E-02 0.  1.
        -11    1    1    2    0    0  0.99096776874E+01 -0.13876177471E+01  0.46577821304E+02  0.47640535604E+02  0.51100000000E-03 0. -1.
         11    1    1    2    0    0 -0.99096776874E+01  0.13876177471E+01  0.49378761791E+02  0.50382430580E+02  0.51100000000E-03 0.  1.
<mgrwt>
<rscale>  0 0.20020891E+02</rscale>
<asrwt>0</asrwt>
<pdfrwt beam="1">  1        1 0.14921503E-01 0.20020891E+02</pdfrwt>
<pdfrwt beam="2">  1       -1 0.15895255E-03 0.20020891E+02</pdfrwt>
<totfact> 0.44112202E+06</totfact>
</mgrwt>
</event>
<event>
 4    1  0.9583198E-007  0.2032649E+02  0.7818608E-02  0.1738912E+00
          1   -1    0    0  501    0  0.00000000000E+00  0.00000000000E+00  0.17548882598E+02  0.17548883219E+02  0.46700000000E-02 0. -1.
         -1   -1    0    0    0  501 -0.00000000000E+00 -0.00000000000E+00 -0.58859302880E+01  0.58859321406E+01  0.46700000000E-02 0.  1.
        -11    1    1    2    0    0 -0.97709278325E+00  0.10115940330E+02  0.57535429526E+01  0.11678622172E+02  0.51100000000E-03 0. -1.
         11    1    1    2    0    0  0.97709278325E+00 -0.10115940330E+02  0.59094093570E+01  0.11756193188E+02  0.51100000000E-03 0.  1.
<mgrwt>
<rscale>  0 0.20326488E+02</rscale>
<asrwt>0</asrwt>
<pdfrwt beam="1">  1        1 0.26998282E-02 0.20326488E+02</pdfrwt>
<pdfrwt beam="2">  1       -1 0.90552795E-03 0.20326488E+02</pdfrwt>
<totfact> 0.38078278E+06</totfact>
</mgrwt>
</event>
<event>
 5    1  0.9583198E-007  0.2000041E+02  0.7818608E-02  0.1745320E+00
         -1   -1    0    0    0  501 -0.00000000000E+00  0.00000000000E+00  0.16542322802E+01  0.16542388721E+01  0.46700000000E-02 0. -1.
          1   -1    0    0  501    0  0.00000000000E+00 -0.00000000000E+00 -0.60453356071E+02  0.60453356251E+02  0.46700000000E-02 0.  1.
       1023    2    1    2    0    0  0.00000000000E+00  0.00000000000E+00 -0.58799123791E+02  0.62107595123E+02  0.20000410332E+02 0.  0.
        -11    1    3    3    0    0  0.84255036230E+01 -0.53863391901E+01 -0.29249284767E+02  0.30911525695E+02  0.51100000000E-03 0.  1.
         11    1    3    3    0    0 -0.84255036230E+01  0.53863391901E+01 -0.29549839024E+02  0.31196069429E+02  0.51100000000E-03 0. -1.
<mgrwt>
<rscale>  0 0.20000410E+02</rscale>
<asrwt>0</asrwt>
<pdfrwt beam="2">  1        1 0.93005151E-02 0.20000410E+02</pdfrwt>
<pdfrwt beam="1">  1       -1 0.25449784E-03 0.20000410E+02</pdfrwt>
<totfact> 0.42310010E+06</totfact>
</mgrwt>
</event>
<event>
 5    1  0.9583198E-007  0.2000026E+02  0.7818608E-02  0.1745323E+00
          1   -1    0    0  501    0  0.00000000000E+00  0.00000000000E+00  0.22802664855E+01  0.22802712676E+01  0.46700000000E-02 0. -1.
         -1   -1    0    0    0  501 -0.00000000000E+00 -0.00000000000E+00 -0.43855616848E+02  0.43855617096E+02  0.46700000000E-02 0.  1.
       1023    2    1    2    0    0  0.00000000000E+00  0.00000000000E+00 -0.41575350362E+02  0.46135888364E+02  0.20000260933E+02 0.  0.
        -11    1    3    3    0    0  0.30580428462E+01 -0.95210797278E+01 -0.20798941754E+02  0.23078097053E+02  0.51100000000E-03 0. -1.
         11    1    3    3    0    0 -0.30580428462E+01  0.95210797278E+01 -0.20776408608E+02  0.23057791311E+02  0.51100000000E-03 0.  1.
<mgrwt>
<rscale>  0 0.20000261E+02</rscale>
<asrwt>0</asrwt>
<pdfrwt beam="1">  1        1 0.35081065E-03 0.20000261E+02</pdfrwt>
<pdfrwt beam="2">  1       -1 0.67470177E-02 0.20000261E+02</pdfrwt>
<totfact> 0.35376717E+06</totfact>
</mgrwt>
</event>
<event>
 5    1  0.9583198E-007  0.2000577E+02  0.7818608E-02  0.1745213E+00
         -1   -1    0    0    0  501 -0.00000000000E+00  0.00000000000E+00  0.83510129010E+02  0.83510129141E+02  0.46700000000E-02 0.  1.
          1   -1    0    0  501    0  0.00000000000E+00 -0.00000000000E+00 -0.11981458734E+01  0.11981549745E+01  0.46700000000E-02 0. -1.
       1023    2    1    2    0    0  0.00000000000E+00  0.00000000000E+00  0.82311983137E+02  0.84708284115E+02  0.20005769914E+02 0.  0.
        -11    1    3    3    0    0  0.42369241879E+01  0.90600838086E+01  0.40541493555E+02  0.41757027494E+02  0.51100000000E-03 0. -1.
         11    1    3    3    0    0 -0.42369241879E+01 -0.90600838086E+01  0.41770489582E+02  0.42951256622E+02  0.51100000000E-03 0.  1.
<mgrwt>
<rscale>  0 0.20005770E+02</rscale>
<asrwt>0</asrwt>
<pdfrwt beam="2">  1        1 0.18433082E-03 0.20005770E+02</pdfrwt>
<pdfrwt beam="1">  1       -1 0.12847715E-01 0.20005770E+02</pdfrwt>
<totfact> 0.32767173E+06</totfact>
</mgrwt>
</event>
<event>
 5    1  0.9583198E-007  0.2000048E+02  0.7818608E-02  0.1745319E+00
         -1   -1    0    0    0  501 -0.00000000000E+00  0.00000000000E+00  0.22014909907E+02  0.22014910402E+02  0.46700000000E-02 0. -1.
          1   -1    0    0  501    0  0.00000000000E+00 -0.00000000000E+00 -0.45425928502E+01  0.45425952507E+01  0.46700000000E-02 0.  1.
       1023    2    1    2    0    0  0.00000000000E+00  0.00000000000E+00  0.17472317057E+02  0.26557505653E+02  0.20000481073E+02 0.  0.
        -11    1    3    3    0    0 -0.82394196873E+01  0.56671633597E+01  0.87285072903E+01  0.13273719038E+02  0.51100000000E-03 0.  1.
         11    1    3    3    0    0  0.82394196873E+01 -0.56671633597E+01  0.87438097663E+01  0.13283786614E+02  0.51100000000E-03 0. -1.
<mgrwt>
<rscale>  0 0.20000481E+02</rscale>
<asrwt>0</asrwt>
<pdfrwt beam="2">  1        1 0.69886068E-03 0.20000481E+02</pdfrwt>
<pdfrwt beam="1">  1       -1 0.33869094E-02 0.20000481E+02</pdfrwt>
<totfact> 0.37214145E+06</totfact>
</mgrwt>
</event>
<event>
 5    1  0.9583198E-007  0.2000011E+02  0.7818608E-02  0.1745326E+00
          1   -1    0    0  501    0  0.00000000000E+00  0.00000000000E+00  0.22105851441E+01  0.22105900770E+01  0.46700000000E-02 0. -1.
         -1   -1    0    0    0  501 -0.00000000000E+00 -0.00000000000E+00 -0.45237323101E+02  0.45237323342E+02  0.46700000000E-02 0.  1.
       1023    2    1    2    0    0  0.00000000000E+00  0.00000000000E+00 -0.43026737957E+02  0.47447913419E+02  0.20000107715E+02 0.  0.
        -11    1    3    3    0    0 -0.84629755810E+01  0.53272039952E+01 -0.21503082551E+02  0.23714628767E+02  0.51100000000E-03 0. -1.
         11    1    3    3    0    0  0.84629755810E+01 -0.53272039952E+01 -0.21523655406E+02  0.23733284652E+02  0.51100000000E-03 0.  1.
<mgrwt>
<rscale>  0 0.20000108E+02</rscale>
<asrwt>0</asrwt>
<pdfrwt beam="1">  1        1 0.34009045E-03 0.20000108E+02</pdfrwt>
<pdfrwt beam="2">  1       -1 0.69595879E-02 0.20000108E+02</pdfrwt>
<totfact> 0.35274562E+06</totfact>
</mgrwt>
</event>
<event>
 5    1  0.9583198E-007  0.2000016E+02  0.7818608E-02  0.1745325E+00
          1   -1    0    0  501    0  0.00000000000E+00  0.00000000000E+00  0.93410790923E+02  0.93410791039E+02  0.46700000000E-02 0.  1.
         -1   -1    0    0    0  501 -0.00000000000E+00 -0.00000000000E+00 -0.10705521326E+01  0.10705623184E+01  0.46700000000E-02 0. -1.
       1023    2    1    2    0    0  0.00000000000E+00  0.00000000000E+00  0.92340238790E+02  0.94481353358E+02  0.20000160812E+02 0.  0.
        -11    1    3    3    0    0  0.51884664665E+01  0.85487470534E+01  0.46082068860E+02  0.47154621525E+02  0.51100000000E-03 0.  1.
         11    1    3    3    0    0 -0.51884664665E+01 -0.85487470534E+01  0.46258169930E+02  0.47326731833E+02  0.51100000000E-03 0. -1.
<mgrwt>
<rscale>  0 0.20000161E+02</rscale>
<asrwt>0</asrwt>
<pdfrwt beam="1">  1        1 0.14370887E-01 0.20000161E+02</pdfrwt>
<pdfrwt beam="2">  1       -1 0.16470118E-03 0.20000161E+02</pdfrwt>
<totfact> 0.44036925E+06</totfact>
</mgrwt>
</event>
<event>
 5    1  0.9583198E-007  0.2000012E+02  0.7818608E-02  0.1745326E+00
         -1   -1    0    0    0  501 -0.00000000000E+00  0.00000000000E+00  0.15404725515E+01  0.15404796301E+01  0.46700000000E-02 0. -1.
          1   -1    0    0  501    0  0.00000000000E+00 -0.00000000000E+00 -0.64915744238E+02  0.64915744406E+02  0.46700000000E-02 0.  1.
       1023    2    1    2    0    0  0.00000000000E+00  0.00000000000E+00 -0.63375271686E+02  0.66456224036E+02  0.20000116295E+02 0.  0.
        -11    1    3    3    0    0  0.73111416688E+01 -0.68226256745E+01 -0.31728208339E+02  0.33266803547E+02  0.51100000000E-03 0.  1.
         11    1    3    3    0    0 -0.73111416688E+01  0.68226256745E+01 -0.31647063348E+02  0.33189420489E+02  0.51100000000E-03 0. -1.
<mgrwt>
<rscale>  0 0.20000116E+02</rscale>
<asrwt>0</asrwt>
<pdfrwt beam="2">  1        1 0.99870360E-02 0.20000116E+02</pdfrwt>
<pdfrwt beam="1">  1       -1 0.23699638E-03 0.20000116E+02</pdfrwt>
<totfact> 0.42557936E+06</totfact>
</mgrwt>
</event>
<event>
 5    1  0.9658181E-007  0.2000125E+02  0.7818608E-02  0.1745303E+00
         -1   -1    0    0    0  501 -0.00000000000E+00  0.00000000000E+00  0.10303296877E+02  0.10303297935E+02  0.46700000000E-02 0. -1.
          1   -1    0    0  501    0  0.00000000000E+00 -0.00000000000E+00 -0.97068420897E+01  0.97068432131E+01  0.46700000000E-02 0.  1.
       1023    2    1    2    0    0  0.00000000000E+00  0.00000000000E+00  0.59645478696E+00  0.20010141148E+02  0.20001249722E+02 0.  0.
        -11    1    3    3    0    0 -0.59764751273E+01  0.80177453119E+01  0.39828444606E+00  0.10008053037E+02  0.51100000000E-03 0.  1.
         11    1    3    3    0    0  0.59764751273E+01 -0.80177453119E+01  0.19817034090E+00  0.10002088111E+02  0.51100000000E-03 0. -1.
<mgrwt>
<rscale>  0 0.20001250E+02</rscale>
<asrwt>0</asrwt>
<pdfrwt beam="2">  1        1 0.14933605E-02 0.20001250E+02</pdfrwt>
<pdfrwt beam="1">  1       -1 0.15851227E-02 0.20001250E+02</pdfrwt>
<totfact> 0.38572272E+06</totfact>
</mgrwt>
</event>
<event>
 5    1  0.9583198E-007  0.2000016E+02  0.7818608E-02  0.1745325E+00
          1   -1    0    0  501    0  0.00000000000E+00  0.00000000000E+00  0.23026415963E+02  0.23026416437E+02  0.46700000000E-02 0.  1.
         -1   -1    0    0    0  501 -0.00000000000E+00 -0.00000000000E+00 -0.43429045212E+01  0.43429070321E+01  0.46700000000E-02 0. -1.
       1023    2    1    2    0    0  0.00000000000E+00  0.00000000000E+00  0.18683511442E+02  0.27369323469E+02  0.20000156683E+02 0.  0.
        -11    1    3    3    0    0  0.98643481452E+01  0.16419062737E+01  0.93162997360E+01  0.13667284353E+02  0.51100000000E-03 0. -1.
         11    1    3    3    0    0 -0.98643481452E+01 -0.16419062737E+01  0.93672117061E+01  0.13702039116E+02  0.51100000000E-03 0.  1.
<mgrwt>
<rscale>  0 0.20000157E+02</rscale>
<asrwt>0</asrwt>
<pdfrwt beam="1">  1        1 0.35425258E-02 0.20000157E+02</pdfrwt>
<pdfrwt beam="2">  1       -1 0.66813938E-03 0.20000157E+02</pdfrwt>
<totfact> 0.39948727E+06</totfact>
</mgrwt>
</event>
<event>
 5    1  0.9583198E-007  0.2000042E+02  0.7818608E-02  0.1745320E+00
         -1   -1    0    0    0  501 -0.00000000000E+00  0.00000000000E+00  0.18515128524E+02  0.18515129113E+02  0.46700000000E-02 0.  1.
          1   -1    0    0  501    0  0.00000000000E+00 -0.00000000000E+00 -0.54012130846E+01  0.54012151035E+01  0.46700000000E-02 0. -1.
       1023    2    1    2    0    0  0.00000000000E+00  0.00000000000E+00  0.13113915439E+02  0.23916344216E+02  0.20000418559E+02 0.  0.
        -11    1    3    3    0    0  0.81076704083E+01 -0.58540437276E+01  0.65643246597E+01  0.11962211581E+02  0.51100000000E-03 0.  1.
         11    1    3    3    0    0 -0.81076704083E+01  0.58540437276E+01  0.65495907793E+01  0.11954132635E+02  0.51100000000E-03 0. -1.
<mgrwt>
<rscale>  0 0.20000419E+02</rscale>
<asrwt>0</asrwt>
<pdfrwt beam="2">  1        1 0.83095605E-03 0.20000419E+02</pdfrwt>
<pdfrwt beam="1">  1       -1 0.28484815E-02 0.20000419E+02</pdfrwt>
<totfact> 0.37568746E+06</totfact>
</mgrwt>
</event>
<event>
 5    1  0.9583198E-007  0.2000184E+02  0.7818608E-02  0.1745291E+00
         -1   -1    0    0    0  501 -0.00000000000E+00  0.00000000000E+00  0.24816685569E+01  0.24816729509E+01  0.46700000000E-02 0. -1.
          1   -1    0    0  501    0  0.00000000000E+00 -0.00000000000E+00 -0.40302863471E+02  0.40302863741E+02  0.46700000000E-02 0.  1.
       1023    2    1    2    0    0  0.00000000000E+00  0.00000000000E+00 -0.37821194914E+02  0.42784536692E+02  0.20001844796E+02 0.  0.
        -11    1    3    3    0    0  0.54508809953E+01 -0.83848462235E+01 -0.18854055197E+02  0.21342285432E+02  0.51100000000E-03 0.  1.
         11    1    3    3    0    0 -0.54508809953E+01  0.83848462235E+01 -0.18967139717E+02  0.21442251261E+02  0.51100000000E-03 0. -1.
<mgrwt>
<rscale>  0 0.20001845E+02</rscale>
<asrwt>0</asrwt>
<pdfrwt beam="2">  1        1 0.62004404E-02 0.20001845E+02</pdfrwt>
<pdfrwt beam="1">  1       -1 0.38179555E-03 0.20001845E+02</pdfrwt>
<totfact> 0.41120846E+06</totfact>
</mgrwt>
</event>
<event>
 5    1  0.9583198E-007  0.2000054E+02  0.7818608E-02  0.1745317E+00
         -1   -1    0    0    0  501 -0.00000000000E+00  0.00000000000E+00  0.41960913145E+01  0.41960939132E+01  0.46700000000E-02 0. -1.
          1   -1    0    0  501    0  0.00000000000E+00 -0.00000000000E+00 -0.23832978464E+02  0.23832978921E+02  0.46700000000E-02 0.  1.
       1023    2    1    2    0    0  0.00000000000E+00  0.00000000000E+00 -0.19636887149E+02  0.28029072834E+02  0.20000539669E+02 0.  0.
        -11    1    3    3    0    0  0.77914400957E+01 -0.62685231062E+01 -0.99122003133E+01  0.14080221447E+02  0.51100000000E-03 0.  1.
         11    1    3    3    0    0 -0.77914400957E+01  0.62685231062E+01 -0.97246868358E+01  0.13948851387E+02  0.51100000000E-03 0. -1.
<mgrwt>
<rscale>  0 0.20000540E+02</rscale>
<asrwt>0</asrwt>
<pdfrwt beam="2">  1        1 0.36666122E-02 0.20000540E+02</pdfrwt>
<pdfrwt beam="1">  1       -1 0.64555276E-03 0.20000540E+02</pdfrwt>
<totfact> 0.40009000E+06</totfact>
</mgrwt>
</event>
<event>
 5    1  0.9583198E-007  0.2000396E+02  0.7818608E-02  0.1745249E+00
         -1   -1    0    0    0  501 -0.00000000000E+00  0.00000000000E+00  0.63516726528E+02  0.63516726699E+02  0.46700000000E-02 0.  1.
          1   -1    0    0  501    0  0.00000000000E+00 -0.00000000000E+00 -0.15750083673E+01  0.15750152907E+01  0.46700000000E-02 0. -1.
       1023    2    1    2    0    0  0.00000000000E+00  0.00000000000E+00  0.61941718160E+02  0.65091741990E+02  0.20003960274E+02 0.  0.
        -11    1    3    3    0    0  0.83332276022E+01  0.55312290159E+01  0.30810465597E+02  0.32393239531E+02  0.51100000000E-03 0. -1.
         11    1    3    3    0    0 -0.83332276022E+01 -0.55312290159E+01  0.31131252563E+02  0.32698502459E+02  0.51100000000E-03 0.  1.
<mgrwt>
<rscale>  0 0.20003960E+02</rscale>
<asrwt>0</asrwt>
<pdfrwt beam="2">  1        1 0.24230955E-03 0.20003960E+02</pdfrwt>
<pdfrwt beam="1">  1       -1 0.97718036E-02 0.20003960E+02</pdfrwt>
<totfact> 0.33997817E+06</totfact>
</mgrwt>
</event>
<event>
 5    1  0.9837698E-007  0.2000058E+02  0.7818608E-02  0.1745317E+00
          1   -1    0    0  501    0  0.00000000000E+00  0.00000000000E+00  0.77098000633E+02  0.77098000775E+02  0.46700000000E-02 0.  1.
         -1   -1    0    0    0  501 -0.00000000000E+00 -0.00000000000E+00 -0.12971215698E+01  0.12971299765E+01  0.46700000000E-02 0. -1.
       1023    2    1    2    0    0  0.00000000000E+00  0.00000000000E+00  0.75800879064E+02  0.78395130751E+02  0.20000581459E+02 0.  0.
        -11    1    3    3    0    0 -0.93121267803E+01  0.36453980712E+01  0.38035206068E+02  0.39327872217E+02  0.51100000000E-03 0. -1.
         11    1    3    3    0    0  0.93121267803E+01 -0.36453980712E+01  0.37765672996E+02  0.39067258534E+02  0.51100000000E-03 0.  1.
<mgrwt>
<rscale>  0 0.20000581E+02</rscale>
<asrwt>0</asrwt>
<pdfrwt beam="1">  1        1 0.11861238E-01 0.20000581E+02</pdfrwt>
<pdfrwt beam="2">  1       -1 0.19955772E-03 0.20000581E+02</pdfrwt>
<totfact> 0.43206119E+06</totfact>
</mgrwt>
</event>
<event>
 5    1  0.9583198E-007  0.2000685E+02  0.7818608E-02  0.1745192E+00
          1   -1    0    0  501    0  0.00000000000E+00  0.00000000000E+00  0.20541593637E+01  0.20541646722E+01  0.46700000000E-02 0. -1.
         -1   -1    0    0    0  501 -0.00000000000E+00 -0.00000000000E+00 -0.48715006434E+02  0.48715006657E+02  0.46700000000E-02 0.  1.
       1023    2    1    2    0    0  0.00000000000E+00  0.00000000000E+00 -0.46660847070E+02  0.50769171330E+02  0.20006851532E+02 0.  0.
        -11    1    3    3    0    0 -0.99835091535E+01  0.61160460293E+00 -0.23723640043E+02  0.25745982450E+02  0.51100000000E-03 0.  1.
         11    1    3    3    0    0  0.99835091535E+01 -0.61160460293E+00 -0.22937207027E+02  0.25023188879E+02  0.51100000000E-03 0. -1.
<mgrwt>
<rscale>  0 0.20006852E+02</rscale>
<asrwt>0</asrwt>
<pdfrwt beam="1">  1        1 0.31602498E-03 0.20006852E+02</pdfrwt>
<pdfrwt beam="2">  1       -1 0.74946159E-02 0.20006852E+02</pdfrwt>
<totfact> 0.34995147E+06</totfact>
</mgrwt>
</event>
<event>
 5    1  0.9785228E-007  0.2000182E+02  0.7818608E-02  0.1745292E+00
         -1   -1    0    0    0  501 -0.00000000000E+00  0.00000000000E+00  0.21792992260E+01  0.21793042297E+01  0.46700000000E-02 0. -1.
          1   -1    0    0  501    0  0.00000000000E+00 -0.00000000000E+00 -0.45894612600E+02  0.45894612837E+02  0.46700000000E-02 0.  1.
       1023    2    1    2    0    0  0.00000000000E+00  0.00000000000E+00 -0.43715313374E+02  0.48073917067E+02  0.20001821887E+02 0.  0.
        -11    1    3    3    0    0  0.66944039393E+01 -0.74298818647E+01 -0.21870998575E+02  0.24049090784E+02  0.51100000000E-03 0. -1.
         11    1    3    3    0    0 -0.66944039393E+01  0.74298818647E+01 -0.21844314799E+02  0.24024826283E+02  0.51100000000E-03 0.  1.
<mgrwt>
<rscale>  0 0.20001822E+02</rscale>
<asrwt>0</asrwt>
<pdfrwt beam="2">  1        1 0.70607093E-02 0.20001822E+02</pdfrwt>
<pdfrwt beam="1">  1       -1 0.33527724E-03 0.20001822E+02</pdfrwt>
<totfact> 0.41462901E+06</totfact>
</mgrwt>
</event>
<event>
 5    1  0.9583198E-007  0.2000209E+02  0.7818608E-02  0.1745286E+00
         -1   -1    0    0    0  501 -0.00000000000E+00  0.00000000000E+00  0.14111710494E+02  0.14111711267E+02  0.46700000000E-02 0.  1.
          1   -1    0    0  501    0  0.00000000000E+00 -0.00000000000E+00 -0.70877952119E+01  0.70877967504E+01  0.46700000000E-02 0. -1.
       1023    2    1    2    0    0  0.00000000000E+00  0.00000000000E+00  0.70239152821E+01  0.21199508017E+02  0.20002093747E+02 0.  0.
        -11    1    3    3    0    0 -0.51054981063E+01 -0.85992756695E+01  0.34214936717E+01  0.10569781084E+02  0.51100000000E-03 0.  1.
         11    1    3    3    0    0  0.51054981063E+01  0.85992756695E+01  0.36024216104E+01  0.10629726933E+02  0.51100000000E-03 0. -1.
<mgrwt>
<rscale>  0 0.20002094E+02</rscale>
<asrwt>0</asrwt>
<pdfrwt beam="2">  1        1 0.10904302E-02 0.20002094E+02</pdfrwt>
<pdfrwt beam="1">  1       -1 0.21710325E-02 0.20002094E+02</pdfrwt>
<totfact> 0.38057198E+06</totfact>
</mgrwt>
</event>
<event>
 5    1  0.9583198E-007  0.2000273E+02  0.7818608E-02  0.1745274E+00
          1   -1    0    0  501    0  0.00000000000E+00  0.00000000000E+00  0.35916450916E+02  0.35916451220E+02  0.46700000000E-02 0. -1.
         -1   -1    0    0    0  501 -0.00000000000E+00 -0.00000000000E+00 -0.27849970212E+01  0.27850009367E+01  0.46700000000E-02 0.  1.
       1023    2    1    2    0    0  0.00000000000E+00  0.00000000000E+00  0.33131453895E+02  0.38701452156E+02  0.20002728859E+02 0.  0.
        -11    1    3    3    0    0 -0.87320027262E+01  0.48758727829E+01  0.16706359580E+02  0.19471118552E+02  0.51100000000E-03 0.  1.
         11    1    3    3    0    0  0.87320027262E+01 -0.48758727829E+01  0.16425094315E+02  0.19230333604E+02  0.51100000000E-03 0. -1.
<mgrwt>
<rscale>  0 0.20002729E+02</rscale>
<asrwt>0</asrwt>
<pdfrwt beam="1">  1        1 0.55256080E-02 0.20002729E+02</pdfrwt>
<pdfrwt beam="2">  1       -1 0.42846142E-03 0.20002729E+02</pdfrwt>
<totfact> 0.40838421E+06</totfact>
</mgrwt>
</event>
<event>
 5    1  0.9583198E-007  0.2000057E+02  0.7818608E-02  0.1745317E+00
         -1   -1    0    0    0  501 -0.00000000000E+00  0.00000000000E+00  0.83677229061E+00  0.83678532207E+00  0.46700000000E-02 0.  1.
          1   -1    0    0  501    0  0.00000000000E+00 -0.00000000000E+00 -0.11951271448E+03  0.11951271457E+03  0.46700000000E-02 0. -1.
       1023    2    1    2    0    0  0.00000000000E+00  0.00000000000E+00 -0.11867594219E+03  0.12034949989E+03  0.20000571743E+02 0.  0.
        -11    1    3    3    0    0 -0.21663043646E+01  0.97627380223E+01 -0.59083463066E+02  0.59923781059E+02  0.51100000000E-03 0.  1.
         11    1    3    3    0    0  0.21663043646E+01 -0.97627380223E+01 -0.59592479123E+02  0.60425718834E+02  0.51100000000E-03 0. -1.
<mgrwt>
<rscale>  0 0.20000572E+02</rscale>
<asrwt>0</asrwt>
<pdfrwt beam="2">  1        1 0.18386559E-01 0.20000572E+02</pdfrwt>
<pdfrwt beam="1">  1       -1 0.12873530E-03 0.20000572E+02</pdfrwt>
<totfact> 0.45275215E+06</totfact>
</mgrwt>
</event>
<event>
 5    1  0.9583198E-007  0.2000262E+02  0.7818608E-02  0.1745276E+00
         -1   -1    0    0    0  501 -0.00000000000E+00  0.00000000000E+00  0.15305731280E+02  0.15305731993E+02  0.46700000000E-02 0. -1.
          1   -1    0    0  501    0  0.00000000000E+00 -0.00000000000E+00 -0.65352125232E+01  0.65352141918E+01  0.46700000000E-02 0.  1.
       1023    2    1    2    0    0  0.00000000000E+00  0.00000000000E+00  0.87705187569E+01  0.21840946184E+02  0.20002623102E+02 0.  0.
        -11    1    3    3    0    0 -0.47208515681E+01 -0.88157692881E+01  0.42232861268E+01  0.10855430606E+02  0.51100000000E-03 0. -1.
         11    1    3    3    0    0  0.47208515681E+01  0.88157692881E+01  0.45472326301E+01  0.10985515578E+02  0.51100000000E-03 0.  1.
<mgrwt>
<rscale>  0 0.20002623E+02</rscale>
<asrwt>0</asrwt>
<pdfrwt beam="2">  1        1 0.10054175E-02 0.20002623E+02</pdfrwt>
<pdfrwt beam="1">  1       -1 0.23547281E-02 0.20002623E+02</pdfrwt>
<totfact> 0.37913274E+06</totfact>
</mgrwt>
</event>
<event>
 5    1  0.9860883E-007  0.2000107E+02  0.7818608E-02  0.1745307E+00
         -1   -1    0    0    0  501 -0.00000000000E+00  0.00000000000E+00  0.52308131413E+01  0.52308152260E+01  0.46700000000E-02 0.  1.
          1   -1    0    0  501    0  0.00000000000E+00 -0.00000000000E+00 -0.19119533160E+02  0.19119533731E+02  0.46700000000E-02 0. -1.
       1023    2    1    2    0    0  0.00000000000E+00  0.00000000000E+00 -0.13888720019E+02  0.24350348957E+02  0.20001073735E+02 0.  0.
        -11    1    3    3    0    0 -0.98546533976E+01  0.17016139463E+01 -0.69048394004E+01  0.12152633090E+02  0.51100000000E-03 0.  1.
         11    1    3    3    0    0  0.98546533976E+01 -0.17016139463E+01 -0.69838806185E+01  0.12197715867E+02  0.51100000000E-03 0. -1.
<mgrwt>
<rscale>  0 0.20001074E+02</rscale>
<asrwt>0</asrwt>
<pdfrwt beam="2">  1        1 0.29414668E-02 0.20001074E+02</pdfrwt>
<pdfrwt beam="1">  1       -1 0.80474070E-03 0.20001074E+02</pdfrwt>
<totfact> 0.39626287E+06</totfact>
</mgrwt>
</event>
<event>
 5    1  0.9906753E-007  0.2000074E+02  0.7818608E-02  0.1745313E+00
         -1   -1    0    0    0  501 -0.00000000000E+00  0.00000000000E+00  0.13099201721E+01  0.13099284966E+01  0.46700000000E-02 0.  1.
          1   -1    0    0  501    0  0.00000000000E+00 -0.00000000000E+00 -0.76345935552E+02  0.76345935695E+02  0.46700000000E-02 0. -1.
       1023    2    1    2    0    0  0.00000000000E+00  0.00000000000E+00 -0.75036015380E+02  0.77655864191E+02  0.20000740967E+02 0.  0.
        -11    1    3    3    0    0  0.87314517298E+01 -0.48753587404E+01 -0.37494266837E+02  0.38804992180E+02  0.51100000000E-03 0. -1.
         11    1    3    3    0    0 -0.87314517298E+01  0.48753587404E+01 -0.37541748542E+02  0.38850872011E+02  0.51100000000E-03 0.  1.
<mgrwt>
<rscale>  0 0.20000741E+02</rscale>
<asrwt>0</asrwt>
<pdfrwt beam="2">  1        1 0.11745526E-01 0.20000741E+02</pdfrwt>
<pdfrwt beam="1">  1       -1 0.20152689E-03 0.20000741E+02</pdfrwt>
<totfact> 0.43166097E+06</totfact>
</mgrwt>
</event>
<event>
 5    1  0.9583198E-007  0.2000073E+02  0.7818608E-02  0.1745314E+00
         -1   -1    0    0    0  501 -0.00000000000E+00  0.00000000000E+00  0.90605096176E+01  0.90605108211E+01  0.46700000000E-02 0. -1.
          1   -1    0    0  501    0  0.00000000000E+00 -0.00000000000E+00 -0.11037712942E+02  0.11037713930E+02  0.46700000000E-02 0.  1.
       1023    2    1    2    0    0  0.00000000000E+00  0.00000000000E+00 -0.19772033249E+01  0.20098224752E+02  0.20000732616E+02 0.  0.
        -11    1    3    3    0    0  0.96479374243E+01 -0.26308733884E+01 -0.93234032764E+00  0.10043577554E+02  0.51100000000E-03 0.  1.
         11    1    3    3    0    0 -0.96479374243E+01  0.26308733884E+01 -0.10448629973E+01  0.10054647198E+02  0.51100000000E-03 0. -1.
<mgrwt>
<rscale>  0 0.20000733E+02</rscale>
<asrwt>0</asrwt>
<pdfrwt beam="2">  1        1 0.16981099E-02 0.20000733E+02</pdfrwt>
<pdfrwt beam="1">  1       -1 0.13939247E-02 0.20000733E+02</pdfrwt>
<totfact> 0.38772728E+06</totfact>
</mgrwt>
</event>
<event>
 5    1  0.9938977E-007  0.2000110E+02  0.7818608E-02  0.1745306E+00
          1   -1    0    0  501    0  0.00000000000E+00  0.00000000000E+00  0.58716871942E+02  0.58716872128E+02  0.46700000000E-02 0. -1.
         -1   -1    0    0    0  501 -0.00000000000E+00 -0.00000000000E+00 -0.17032720137E+01  0.17032784157E+01  0.46700000000E-02 0.  1.
       1023    2    1    2    0    0  0.00000000000E+00  0.00000000000E+00  0.57013599929E+02  0.60420150544E+02  0.20001100342E+02 0.  0.
        -11    1    3    3    0    0 -0.65169688292E+01 -0.75854953016E+01  0.28565824315E+02  0.30265771768E+02  0.51100000000E-03 0.  1.
         11    1    3    3    0    0  0.65169688292E+01  0.75854953016E+01  0.28447775614E+02  0.30154378775E+02  0.51100000000E-03 0. -1.
<mgrwt>
<rscale>  0 0.20001100E+02</rscale>
<asrwt>0</asrwt>
<pdfrwt beam="1">  1        1 0.90333634E-02 0.20001100E+02</pdfrwt>
<pdfrwt beam="2">  1       -1 0.26204241E-03 0.20001100E+02</pdfrwt>
<totfact> 0.42209536E+06</totfact>
</mgrwt>
</event>
<event>
 5    1  0.9583198E-007  0.2000063E+02  0.7818608E-02  0.1745316E+00
          1   -1    0    0  501    0  0.00000000000E+00  0.00000000000E+00  0.12230885089E+02  0.12230885980E+02  0.46700000000E-02 0.  1.
         -1   -1    0    0    0  501 -0.00000000000E+00 -0.00000000000E+00 -0.81765325154E+01  0.81765338491E+01  0.46700000000E-02 0. -1.
       1023    2    1    2    0    0  0.00000000000E+00  0.00000000000E+00  0.40543525733E+01  0.20407419829E+02  0.20000625223E+02 0.  0.
        -11    1    3    3    0    0  0.83359234139E+01  0.55243583182E+01  0.20170716253E+01  0.10201702416E+02  0.51100000000E-03 0. -1.
         11    1    3    3    0    0 -0.83359234139E+01 -0.55243583182E+01  0.20372809480E+01  0.10205717413E+02  0.51100000000E-03 0.  1.
<mgrwt>
<rscale>  0 0.20000625E+02</rscale>
<asrwt>0</asrwt>
<pdfrwt beam="1">  1        1 0.18816748E-02 0.20000625E+02</pdfrwt>
<pdfrwt beam="2">  1       -1 0.12579283E-02 0.20000625E+02</pdfrwt>
<totfact> 0.38929715E+06</totfact>
</mgrwt>
</event>
<event>
 5    1  0.9583198E-007  0.2000827E+02  0.7818608E-02  0.1745164E+00
         -1   -1    0    0    0  501 -0.00000000000E+00  0.00000000000E+00  0.30103806257E+01  0.30103842480E+01  0.46700000000E-02 0.  1.
          1   -1    0    0  501    0  0.00000000000E+00 -0.00000000000E+00 -0.33245852968E+02  0.33245853296E+02  0.46700000000E-02 0. -1.
       1023    2    1    2    0    0  0.00000000000E+00  0.00000000000E+00 -0.30235472342E+02  0.36256237544E+02  0.20008272616E+02 0.  0.
        -11    1    3    3    0    0  0.96351326524E+01 -0.26899607769E+01 -0.15308414730E+02  0.18287132963E+02  0.51100000000E-03 0. -1.
         11    1    3    3    0    0 -0.96351326524E+01  0.26899607769E+01 -0.14927057612E+02  0.17969104581E+02  0.51100000000E-03 0.  1.
<mgrwt>
<rscale>  0 0.20008273E+02</rscale>
<asrwt>0</asrwt>
<pdfrwt beam="2">  1        1 0.51147467E-02 0.20008273E+02</pdfrwt>
<pdfrwt beam="1">  1       -1 0.46313581E-03 0.20008273E+02</pdfrwt>
<totfact> 0.40638427E+06</totfact>
</mgrwt>
</event>
<event>
 5    1  0.9973448E-007  0.2000076E+02  0.7818608E-02  0.1745313E+00
         -1   -1    0    0    0  501 -0.00000000000E+00  0.00000000000E+00  0.13947078516E+01  0.13947156701E+01  0.46700000000E-02 0.  1.
          1   -1    0    0  501    0  0.00000000000E+00 -0.00000000000E+00 -0.71704864260E+02  0.71704864412E+02  0.46700000000E-02 0. -1.
       1023    2    1    2    0    0  0.00000000000E+00  0.00000000000E+00 -0.70310156409E+02  0.73099580082E+02  0.20000762836E+02 0.  0.
        -11    1    3    3    0    0  0.99729239783E+01  0.74000420502E+00 -0.35051101834E+02  0.36449781329E+02  0.51100000000E-03 0. -1.
         11    1    3    3    0    0 -0.99729239783E+01 -0.74000420502E+00 -0.35259054575E+02  0.36649798753E+02  0.51100000000E-03 0.  1.
<mgrwt>
<rscale>  0 0.20000763E+02</rscale>
<asrwt>0</asrwt>
<pdfrwt beam="2">  1        1 0.11031515E-01 0.20000763E+02</pdfrwt>
<pdfrwt beam="1">  1       -1 0.21457111E-03 0.20000763E+02</pdfrwt>
<totfact> 0.42921338E+06</totfact>
</mgrwt>
</event>
<event>
 5    1  0.9583198E-007  0.2000157E+02  0.7818608E-02  0.1745297E+00
          1   -1    0    0  501    0  0.00000000000E+00  0.00000000000E+00  0.30183366507E+01  0.30183402635E+01  0.46700000000E-02 0. -1.
         -1   -1    0    0    0  501 -0.00000000000E+00 -0.00000000000E+00 -0.33136018898E+02  0.33136019227E+02  0.46700000000E-02 0.  1.
       1023    2    1    2    0    0  0.00000000000E+00  0.00000000000E+00 -0.30117682247E+02  0.36154359491E+02  0.20001573094E+02 0.  0.
        -11    1    3    3    0    0 -0.63084926893E+01  0.77597030189E+01 -0.15194834540E+02  0.18190466402E+02  0.51100000000E-03 0.  1.
         11    1    3    3    0    0  0.63084926893E+01 -0.77597030189E+01 -0.14922847707E+02  0.17963893089E+02  0.51100000000E-03 0. -1.
<mgrwt>
<rscale>  0 0.20001573E+02</rscale>
<asrwt>0</asrwt>
<pdfrwt beam="1">  1        1 0.46435981E-03 0.20001573E+02</pdfrwt>
<pdfrwt beam="2">  1       -1 0.50978491E-02 0.20001573E+02</pdfrwt>
<totfact> 0.36214689E+06</totfact>
</mgrwt>
</event>
<event>
 5    1  0.9583198E-007  0.2000008E+02  0.7818608E-02  0.1745326E+00
          1   -1    0    0  501    0  0.00000000000E+00  0.00000000000E+00  0.20701279386E+02  0.20701279913E+02  0.46700000000E-02 0.  1.
         -1   -1    0    0    0  501 -0.00000000000E+00 -0.00000000000E+00 -0.48306567974E+01  0.48306590548E+01  0.46700000000E-02 0. -1.
       1023    2    1    2    0    0  0.00000000000E+00  0.00000000000E+00  0.15870622589E+02  0.25531938968E+02  0.20000081152E+02 0.  0.
        -11    1    3    3    0    0  0.98162876216E+01 -0.19080512090E+01  0.79678375552E+01  0.12786187769E+02  0.51100000000E-03 0.  1.
         11    1    3    3    0    0 -0.98162876216E+01  0.19080512090E+01  0.79027850337E+01  0.12745751199E+02  0.51100000000E-03 0. -1.
<mgrwt>
<rscale>  0 0.20000081E+02</rscale>
<asrwt>0</asrwt>
<pdfrwt beam="1">  1        1 0.31848124E-02 0.20000081E+02</pdfrwt>
<pdfrwt beam="2">  1       -1 0.74317818E-03 0.20000081E+02</pdfrwt>
<totfact> 0.39763730E+06</totfact>
</mgrwt>
</event>
<event>
 5    1  0.9583198E-007  0.2000692E+02  0.7818608E-02  0.1745191E+00
         -1   -1    0    0    0  501 -0.00000000000E+00  0.00000000000E+00  0.15803600388E+02  0.15803601078E+02  0.46700000000E-02 0.  1.
          1   -1    0    0  501    0  0.00000000000E+00 -0.00000000000E+00 -0.63320474764E+01  0.63320491985E+01  0.46700000000E-02 0. -1.
       1023    2    1    2    0    0  0.00000000000E+00  0.00000000000E+00  0.94715529113E+01  0.22135650276E+02  0.20006916269E+02 0.  0.
        -11    1    3    3    0    0 -0.28036317204E+01  0.96016442838E+01  0.48810927725E+01  0.11130004074E+02  0.51100000000E-03 0. -1.
         11    1    3    3    0    0  0.28036317204E+01 -0.96016442838E+01  0.45904601388E+01  0.11005646202E+02  0.51100000000E-03 0.  1.
<mgrwt>
<rscale>  0 0.20006916E+02</rscale>
<asrwt>0</asrwt>
<pdfrwt beam="2">  1        1 0.97416134E-03 0.20006916E+02</pdfrwt>
<pdfrwt beam="1">  1       -1 0.24313233E-02 0.20006916E+02</pdfrwt>
<totfact> 0.37838224E+06</totfact>
</mgrwt>
</event>
<event>
 5    1  0.9639617E-007  0.2000055E+02  0.7818608E-02  0.1745317E+00
         -1   -1    0    0    0  501 -0.00000000000E+00  0.00000000000E+00  0.54069841157E+01  0.54069861324E+01  0.46700000000E-02 0. -1.
          1   -1    0    0  501    0  0.00000000000E+00 -0.00000000000E+00 -0.18495615452E+02  0.18495616042E+02  0.46700000000E-02 0.  1.
       1023    2    1    2    0    0  0.00000000000E+00  0.00000000000E+00 -0.13088631336E+02  0.23902602174E+02  0.20000553003E+02 0.  0.
        -11    1    3    3    0    0 -0.26774631220E+01  0.96350361260E+01 -0.64810778847E+01  0.11916673224E+02  0.51100000000E-03 0. -1.
         11    1    3    3    0    0  0.26774631220E+01 -0.96350361260E+01 -0.66075534517E+01  0.11985928950E+02  0.51100000000E-03 0.  1.
<mgrwt>
<rscale>  0 0.20000553E+02</rscale>
<asrwt>0</asrwt>
<pdfrwt beam="2">  1        1 0.28454795E-02 0.20000553E+02</pdfrwt>
<pdfrwt beam="1">  1       -1 0.83184392E-03 0.20000553E+02</pdfrwt>
<totfact> 0.39574161E+06</totfact>
</mgrwt>
</event>
<event>
 4    1  0.9583198E-007  0.2001434E+02  0.7818608E-02  0.1745043E+00
         -1   -1    0    0    0  501 -0.00000000000E+00  0.00000000000E+00  0.10197866886E+02  0.10197867955E+02  0.46700000000E-02 0. -1.
          1   -1    0    0  501    0  0.00000000000E+00 -0.00000000000E+00 -0.98200377744E+01  0.98200388849E+01  0.46700000000E-02 0.  1.
        -11    1    1    2    0    0  0.85331196809E+01 -0.52231934733E+01 -0.29248236126E-01  0.10004835694E+02  0.51100000000E-03 0.  1.
         11    1    1    2    0    0 -0.85331196809E+01  0.52231934733E+01  0.40707734783E+00  0.10013071146E+02  0.51100000000E-03 0. -1.
<mgrwt>
<rscale>  0 0.20014341E+02</rscale>
<asrwt>0</asrwt>
<pdfrwt beam="2">  1        1 0.15107752E-02 0.20014341E+02</pdfrwt>
<pdfrwt beam="1">  1       -1 0.15689028E-02 0.20014341E+02</pdfrwt>
<totfact> 0.38533121E+06</totfact>
</mgrwt>
</event>
<event>
 5    1  0.9583198E-007  0.2000044E+02  0.7818608E-02  0.1745319E+00
         -1   -1    0    0    0  501 -0.00000000000E+00  0.00000000000E+00  0.18921607974E+02  0.18921608550E+02  0.46700000000E-02 0.  1.
          1   -1    0    0  501    0  0.00000000000E+00 -0.00000000000E+00 -0.52851954568E+01  0.52851975200E+01  0.46700000000E-02 0. -1.
       1023    2    1    2    0    0  0.00000000000E+00  0.00000000000E+00  0.13636412517E+02  0.24206806070E+02  0.20000442840E+02 0.  0.
        -11    1    3    3    0    0  0.99698197258E+01 -0.77669868706E+00  0.68934208769E+01  0.12145773663E+02  0.51100000000E-03 0.  1.
         11    1    3    3    0    0 -0.99698197258E+01  0.77669868706E+00  0.67429916401E+01  0.12061032408E+02  0.51100000000E-03 0. -1.
<mgrwt>
<rscale>  0 0.20000443E+02</rscale>
<asrwt>0</asrwt>
<pdfrwt beam="2">  1        1 0.81310719E-03 0.20000443E+02</pdfrwt>
<pdfrwt beam="1">  1       -1 0.29110168E-02 0.20000443E+02</pdfrwt>
<totfact> 0.37526110E+06</totfact>
</mgrwt>
</event>
<event>
 5    1  0.9583198E-007  0.2000088E+02  0.7818608E-02  0.1745311E+00
          1   -1    0    0  501    0  0.00000000000E+00  0.00000000000E+00  0.48880711465E+02  0.48880711688E+02  0.46700000000E-02 0.  1.
         -1   -1    0    0    0  501 -0.00000000000E+00 -0.00000000000E+00 -0.20459732268E+01  0.20459785565E+01  0.46700000000E-02 0. -1.
       1023    2    1    2    0    0  0.00000000000E+00  0.00000000000E+00  0.46834738238E+02  0.50926690245E+02  0.20000876816E+02 0.  0.
        -11    1    3    3    0    0  0.91145598378E+01 -0.41147747942E+01  0.23536674006E+02  0.25573063879E+02  0.51100000000E-03 0.  1.
         11    1    3    3    0    0 -0.91145598378E+01  0.41147747942E+01  0.23298064232E+02  0.25353626365E+02  0.51100000000E-03 0. -1.
<mgrwt>
<rscale>  0 0.20000877E+02</rscale>
<asrwt>0</asrwt>
<pdfrwt beam="1">  1        1 0.75201101E-02 0.20000877E+02</pdfrwt>
<pdfrwt beam="2">  1       -1 0.31476553E-03 0.20000877E+02</pdfrwt>
<totfact> 0.41644948E+06</totfact>
</mgrwt>
</event>
<event>
 5    1  0.9626198E-007  0.2000079E+02  0.7818608E-02  0.1745312E+00
          1   -1    0    0  501    0  0.00000000000E+00  0.00000000000E+00  0.36752106462E+01  0.36752136132E+01  0.46700000000E-02 0.  1.
         -1   -1    0    0    0  501 -0.00000000000E+00 -0.00000000000E+00 -0.27211457775E+02  0.27211458176E+02  0.46700000000E-02 0. -1.
       1023    2    1    2    0    0  0.00000000000E+00  0.00000000000E+00 -0.23536247129E+02  0.30886671789E+02  0.20000789117E+02 0.  0.
        -11    1    3    3    0    0 -0.86174780049E+01 -0.50738569773E+01 -0.11684400733E+02  0.15379537462E+02  0.51100000000E-03 0. -1.
         11    1    3    3    0    0  0.86174780049E+01  0.50738569773E+01 -0.11851846396E+02  0.15507134327E+02  0.51100000000E-03 0.  1.
<mgrwt>
<rscale>  0 0.20000789E+02</rscale>
<asrwt>0</asrwt>
<pdfrwt beam="1">  1        1 0.56541730E-03 0.20000789E+02</pdfrwt>
<pdfrwt beam="2">  1       -1 0.41863783E-02 0.20000789E+02</pdfrwt>
<totfact> 0.36728499E+06</totfact>
</mgrwt>
</event>
<event>
 5    1  0.9583198E-007  0.2000012E+02  0.7818608E-02  0.1745326E+00
          1   -1    0    0  501    0  0.00000000000E+00  0.00000000000E+00  0.11858527494E+03  0.11858527503E+03  0.46700000000E-02 0.  1.
         -1   -1    0    0    0  501 -0.00000000000E+00 -0.00000000000E+00 -0.84327842427E+00  0.84329135519E+00  0.46700000000E-02 0. -1.
       1023    2    1    2    0    0  0.00000000000E+00  0.00000000000E+00  0.11774199652E+03  0.11942856639E+03  0.20000118144E+02 0.  0.
        -11    1    3    3    0    0 -0.52772471721E+01 -0.84942064129E+01  0.58974578346E+02  0.59816400524E+02  0.51100000000E-03 0. -1.
         11    1    3    3    0    0  0.52772471721E+01  0.84942064129E+01  0.58767418172E+02  0.59612165866E+02  0.51100000000E-03 0.  1.
<mgrwt>
<rscale>  0 0.20000118E+02</rscale>
<asrwt>0</asrwt>
<pdfrwt beam="1">  1        1 0.18243895E-01 0.20000118E+02</pdfrwt>
<pdfrwt beam="2">  1       -1 0.12973610E-03 0.20000118E+02</pdfrwt>
<totfact> 0.45235066E+06</totfact>
</mgrwt>
</event>
<event>
 5    1  0.9583198E-007  0.2000049E+02  0.7818608E-02  0.1745318E+00
         -1   -1    0    0    0  501 -0.00000000000E+00  0.00000000000E+00  0.88681374293E+02  0.88681374416E+02  0.46700000000E-02 0.  1.
          1   -1    0    0  501    0  0.00000000000E+00 -0.00000000000E+00 -0.11276832648E+01  0.11276929345E+01  0.46700000000E-02 0. -1.
       1023    2    1    2    0    0  0.00000000000E+00  0.00000000000E+00  0.87553691029E+02  0.89809067351E+02  0.20000494137E+02 0.  0.
        -11    1    3    3    0    0  0.71752494161E+01  0.69653627803E+01  0.43477022333E+02  0.44612239958E+02  0.51100000000E-03 0.  1.
         11    1    3    3    0    0 -0.71752494161E+01 -0.69653627803E+01  0.44076668695E+02  0.45196827393E+02  0.51100000000E-03 0. -1.
<mgrwt>
<rscale>  0 0.20000494E+02</rscale>
<asrwt>0</asrwt>
<pdfrwt beam="2">  1        1 0.17349048E-03 0.20000494E+02</pdfrwt>
<pdfrwt beam="1">  1       -1 0.13643290E-01 0.20000494E+02</pdfrwt>
<totfact> 0.32489790E+06</totfact>
</mgrwt>
</event>
<event>
 5    1  0.9583198E-007  0.2000036E+02  0.7818608E-02  0.1745321E+00
         -1   -1    0    0    0  501 -0.00000000000E+00  0.00000000000E+00  0.54225278021E+02  0.54225278222E+02  0.46700000000E-02 0.  1.
          1   -1    0    0  501    0  0.00000000000E+00 -0.00000000000E+00 -0.18442210645E+01  0.18442269773E+01  0.46700000000E-02 0. -1.
       1023    2    1    2    0    0  0.00000000000E+00  0.00000000000E+00  0.52381056956E+02  0.56069505199E+02  0.20000357132E+02 0.  0.
        -11    1    3    3    0    0  0.47458313790E+01 -0.88021468609E+01  0.26040440352E+02  0.27894537796E+02  0.51100000000E-03 0.  1.
         11    1    3    3    0    0 -0.47458313790E+01  0.88021468609E+01  0.26340616604E+02  0.28174967403E+02  0.51100000000E-03 0. -1.
<mgrwt>
<rscale>  0 0.20000357E+02</rscale>
<asrwt>0</asrwt>
<pdfrwt beam="2">  1        1 0.28372679E-03 0.20000357E+02</pdfrwt>
<pdfrwt beam="1">  1       -1 0.83423508E-02 0.20000357E+02</pdfrwt>
<totfact> 0.34632274E+06</totfact>
</mgrwt>
</event>
<event>
 5    1  0.9583198E-007  0.2000005E+02  0.7818608E-02  0.1745327E+00
         -1   -1    0    0    0  501 -0.00000000000E+00  0.00000000000E+00  0.18944793857E+01  0.18944851416E+01  0.46700000000E-02 0. -1.
          1   -1    0    0  501    0  0.00000000000E+00 -0.00000000000E+00 -0.52785148488E+02  0.52785148694E+02  0.46700000000E-02 0.  1.
       1023    2    1    2    0    0  0.00000000000E+00  0.00000000000E+00 -0.50890669102E+02  0.54679633836E+02  0.20000053869E+02 0.  0.
        -11    1    3    3    0    0  0.64593652666E+01  0.76339323335E+01 -0.25405161495E+02  0.27302427609E+02  0.51100000000E-03 0. -1.
         11    1    3    3    0    0 -0.64593652666E+01 -0.76339323335E+01 -0.25485507607E+02  0.27377206227E+02  0.51100000000E-03 0.  1.
<mgrwt>
<rscale>  0 0.20000054E+02</rscale>
<asrwt>0</asrwt>
<pdfrwt beam="2">  1        1 0.81207914E-02 0.20000054E+02</pdfrwt>
<pdfrwt beam="1">  1       -1 0.29145887E-03 0.20000054E+02</pdfrwt>
<totfact> 0.41876650E+06</totfact>
</mgrwt>
</event>
<event>
 5    1  0.9583198E-007  0.2000012E+02  0.7818608E-02  0.1745326E+00
          1   -1    0    0  501    0  0.00000000000E+00  0.00000000000E+00  0.10200042546E+03  0.10200042557E+03  0.46700000000E-02 0.  1.
         -1   -1    0    0    0  501 -0.00000000000E+00 -0.00000000000E+00 -0.98039456428E+00  0.98040568673E+00  0.46700000000E-02 0. -1.
       1023    2    1    2    0    0  0.00000000000E+00  0.00000000000E+00  0.10102003090E+03  0.10298083125E+03  0.20000124088E+02 0.  0.
        -11    1    3    3    0    0 -0.73110281538E+01 -0.68227440906E+01  0.50425247826E+02  0.51407262017E+02  0.51100000000E-03 0. -1.
         11    1    3    3    0    0  0.73110281538E+01  0.68227440906E+01  0.50594783071E+02  0.51573569237E+02  0.51100000000E-03 0.  1.
<mgrwt>
<rscale>  0 0.20000124E+02</rscale>
<asrwt>0</asrwt>
<pdfrwt beam="1">  1        1 0.15692370E-01 0.20000124E+02</pdfrwt>
<pdfrwt beam="2">  1       -1 0.15083084E-03 0.20000124E+02</pdfrwt>
<totfact> 0.44456798E+06</totfact>
</mgrwt>
</event>
<event>
 5    1  0.9583198E-007  0.2000047E+02  0.7818608E-02  0.1745319E+00
          1   -1    0    0  501    0  0.00000000000E+00  0.00000000000E+00  0.16308003451E+01  0.16308070316E+01  0.46700000000E-02 0.  1.
         -1   -1    0    0    0  501 -0.00000000000E+00 -0.00000000000E+00 -0.61322343803E+02  0.61322343981E+02  0.46700000000E-02 0. -1.
       1023    2    1    2    0    0  0.00000000000E+00  0.00000000000E+00 -0.59691543458E+02  0.62953151012E+02  0.20000471545E+02 0.  0.
        -11    1    3    3    0    0  0.77019657929E+01 -0.63782898592E+01 -0.29710146372E+02  0.31347976910E+02  0.51100000000E-03 0.  1.
         11    1    3    3    0    0 -0.77019657929E+01  0.63782898592E+01 -0.29981397085E+02  0.31605174103E+02  0.51100000000E-03 0. -1.
<mgrwt>
<rscale>  0 0.20000472E+02</rscale>
<asrwt>0</asrwt>
<pdfrwt beam="1">  1        1 0.25089294E-03 0.20000472E+02</pdfrwt>
<pdfrwt beam="2">  1       -1 0.94342055E-02 0.20000472E+02</pdfrwt>
<totfact> 0.34154106E+06</totfact>
</mgrwt>
</event>
<event>
 5    1  0.9583198E-007  0.2000028E+02  0.7818608E-02  0.1745322E+00
          1   -1    0    0  501    0  0.00000000000E+00  0.00000000000E+00  0.26851826276E+01  0.26851866885E+01  0.46700000000E-02 0. -1.
         -1   -1    0    0    0  501 -0.00000000000E+00 -0.00000000000E+00 -0.37242431008E+02  0.37242431301E+02  0.46700000000E-02 0.  1.
       1023    2    1    2    0    0  0.00000000000E+00  0.00000000000E+00 -0.34557248381E+02  0.39927617990E+02  0.20000281565E+02 0.  0.
        -11    1    3    3    0    0 -0.99999111364E+01  0.51588529404E-01 -0.17366356938E+02  0.20039741457E+02  0.51100000000E-03 0.  1.
         11    1    3    3    0    0  0.99999111364E+01 -0.51588529404E-01 -0.17190891443E+02  0.19887876533E+02  0.51100000000E-03 0. -1.
<mgrwt>
<rscale>  0 0.20000282E+02</rscale>
<asrwt>0</asrwt>
<pdfrwt beam="1">  1        1 0.41310538E-03 0.20000282E+02</pdfrwt>
<pdfrwt beam="2">  1       -1 0.57296047E-02 0.20000282E+02</pdfrwt>
<totfact> 0.35886268E+06</totfact>
</mgrwt>
</event>
<event>
 5    1  0.9583198E-007  0.2000007E+02  0.7818608E-02  0.1745327E+00
         -1   -1    0    0    0  501 -0.00000000000E+00  0.00000000000E+00  0.38267232526E+01  0.38267261022E+01  0.46700000000E-02 0. -1.
          1   -1    0    0  501    0  0.00000000000E+00 -0.00000000000E+00 -0.26132200435E+02  0.26132200853E+02  0.46700000000E-02 0.  1.
       1023    2    1    2    0    0  0.00000000000E+00  0.00000000000E+00 -0.22305477183E+02  0.29958926955E+02  0.20000074798E+02 0.  0.
        -11    1    3    3    0    0 -0.31757373838E+00  0.99949571865E+01 -0.11193085334E+02  0.15009503049E+02  0.51100000000E-03 0. -1.
         11    1    3    3    0    0  0.31757373838E+00 -0.99949571865E+01 -0.11112391849E+02  0.14949423905E+02  0.51100000000E-03 0.  1.
<mgrwt>
<rscale>  0 0.20000075E+02</rscale>
<asrwt>0</asrwt>
<pdfrwt beam="2">  1        1 0.40203387E-02 0.20000075E+02</pdfrwt>
<pdfrwt beam="1">  1       -1 0.58872692E-03 0.20000075E+02</pdfrwt>
<totfact> 0.40182476E+06</totfact>
</mgrwt>
</event>
<event>
 5    1  0.9888245E-007  0.2000078E+02  0.7818608E-02  0.1745313E+00
          1   -1    0    0  501    0  0.00000000000E+00  0.00000000000E+00  0.64799577693E+02  0.64799577861E+02  0.46700000000E-02 0. -1.
         -1   -1    0    0    0  501 -0.00000000000E+00 -0.00000000000E+00 -0.15433366762E+01  0.15433437416E+01  0.46700000000E-02 0.  1.
       1023    2    1    2    0    0  0.00000000000E+00  0.00000000000E+00  0.63256241016E+02  0.66342921603E+02  0.20000780466E+02 0.  0.
        -11    1    3    3    0    0  0.88922310301E+01  0.45755860069E+01  0.31650259336E+02  0.33192569595E+02  0.51100000000E-03 0.  1.
         11    1    3    3    0    0 -0.88922310301E+01 -0.45755860069E+01  0.31605981681E+02  0.33150352008E+02  0.51100000000E-03 0. -1.
<mgrwt>
<rscale>  0 0.20000780E+02</rscale>
<asrwt>0</asrwt>
<pdfrwt beam="1">  1        1 0.99691659E-02 0.20000780E+02</pdfrwt>
<pdfrwt beam="2">  1       -1 0.23743698E-03 0.20000780E+02</pdfrwt>
<totfact> 0.42548446E+06</totfact>
</mgrwt>
</event>
<event>
 5    1  0.9583198E-007  0.2000096E+02  0.7818608E-02  0.1745309E+00
         -1   -1    0    0    0  501 -0.00000000000E+00  0.00000000000E+00  0.47107159636E+02  0.47107159867E+02  0.46700000000E-02 0. -1.
          1   -1    0    0  501    0  0.00000000000E+00 -0.00000000000E+00 -0.21230207997E+01  0.21230259359E+01  0.46700000000E-02 0.  1.
       1023    2    1    2    0    0  0.00000000000E+00  0.00000000000E+00  0.44984138836E+02  0.49230185803E+02  0.20000961162E+02 0.  0.
        -11    1    3    3    0    0 -0.39736730118E+01 -0.91768646218E+01  0.22660635969E+02  0.24769120781E+02  0.51100000000E-03 0.  1.
         11    1    3    3    0    0  0.39736730118E+01  0.91768646218E+01  0.22323502867E+02  0.24461065022E+02  0.51100000000E-03 0. -1.
<mgrwt>
<rscale>  0 0.20000961E+02</rscale>
<asrwt>0</asrwt>
<pdfrwt beam="2">  1        1 0.32661901E-03 0.20000961E+02</pdfrwt>
<pdfrwt beam="1">  1       -1 0.72472555E-02 0.20000961E+02</pdfrwt>
<totfact> 0.35134094E+06</totfact>
</mgrwt>
</event>
<event>
 5    1  0.9583198E-007  0.2000058E+02  0.7818608E-02  0.1745316E+00
          1   -1    0    0  501    0  0.00000000000E+00  0.00000000000E+00  0.27639755489E+01  0.27639794941E+01  0.46700000000E-02 0.  1.
         -1   -1    0    0    0  501 -0.00000000000E+00 -0.00000000000E+00 -0.36181851285E+02  0.36181851586E+02  0.46700000000E-02 0. -1.
       1023    2    1    2    0    0  0.00000000000E+00  0.00000000000E+00 -0.33417875736E+02  0.38945831080E+02  0.20000583487E+02 0.  0.
        -11    1    3    3    0    0 -0.68726017787E+01 -0.72645149347E+01 -0.16711859122E+02  0.19475422152E+02  0.51100000000E-03 0.  1.
         11    1    3    3    0    0  0.68726017787E+01  0.72645149347E+01 -0.16706016614E+02  0.19470408928E+02  0.51100000000E-03 0. -1.
<mgrwt>
<rscale>  0 0.20000583E+02</rscale>
<asrwt>0</asrwt>
<pdfrwt beam="1">  1        1 0.42522736E-03 0.20000583E+02</pdfrwt>
<pdfrwt beam="2">  1       -1 0.55664386E-02 0.20000583E+02</pdfrwt>
<totfact> 0.35969826E+06</totfact>
</mgrwt>
</event>
<event>
 5    1  0.9583198E-007  0.2000071E+02  0.7818608E-02  0.1745314E+00
          1   -1    0    0  501    0  0.00000000000E+00  0.00000000000E+00  0.52055997275E+01  0.52056018222E+01  0.46700000000E-02 0.  1.
         -1   -1    0    0    0  501 -0.00000000000E+00 -0.00000000000E+00 -0.19211441257E+02  0.19211441825E+02  0.46700000000E-02 0. -1.
       1023    2    1    2    0    0  0.00000000000E+00  0.00000000000E+00 -0.14005841530E+02  0.24417043647E+02  0.20000710575E+02 0.  0.
        -11    1    3    3    0    0  0.24431311427E+01 -0.96972567110E+01 -0.70490556304E+01  0.12234985208E+02  0.51100000000E-03 0.  1.
         11    1    3    3    0    0 -0.24431311427E+01  0.96972567110E+01 -0.69567858994E+01  0.12182058439E+02  0.51100000000E-03 0. -1.
<mgrwt>
<rscale>  0 0.20000711E+02</rscale>
<asrwt>0</asrwt>
<pdfrwt beam="1">  1        1 0.80086171E-03 0.20000711E+02</pdfrwt>
<pdfrwt beam="2">  1       -1 0.29556065E-02 0.20000711E+02</pdfrwt>
<totfact> 0.37494861E+06</totfact>
</mgrwt>
</event>
<event>
 5    1  0.9583198E-007  0.2000084E+02  0.7818608E-02  0.1745311E+00
          1   -1    0    0  501    0  0.00000000000E+00  0.00000000000E+00  0.11485988915E+01  0.11486083852E+01  0.46700000000E-02 0.  1.
         -1   -1    0    0    0  501 -0.00000000000E+00 -0.00000000000E+00 -0.87069548894E+02  0.87069549019E+02  0.46700000000E-02 0. -1.
       1023    2    1    2    0    0  0.00000000000E+00  0.00000000000E+00 -0.85920950002E+02  0.88218157404E+02  0.20000841145E+02 0.  0.
        -11    1    3    3    0    0 -0.98088924831E+01  0.19467991263E+01 -0.43239878974E+02  0.44381206975E+02  0.51100000000E-03 0. -1.
         11    1    3    3    0    0  0.98088924831E+01 -0.19467991263E+01 -0.42681071028E+02  0.43836950430E+02  0.51100000000E-03 0.  1.
<mgrwt>
<rscale>  0 0.20000841E+02</rscale>
<asrwt>0</asrwt>
<pdfrwt beam="1">  1        1 0.17670833E-03 0.20000841E+02</pdfrwt>
<pdfrwt beam="2">  1       -1 0.13395311E-01 0.20000841E+02</pdfrwt>
<totfact> 0.32580112E+06</totfact>
</mgrwt>
</event>
<event>
 5    1  0.9583198E-007  0.2000437E+02  0.7818608E-02  0.1745241E+00
          1   -1    0    0  501    0  0.00000000000E+00  0.00000000000E+00  0.10334509290E+01  0.10334614804E+01  0.46700000000E-02 0.  1.
         -1   -1    0    0    0  501 -0.00000000000E+00 -0.00000000000E+00 -0.96804925620E+02  0.96804925732E+02  0.46700000000E-02 0. -1.
       1023    2    1    2    0    0  0.00000000000E+00  0.00000000000E+00 -0.95771474691E+02  0.97838387213E+02  0.20004365723E+02 0.  0.
        -11    1    3    3    0    0  0.91585366946E+01 -0.40204819712E+01 -0.47766731547E+02  0.48802701898E+02  0.51100000000E-03 0. -1.
         11    1    3    3    0    0 -0.91585366946E+01  0.40204819712E+01 -0.48004743144E+02  0.49035685314E+02  0.51100000000E-03 0.  1.
<mgrwt>
<rscale>  0 0.20004366E+02</rscale>
<asrwt>0</asrwt>
<pdfrwt beam="1">  1        1 0.15899335E-03 0.20004366E+02</pdfrwt>
<pdfrwt beam="2">  1       -1 0.14893059E-01 0.20004366E+02</pdfrwt>
<totfact> 0.32025293E+06</totfact>
</mgrwt>
</event>
<event>
 4    1  0.9583198E-007  0.2002589E+02  0.7818608E-02  0.1744814E+00
         -1   -1    0    0    0  501 -0.00000000000E+00  0.00000000000E+00  0.85887503780E+00  0.85888773391E+00  0.46700000000E-02 0.  1.
          1   -1    0    0  501    0  0.00000000000E+00 -0.00000000000E+00 -0.11673215114E+03  0.11673215124E+03  0.46700000000E-02 0. -1.
        -11    1    1    2    0    0 -0.16739529888E+01 -0.98627912275E+01 -0.60443850982E+02  0.61266107198E+02  0.51100000000E-03 0.  1.
         11    1    1    2    0    0  0.16739529888E+01  0.98627912275E+01 -0.55429425125E+02  0.56324931774E+02  0.51100000000E-03 0. -1.
<mgrwt>
<rscale>  0 0.20025892E+02</rscale>
<asrwt>0</asrwt>
<pdfrwt beam="2">  1        1 0.17958781E-01 0.20025892E+02</pdfrwt>
<pdfrwt beam="1">  1       -1 0.13213570E-03 0.20025892E+02</pdfrwt>
<totfact> 0.45022071E+06</totfact>
</mgrwt>
</event>
<event>
 5    1  0.9889537E-007  0.2000131E+02  0.7818608E-02  0.1745302E+00
         -1   -1    0    0    0  501 -0.00000000000E+00  0.00000000000E+00  0.39006953114E+01  0.39006981069E+01  0.46700000000E-02 0. -1.
          1   -1    0    0  501    0  0.00000000000E+00 -0.00000000000E+00 -0.25639804181E+02  0.25639804607E+02  0.46700000000E-02 0.  1.
       1023    2    1    2    0    0  0.00000000000E+00  0.00000000000E+00 -0.21739108870E+02  0.29540502714E+02  0.20001311110E+02 0.  0.
        -11    1    3    3    0    0  0.50665816565E+01 -0.86219190789E+01 -0.10761294659E+02  0.14690582061E+02  0.51100000000E-03 0.  1.
         11    1    3    3    0    0 -0.50665816565E+01  0.86219190789E+01 -0.10977814211E+02  0.14849920653E+02  0.51100000000E-03 0. -1.
<mgrwt>
<rscale>  0 0.20001311E+02</rscale>
<asrwt>0</asrwt>
<pdfrwt beam="2">  1        1 0.39445854E-02 0.20001311E+02</pdfrwt>
<pdfrwt beam="1">  1       -1 0.60010724E-03 0.20001311E+02</pdfrwt>
<totfact> 0.40140829E+06</totfact>
</mgrwt>
</event>
<event>
 5    1  0.1054087E-006  0.2000201E+02  0.7818608E-02  0.1745288E+00
          1   -1    0    0  501    0  0.00000000000E+00  0.00000000000E+00  0.11069782229E+03  0.11069782239E+03  0.46700000000E-02 0.  1.
         -1   -1    0    0    0  501 -0.00000000000E+00 -0.00000000000E+00 -0.90353585256E+00  0.90354792112E+00  0.46700000000E-02 0. -1.
       1023    2    1    2    0    0  0.00000000000E+00  0.00000000000E+00  0.10979428644E+03  0.11160137031E+03  0.20002012916E+02 0.  0.
        -11    1    3    3    0    0 -0.89061027164E+01 -0.45486292316E+01  0.54300463877E+02  0.55213667430E+02  0.51100000000E-03 0. -1.
         11    1    3    3    0    0  0.89061027164E+01  0.45486292316E+01  0.55493822560E+02  0.56387702880E+02  0.51100000000E-03 0.  1.
<mgrwt>
<rscale>  0 0.20002013E+02</rscale>
<asrwt>0</asrwt>
<pdfrwt beam="1">  1        1 0.17030434E-01 0.20002013E+02</pdfrwt>
<pdfrwt beam="2">  1       -1 0.13900646E-03 0.20002013E+02</pdfrwt>
<totfact> 0.44860404E+06</totfact>
</mgrwt>
</event>
<event>
 5    1  0.9583198E-007  0.2000014E+02  0.7818608E-02  0.1745325E+00
         -1   -1    0    0    0  501 -0.00000000000E+00  0.00000000000E+00  0.11328595539E+02  0.11328596502E+02  0.46700000000E-02 0.  1.
          1   -1    0    0  501    0  0.00000000000E+00 -0.00000000000E+00 -0.88273388024E+01  0.88273400377E+01  0.46700000000E-02 0. -1.
       1023    2    1    2    0    0  0.00000000000E+00  0.00000000000E+00  0.25012567369E+01  0.20155936540E+02  0.20000137313E+02 0.  0.
        -11    1    3    3    0    0 -0.21696501462E+01 -0.97618606661E+01  0.12589050087E+01  0.10078995362E+02  0.51100000000E-03 0. -1.
         11    1    3    3    0    0  0.21696501462E+01  0.97618606661E+01  0.12423517282E+01  0.10076941178E+02  0.51100000000E-03 0.  1.
<mgrwt>
<rscale>  0 0.20000137E+02</rscale>
<asrwt>0</asrwt>
<pdfrwt beam="2">  1        1 0.13580523E-02 0.20000137E+02</pdfrwt>
<pdfrwt beam="1">  1       -1 0.17428610E-02 0.20000137E+02</pdfrwt>
<totfact> 0.38427663E+06</totfact>
</mgrwt>
</event>
<event>
 5    1  0.9583198E-007  0.2000015E+02  0.7818608E-02  0.1745325E+00
          1   -1    0    0  501    0  0.00000000000E+00  0.00000000000E+00  0.16698540446E+02  0.16698541099E+02  0.46700000000E-02 0.  1.
         -1   -1    0    0    0  501 -0.00000000000E+00 -0.00000000000E+00 -0.59886340101E+01  0.59886358309E+01  0.46700000000E-02 0. -1.
       1023    2    1    2    0    0  0.00000000000E+00  0.00000000000E+00  0.10709906436E+02  0.22687176930E+02  0.20000147529E+02 0.  0.
        -11    1    3    3    0    0  0.48198529312E+01 -0.87618214854E+01  0.53904098449E+01  0.11360326429E+02  0.51100000000E-03 0. -1.
         11    1    3    3    0    0 -0.48198529312E+01  0.87618214854E+01  0.53194965908E+01  0.11326850501E+02  0.51100000000E-03 0.  1.
<mgrwt>
<rscale>  0 0.20000148E+02</rscale>
<asrwt>0</asrwt>
<pdfrwt beam="1">  1        1 0.25690064E-02 0.20000148E+02</pdfrwt>
<pdfrwt beam="2">  1       -1 0.92132849E-03 0.20000148E+02</pdfrwt>
<totfact> 0.39411751E+06</totfact>
</mgrwt>
</event>
<event>
 5    1  0.9583198E-007  0.2000078E+02  0.7818608E-02  0.1745313E+00
         -1   -1    0    0    0  501 -0.00000000000E+00  0.00000000000E+00  0.11239915703E+03  0.11239915712E+03  0.46700000000E-02 0.  1.
          1   -1    0    0  501    0  0.00000000000E+00 -0.00000000000E+00 -0.88974921546E+00  0.88976147102E+00  0.46700000000E-02 0. -1.
       1023    2    1    2    0    0  0.00000000000E+00  0.00000000000E+00  0.11150940781E+03  0.11328891859E+03  0.20000776134E+02 0.  0.
        -11    1    3    3    0    0  0.86861072460E+01 -0.49554899696E+01  0.55475986060E+02  0.56370119474E+02  0.51100000000E-03 0. -1.
         11    1    3    3    0    0 -0.86861072460E+01  0.49554899696E+01  0.56033421751E+02  0.56918799120E+02  0.51100000000E-03 0.  1.
<mgrwt>
<rscale>  0 0.20000776E+02</rscale>
<asrwt>0</asrwt>
<pdfrwt beam="2">  1        1 0.13688551E-03 0.20000776E+02</pdfrwt>
<pdfrwt beam="1">  1       -1 0.17292171E-01 0.20000776E+02</pdfrwt>
<totfact> 0.31215961E+06</totfact>
</mgrwt>
</event>
<event>
 5    1  0.9748519E-007  0.2000088E+02  0.7818608E-02  0.1745310E+00
          1   -1    0    0  501    0  0.00000000000E+00  0.00000000000E+00  0.19717259702E+02  0.19717260255E+02  0.46700000000E-02 0.  1.
         -1   -1    0    0    0  501 -0.00000000000E+00 -0.00000000000E+00 -0.50721456596E+01  0.50721478094E+01  0.46700000000E-02 0. -1.
       1023    2    1    2    0    0  0.00000000000E+00  0.00000000000E+00  0.14645114043E+02  0.24789408065E+02  0.20000884652E+02 0.  0.
        -11    1    3    3    0    0  0.86427629816E+01  0.50309757814E+01  0.72880044670E+01  0.12374291036E+02  0.51100000000E-03 0. -1.
         11    1    3    3    0    0 -0.86427629816E+01 -0.50309757814E+01  0.73571095757E+01  0.12415117029E+02  0.51100000000E-03 0.  1.
<mgrwt>
<rscale>  0 0.20000885E+02</rscale>
<asrwt>0</asrwt>
<pdfrwt beam="1">  1        1 0.30334248E-02 0.20000885E+02</pdfrwt>
<pdfrwt beam="2">  1       -1 0.78033029E-03 0.20000885E+02</pdfrwt>
<totfact> 0.39678159E+06</totfact>
</mgrwt>
</event>
<event>
 5    1  0.9583198E-007  0.2000059E+02  0.7818608E-02  0.1745316E+00
          1   -1    0    0  501    0  0.00000000000E+00  0.00000000000E+00  0.44400675427E+02  0.44400675672E+02  0.46700000000E-02 0.  1.
         -1   -1    0    0    0  501 -0.00000000000E+00 -0.00000000000E+00 -0.22523472711E+01  0.22523521125E+01  0.46700000000E-02 0. -1.
       1023    2    1    2    0    0  0.00000000000E+00  0.00000000000E+00  0.42148328155E+02  0.46653027785E+02  0.20000585871E+02 0.  0.
        -11    1    3    3    0    0 -0.82824134097E+01  0.56037677605E+01  0.20904774067E+02  0.23173479757E+02  0.51100000000E-03 0. -1.
         11    1    3    3    0    0  0.82824134097E+01 -0.56037677605E+01  0.21243554089E+02  0.23479548028E+02  0.51100000000E-03 0.  1.
<mgrwt>
<rscale>  0 0.20000586E+02</rscale>
<asrwt>0</asrwt>
<pdfrwt beam="1">  1        1 0.68308732E-02 0.20000586E+02</pdfrwt>
<pdfrwt beam="2">  1       -1 0.34651537E-03 0.20000586E+02</pdfrwt>
<totfact> 0.41378481E+06</totfact>
</mgrwt>
</event>
<event>
 5    1  0.9583198E-007  0.2000044E+02  0.7818608E-02  0.1745319E+00
          1   -1    0    0  501    0  0.00000000000E+00  0.00000000000E+00  0.34333487352E+01  0.34333519113E+01  0.46700000000E-02 0. -1.
         -1   -1    0    0    0  501 -0.00000000000E+00 -0.00000000000E+00 -0.29127342863E+02  0.29127343237E+02  0.46700000000E-02 0.  1.
       1023    2    1    2    0    0  0.00000000000E+00  0.00000000000E+00 -0.25693994127E+02  0.32560695148E+02  0.20000438353E+02 0.  0.
        -11    1    3    3    0    0  0.39987834982E+01  0.91659077504E+01 -0.12821309523E+02  0.16260077260E+02  0.51100000000E-03 0. -1.
         11    1    3    3    0    0 -0.39987834982E+01 -0.91659077504E+01 -0.12872684605E+02  0.16300617889E+02  0.51100000000E-03 0.  1.
<mgrwt>
<rscale>  0 0.20000438E+02</rscale>
<asrwt>0</asrwt>
<pdfrwt beam="1">  1        1 0.52820779E-03 0.20000438E+02</pdfrwt>
<pdfrwt beam="2">  1       -1 0.44811298E-02 0.20000438E+02</pdfrwt>
<totfact> 0.36560504E+06</totfact>
</mgrwt>
</event>
<event>
 5    1  0.9729104E-007  0.2000072E+02  0.7818608E-02  0.1745314E+00
          1   -1    0    0  501    0  0.00000000000E+00  0.00000000000E+00  0.51861451766E+02  0.51861451976E+02  0.46700000000E-02 0. -1.
         -1   -1    0    0    0  501 -0.00000000000E+00 -0.00000000000E+00 -0.19283500948E+01  0.19283557496E+01  0.46700000000E-02 0.  1.
       1023    2    1    2    0    0  0.00000000000E+00  0.00000000000E+00  0.49933101671E+02  0.53789807726E+02  0.20000719304E+02 0.  0.
        -11    1    3    3    0    0  0.46379210126E+01  0.88597464845E+01  0.25079819290E+02  0.27000051018E+02  0.51100000000E-03 0. -1.
         11    1    3    3    0    0 -0.46379210126E+01 -0.88597464845E+01  0.24853282381E+02  0.26789756707E+02  0.51100000000E-03 0.  1.
<mgrwt>
<rscale>  0 0.20000719E+02</rscale>
<asrwt>0</asrwt>
<pdfrwt beam="1">  1        1 0.79786832E-02 0.20000719E+02</pdfrwt>
<pdfrwt beam="2">  1       -1 0.29666977E-03 0.20000719E+02</pdfrwt>
<totfact> 0.41820072E+06</totfact>
</mgrwt>
</event>
<event>
 5    1  0.9583198E-007  0.2000672E+02  0.7818608E-02  0.1745195E+00
          1   -1    0    0  501    0  0.00000000000E+00  0.00000000000E+00  0.26610633686E+02  0.26610634095E+02  0.46700000000E-02 0. -1.
         -1   -1    0    0    0  501 -0.00000000000E+00 -0.00000000000E+00 -0.37604184053E+01  0.37604213051E+01  0.46700000000E-02 0.  1.
       1023    2    1    2    0    0  0.00000000000E+00  0.00000000000E+00  0.22850215280E+02  0.30371055400E+02  0.20006715567E+02 0.  0.
        -11    1    3    3    0    0 -0.47343851033E+00  0.99921476654E+01  0.11429318000E+02  0.15188695441E+02  0.51100000000E-03 0. -1.
         11    1    3    3    0    0  0.47343851033E+00 -0.99921476654E+01  0.11420897280E+02  0.15182359959E+02  0.51100000000E-03 0.  1.
<mgrwt>
<rscale>  0 0.20006716E+02</rscale>
<asrwt>0</asrwt>
<pdfrwt beam="1">  1        1 0.40939439E-02 0.20006716E+02</pdfrwt>
<pdfrwt beam="2">  1       -1 0.57852616E-03 0.20006716E+02</pdfrwt>
<totfact> 0.40187418E+06</totfact>
</mgrwt>
</event>
<event>
 5    1  0.9583198E-007  0.2000080E+02  0.7818608E-02  0.1745312E+00
          1   -1    0    0  501    0  0.00000000000E+00  0.00000000000E+00  0.70882417373E+01  0.70882432757E+01  0.46700000000E-02 0. -1.
         -1   -1    0    0    0  501 -0.00000000000E+00 -0.00000000000E+00 -0.14108991931E+02  0.14108992704E+02  0.46700000000E-02 0.  1.
       1023    2    1    2    0    0  0.00000000000E+00  0.00000000000E+00 -0.70207501939E+01  0.21197235980E+02  0.20000796982E+02 0.  0.
        -11    1    3    3    0    0  0.95571571615E+01 -0.29441329508E+01 -0.34804387487E+01  0.10588702753E+02  0.51100000000E-03 0. -1.
         11    1    3    3    0    0 -0.95571571615E+01  0.29441329508E+01 -0.35403114452E+01  0.10608533227E+02  0.51100000000E-03 0.  1.
<mgrwt>
<rscale>  0 0.20000797E+02</rscale>
<asrwt>0</asrwt>
<pdfrwt beam="1">  1        1 0.10904989E-02 0.20000797E+02</pdfrwt>
<pdfrwt beam="2">  1       -1 0.21706143E-02 0.20000797E+02</pdfrwt>
<totfact> 0.38062940E+06</totfact>
</mgrwt>
</event>
<event>
 5    1  0.9583198E-007  0.2000019E+02  0.7818608E-02  0.1745324E+00
         -1   -1    0    0    0  501 -0.00000000000E+00  0.00000000000E+00  0.10256795106E+01  0.10256901419E+01  0.46700000000E-02 0. -1.
          1   -1    0    0  501    0  0.00000000000E+00 -0.00000000000E+00 -0.97497678990E+02  0.97497679102E+02  0.46700000000E-02 0.  1.
       1023    2    1    2    0    0  0.00000000000E+00  0.00000000000E+00 -0.96471999480E+02  0.98523369244E+02  0.20000190089E+02 0.  0.
        -11    1    3    3    0    0  0.99970837097E+01  0.24444573309E+00 -0.48129862688E+02  0.49157757465E+02  0.51100000000E-03 0.  1.
         11    1    3    3    0    0 -0.99970837097E+01 -0.24444573309E+00 -0.48342136792E+02  0.49365611779E+02  0.51100000000E-03 0. -1.
<mgrwt>
<rscale>  0 0.20000190E+02</rscale>
<asrwt>0</asrwt>
<pdfrwt beam="2">  1        1 0.14999636E-01 0.20000190E+02</pdfrwt>
<pdfrwt beam="1">  1       -1 0.15779775E-03 0.20000190E+02</pdfrwt>
<totfact> 0.44237885E+06</totfact>
</mgrwt>
</event>
<event>
 5    1  0.9919870E-007  0.2000104E+02  0.7818608E-02  0.1745307E+00
         -1   -1    0    0    0  501 -0.00000000000E+00  0.00000000000E+00  0.26319223937E+01  0.26319265369E+01  0.46700000000E-02 0.  1.
          1   -1    0    0  501    0  0.00000000000E+00 -0.00000000000E+00 -0.37998945949E+02  0.37998946236E+02  0.46700000000E-02 0. -1.
       1023    2    1    2    0    0  0.00000000000E+00  0.00000000000E+00 -0.35367023555E+02  0.40630872773E+02  0.20001036651E+02 0.  0.
        -11    1    3    3    0    0 -0.70867535239E+01 -0.70560817429E+01 -0.17685956671E+02  0.20317564537E+02  0.51100000000E-03 0.  1.
         11    1    3    3    0    0  0.70867535239E+01  0.70560817429E+01 -0.17681066884E+02  0.20313308236E+02  0.51100000000E-03 0. -1.
<mgrwt>
<rscale>  0 0.20001037E+02</rscale>
<asrwt>0</asrwt>
<pdfrwt beam="2">  1        1 0.58459916E-02 0.20001037E+02</pdfrwt>
<pdfrwt beam="1">  1       -1 0.40491151E-03 0.20001037E+02</pdfrwt>
<totfact> 0.40979568E+06</totfact>
</mgrwt>
</event>
<event>
 5    1  0.9583198E-007  0.2000107E+02  0.7818608E-02  0.1745307E+00
          1   -1    0    0  501    0  0.00000000000E+00  0.00000000000E+00  0.11461864105E+01  0.11461959242E+01  0.46700000000E-02 0.  1.
         -1   -1    0    0    0  501 -0.00000000000E+00 -0.00000000000E+00 -0.87254786829E+02  0.87254786954E+02  0.46700000000E-02 0. -1.
       1023    2    1    2    0    0  0.00000000000E+00  0.00000000000E+00 -0.86108600419E+02  0.88400982878E+02  0.20001067666E+02 0.  0.
        -11    1    3    3    0    0 -0.93976746875E+01 -0.34184863581E+01 -0.43457889274E+02  0.44593614777E+02  0.51100000000E-03 0.  1.
         11    1    3    3    0    0  0.93976746875E+01  0.34184863581E+01 -0.42650711145E+02  0.43807368101E+02  0.51100000000E-03 0. -1.
<mgrwt>
<rscale>  0 0.20001068E+02</rscale>
<asrwt>0</asrwt>
<pdfrwt beam="1">  1        1 0.17633718E-03 0.20001068E+02</pdfrwt>
<pdfrwt beam="2">  1       -1 0.13423809E-01 0.20001068E+02</pdfrwt>
<totfact> 0.32568745E+06</totfact>
</mgrwt>
</event>
<event>
 4    1  0.9583198E-007  0.2002505E+02  0.7818608E-02  0.1744830E+00
         -1   -1    0    0    0  501 -0.00000000000E+00  0.00000000000E+00  0.13725207154E+02  0.13725207949E+02  0.46700000000E-02 0. -1.
          1   -1    0    0  501    0  0.00000000000E+00 -0.00000000000E+00 -0.73041236661E+01  0.73041251590E+01  0.46700000000E-02 0.  1.
        -11    1    1    2    0    0  0.65568802874E+01  0.75506593042E+01  0.26902140512E+01  0.10355790020E+02  0.51100000000E-03 0.  1.
         11    1    1    2    0    0 -0.65568802874E+01 -0.75506593042E+01  0.37308694368E+01  0.10673543088E+02  0.51100000000E-03 0. -1.
<mgrwt>
<rscale>  0 0.20025048E+02</rscale>
<asrwt>0</asrwt>
<pdfrwt beam="2">  1        1 0.11237115E-02 0.20025048E+02</pdfrwt>
<pdfrwt beam="1">  1       -1 0.21115705E-02 0.20025048E+02</pdfrwt>
<totfact> 0.38008897E+06</totfact>
</mgrwt>
</event>
<event>
 5    1  0.9583198E-007  0.2000070E+02  0.7818608E-02  0.1745314E+00
          1   -1    0    0  501    0  0.00000000000E+00  0.00000000000E+00  0.12925456438E+02  0.12925457282E+02  0.46700000000E-02 0.  1.
         -1   -1    0    0    0  501 -0.00000000000E+00 -0.00000000000E+00 -0.77372087965E+01  0.77372102058E+01  0.46700000000E-02 0. -1.
       1023    2    1    2    0    0  0.00000000000E+00  0.00000000000E+00  0.51882476416E+01  0.20662667488E+02  0.20000697841E+02 0.  0.
        -11    1    3    3    0    0  0.64730358805E+01 -0.76227474870E+01  0.25708962352E+01  0.10325501464E+02  0.51100000000E-03 0. -1.
         11    1    3    3    0    0 -0.64730358805E+01  0.76227474870E+01  0.26173514065E+01  0.10337166024E+02  0.51100000000E-03 0.  1.
<mgrwt>
<rscale>  0 0.20000698E+02</rscale>
<asrwt>0</asrwt>
<pdfrwt beam="1">  1        1 0.19885319E-02 0.20000698E+02</pdfrwt>
<pdfrwt beam="2">  1       -1 0.11903400E-02 0.20000698E+02</pdfrwt>
<totfact> 0.39013538E+06</totfact>
</mgrwt>
</event>
<event>
 5    1  0.9583198E-007  0.2001135E+02  0.7818608E-02  0.1745102E+00
          1   -1    0    0  501    0  0.00000000000E+00  0.00000000000E+00  0.52151404141E+02  0.52151404350E+02  0.46700000000E-02 0.  1.
         -1   -1    0    0    0  501 -0.00000000000E+00 -0.00000000000E+00 -0.19196681723E+01  0.19196738527E+01  0.46700000000E-02 0. -1.
       1023    2    1    2    0    0  0.00000000000E+00  0.00000000000E+00  0.50231735968E+02  0.54071078203E+02  0.20011351768E+02 0.  0.
        -11    1    3    3    0    0  0.97759970451E+01 -0.21098064836E+01  0.25936090307E+02  0.27797521154E+02  0.51100000000E-03 0.  1.
         11    1    3    3    0    0 -0.97759970451E+01  0.21098064836E+01  0.24295645661E+02  0.26273557048E+02  0.51100000000E-03 0. -1.
<mgrwt>
<rscale>  0 0.20011352E+02</rscale>
<asrwt>0</asrwt>
<pdfrwt beam="1">  1        1 0.80232934E-02 0.20011352E+02</pdfrwt>
<pdfrwt beam="2">  1       -1 0.29533402E-03 0.20011352E+02</pdfrwt>
<totfact> 0.41787525E+06</totfact>
</mgrwt>
</event>
<event>
 5    1  0.1014440E-006  0.2000125E+02  0.7818608E-02  0.1745303E+00
          1   -1    0    0  501    0  0.00000000000E+00  0.00000000000E+00  0.89238799928E+02  0.89238800051E+02  0.46700000000E-02 0.  1.
         -1   -1    0    0    0  501 -0.00000000000E+00 -0.00000000000E+00 -0.11207237033E+01  0.11207334331E+01  0.46700000000E-02 0. -1.
       1023    2    1    2    0    0  0.00000000000E+00  0.00000000000E+00  0.88118076225E+02  0.90359533484E+02  0.20001248305E+02 0.  0.
        -11    1    3    3    0    0 -0.50833756037E+01 -0.86121690614E+01  0.44276625543E+02  0.45391956702E+02  0.51100000000E-03 0. -1.
         11    1    3    3    0    0  0.50833756037E+01  0.86121690614E+01  0.43841450682E+02  0.44967576782E+02  0.51100000000E-03 0.  1.
<mgrwt>
<rscale>  0 0.20001248E+02</rscale>
<asrwt>0</asrwt>
<pdfrwt beam="1">  1        1 0.13729050E-01 0.20001248E+02</pdfrwt>
<pdfrwt beam="2">  1       -1 0.17241975E-03 0.20001248E+02</pdfrwt>
<totfact> 0.43823643E+06</totfact>
</mgrwt>
</event>
<event>
 5    1  0.1076529E-006  0.2000483E+02  0.7818608E-02  0.1745232E+00
         -1   -1    0    0    0  501 -0.00000000000E+00  0.00000000000E+00  0.18117981830E+02  0.18117982432E+02  0.46700000000E-02 0. -1.
          1   -1    0    0  501    0  0.00000000000E+00 -0.00000000000E+00 -0.55220444591E+01  0.55220464338E+01  0.46700000000E-02 0.  1.
       1023    2    1    2    0    0  0.00000000000E+00  0.00000000000E+00  0.12595937371E+02  0.23640028866E+02  0.20004832579E+02 0.  0.
        -11    1    3    3    0    0 -0.99996522278E+01  0.15670918749E+00  0.65051195492E+01  0.11930389057E+02  0.51100000000E-03 0. -1.
         11    1    3    3    0    0  0.99996522278E+01 -0.15670918749E+00  0.60908178218E+01  0.11709639809E+02  0.51100000000E-03 0.  1.
<mgrwt>
<rscale>  0 0.20004833E+02</rscale>
<asrwt>0</asrwt>
<pdfrwt beam="2">  1        1 0.84954550E-03 0.20004833E+02</pdfrwt>
<pdfrwt beam="1">  1       -1 0.27873820E-02 0.20004833E+02</pdfrwt>
<totfact> 0.37592513E+06</totfact>
</mgrwt>
</event>
<event>
 5    1  0.1005960E-006  0.2000068E+02  0.7818608E-02  0.1745315E+00
         -1   -1    0    0    0  501 -0.00000000000E+00  0.00000000000E+00  0.11551771215E+01  0.11551865611E+01  0.46700000000E-02 0. -1.
          1   -1    0    0  501    0  0.00000000000E+00 -0.00000000000E+00 -0.86572350542E+02  0.86572350668E+02  0.46700000000E-02 0.  1.
       1023    2    1    2    0    0  0.00000000000E+00  0.00000000000E+00 -0.85417173421E+02  0.87727537229E+02  0.20000681817E+02 0.  0.
        -11    1    3    3    0    0 -0.95687056191E+01  0.29052074674E+01 -0.42356037488E+02  0.43520504013E+02  0.51100000000E-03 0. -1.
         11    1    3    3    0    0  0.95687056191E+01 -0.29052074674E+01 -0.43061135933E+02  0.44207033216E+02  0.51100000000E-03 0.  1.
<mgrwt>
<rscale>  0 0.20000682E+02</rscale>
<asrwt>0</asrwt>
<pdfrwt beam="2">  1        1 0.13318819E-01 0.20000682E+02</pdfrwt>
<pdfrwt beam="1">  1       -1 0.17772036E-03 0.20000682E+02</pdfrwt>
<totfact> 0.43691956E+06</totfact>
</mgrwt>
</event>
<event>
 5    1  0.9667578E-007  0.2000075E+02  0.7818608E-02  0.1745313E+00
         -1   -1    0    0    0  501 -0.00000000000E+00  0.00000000000E+00  0.30330806198E+01  0.30330842150E+01  0.46700000000E-02 0. -1.
          1   -1    0    0  501    0  0.00000000000E+00 -0.00000000000E+00 -0.32972233673E+02  0.32972234004E+02  0.46700000000E-02 0.  1.
       1023    2    1    2    0    0  0.00000000000E+00  0.00000000000E+00 -0.29939153054E+02  0.36005318219E+02  0.20000751348E+02 0.  0.
        -11    1    3    3    0    0  0.91671208831E+01 -0.39959270467E+01 -0.14856076731E+02  0.17908281725E+02  0.51100000000E-03 0. -1.
         11    1    3    3    0    0 -0.91671208831E+01  0.39959270467E+01 -0.15083076323E+02  0.18097036494E+02  0.51100000000E-03 0.  1.
<mgrwt>
<rscale>  0 0.20000751E+02</rscale>
<asrwt>0</asrwt>
<pdfrwt beam="2">  1        1 0.50726514E-02 0.20000751E+02</pdfrwt>
<pdfrwt beam="1">  1       -1 0.46662811E-03 0.20000751E+02</pdfrwt>
<totfact> 0.40654356E+06</totfact>
</mgrwt>
</event>
<event>
 5    1  0.9819380E-007  0.2000129E+02  0.7818608E-02  0.1745303E+00
         -1   -1    0    0    0  501 -0.00000000000E+00  0.00000000000E+00  0.14350652703E+02  0.14350653463E+02  0.46700000000E-02 0.  1.
          1   -1    0    0  501    0  0.00000000000E+00 -0.00000000000E+00 -0.69692187855E+01  0.69692203502E+01  0.46700000000E-02 0. -1.
       1023    2    1    2    0    0  0.00000000000E+00  0.00000000000E+00  0.73814339172E+01  0.21319873813E+02  0.20001286277E+02 0.  0.
        -11    1    3    3    0    0  0.67735429574E+01  0.73568423942E+01  0.37909859530E+01  0.10694652354E+02  0.51100000000E-03 0.  1.
         11    1    3    3    0    0 -0.67735429574E+01 -0.73568423942E+01  0.35904479642E+01  0.10625221459E+02  0.51100000000E-03 0. -1.
<mgrwt>
<rscale>  0 0.20001286E+02</rscale>
<asrwt>0</asrwt>
<pdfrwt beam="2">  1        1 0.10721877E-02 0.20001286E+02</pdfrwt>
<pdfrwt beam="1">  1       -1 0.22077929E-02 0.20001286E+02</pdfrwt>
<totfact> 0.38031657E+06</totfact>
</mgrwt>
</event>
<event>
 4    1  0.9583198E-007  0.2002525E+02  0.7818608E-02  0.1744826E+00
         -1   -1    0    0    0  501 -0.00000000000E+00  0.00000000000E+00  0.26979735177E+01  0.26979775594E+01  0.46700000000E-02 0. -1.
          1   -1    0    0  501    0  0.00000000000E+00 -0.00000000000E+00 -0.37158486961E+02  0.37158487255E+02  0.46700000000E-02 0.  1.
        -11    1    1    2    0    0 -0.76886829359E+01  0.64136331956E+01 -0.17137673013E+02  0.19848183106E+02  0.51100000000E-03 0.  1.
         11    1    1    2    0    0  0.76886829359E+01 -0.64136331956E+01 -0.17322840431E+02  0.20008281708E+02  0.51100000000E-03 0. -1.
<mgrwt>
<rscale>  0 0.20025254E+02</rscale>
<asrwt>0</asrwt>
<pdfrwt beam="2">  1        1 0.57166903E-02 0.20025254E+02</pdfrwt>
<pdfrwt beam="1">  1       -1 0.41507321E-03 0.20025254E+02</pdfrwt>
<totfact> 0.40815765E+06</totfact>
</mgrwt>
</event>
<event>
 5    1  0.9583198E-007  0.2000310E+02  0.7818608E-02  0.1745266E+00
         -1   -1    0    0    0  501 -0.00000000000E+00  0.00000000000E+00  0.86521173536E+01  0.86521186139E+01  0.46700000000E-02 0.  1.
          1   -1    0    0  501    0  0.00000000000E+00 -0.00000000000E+00 -0.11561444155E+02  0.11561445099E+02  0.46700000000E-02 0. -1.
       1023    2    1    2    0    0  0.00000000000E+00  0.00000000000E+00 -0.29093268019E+01  0.20213563713E+02  0.20003099148E+02 0.  0.
        -11    1    3    3    0    0 -0.18645545636E+01 -0.98261968667E+01 -0.14376027711E+01  0.10104326329E+02  0.51100000000E-03 0. -1.
         11    1    3    3    0    0  0.18645545636E+01  0.98261968667E+01 -0.14717240308E+01  0.10109237383E+02  0.51100000000E-03 0.  1.
<mgrwt>
<rscale>  0 0.20003099E+02</rscale>
<asrwt>0</asrwt>
<pdfrwt beam="2">  1        1 0.17786839E-02 0.20003099E+02</pdfrwt>
<pdfrwt beam="1">  1       -1 0.13310951E-02 0.20003099E+02</pdfrwt>
<totfact> 0.38833120E+06</totfact>
</mgrwt>
</event>
<event>
 5    1  0.9583198E-007  0.2000199E+02  0.7818608E-02  0.1745289E+00
         -1   -1    0    0    0  501 -0.00000000000E+00  0.00000000000E+00  0.63744166640E+02  0.63744166811E+02  0.46700000000E-02 0.  1.
          1   -1    0    0  501    0  0.00000000000E+00 -0.00000000000E+00 -0.15690794805E+01  0.15690864301E+01  0.46700000000E-02 0. -1.
       1023    2    1    2    0    0  0.00000000000E+00  0.00000000000E+00  0.62175087159E+02  0.65313253241E+02  0.20001989543E+02 0.  0.
        -11    1    3    3    0    0 -0.95418493372E+01  0.29948526576E+01  0.30884541977E+02  0.32463378823E+02  0.51100000000E-03 0.  1.
         11    1    3    3    0    0  0.95418493372E+01 -0.29948526576E+01  0.31290545182E+02  0.32849874418E+02  0.51100000000E-03 0. -1.
<mgrwt>
<rscale>  0 0.20001990E+02</rscale>
<asrwt>0</asrwt>
<pdfrwt beam="2">  1        1 0.24139743E-03 0.20001990E+02</pdfrwt>
<pdfrwt beam="1">  1       -1 0.98067940E-02 0.20001990E+02</pdfrwt>
<totfact> 0.33990440E+06</totfact>
</mgrwt>
</event>
<event>
 5    1  0.9652879E-007  0.2000164E+02  0.7818608E-02  0.1745296E+00
         -1   -1    0    0    0  501 -0.00000000000E+00  0.00000000000E+00  0.27638644474E+02  0.27638644868E+02  0.46700000000E-02 0. -1.
          1   -1    0    0  501    0  0.00000000000E+00 -0.00000000000E+00 -0.36187130919E+01  0.36187161052E+01  0.46700000000E-02 0.  1.
       1023    2    1    2    0    0  0.00000000000E+00  0.00000000000E+00  0.24019931382E+02  0.31257360973E+02  0.20001637719E+02 0.  0.
        -11    1    3    3    0    0  0.66045086126E+01 -0.75089629777E+01  0.11836518547E+02  0.15495393851E+02  0.51100000000E-03 0.  1.
         11    1    3    3    0    0 -0.66045086126E+01  0.75089629777E+01  0.12183412835E+02  0.15761967123E+02  0.51100000000E-03 0. -1.
<mgrwt>
<rscale>  0 0.20001638E+02</rscale>
<asrwt>0</asrwt>
<pdfrwt beam="2">  1        1 0.55672538E-03 0.20001638E+02</pdfrwt>
<pdfrwt beam="1">  1       -1 0.42520992E-02 0.20001638E+02</pdfrwt>
<totfact> 0.36686959E+06</totfact>
</mgrwt>
</event>
<event>
 5    1  0.9583198E-007  0.2000021E+02  0.7818608E-02  0.1745324E+00
          1   -1    0    0  501    0  0.00000000000E+00  0.00000000000E+00  0.28495773187E+02  0.28495773570E+02  0.46700000000E-02 0.  1.
         -1   -1    0    0    0  501 -0.00000000000E+00 -0.00000000000E+00 -0.35093637839E+01  0.35093668911E+01  0.46700000000E-02 0. -1.
       1023    2    1    2    0    0  0.00000000000E+00  0.00000000000E+00  0.24986409403E+02  0.32005140461E+02  0.20000209025E+02 0.  0.
        -11    1    3    3    0    0  0.84391369469E+01 -0.53649728240E+01  0.12475371376E+02  0.15988647756E+02  0.51100000000E-03 0.  1.
         11    1    3    3    0    0 -0.84391369469E+01  0.53649728240E+01  0.12511038027E+02  0.16016492705E+02  0.51100000000E-03 0. -1.
<mgrwt>
<rscale>  0 0.20000209E+02</rscale>
<asrwt>0</asrwt>
<pdfrwt beam="1">  1        1 0.43839654E-02 0.20000209E+02</pdfrwt>
<pdfrwt beam="2">  1       -1 0.53990238E-03 0.20000209E+02</pdfrwt>
<totfact> 0.40351102E+06</totfact>
</mgrwt>
</event>
<event>
 5    1  0.9845014E-007  0.2000099E+02  0.7818608E-02  0.1745308E+00
         -1   -1    0    0    0  501 -0.00000000000E+00  0.00000000000E+00  0.65801490222E+01  0.65801506793E+01  0.46700000000E-02 0. -1.
          1   -1    0    0  501    0  0.00000000000E+00 -0.00000000000E+00 -0.15198723011E+02  0.15198723729E+02  0.46700000000E-02 0.  1.
       1023    2    1    2    0    0  0.00000000000E+00  0.00000000000E+00 -0.86185739891E+01  0.21778874408E+02  0.20000988797E+02 0.  0.
        -11    1    3    3    0    0  0.92031763449E+01 -0.39122775887E+01 -0.43901673448E+01  0.10921444059E+02  0.51100000000E-03 0. -1.
         11    1    3    3    0    0 -0.92031763449E+01  0.39122775887E+01 -0.42284066443E+01  0.10857430349E+02  0.51100000000E-03 0.  1.
<mgrwt>
<rscale>  0 0.20000989E+02</rscale>
<asrwt>0</asrwt>
<pdfrwt beam="2">  1        1 0.23382653E-02 0.20000989E+02</pdfrwt>
<pdfrwt beam="1">  1       -1 0.10123308E-02 0.20000989E+02</pdfrwt>
<totfact> 0.39260669E+06</totfact>
</mgrwt>
</event>
<event>
 5    1  0.9583198E-007  0.2000044E+02  0.7818608E-02  0.1745319E+00
         -1   -1    0    0    0  501 -0.00000000000E+00  0.00000000000E+00  0.26646561493E+01  0.26646602415E+01  0.46700000000E-02 0.  1.
          1   -1    0    0  501    0  0.00000000000E+00 -0.00000000000E+00 -0.37529928360E+02  0.37529928651E+02  0.46700000000E-02 0. -1.
       1023    2    1    2    0    0  0.00000000000E+00  0.00000000000E+00 -0.34865272211E+02  0.40194588892E+02  0.20000444242E+02 0.  0.
        -11    1    3    3    0    0 -0.27842088489E+00 -0.99961277707E+01 -0.17300033270E+02  0.19982273144E+02  0.51100000000E-03 0.  1.
         11    1    3    3    0    0  0.27842088489E+00  0.99961277707E+01 -0.17565238941E+02  0.20212315748E+02  0.51100000000E-03 0. -1.
<mgrwt>
<rscale>  0 0.20000444E+02</rscale>
<asrwt>0</asrwt>
<pdfrwt beam="2">  1        1 0.57738351E-02 0.20000444E+02</pdfrwt>
<pdfrwt beam="1">  1       -1 0.40994746E-03 0.20000444E+02</pdfrwt>
<totfact> 0.40952426E+06</totfact>
</mgrwt>
</event>
<event>
 5    1  0.9583198E-007  0.2000044E+02  0.7818608E-02  0.1745319E+00
          1   -1    0    0  501    0  0.00000000000E+00  0.00000000000E+00  0.17116468404E+02  0.17116469041E+02  0.46700000000E-02 0. -1.
         -1   -1    0    0    0  501 -0.00000000000E+00 -0.00000000000E+00 -0.58425815654E+01  0.58425834318E+01  0.46700000000E-02 0.  1.
       1023    2    1    2    0    0  0.00000000000E+00  0.00000000000E+00  0.11273886839E+02  0.22959052473E+02  0.20000439145E+02 0.  0.
        -11    1    3    3    0    0  0.96908401996E+01  0.24675767818E+01  0.55733158101E+01  0.11448282331E+02  0.51100000000E-03 0. -1.
         11    1    3    3    0    0 -0.96908401996E+01 -0.24675767818E+01  0.57005710285E+01  0.11510770142E+02  0.51100000000E-03 0.  1.
<mgrwt>
<rscale>  0 0.20000439E+02</rscale>
<asrwt>0</asrwt>
<pdfrwt beam="1">  1        1 0.26333031E-02 0.20000439E+02</pdfrwt>
<pdfrwt beam="2">  1       -1 0.89885888E-03 0.20000439E+02</pdfrwt>
<totfact> 0.39449722E+06</totfact>
</mgrwt>
</event>
<event>
 5    1  0.9583198E-007  0.2000039E+02  0.7818608E-02  0.1745320E+00
          1   -1    0    0  501    0  0.00000000000E+00  0.00000000000E+00  0.36145611960E+02  0.36145612262E+02  0.46700000000E-02 0.  1.
         -1   -1    0    0    0  501 -0.00000000000E+00 -0.00000000000E+00 -0.27666929522E+01  0.27666968936E+01  0.46700000000E-02 0. -1.
       1023    2    1    2    0    0  0.00000000000E+00  0.00000000000E+00  0.33378919008E+02  0.38912309155E+02  0.20000389238E+02 0.  0.
        -11    1    3    3    0    0  0.98884425117E+01  0.14908111619E+01  0.16706744272E+02  0.19470981425E+02  0.51100000000E-03 0.  1.
         11    1    3    3    0    0 -0.98884425117E+01 -0.14908111619E+01  0.16672174736E+02  0.19441327730E+02  0.51100000000E-03 0. -1.
<mgrwt>
<rscale>  0 0.20000389E+02</rscale>
<asrwt>0</asrwt>
<pdfrwt beam="1">  1        1 0.55608640E-02 0.20000389E+02</pdfrwt>
<pdfrwt beam="2">  1       -1 0.42564537E-03 0.20000389E+02</pdfrwt>
<totfact> 0.40863878E+06</totfact>
</mgrwt>
</event>
<event>
 5    1  0.9764185E-007  0.2000139E+02  0.7818608E-02  0.1745300E+00
          1   -1    0    0  501    0  0.00000000000E+00  0.00000000000E+00  0.56463041996E+02  0.56463042189E+02  0.46700000000E-02 0.  1.
         -1   -1    0    0    0  501 -0.00000000000E+00 -0.00000000000E+00 -0.17713132940E+01  0.17713194501E+01  0.46700000000E-02 0. -1.
       1023    2    1    2    0    0  0.00000000000E+00  0.00000000000E+00  0.54691728702E+02  0.58234361639E+02  0.20001392129E+02 0.  0.
        -11    1    3    3    0    0 -0.99478741771E+01 -0.10264474982E+01  0.27378598796E+02  0.29147923895E+02  0.51100000000E-03 0.  1.
         11    1    3    3    0    0  0.99478741771E+01  0.10264474982E+01  0.27313129907E+02  0.29086437745E+02  0.51100000000E-03 0. -1.
<mgrwt>
<rscale>  0 0.20001392E+02</rscale>
<asrwt>0</asrwt>
<pdfrwt beam="1">  1        1 0.86866232E-02 0.20001392E+02</pdfrwt>
<pdfrwt beam="2">  1       -1 0.27251020E-03 0.20001392E+02</pdfrwt>
<totfact> 0.42080926E+06</totfact>
</mgrwt>
</event>
<event>
 5    1  0.9583198E-007  0.2000266E+02  0.7818608E-02  0.1745275E+00
         -1   -1    0    0    0  501 -0.00000000000E+00  0.00000000000E+00  0.12219121102E+01  0.12219210343E+01  0.46700000000E-02 0.  1.
          1   -1    0    0  501    0  0.00000000000E+00 -0.00000000000E+00 -0.81860407436E+02  0.81860407570E+02  0.46700000000E-02 0. -1.
       1023    2    1    2    0    0  0.00000000000E+00  0.00000000000E+00 -0.80638495326E+02  0.83082328604E+02  0.20002659768E+02 0.  0.
        -11    1    3    3    0    0  0.88380484845E+01  0.46813514432E+01 -0.40407047758E+02  0.41626381792E+02  0.51100000000E-03 0. -1.
         11    1    3    3    0    0 -0.88380484845E+01 -0.46813514432E+01 -0.40231447568E+02  0.41455946812E+02  0.51100000000E-03 0.  1.
<mgrwt>
<rscale>  0 0.20002660E+02</rscale>
<asrwt>0</asrwt>
<pdfrwt beam="2">  1        1 0.12593905E-01 0.20002660E+02</pdfrwt>
<pdfrwt beam="1">  1       -1 0.18798724E-03 0.20002660E+02</pdfrwt>
<totfact> 0.43442335E+06</totfact>
</mgrwt>
</event>
<event>
 5    1  0.9583198E-007  0.2000058E+02  0.7818608E-02  0.1745316E+00
          1   -1    0    0  501    0  0.00000000000E+00  0.00000000000E+00  0.28277376719E+01  0.28277415281E+01  0.46700000000E-02 0.  1.
         -1   -1    0    0    0  501 -0.00000000000E+00 -0.00000000000E+00 -0.35365990820E+02  0.35365991128E+02  0.46700000000E-02 0. -1.
       1023    2    1    2    0    0  0.00000000000E+00  0.00000000000E+00 -0.32538253148E+02  0.38193732656E+02  0.20000582399E+02 0.  0.
        -11    1    3    3    0    0  0.12785353563E+01 -0.99182071551E+01 -0.16234019262E+02  0.19066957479E+02  0.51100000000E-03 0.  1.
         11    1    3    3    0    0 -0.12785353563E+01  0.99182071551E+01 -0.16304233885E+02  0.19126775177E+02  0.51100000000E-03 0. -1.
<mgrwt>
<rscale>  0 0.20000582E+02</rscale>
<asrwt>0</asrwt>
<pdfrwt beam="1">  1        1 0.43503691E-03 0.20000582E+02</pdfrwt>
<pdfrwt beam="2">  1       -1 0.54409217E-02 0.20000582E+02</pdfrwt>
<totfact> 0.36035664E+06</totfact>
</mgrwt>
</event>
<event>
 4    1  0.9583198E-007  0.2001597E+02  0.7818608E-02  0.1745011E+00
         -1   -1    0    0    0  501 -0.00000000000E+00  0.00000000000E+00  0.40392434126E+01  0.40392461122E+01  0.46700000000E-02 0.  1.
          1   -1    0    0  501    0  0.00000000000E+00 -0.00000000000E+00 -0.24796648535E+02  0.24796648975E+02  0.46700000000E-02 0. -1.
        -11    1    1    2    0    0 -0.27283091808E+01 -0.96289179900E+01 -0.10373794417E+02  0.14414414435E+02  0.51100000000E-03 0. -1.
         11    1    1    2    0    0  0.27283091808E+01  0.96289179900E+01 -0.10383610706E+02  0.14421480652E+02  0.51100000000E-03 0.  1.
<mgrwt>
<rscale>  0 0.20015968E+02</rscale>
<asrwt>0</asrwt>
<pdfrwt beam="2">  1        1 0.38148692E-02 0.20015968E+02</pdfrwt>
<pdfrwt beam="1">  1       -1 0.62142232E-03 0.20015968E+02</pdfrwt>
<totfact> 0.40012640E+06</totfact>
</mgrwt>
</event>
<event>
 5    1  0.9583198E-007  0.2000438E+02  0.7818608E-02  0.1745241E+00
          1   -1    0    0  501    0  0.00000000000E+00  0.00000000000E+00  0.17255062197E+01  0.17255125393E+01  0.46700000000E-02 0. -1.
         -1   -1    0    0    0  501 -0.00000000000E+00 -0.00000000000E+00 -0.57979290529E+02  0.57979290717E+02  0.46700000000E-02 0.  1.
       1023    2    1    2    0    0  0.00000000000E+00  0.00000000000E+00 -0.56253784310E+02  0.59704803257E+02  0.20004381589E+02 0.  0.
        -11    1    3    3    0    0 -0.93290181191E+01 -0.36061162649E+01 -0.28412647341E+02  0.30121639775E+02  0.51100000000E-03 0. -1.
         11    1    3    3    0    0  0.93290181191E+01  0.36061162649E+01 -0.27841136969E+02  0.29583163481E+02  0.51100000000E-03 0.  1.
<mgrwt>
<rscale>  0 0.20004382E+02</rscale>
<asrwt>0</asrwt>
<pdfrwt beam="1">  1        1 0.26546304E-03 0.20004382E+02</pdfrwt>
<pdfrwt beam="2">  1       -1 0.89198898E-02 0.20004382E+02</pdfrwt>
<totfact> 0.34361565E+06</totfact>
</mgrwt>
</event>
<event>
 5    1  0.9583198E-007  0.2000382E+02  0.7818608E-02  0.1745252E+00
         -1   -1    0    0    0  501 -0.00000000000E+00  0.00000000000E+00  0.87191022037E+02  0.87191022162E+02  0.46700000000E-02 0.  1.
          1   -1    0    0  501    0  0.00000000000E+00 -0.00000000000E+00 -0.11473400515E+01  0.11473495556E+01  0.46700000000E-02 0. -1.
       1023    2    1    2    0    0  0.00000000000E+00  0.00000000000E+00  0.86043681985E+02  0.88338371717E+02  0.20003817338E+02 0.  0.
        -11    1    3    3    0    0  0.81608378270E+00 -0.99683840915E+01  0.43283197621E+02  0.44423753451E+02  0.51100000000E-03 0. -1.
         11    1    3    3    0    0 -0.81608378270E+00  0.99683840915E+01  0.42760484364E+02  0.43914618266E+02  0.51100000000E-03 0.  1.
<mgrwt>
<rscale>  0 0.20003817E+02</rscale>
<asrwt>0</asrwt>
<pdfrwt beam="2">  1        1 0.17651457E-03 0.20003817E+02</pdfrwt>
<pdfrwt beam="1">  1       -1 0.13414006E-01 0.20003817E+02</pdfrwt>
<totfact> 0.32562562E+06</totfact>
</mgrwt>
</event>
<event>
 5    1  0.9583198E-007  0.2000105E+02  0.7818608E-02  0.1745307E+00
         -1   -1    0    0    0  501 -0.00000000000E+00  0.00000000000E+00  0.33465560670E+02  0.33465560996E+02  0.46700000000E-02 0. -1.
          1   -1    0    0  501    0  0.00000000000E+00 -0.00000000000E+00 -0.29884594790E+01  0.29884631279E+01  0.46700000000E-02 0.  1.
       1023    2    1    2    0    0  0.00000000000E+00  0.00000000000E+00  0.30477101191E+02  0.36454024124E+02  0.20001054417E+02 0.  0.
        -11    1    3    3    0    0 -0.92262920974E+01 -0.38582480449E+01  0.15237475427E+02  0.18226113176E+02  0.51100000000E-03 0.  1.
         11    1    3    3    0    0  0.92262920974E+01  0.38582480449E+01  0.15239625764E+02  0.18227910948E+02  0.51100000000E-03 0. -1.
<mgrwt>
<rscale>  0 0.20001054E+02</rscale>
<asrwt>0</asrwt>
<pdfrwt beam="2">  1        1 0.45976330E-03 0.20001054E+02</pdfrwt>
<pdfrwt beam="1">  1       -1 0.51485482E-02 0.20001054E+02</pdfrwt>
<totfact> 0.36189423E+06</totfact>
</mgrwt>
</event>
<event>
 4    1  0.9583198E-007  0.2005191E+02  0.7818608E-02  0.1744298E+00
         -1   -1    0    0    0  501 -0.00000000000E+00  0.00000000000E+00  0.78543395615E+02  0.78543395753E+02  0.46700000000E-02 0. -1.
          1   -1    0    0  501    0  0.00000000000E+00 -0.00000000000E+00 -0.12797949308E+01  0.12798034512E+01  0.46700000000E-02 0.  1.
        -11    1    1    2    0    0  0.91652093363E+01 -0.40638497701E+01  0.38384868208E+02  0.39672585557E+02  0.51100000000E-03 0.  1.
         11    1    1    2    0    0 -0.91652093363E+01  0.40638497701E+01  0.38878732475E+02  0.40150613648E+02  0.51100000000E-03 0. -1.
<mgrwt>
<rscale>  0 0.20051911E+02</rscale>
<asrwt>0</asrwt>
<pdfrwt beam="2">  1        1 0.19689215E-03 0.20051911E+02</pdfrwt>
<pdfrwt beam="1">  1       -1 0.12083603E-01 0.20051911E+02</pdfrwt>
<totfact> 0.32892235E+06</totfact>
</mgrwt>
</event>
<event>
 5    1  0.9583198E-007  0.2000013E+02  0.7818608E-02  0.1745325E+00
          1   -1    0    0  501    0  0.00000000000E+00  0.00000000000E+00  0.16466932940E+02  0.16466933602E+02  0.46700000000E-02 0. -1.
         -1   -1    0    0    0  501 -0.00000000000E+00 -0.00000000000E+00 -0.60728560864E+01  0.60728578820E+01  0.46700000000E-02 0.  1.
       1023    2    1    2    0    0  0.00000000000E+00  0.00000000000E+00  0.10394076854E+02  0.22539791484E+02  0.20000134162E+02 0.  0.
        -11    1    3    3    0    0 -0.49265645442E+01  0.87022962321E+01  0.51761528467E+01  0.11260264494E+02  0.51100000000E-03 0. -1.
         11    1    3    3    0    0  0.49265645442E+01 -0.87022962321E+01  0.52179240068E+01  0.11279526990E+02  0.51100000000E-03 0.  1.
<mgrwt>
<rscale>  0 0.20000134E+02</rscale>
<asrwt>0</asrwt>
<pdfrwt beam="1">  1        1 0.25333745E-02 0.20000134E+02</pdfrwt>
<pdfrwt beam="2">  1       -1 0.93428575E-03 0.20000134E+02</pdfrwt>
<totfact> 0.39389740E+06</totfact>
</mgrwt>
</event>
<event>
 5    1  0.9583198E-007  0.2000045E+02  0.7818608E-02  0.1745319E+00
          1   -1    0    0  501    0  0.00000000000E+00  0.00000000000E+00  0.20202378319E+02  0.20202378859E+02  0.46700000000E-02 0.  1.
         -1   -1    0    0    0  501 -0.00000000000E+00 -0.00000000000E+00 -0.49501332661E+01  0.49501354689E+01  0.46700000000E-02 0. -1.
       1023    2    1    2    0    0  0.00000000000E+00  0.00000000000E+00  0.15252245053E+02  0.25152514328E+02  0.20000449941E+02 0.  0.
        -11    1    3    3    0    0  0.30061764578E+01  0.95376832771E+01  0.76262660409E+01  0.12576344190E+02  0.51100000000E-03 0. -1.
         11    1    3    3    0    0 -0.30061764578E+01 -0.95376832771E+01  0.76259790124E+01  0.12576170138E+02  0.51100000000E-03 0.  1.
<mgrwt>
<rscale>  0 0.20000450E+02</rscale>
<asrwt>0</asrwt>
<pdfrwt beam="1">  1        1 0.31080584E-02 0.20000450E+02</pdfrwt>
<pdfrwt beam="2">  1       -1 0.76155917E-03 0.20000450E+02</pdfrwt>
<totfact> 0.39720814E+06</totfact>
</mgrwt>
</event>
<event>
 5    1  0.9583198E-007  0.2000064E+02  0.7818608E-02  0.1745315E+00
         -1   -1    0    0    0  501 -0.00000000000E+00  0.00000000000E+00  0.73909822960E+02  0.73909823108E+02  0.46700000000E-02 0.  1.
          1   -1    0    0  501    0  0.00000000000E+00 -0.00000000000E+00 -0.13530830226E+01  0.13530910815E+01  0.46700000000E-02 0. -1.
       1023    2    1    2    0    0  0.00000000000E+00  0.00000000000E+00  0.72556739937E+02  0.75262914189E+02  0.20000643537E+02 0.  0.
        -11    1    3    3    0    0 -0.99235208191E+01  0.12359252680E+01  0.36084346141E+02  0.37444409642E+02  0.51100000000E-03 0.  1.
         11    1    3    3    0    0  0.99235208191E+01 -0.12359252680E+01  0.36472393796E+02  0.37818504547E+02  0.51100000000E-03 0. -1.
<mgrwt>
<rscale>  0 0.20000644E+02</rscale>
<asrwt>0</asrwt>
<pdfrwt beam="2">  1        1 0.20816722E-03 0.20000644E+02</pdfrwt>
<pdfrwt beam="1">  1       -1 0.11370744E-01 0.20000644E+02</pdfrwt>
<totfact> 0.33356804E+06</totfact>
</mgrwt>
</event>
<event>
 4    1  0.9583198E-007  0.3956501E+02  0.7818608E-02  0.1511437E+00
         -1   -1    0    0    0  501 -0.00000000000E+00  0.00000000000E+00  0.40912086732E+02  0.40912086998E+02  0.46700000000E-02 0. -1.
          1   -1    0    0  501    0  0.00000000000E+00 -0.00000000000E+00 -0.95655726576E+01  0.95655737976E+01  0.46700000000E-02 0.  1.
        -11    1    1    2    0    0  0.53902503063E+01 -0.19004563345E+02  0.17023059765E+02  0.26077054863E+02  0.51100000000E-03 0. -1.
         11    1    1    2    0    0 -0.53902503063E+01  0.19004563345E+02  0.14323454309E+02  0.24400605933E+02  0.51100000000E-03 0.  1.
<mgrwt>
<rscale>  0 0.39565014E+02</rscale>
<asrwt>0</asrwt>
<pdfrwt beam="2">  1        1 0.14716267E-02 0.39565014E+02</pdfrwt>
<pdfrwt beam="1">  1       -1 0.62941673E-02 0.39565014E+02</pdfrwt>
<totfact> 0.73677407E+05</totfact>
</mgrwt>
</event>
<event>
 5    1  0.9583198E-007  0.2000015E+02  0.7818608E-02  0.1745325E+00
         -1   -1    0    0    0  501 -0.00000000000E+00  0.00000000000E+00  0.58838690613E+01  0.58838709146E+01  0.46700000000E-02 0. -1.
          1   -1    0    0  501    0  0.00000000000E+00 -0.00000000000E+00 -0.16995868104E+02  0.16995868745E+02  0.46700000000E-02 0.  1.
       1023    2    1    2    0    0  0.00000000000E+00  0.00000000000E+00 -0.11111999042E+02  0.22879739660E+02  0.20000149104E+02 0.  0.
        -11    1    3    3    0    0  0.68459170625E+01 -0.72893548586E+01 -0.55391824942E+01  0.11431702307E+02  0.51100000000E-03 0.  1.
         11    1    3    3    0    0 -0.68459170625E+01  0.72893548586E+01 -0.55728165480E+01  0.11448037352E+02  0.51100000000E-03 0. -1.
<mgrwt>
<rscale>  0 0.20000149E+02</rscale>
<asrwt>0</asrwt>
<pdfrwt beam="2">  1        1 0.26147491E-02 0.20000149E+02</pdfrwt>
<pdfrwt beam="1">  1       -1 0.90521083E-03 0.20000149E+02</pdfrwt>
<totfact> 0.39439749E+06</totfact>
</mgrwt>
</event>
<event>
 5    1  0.1193648E-006  0.2000186E+02  0.7818608E-02  0.1745291E+00
          1   -1    0    0  501    0  0.00000000000E+00  0.00000000000E+00  0.35200530365E+02  0.35200530675E+02  0.46700000000E-02 0.  1.
         -1   -1    0    0    0  501 -0.00000000000E+00 -0.00000000000E+00 -0.28413935475E+01  0.28413973852E+01  0.46700000000E-02 0. -1.
       1023    2    1    2    0    0  0.00000000000E+00  0.00000000000E+00  0.32359136818E+02  0.38041928060E+02  0.20001863787E+02 0.  0.
        -11    1    3    3    0    0 -0.99996938696E+01 -0.12537982584E+00  0.16360409716E+02  0.19174790844E+02  0.51100000000E-03 0.  1.
         11    1    3    3    0    0  0.99996938696E+01  0.12537982584E+00  0.15998727102E+02  0.18867137216E+02  0.51100000000E-03 0. -1.
<mgrwt>
<rscale>  0 0.20001864E+02</rscale>
<asrwt>0</asrwt>
<pdfrwt beam="1">  1        1 0.54154667E-02 0.20001864E+02</pdfrwt>
<pdfrwt beam="2">  1       -1 0.43713777E-03 0.20001864E+02</pdfrwt>
<totfact> 0.40795911E+06</totfact>
</mgrwt>
</event>
<event>
 4    1  0.9583198E-007  0.2001773E+02  0.7818608E-02  0.1744976E+00
          1   -1    0    0  501    0  0.00000000000E+00  0.00000000000E+00  0.87735173399E+00  0.87736416273E+00  0.46700000000E-02 0. -1.
         -1   -1    0    0    0  501 -0.00000000000E+00 -0.00000000000E+00 -0.11418070815E+03  0.11418070824E+03  0.46700000000E-02 0.  1.
        -11    1    1    2    0    0  0.89297785791E+01 -0.45098990822E+01 -0.54859436961E+02  0.55764127888E+02  0.51100000000E-03 0. -1.
         11    1    1    2    0    0 -0.89297785791E+01  0.45098990822E+01 -0.58443919453E+02  0.59293944518E+02  0.51100000000E-03 0.  1.
<mgrwt>
<rscale>  0 0.20017728E+02</rscale>
<asrwt>0</asrwt>
<pdfrwt beam="1">  1        1 0.13497824E-03 0.20017728E+02</pdfrwt>
<pdfrwt beam="2">  1       -1 0.17566252E-01 0.20017728E+02</pdfrwt>
<totfact> 0.31067707E+06</totfact>
</mgrwt>
</event>
<event>
 5    1  0.9583198E-007  0.2000046E+02  0.7818608E-02  0.1745319E+00
         -1   -1    0    0    0  501 -0.00000000000E+00  0.00000000000E+00  0.99789599621E+00  0.99790692359E+00  0.46700000000E-02 0. -1.
          1   -1    0    0  501    0  0.00000000000E+00 -0.00000000000E+00 -0.10021487660E+03  0.10021487671E+03  0.46700000000E-02 0.  1.
       1023    2    1    2    0    0  0.00000000000E+00  0.00000000000E+00 -0.99216980600E+02  0.10121278363E+03  0.20000458257E+02 0.  0.
        -11    1    3    3    0    0 -0.58580191338E+01  0.81046553687E+01 -0.49342847090E+02  0.50345986792E+02  0.51100000000E-03 0.  1.
         11    1    3    3    0    0  0.58580191338E+01 -0.81046553687E+01 -0.49874133510E+02  0.50866796837E+02  0.51100000000E-03 0. -1.
<mgrwt>
<rscale>  0 0.20000458E+02</rscale>
<asrwt>0</asrwt>
<pdfrwt beam="2">  1        1 0.15417666E-01 0.20000458E+02</pdfrwt>
<pdfrwt beam="1">  1       -1 0.15352339E-03 0.20000458E+02</pdfrwt>
<totfact> 0.44368848E+06</totfact>
</mgrwt>
</event>
<event>
 5    1  0.9583198E-007  0.2000184E+02  0.7818608E-02  0.1745292E+00
          1   -1    0    0  501    0  0.00000000000E+00  0.00000000000E+00  0.11836092440E+01  0.11836184568E+01  0.46700000000E-02 0. -1.
         -1   -1    0    0    0  501 -0.00000000000E+00 -0.00000000000E+00 -0.84502510754E+02  0.84502510884E+02  0.46700000000E-02 0.  1.
       1023    2    1    2    0    0  0.00000000000E+00  0.00000000000E+00 -0.83318901510E+02  0.85686129340E+02  0.20001835226E+02 0.  0.
        -11    1    3    3    0    0 -0.74403669549E+01 -0.66822966921E+01 -0.41322044309E+02  0.42514979662E+02  0.51100000000E-03 0. -1.
         11    1    3    3    0    0  0.74403669549E+01  0.66822966921E+01 -0.41996857201E+02  0.43171149678E+02  0.51100000000E-03 0.  1.
<mgrwt>
<rscale>  0 0.20001835E+02</rscale>
<asrwt>0</asrwt>
<pdfrwt beam="1">  1        1 0.18209451E-03 0.20001835E+02</pdfrwt>
<pdfrwt beam="2">  1       -1 0.13000382E-01 0.20001835E+02</pdfrwt>
<totfact> 0.32723869E+06</totfact>
</mgrwt>
</event>
<event>
 5    1  0.9583198E-007  0.2000035E+02  0.7818608E-02  0.1745321E+00
         -1   -1    0    0    0  501 -0.00000000000E+00  0.00000000000E+00  0.10129317106E+02  0.10129318182E+02  0.46700000000E-02 0.  1.
          1   -1    0    0  501    0  0.00000000000E+00 -0.00000000000E+00 -0.98726817659E+01  0.98726828704E+01  0.46700000000E-02 0. -1.
       1023    2    1    2    0    0  0.00000000000E+00  0.00000000000E+00  0.25663533968E+00  0.20002001052E+02  0.20000354607E+02 0.  0.
        -11    1    3    3    0    0  0.93848199897E+01  0.34537940340E+01  0.13084188114E+00  0.10001032913E+02  0.51100000000E-03 0. -1.
         11    1    3    3    0    0 -0.93848199897E+01 -0.34537940340E+01  0.12579345854E+00  0.10000968139E+02  0.51100000000E-03 0.  1.
<mgrwt>
<rscale>  0 0.20000355E+02</rscale>
<asrwt>0</asrwt>
<pdfrwt beam="2">  1        1 0.15188743E-02 0.20000355E+02</pdfrwt>
<pdfrwt beam="1">  1       -1 0.15583566E-02 0.20000355E+02</pdfrwt>
<totfact> 0.38602532E+06</totfact>
</mgrwt>
</event>
<event>
 5    1  0.9583198E-007  0.2000011E+02  0.7818608E-02  0.1745326E+00
          1   -1    0    0  501    0  0.00000000000E+00  0.00000000000E+00  0.86115337150E+01  0.86115349812E+01  0.46700000000E-02 0.  1.
         -1   -1    0    0    0  501 -0.00000000000E+00 -0.00000000000E+00 -0.11612459601E+02  0.11612460540E+02  0.46700000000E-02 0. -1.
       1023    2    1    2    0    0  0.00000000000E+00  0.00000000000E+00 -0.30009258863E+01  0.20223995522E+02  0.20000110967E+02 0.  0.
        -11    1    3    3    0    0 -0.35086394850E+01  0.93643001140E+01 -0.15217160182E+01  0.10115151386E+02  0.51100000000E-03 0. -1.
         11    1    3    3    0    0  0.35086394850E+01 -0.93643001140E+01 -0.14792098681E+01  0.10108844136E+02  0.51100000000E-03 0.  1.
<mgrwt>
<rscale>  0 0.20000111E+02</rscale>
<asrwt>0</asrwt>
<pdfrwt beam="1">  1        1 0.13248515E-02 0.20000111E+02</pdfrwt>
<pdfrwt beam="2">  1       -1 0.17865324E-02 0.20000111E+02</pdfrwt>
<totfact> 0.38388213E+06</totfact>
</mgrwt>
</event>
<event>
 5    1  0.9583198E-007  0.2000241E+02  0.7818608E-02  0.1745280E+00
          1   -1    0    0  501    0  0.00000000000E+00  0.00000000000E+00  0.22324544549E+02  0.22324545038E+02  0.46700000000E-02 0.  1.
         -1   -1    0    0    0  501 -0.00000000000E+00 -0.00000000000E+00 -0.44804539444E+01  0.44804563782E+01  0.46700000000E-02 0. -1.
       1023    2    1    2    0    0  0.00000000000E+00  0.00000000000E+00  0.17844090605E+02  0.26805001416E+02  0.20002413139E+02 0.  0.
        -11    1    3    3    0    0  0.86863660707E+01  0.49564070146E+01  0.90187415436E+01  0.13466871400E+02  0.51100000000E-03 0. -1.
         11    1    3    3    0    0 -0.86863660707E+01 -0.49564070146E+01  0.88253490612E+01  0.13338130016E+02  0.51100000000E-03 0.  1.
<mgrwt>
<rscale>  0 0.20002413E+02</rscale>
<asrwt>0</asrwt>
<pdfrwt beam="1">  1        1 0.34345455E-02 0.20002413E+02</pdfrwt>
<pdfrwt beam="2">  1       -1 0.68930083E-03 0.20002413E+02</pdfrwt>
<totfact> 0.39883813E+06</totfact>
</mgrwt>
</event>
<event>
 5    1  0.9583198E-007  0.2000139E+02  0.7818608E-02  0.1745300E+00
          1   -1    0    0  501    0  0.00000000000E+00  0.00000000000E+00  0.19207563621E+01  0.19207620393E+01  0.46700000000E-02 0. -1.
         -1   -1    0    0    0  501 -0.00000000000E+00 -0.00000000000E+00 -0.52069994231E+02  0.52069994441E+02  0.46700000000E-02 0.  1.
       1023    2    1    2    0    0  0.00000000000E+00  0.00000000000E+00 -0.50149237869E+02  0.53990756480E+02  0.20001393112E+02 0.  0.
        -11    1    3    3    0    0 -0.37721108429E+01 -0.92619112037E+01 -0.24950566641E+02  0.26880152443E+02  0.51100000000E-03 0. -1.
         11    1    3    3    0    0  0.37721108429E+01  0.92619112037E+01 -0.25198671228E+02  0.27110604037E+02  0.51100000000E-03 0.  1.
<mgrwt>
<rscale>  0 0.20001393E+02</rscale>
<asrwt>0</asrwt>
<pdfrwt beam="1">  1        1 0.29550147E-03 0.20001393E+02</pdfrwt>
<pdfrwt beam="2">  1       -1 0.80107677E-02 0.20001393E+02</pdfrwt>
<totfact> 0.34778124E+06</totfact>
</mgrwt>
</event>
<event>
 5    1  0.9583198E-007  0.2000051E+02  0.7818608E-02  0.1745318E+00
         -1   -1    0    0    0  501 -0.00000000000E+00  0.00000000000E+00  0.19842941666E+01  0.19842996620E+01  0.46700000000E-02 0. -1.
          1   -1    0    0  501    0  0.00000000000E+00 -0.00000000000E+00 -0.50398270215E+02  0.50398270431E+02  0.46700000000E-02 0.  1.
       1023    2    1    2    0    0  0.00000000000E+00  0.00000000000E+00 -0.48413976048E+02  0.52382570093E+02  0.20000514312E+02 0.  0.
        -11    1    3    3    0    0 -0.27249669425E+01 -0.96215783714E+01 -0.24023135608E+02  0.26021361607E+02  0.51100000000E-03 0. -1.
         11    1    3    3    0    0  0.27249669425E+01  0.96215783714E+01 -0.24390840440E+02  0.26361208486E+02  0.51100000000E-03 0.  1.
<mgrwt>
<rscale>  0 0.20000514E+02</rscale>
<asrwt>0</asrwt>
<pdfrwt beam="2">  1        1 0.77535795E-02 0.20000514E+02</pdfrwt>
<pdfrwt beam="1">  1       -1 0.30527650E-03 0.20000514E+02</pdfrwt>
<totfact> 0.41735769E+06</totfact>
</mgrwt>
</event>
<event>
 5    1  0.9583198E-007  0.2000196E+02  0.7818608E-02  0.1745289E+00
         -1   -1    0    0    0  501 -0.00000000000E+00  0.00000000000E+00  0.17634021139E+02  0.17634021758E+02  0.46700000000E-02 0. -1.
          1   -1    0    0  501    0  0.00000000000E+00 -0.00000000000E+00 -0.56719686584E+01  0.56719705809E+01  0.46700000000E-02 0.  1.
       1023    2    1    2    0    0  0.00000000000E+00  0.00000000000E+00  0.11962052481E+02  0.23305992339E+02  0.20001964387E+02 0.  0.
        -11    1    3    3    0    0 -0.40010450698E+00 -0.99926564257E+01  0.58879680318E+01  0.11605233038E+02  0.51100000000E-03 0. -1.
         11    1    3    3    0    0  0.40010450698E+00  0.99926564257E+01  0.60740844493E+01  0.11700759301E+02  0.51100000000E-03 0.  1.
<mgrwt>
<rscale>  0 0.20001964E+02</rscale>
<asrwt>0</asrwt>
<pdfrwt beam="2">  1        1 0.87261077E-03 0.20001964E+02</pdfrwt>
<pdfrwt beam="1">  1       -1 0.27129265E-02 0.20001964E+02</pdfrwt>
<totfact> 0.37656129E+06</totfact>
</mgrwt>
</event>
<event>
 5    1  0.1023676E-006  0.2000061E+02  0.7818608E-02  0.1745316E+00
         -1   -1    0    0    0  501 -0.00000000000E+00  0.00000000000E+00  0.93064746377E+00  0.93065918075E+00  0.46700000000E-02 0. -1.
          1   -1    0    0  501    0  0.00000000000E+00 -0.00000000000E+00 -0.10745798110E+03  0.10745798120E+03  0.46700000000E-02 0.  1.
       1023    2    1    2    0    0  0.00000000000E+00  0.00000000000E+00 -0.10652733363E+03  0.10838864038E+03  0.20000613797E+02 0.  0.
        -11    1    3    3    0    0  0.97868843934E+01  0.20541771031E+01 -0.52948225444E+02  0.53884295743E+02  0.51100000000E-03 0.  1.
         11    1    3    3    0    0 -0.97868843934E+01 -0.20541771031E+01 -0.53579108190E+02  0.54504344637E+02  0.51100000000E-03 0. -1.
<mgrwt>
<rscale>  0 0.20000614E+02</rscale>
<asrwt>0</asrwt>
<pdfrwt beam="2">  1        1 0.16531988E-01 0.20000614E+02</pdfrwt>
<pdfrwt beam="1">  1       -1 0.14317753E-03 0.20000614E+02</pdfrwt>
<totfact> 0.44714830E+06</totfact>
</mgrwt>
</event>
<event>
 5    1  0.1014992E-006  0.2000105E+02  0.7818608E-02  0.1745307E+00
         -1   -1    0    0    0  501 -0.00000000000E+00  0.00000000000E+00  0.11968367826E+01  0.11968458936E+01  0.46700000000E-02 0.  1.
          1   -1    0    0  501    0  0.00000000000E+00 -0.00000000000E+00 -0.83562069187E+02  0.83562069318E+02  0.46700000000E-02 0. -1.
       1023    2    1    2    0    0  0.00000000000E+00  0.00000000000E+00 -0.82365232405E+02  0.84758915211E+02  0.20001054941E+02 0.  0.
        -11    1    3    3    0    0 -0.99093112592E+01  0.13471596184E+01 -0.41333085469E+02  0.42525677458E+02  0.51100000000E-03 0. -1.
         11    1    3    3    0    0  0.99093112592E+01 -0.13471596184E+01 -0.41032146936E+02  0.42233237753E+02  0.51100000000E-03 0.  1.
<mgrwt>
<rscale>  0 0.20001055E+02</rscale>
<asrwt>0</asrwt>
<pdfrwt beam="2">  1        1 0.12855699E-01 0.20001055E+02</pdfrwt>
<pdfrwt beam="1">  1       -1 0.18412951E-03 0.20001055E+02</pdfrwt>
<totfact> 0.43537041E+06</totfact>
</mgrwt>
</event>
<event>
 5    1  0.9583198E-007  0.2000031E+02  0.7818608E-02  0.1745322E+00
         -1   -1    0    0    0  501 -0.00000000000E+00  0.00000000000E+00  0.88281641947E+01  0.88281654299E+01  0.46700000000E-02 0.  1.
          1   -1    0    0  501    0  0.00000000000E+00 -0.00000000000E+00 -0.11327732553E+02  0.11327733516E+02  0.46700000000E-02 0. -1.
       1023    2    1    2    0    0  0.00000000000E+00  0.00000000000E+00 -0.24995683588E+01  0.20155898946E+02  0.20000310506E+02 0.  0.
        -11    1    3    3    0    0 -0.77052046439E+01 -0.63743950345E+01 -0.12535769091E+01  0.10078419816E+02  0.51100000000E-03 0.  1.
         11    1    3    3    0    0  0.77052046439E+01  0.63743950345E+01 -0.12459914497E+01  0.10077479130E+02  0.51100000000E-03 0. -1.
<mgrwt>
<rscale>  0 0.20000311E+02</rscale>
<asrwt>0</asrwt>
<pdfrwt beam="2">  1        1 0.17427283E-02 0.20000311E+02</pdfrwt>
<pdfrwt beam="1">  1       -1 0.13581793E-02 0.20000311E+02</pdfrwt>
<totfact> 0.38814208E+06</totfact>
</mgrwt>
</event>
<event>
 5    1  0.9583198E-007  0.2000220E+02  0.7818608E-02  0.1745284E+00
          1   -1    0    0  501    0  0.00000000000E+00  0.00000000000E+00  0.21667583077E+02  0.21667583580E+02  0.46700000000E-02 0. -1.
         -1   -1    0    0    0  501 -0.00000000000E+00 -0.00000000000E+00 -0.46162041287E+01  0.46162064909E+01  0.46700000000E-02 0.  1.
       1023    2    1    2    0    0  0.00000000000E+00  0.00000000000E+00  0.17051378948E+02  0.26283790071E+02  0.20002202290E+02 0.  0.
        -11    1    3    3    0    0 -0.99887314359E+01  0.48457425962E+00  0.86723450131E+01  0.13237036534E+02  0.51100000000E-03 0. -1.
         11    1    3    3    0    0  0.99887314359E+01 -0.48457425962E+00  0.83790339347E+01  0.13046753537E+02  0.51100000000E-03 0.  1.
<mgrwt>
<rscale>  0 0.20002202E+02</rscale>
<asrwt>0</asrwt>
<pdfrwt beam="1">  1        1 0.33334745E-02 0.20002202E+02</pdfrwt>
<pdfrwt beam="2">  1       -1 0.71018548E-03 0.20002202E+02</pdfrwt>
<totfact> 0.39832603E+06</totfact>
</mgrwt>
</event>
<event>
 5    1  0.9583198E-007  0.2000324E+02  0.7818608E-02  0.1745264E+00
          1   -1    0    0  501    0  0.00000000000E+00  0.00000000000E+00  0.23376716805E+01  0.23376763451E+01  0.46700000000E-02 0. -1.
         -1   -1    0    0    0  501 -0.00000000000E+00 -0.00000000000E+00 -0.42791399209E+02  0.42791399464E+02  0.46700000000E-02 0.  1.
       1023    2    1    2    0    0  0.00000000000E+00  0.00000000000E+00 -0.40453727528E+02  0.45129075809E+02  0.20003235049E+02 0.  0.
        -11    1    3    3    0    0  0.41243799483E+01 -0.91105419771E+01 -0.19908861095E+02  0.22279480143E+02  0.51100000000E-03 0.  1.
         11    1    3    3    0    0 -0.41243799483E+01  0.91105419771E+01 -0.20544866433E+02  0.22849595666E+02  0.51100000000E-03 0. -1.
<mgrwt>
<rscale>  0 0.20003235E+02</rscale>
<asrwt>0</asrwt>
<pdfrwt beam="1">  1        1 0.35964221E-03 0.20003235E+02</pdfrwt>
<pdfrwt beam="2">  1       -1 0.65832920E-02 0.20003235E+02</pdfrwt>
<totfact> 0.35445104E+06</totfact>
</mgrwt>
</event>
<event>
 5    1  0.9744928E-007  0.2000184E+02  0.7818608E-02  0.1745291E+00
         -1   -1    0    0    0  501 -0.00000000000E+00  0.00000000000E+00  0.10476337246E+01  0.10476441332E+01  0.46700000000E-02 0.  1.
          1   -1    0    0  501    0  0.00000000000E+00 -0.00000000000E+00 -0.95470318785E+02  0.95470318899E+02  0.46700000000E-02 0. -1.
       1023    2    1    2    0    0  0.00000000000E+00  0.00000000000E+00 -0.94422685060E+02  0.96517963032E+02  0.20001843263E+02 0.  0.
        -11    1    3    3    0    0 -0.99993348134E+01 -0.16091702399E+00 -0.47580173222E+02  0.48619805379E+02  0.51100000000E-03 0. -1.
         11    1    3    3    0    0  0.99993348134E+01  0.16091702399E+00 -0.46842511838E+02  0.47898157653E+02  0.51100000000E-03 0.  1.
<mgrwt>
<rscale>  0 0.20001843E+02</rscale>
<asrwt>0</asrwt>
<pdfrwt beam="2">  1        1 0.14687735E-01 0.20001843E+02</pdfrwt>
<pdfrwt beam="1">  1       -1 0.16117530E-03 0.20001843E+02</pdfrwt>
<totfact> 0.44130399E+06</totfact>
</mgrwt>
</event>
<event>
 5    1  0.9583198E-007  0.2000032E+02  0.7818608E-02  0.1745322E+00
          1   -1    0    0  501    0  0.00000000000E+00  0.00000000000E+00  0.17013120598E+01  0.17013184692E+01  0.46700000000E-02 0. -1.
         -1   -1    0    0    0  501 -0.00000000000E+00 -0.00000000000E+00 -0.58779951683E+02  0.58779951868E+02  0.46700000000E-02 0.  1.
       1023    2    1    2    0    0  0.00000000000E+00  0.00000000000E+00 -0.57078639623E+02  0.60481270338E+02  0.20000324008E+02 0.  0.
        -11    1    3    3    0    0  0.97060034396E+01 -0.24076408087E+01 -0.28544391153E+02  0.30245421200E+02  0.51100000000E-03 0. -1.
         11    1    3    3    0    0 -0.97060034396E+01  0.24076408087E+01 -0.28534248470E+02  0.30235849137E+02  0.51100000000E-03 0.  1.
<mgrwt>
<rscale>  0 0.20000324E+02</rscale>
<asrwt>0</asrwt>
<pdfrwt beam="1">  1        1 0.26174087E-03 0.20000324E+02</pdfrwt>
<pdfrwt beam="2">  1       -1 0.90430684E-02 0.20000324E+02</pdfrwt>
<totfact> 0.34323210E+06</totfact>
</mgrwt>
</event>
<event>
 5    1  0.9583198E-007  0.2000049E+02  0.7818608E-02  0.1745318E+00
         -1   -1    0    0    0  501 -0.00000000000E+00  0.00000000000E+00  0.50781179143E+01  0.50781200616E+01  0.46700000000E-02 0.  1.
          1   -1    0    0  501    0  0.00000000000E+00 -0.00000000000E+00 -0.19693288968E+02  0.19693289522E+02  0.46700000000E-02 0. -1.
       1023    2    1    2    0    0  0.00000000000E+00  0.00000000000E+00 -0.14615171054E+02  0.24771409583E+02  0.20000487689E+02 0.  0.
        -11    1    3    3    0    0 -0.71831659070E+01  0.69575063230E+01 -0.72945949911E+01  0.12378040355E+02  0.51100000000E-03 0. -1.
         11    1    3    3    0    0  0.71831659070E+01 -0.69575063230E+01 -0.73205760625E+01  0.12393369228E+02  0.51100000000E-03 0.  1.
<mgrwt>
<rscale>  0 0.20000488E+02</rscale>
<asrwt>0</asrwt>
<pdfrwt beam="2">  1        1 0.30297369E-02 0.20000488E+02</pdfrwt>
<pdfrwt beam="1">  1       -1 0.78124913E-03 0.20000488E+02</pdfrwt>
<totfact> 0.39677898E+06</totfact>
</mgrwt>
</event>
<event>
 5    1  0.9583198E-007  0.2000018E+02  0.7818608E-02  0.1745325E+00
         -1   -1    0    0    0  501 -0.00000000000E+00  0.00000000000E+00  0.32683505279E+02  0.32683505613E+02  0.46700000000E-02 0.  1.
          1   -1    0    0  501    0  0.00000000000E+00 -0.00000000000E+00 -0.30597002511E+01  0.30597038150E+01  0.46700000000E-02 0. -1.
       1023    2    1    2    0    0  0.00000000000E+00  0.00000000000E+00  0.29623805028E+02  0.35743209428E+02  0.20000179896E+02 0.  0.
        -11    1    3    3    0    0 -0.31714096146E+01 -0.94838707281E+01  0.14834207808E+02  0.17890091237E+02  0.51100000000E-03 0.  1.
         11    1    3    3    0    0  0.31714096146E+01  0.94838707281E+01  0.14789597220E+02  0.17853118191E+02  0.51100000000E-03 0. -1.
<mgrwt>
<rscale>  0 0.20000180E+02</rscale>
<asrwt>0</asrwt>
<pdfrwt beam="2">  1        1 0.47072343E-03 0.20000180E+02</pdfrwt>
<pdfrwt beam="1">  1       -1 0.50282317E-02 0.20000180E+02</pdfrwt>
<totfact> 0.36257943E+06</totfact>
</mgrwt>
</event>
<event>
 5    1  0.9583198E-007  0.2000331E+02  0.7818608E-02  0.1745262E+00
          1   -1    0    0  501    0  0.00000000000E+00  0.00000000000E+00  0.81483029770E+01  0.81483043152E+01  0.46700000000E-02 0. -1.
         -1   -1    0    0    0  501 -0.00000000000E+00 -0.00000000000E+00 -0.12276556615E+02  0.12276557503E+02  0.46700000000E-02 0.  1.
       1023    2    1    2    0    0  0.00000000000E+00  0.00000000000E+00 -0.41282536380E+01  0.20424861818E+02  0.20003312281E+02 0.  0.
        -11    1    3    3    0    0  0.23555923801E+01  0.97198006905E+01 -0.21651273254E+01  0.10232845035E+02  0.51100000000E-03 0. -1.
         11    1    3    3    0    0 -0.23555923801E+01 -0.97198006905E+01 -0.19631263126E+01  0.10192016783E+02  0.51100000000E-03 0.  1.
<mgrwt>
<rscale>  0 0.20003312E+02</rscale>
<asrwt>0</asrwt>
<pdfrwt beam="1">  1        1 0.12535852E-02 0.20003312E+02</pdfrwt>
<pdfrwt beam="2">  1       -1 0.18887012E-02 0.20003312E+02</pdfrwt>
<totfact> 0.38284889E+06</totfact>
</mgrwt>
</event>
<event>
 4    1  0.1388961E-006  0.2032362E+02  0.7818608E-02  0.1738968E+00
         -1   -1    0    0    0  501 -0.00000000000E+00  0.00000000000E+00  0.71686499910E+01  0.71686515122E+01  0.46700000000E-02 0.  1.
          1   -1    0    0  501    0  0.00000000000E+00 -0.00000000000E+00 -0.14404713408E+02  0.14404714165E+02  0.46700000000E-02 0. -1.
        -11    1    1    2    0    0 -0.55374168501E+01  0.84424810944E+01 -0.23966693248E+01  0.10377017708E+02  0.51100000000E-03 0.  1.
         11    1    1    2    0    0  0.55374168501E+01 -0.84424810944E+01 -0.48393940920E+01  0.11196347969E+02  0.51100000000E-03 0. -1.
<mgrwt>
<rscale>  0 0.20323619E+02</rscale>
<asrwt>0</asrwt>
<pdfrwt beam="2">  1        1 0.22161099E-02 0.20323619E+02</pdfrwt>
<pdfrwt beam="1">  1       -1 0.11028694E-02 0.20323619E+02</pdfrwt>
<totfact> 0.37788368E+06</totfact>
</mgrwt>
</event>
<event>
 5    1  0.9583198E-007  0.2000262E+02  0.7818608E-02  0.1745276E+00
         -1   -1    0    0    0  501 -0.00000000000E+00  0.00000000000E+00  0.12762987996E+01  0.12763073434E+01  0.46700000000E-02 0.  1.
          1   -1    0    0  501    0  0.00000000000E+00 -0.00000000000E+00 -0.78371841350E+02  0.78371841489E+02  0.46700000000E-02 0. -1.
       1023    2    1    2    0    0  0.00000000000E+00  0.00000000000E+00 -0.77095542551E+02  0.79648148833E+02  0.20002623111E+02 0.  0.
        -11    1    3    3    0    0 -0.97592698674E+01  0.21840936257E+01 -0.38100464337E+02  0.39391103009E+02  0.51100000000E-03 0.  1.
         11    1    3    3    0    0  0.97592698674E+01 -0.21840936257E+01 -0.38995078214E+02  0.40257045824E+02  0.51100000000E-03 0. -1.
<mgrwt>
<rscale>  0 0.20002623E+02</rscale>
<asrwt>0</asrwt>
<pdfrwt beam="2">  1        1 0.12057203E-01 0.20002623E+02</pdfrwt>
<pdfrwt beam="1">  1       -1 0.19635439E-03 0.20002623E+02</pdfrwt>
<totfact> 0.43262601E+06</totfact>
</mgrwt>
</event>
<event>
 5    1  0.9583198E-007  0.2000480E+02  0.7818608E-02  0.1745233E+00
         -1   -1    0    0    0  501 -0.00000000000E+00  0.00000000000E+00  0.38721543954E+02  0.38721544236E+02  0.46700000000E-02 0.  1.
          1   -1    0    0  501    0  0.00000000000E+00 -0.00000000000E+00 -0.25837801785E+01  0.25837843988E+01  0.46700000000E-02 0. -1.
       1023    2    1    2    0    0  0.00000000000E+00  0.00000000000E+00  0.36137763776E+02  0.41305328635E+02  0.20004804496E+02 0.  0.
        -11    1    3    3    0    0 -0.90771887387E+01  0.42013189274E+01  0.18151841929E+02  0.20725245518E+02  0.51100000000E-03 0. -1.
         11    1    3    3    0    0  0.90771887387E+01 -0.42013189274E+01  0.17985921847E+02  0.20580083116E+02  0.51100000000E-03 0.  1.
<mgrwt>
<rscale>  0 0.20004804E+02</rscale>
<asrwt>0</asrwt>
<pdfrwt beam="2">  1        1 0.39750502E-03 0.20004804E+02</pdfrwt>
<pdfrwt beam="1">  1       -1 0.59571605E-02 0.20004804E+02</pdfrwt>
<totfact> 0.35751790E+06</totfact>
</mgrwt>
</event>
<event>
 5    1  0.9583198E-007  0.2000023E+02  0.7818608E-02  0.1745323E+00
         -1   -1    0    0    0  501 -0.00000000000E+00  0.00000000000E+00  0.84742557313E+00  0.84743844077E+00  0.46700000000E-02 0.  1.
          1   -1    0    0  501    0  0.00000000000E+00 -0.00000000000E+00 -0.11800627353E+03  0.11800627362E+03  0.46700000000E-02 0. -1.
       1023    2    1    2    0    0  0.00000000000E+00  0.00000000000E+00 -0.11715884795E+03  0.11885371206E+03  0.20000230414E+02 0.  0.
        -11    1    3    3    0    0  0.13341945460E+01  0.99107039735E+01 -0.58500686468E+02  0.59349241325E+02  0.51100000000E-03 0. -1.
         11    1    3    3    0    0 -0.13341945460E+01 -0.99107039735E+01 -0.58658161484E+02  0.59504470733E+02  0.51100000000E-03 0.  1.
<mgrwt>
<rscale>  0 0.20000230E+02</rscale>
<asrwt>0</asrwt>
<pdfrwt beam="2">  1        1 0.18154799E-01 0.20000230E+02</pdfrwt>
<pdfrwt beam="1">  1       -1 0.13037426E-03 0.20000230E+02</pdfrwt>
<totfact> 0.45207965E+06</totfact>
</mgrwt>
</event>
<event>
 5    1  0.9583198E-007  0.2000030E+02  0.7818608E-02  0.1745322E+00
          1   -1    0    0  501    0  0.00000000000E+00  0.00000000000E+00  0.11337962655E+03  0.11337962665E+03  0.46700000000E-02 0.  1.
         -1   -1    0    0    0  501 -0.00000000000E+00 -0.00000000000E+00 -0.88201257958E+00  0.88202494264E+00  0.46700000000E-02 0. -1.
       1023    2    1    2    0    0  0.00000000000E+00  0.00000000000E+00  0.11249761397E+03  0.11426165159E+03  0.20000296867E+02 0.  0.
        -11    1    3    3    0    0  0.91146340119E+01 -0.41141606344E+01  0.56192385225E+02  0.57075275106E+02  0.51100000000E-03 0.  1.
         11    1    3    3    0    0 -0.91146340119E+01  0.41141606344E+01  0.56305228748E+02  0.57186376485E+02  0.51100000000E-03 0. -1.
<mgrwt>
<rscale>  0 0.20000297E+02</rscale>
<asrwt>0</asrwt>
<pdfrwt beam="1">  1        1 0.17443020E-01 0.20000297E+02</pdfrwt>
<pdfrwt beam="2">  1       -1 0.13569520E-03 0.20000297E+02</pdfrwt>
<totfact> 0.44994020E+06</totfact>
</mgrwt>
</event>
<event>
 5    1  0.1022070E-006  0.2000133E+02  0.7818608E-02  0.1745302E+00
          1   -1    0    0  501    0  0.00000000000E+00  0.00000000000E+00  0.69994134420E+02  0.69994134576E+02  0.46700000000E-02 0. -1.
         -1   -1    0    0    0  501 -0.00000000000E+00 -0.00000000000E+00 -0.14288771888E+01  0.14288848203E+01  0.46700000000E-02 0.  1.
       1023    2    1    2    0    0  0.00000000000E+00  0.00000000000E+00  0.68565257231E+02  0.71423019396E+02  0.20001329968E+02 0.  0.
        -11    1    3    3    0    0 -0.98272746512E+01  0.18535538074E+01  0.34454295251E+02  0.35876307645E+02  0.51100000000E-03 0.  1.
         11    1    3    3    0    0  0.98272746512E+01 -0.18535538074E+01  0.34110961980E+02  0.35546711751E+02  0.51100000000E-03 0. -1.
<mgrwt>
<rscale>  0 0.20001330E+02</rscale>
<asrwt>0</asrwt>
<pdfrwt beam="1">  1        1 0.10768330E-01 0.20001330E+02</pdfrwt>
<pdfrwt beam="2">  1       -1 0.21982783E-03 0.20001330E+02</pdfrwt>
<totfact> 0.42827259E+06</totfact>
</mgrwt>
</event>
<event>
 5    1  0.9583198E-007  0.2000517E+02  0.7818608E-02  0.1745225E+00
          1   -1    0    0  501    0  0.00000000000E+00  0.00000000000E+00  0.49586607910E+02  0.49586608130E+02  0.46700000000E-02 0. -1.
         -1   -1    0    0    0  501 -0.00000000000E+00 -0.00000000000E+00 -0.20177136112E+01  0.20177190155E+01  0.46700000000E-02 0.  1.
       1023    2    1    2    0    0  0.00000000000E+00  0.00000000000E+00  0.47568894299E+02  0.51604327146E+02  0.20005171215E+02 0.  0.
        -11    1    3    3    0    0  0.99997462768E+01  0.22371876592E+00  0.23996267009E+02  0.25997419224E+02  0.51100000000E-03 0. -1.
         11    1    3    3    0    0 -0.99997462768E+01 -0.22371876592E+00  0.23572627290E+02  0.25606907922E+02  0.51100000000E-03 0.  1.
<mgrwt>
<rscale>  0 0.20005171E+02</rscale>
<asrwt>0</asrwt>
<pdfrwt beam="1">  1        1 0.76287094E-02 0.20005171E+02</pdfrwt>
<pdfrwt beam="2">  1       -1 0.31041791E-03 0.20005171E+02</pdfrwt>
<totfact> 0.41666619E+06</totfact>
</mgrwt>
</event>
<event>
 5    1  0.9583198E-007  0.2000206E+02  0.7818608E-02  0.1745287E+00
          1   -1    0    0  501    0  0.00000000000E+00  0.00000000000E+00  0.43558197248E+01  0.43558222282E+01  0.46700000000E-02 0. -1.
         -1   -1    0    0    0  501 -0.00000000000E+00 -0.00000000000E+00 -0.22962518319E+02  0.22962518793E+02  0.46700000000E-02 0.  1.
       1023    2    1    2    0    0  0.00000000000E+00  0.00000000000E+00 -0.18606698594E+02  0.27318341022E+02  0.20002062984E+02 0.  0.
        -11    1    3    3    0    0  0.10000846659E+02 -0.54557705451E-01 -0.93400023126E+01  0.13684135117E+02  0.51100000000E-03 0. -1.
         11    1    3    3    0    0 -0.10000846659E+02  0.54557705451E-01 -0.92666962812E+01  0.13634205905E+02  0.51100000000E-03 0.  1.
<mgrwt>
<rscale>  0 0.20002063E+02</rscale>
<asrwt>0</asrwt>
<pdfrwt beam="1">  1        1 0.67012635E-03 0.20002063E+02</pdfrwt>
<pdfrwt beam="2">  1       -1 0.35326953E-02 0.20002063E+02</pdfrwt>
<totfact> 0.37116094E+06</totfact>
</mgrwt>
</event>
<event>
 5    1  0.9894605E-007  0.2000190E+02  0.7818608E-02  0.1745290E+00
         -1   -1    0    0    0  501 -0.00000000000E+00  0.00000000000E+00  0.15573668551E+01  0.15573738570E+01  0.46700000000E-02 0.  1.
          1   -1    0    0  501    0  0.00000000000E+00 -0.00000000000E+00 -0.64222998233E+02  0.64222998402E+02  0.46700000000E-02 0. -1.
       1023    2    1    2    0    0  0.00000000000E+00  0.00000000000E+00 -0.62665631377E+02  0.65780372259E+02  0.20001900376E+02 0.  0.
        -11    1    3    3    0    0 -0.99434545779E+01  0.10626011326E+01 -0.30896590292E+02  0.32474616272E+02  0.51100000000E-03 0.  1.
         11    1    3    3    0    0  0.99434545779E+01 -0.10626011326E+01 -0.31769041086E+02  0.33305755987E+02  0.51100000000E-03 0. -1.
<mgrwt>
<rscale>  0 0.20001900E+02</rscale>
<asrwt>0</asrwt>
<pdfrwt beam="2">  1        1 0.98804598E-02 0.20001900E+02</pdfrwt>
<pdfrwt beam="1">  1       -1 0.23959550E-03 0.20001900E+02</pdfrwt>
<totfact> 0.42511562E+06</totfact>
</mgrwt>
</event>
<event>
 4    1  0.9583198E-007  0.2003297E+02  0.7818608E-02  0.1744673E+00
         -1   -1    0    0    0  501 -0.00000000000E+00  0.00000000000E+00  0.74846569396E+02  0.74846569542E+02  0.46700000000E-02 0.  1.
          1   -1    0    0  501    0  0.00000000000E+00 -0.00000000000E+00 -0.13404716621E+01  0.13404797968E+01  0.46700000000E-02 0. -1.
        -11    1    1    2    0    0  0.16743982151E+01  0.98591920233E+01  0.38913600270E+02  0.40178048273E+02  0.51100000000E-03 0. -1.
         11    1    1    2    0    0 -0.16743982151E+01 -0.98591920233E+01  0.34592497464E+02  0.36009001066E+02  0.51100000000E-03 0.  1.
<mgrwt>
<rscale>  0 0.20032975E+02</rscale>
<asrwt>0</asrwt>
<pdfrwt beam="2">  1        1 0.20622704E-03 0.20032975E+02</pdfrwt>
<pdfrwt beam="1">  1       -1 0.11514858E-01 0.20032975E+02</pdfrwt>
<totfact> 0.33181962E+06</totfact>
</mgrwt>
</event>
<event>
 5    1  0.9583198E-007  0.2000480E+02  0.7818608E-02  0.1745233E+00
         -1   -1    0    0    0  501 -0.00000000000E+00  0.00000000000E+00  0.10063483452E+02  0.10063484536E+02  0.46700000000E-02 0. -1.
          1   -1    0    0  501    0  0.00000000000E+00 -0.00000000000E+00 -0.99416828867E+01  0.99416839835E+01  0.46700000000E-02 0.  1.
       1023    2    1    2    0    0  0.00000000000E+00  0.00000000000E+00  0.12180056572E+00  0.20005168519E+02  0.20004797727E+02 0.  0.
        -11    1    3    3    0    0 -0.95250062729E+01 -0.30516200207E+01  0.16016700641E+00  0.10003188641E+02  0.51100000000E-03 0.  1.
         11    1    3    3    0    0  0.95250062729E+01  0.30516200207E+01 -0.38366440695E-01  0.10001979879E+02  0.51100000000E-03 0. -1.
<mgrwt>
<rscale>  0 0.20004798E+02</rscale>
<asrwt>0</asrwt>
<pdfrwt beam="2">  1        1 0.15294898E-02 0.20004798E+02</pdfrwt>
<pdfrwt beam="1">  1       -1 0.15482284E-02 0.20004798E+02</pdfrwt>
<totfact> 0.38593911E+06</totfact>
</mgrwt>
</event>
<event>
 5    1  0.9583198E-007  0.2000017E+02  0.7818608E-02  0.1745325E+00
          1   -1    0    0  501    0  0.00000000000E+00  0.00000000000E+00  0.32846991323E+01  0.32847024521E+01  0.46700000000E-02 0.  1.
         -1   -1    0    0    0  501 -0.00000000000E+00 -0.00000000000E+00 -0.30444685794E+02  0.30444686152E+02  0.46700000000E-02 0. -1.
       1023    2    1    2    0    0  0.00000000000E+00  0.00000000000E+00 -0.27159986661E+02  0.33729388604E+02  0.20000169503E+02 0.  0.
        -11    1    3    3    0    0  0.48026848889E+01 -0.87713096632E+01 -0.13569404167E+02  0.16856167567E+02  0.51100000000E-03 0.  1.
         11    1    3    3    0    0 -0.48026848889E+01  0.87713096632E+01 -0.13590582495E+02  0.16873221037E+02  0.51100000000E-03 0. -1.
<mgrwt>
<rscale>  0 0.20000170E+02</rscale>
<asrwt>0</asrwt>
<pdfrwt beam="1">  1        1 0.50533863E-03 0.20000170E+02</pdfrwt>
<pdfrwt beam="2">  1       -1 0.46837979E-02 0.20000170E+02</pdfrwt>
<totfact> 0.36447545E+06</totfact>
</mgrwt>
</event>
<event>
 4    1  0.9583198E-007  0.2019493E+02  0.7818608E-02  0.1741479E+00
          1   -1    0    0  501    0  0.00000000000E+00  0.00000000000E+00  0.87417748730E+01  0.87417761204E+01  0.46700000000E-02 0.  1.
         -1   -1    0    0    0  501 -0.00000000000E+00 -0.00000000000E+00 -0.11663395168E+02  0.11663396103E+02  0.46700000000E-02 0. -1.
        -11    1    1    2    0    0 -0.81817630293E+01 -0.59175090031E+01 -0.14352935819E+01  0.10198932640E+02  0.51100000000E-03 0.  1.
         11    1    1    2    0    0  0.81817630293E+01  0.59175090031E+01 -0.14863267130E+01  0.10206239583E+02  0.51100000000E-03 0. -1.
<mgrwt>
<rscale>  0 0.20194930E+02</rscale>
<asrwt>0</asrwt>
<pdfrwt beam="1">  1        1 0.13448886E-02 0.20194930E+02</pdfrwt>
<pdfrwt beam="2">  1       -1 0.17943687E-02 0.20194930E+02</pdfrwt>
<totfact> 0.37574829E+06</totfact>
</mgrwt>
</event>
<event>
 5    1  0.9851083E-007  0.2000231E+02  0.7818608E-02  0.1745282E+00
          1   -1    0    0  501    0  0.00000000000E+00  0.00000000000E+00  0.46428289648E+02  0.46428289883E+02  0.46700000000E-02 0. -1.
         -1   -1    0    0    0  501 -0.00000000000E+00 -0.00000000000E+00 -0.21543530627E+01  0.21543581243E+01  0.46700000000E-02 0.  1.
       1023    2    1    2    0    0  0.00000000000E+00  0.00000000000E+00  0.44273936585E+02  0.48582648007E+02  0.20002305533E+02 0.  0.
        -11    1    3    3    0    0  0.99706773477E+01 -0.76984406325E+00  0.22444098015E+02  0.24571214920E+02  0.51100000000E-03 0. -1.
         11    1    3    3    0    0 -0.99706773477E+01  0.76984406325E+00  0.21829838570E+02  0.24011433087E+02  0.51100000000E-03 0.  1.
<mgrwt>
<rscale>  0 0.20002306E+02</rscale>
<asrwt>0</asrwt>
<pdfrwt beam="1">  1        1 0.71428138E-02 0.20002306E+02</pdfrwt>
<pdfrwt beam="2">  1       -1 0.33143936E-03 0.20002306E+02</pdfrwt>
<totfact> 0.41492657E+06</totfact>
</mgrwt>
</event>
<event>
 5    1  0.9583198E-007  0.2000525E+02  0.7818608E-02  0.1745224E+00
         -1   -1    0    0    0  501 -0.00000000000E+00  0.00000000000E+00  0.10114251668E+01  0.10114359480E+01  0.46700000000E-02 0.  1.
          1   -1    0    0  501    0  0.00000000000E+00 -0.00000000000E+00 -0.98921782073E+02  0.98921782183E+02  0.46700000000E-02 0. -1.
       1023    2    1    2    0    0  0.00000000000E+00  0.00000000000E+00 -0.97910356906E+02  0.99933218131E+02  0.20005251725E+02 0.  0.
        -11    1    3    3    0    0 -0.97596552972E+01  0.21880342761E+01 -0.49549569764E+02  0.50548968630E+02  0.51100000000E-03 0. -1.
         11    1    3    3    0    0  0.97596552972E+01 -0.21880342761E+01 -0.48360787142E+02  0.49384249501E+02  0.51100000000E-03 0.  1.
<mgrwt>
<rscale>  0 0.20005252E+02</rscale>
<asrwt>0</asrwt>
<pdfrwt beam="2">  1        1 0.15218729E-01 0.20005252E+02</pdfrwt>
<pdfrwt beam="1">  1       -1 0.15560479E-03 0.20005252E+02</pdfrwt>
<totfact> 0.44282619E+06</totfact>
</mgrwt>
</event>
<event>
 5    1  0.9583198E-007  0.2000507E+02  0.7818608E-02  0.1745227E+00
          1   -1    0    0  501    0  0.00000000000E+00  0.00000000000E+00  0.18055223554E+01  0.18055283949E+01  0.46700000000E-02 0. -1.
         -1   -1    0    0    0  501 -0.00000000000E+00 -0.00000000000E+00 -0.55413622830E+02  0.55413623027E+02  0.46700000000E-02 0.  1.
       1023    2    1    2    0    0  0.00000000000E+00  0.00000000000E+00 -0.53608100475E+02  0.57219151422E+02  0.20005070680E+02 0.  0.
        -11    1    3    3    0    0  0.88002224626E+01  0.47506670606E+01 -0.26246781406E+02  0.28087475632E+02  0.51100000000E-03 0.  1.
         11    1    3    3    0    0 -0.88002224626E+01 -0.47506670606E+01 -0.27361319068E+02  0.29131675790E+02  0.51100000000E-03 0. -1.
<mgrwt>
<rscale>  0 0.20005071E+02</rscale>
<asrwt>0</asrwt>
<pdfrwt beam="1">  1        1 0.27777319E-03 0.20005071E+02</pdfrwt>
<pdfrwt beam="2">  1       -1 0.85251719E-02 0.20005071E+02</pdfrwt>
<totfact> 0.34532780E+06</totfact>
</mgrwt>
</event>
<event>
 5    1  0.9583198E-007  0.2000010E+02  0.7818608E-02  0.1745326E+00
          1   -1    0    0  501    0  0.00000000000E+00  0.00000000000E+00  0.28135232629E+01  0.28135271386E+01  0.46700000000E-02 0.  1.
         -1   -1    0    0    0  501 -0.00000000000E+00 -0.00000000000E+00 -0.35542935372E+02  0.35542935679E+02  0.46700000000E-02 0. -1.
       1023    2    1    2    0    0  0.00000000000E+00  0.00000000000E+00 -0.32729412110E+02  0.38356462818E+02  0.20000095571E+02 0.  0.
        -11    1    3    3    0    0  0.83542654086E+01 -0.54960652219E+01 -0.16323039958E+02  0.19142677900E+02  0.51100000000E-03 0. -1.
         11    1    3    3    0    0 -0.83542654086E+01  0.54960652219E+01 -0.16406372151E+02  0.19213784918E+02  0.51100000000E-03 0.  1.
<mgrwt>
<rscale>  0 0.20000096E+02</rscale>
<asrwt>0</asrwt>
<pdfrwt beam="1">  1        1 0.43285008E-03 0.20000096E+02</pdfrwt>
<pdfrwt beam="2">  1       -1 0.54681439E-02 0.20000096E+02</pdfrwt>
<totfact> 0.36023266E+06</totfact>
</mgrwt>
</event>
<event>
 5    1  0.9583198E-007  0.2000030E+02  0.7818608E-02  0.1745322E+00
         -1   -1    0    0    0  501 -0.00000000000E+00  0.00000000000E+00  0.10892942247E+03  0.10892942257E+03  0.46700000000E-02 0. -1.
          1   -1    0    0  501    0  0.00000000000E+00 -0.00000000000E+00 -0.91804723903E+00  0.91805911683E+00  0.46700000000E-02 0.  1.
       1023    2    1    2    0    0  0.00000000000E+00  0.00000000000E+00  0.10801137524E+03  0.10984748169E+03  0.20000301340E+02 0.  0.
        -11    1    3    3    0    0 -0.16621471673E+01 -0.98610110173E+01  0.53856112415E+02  0.54776665801E+02  0.51100000000E-03 0.  1.
         11    1    3    3    0    0  0.16621471673E+01  0.98610110173E+01  0.54155262820E+02  0.55070815891E+02  0.51100000000E-03 0. -1.
<mgrwt>
<rscale>  0 0.20000301E+02</rscale>
<asrwt>0</asrwt>
<pdfrwt beam="2">  1        1 0.14123901E-03 0.20000301E+02</pdfrwt>
<pdfrwt beam="1">  1       -1 0.16758367E-01 0.20000301E+02</pdfrwt>
<totfact> 0.31395928E+06</totfact>
</mgrwt>
</event>
<event>
 5    1  0.9583198E-007  0.2000152E+02  0.7818608E-02  0.1745298E+00
          1   -1    0    0  501    0  0.00000000000E+00  0.00000000000E+00  0.30096475359E+01  0.30096511591E+01  0.46700000000E-02 0. -1.
         -1   -1    0    0    0  501 -0.00000000000E+00 -0.00000000000E+00 -0.33231523423E+02  0.33231523751E+02  0.46700000000E-02 0.  1.
       1023    2    1    2    0    0  0.00000000000E+00  0.00000000000E+00 -0.30221875887E+02  0.36241174910E+02  0.20001524360E+02 0.  0.
        -11    1    3    3    0    0  0.92928048429E+01 -0.36956956322E+01 -0.15057929729E+02  0.18076383378E+02  0.51100000000E-03 0. -1.
         11    1    3    3    0    0 -0.92928048429E+01  0.36956956322E+01 -0.15163946158E+02  0.18164791532E+02  0.51100000000E-03 0.  1.
<mgrwt>
<rscale>  0 0.20001524E+02</rscale>
<asrwt>0</asrwt>
<pdfrwt beam="1">  1        1 0.46302302E-03 0.20001524E+02</pdfrwt>
<pdfrwt beam="2">  1       -1 0.51125421E-02 0.20001524E+02</pdfrwt>
<totfact> 0.36206952E+06</totfact>
</mgrwt>
</event>
<event>
 5    1  0.9583198E-007  0.2000060E+02  0.7818608E-02  0.1745316E+00
          1   -1    0    0  501    0  0.00000000000E+00  0.00000000000E+00  0.12249462202E+01  0.12249551221E+01  0.46700000000E-02 0. -1.
         -1   -1    0    0    0  501 -0.00000000000E+00 -0.00000000000E+00 -0.81640835450E+02  0.81640835584E+02  0.46700000000E-02 0.  1.
       1023    2    1    2    0    0  0.00000000000E+00  0.00000000000E+00 -0.80415889230E+02  0.82865790706E+02  0.20000600707E+02 0.  0.
        -11    1    3    3    0    0 -0.99614129649E+01 -0.87853062251E+00 -0.39931791212E+02  0.41164906340E+02  0.51100000000E-03 0. -1.
         11    1    3    3    0    0  0.99614129649E+01  0.87853062251E+00 -0.40484098018E+02  0.41700884366E+02  0.51100000000E-03 0.  1.
<mgrwt>
<rscale>  0 0.20000601E+02</rscale>
<asrwt>0</asrwt>
<pdfrwt beam="1">  1        1 0.18845402E-03 0.20000601E+02</pdfrwt>
<pdfrwt beam="2">  1       -1 0.12560125E-01 0.20000601E+02</pdfrwt>
<totfact> 0.32894718E+06</totfact>
</mgrwt>
</event>
<event>
 5    1  0.9583198E-007  0.2000759E+02  0.7818608E-02  0.1745177E+00
          1   -1    0    0  501    0  0.00000000000E+00  0.00000000000E+00  0.68730855804E+01  0.68730871670E+01  0.46700000000E-02 0. -1.
         -1   -1    0    0    0  501 -0.00000000000E+00 -0.00000000000E+00 -0.14560544923E+02  0.14560545672E+02  0.46700000000E-02 0.  1.
       1023    2    1    2    0    0  0.00000000000E+00  0.00000000000E+00 -0.76874593426E+01  0.21433632839E+02  0.20007588199E+02 0.  0.
        -11    1    3    3    0    0 -0.64515443148E+01 -0.76445024284E+01 -0.37122867911E+01  0.10669672671E+02  0.51100000000E-03 0.  1.
         11    1    3    3    0    0  0.64515443148E+01  0.76445024284E+01 -0.39751725516E+01  0.10763960168E+02  0.51100000000E-03 0. -1.
<mgrwt>
<rscale>  0 0.20007588E+02</rscale>
<asrwt>0</asrwt>
<pdfrwt beam="1">  1        1 0.10573980E-02 0.20007588E+02</pdfrwt>
<pdfrwt beam="2">  1       -1 0.22400840E-02 0.20007588E+02</pdfrwt>
<totfact> 0.37980244E+06</totfact>
</mgrwt>
</event>
<event>
 5    1  0.9583198E-007  0.2000144E+02  0.7818608E-02  0.1745299E+00
          1   -1    0    0  501    0  0.00000000000E+00  0.00000000000E+00  0.94280650497E+00  0.94281807085E+00  0.46700000000E-02 0. -1.
         -1   -1    0    0    0  501 -0.00000000000E+00 -0.00000000000E+00 -0.10608093894E+03  0.10608093905E+03  0.46700000000E-02 0.  1.
       1023    2    1    2    0    0  0.00000000000E+00  0.00000000000E+00 -0.10513813244E+03  0.10702375712E+03  0.20001442318E+02 0.  0.
        -11    1    3    3    0    0 -0.54604317962E+01 -0.83780656932E+01 -0.52150358512E+02  0.53100547957E+02  0.51100000000E-03 0.  1.
         11    1    3    3    0    0  0.54604317962E+01  0.83780656932E+01 -0.52987773927E+02  0.53923209161E+02  0.51100000000E-03 0. -1.
<mgrwt>
<rscale>  0 0.20001442E+02</rscale>
<asrwt>0</asrwt>
<pdfrwt beam="1">  1        1 0.14504814E-03 0.20001442E+02</pdfrwt>
<pdfrwt beam="2">  1       -1 0.16320136E-01 0.20001442E+02</pdfrwt>
<totfact> 0.31540336E+06</totfact>
</mgrwt>
</event>
<event>
 5    1  0.9583198E-007  0.2000106E+02  0.7818608E-02  0.1745307E+00
         -1   -1    0    0    0  501 -0.00000000000E+00  0.00000000000E+00  0.72453175089E+02  0.72453175239E+02  0.46700000000E-02 0.  1.
          1   -1    0    0  501    0  0.00000000000E+00 -0.00000000000E+00 -0.13803439493E+01  0.13803518490E+01  0.46700000000E-02 0. -1.
       1023    2    1    2    0    0  0.00000000000E+00  0.00000000000E+00  0.71072831139E+02  0.73833527088E+02  0.20001059875E+02 0.  0.
        -11    1    3    3    0    0 -0.20480904847E+01 -0.97880934932E+01  0.35889524626E+02  0.37256669564E+02  0.51100000000E-03 0. -1.
         11    1    3    3    0    0  0.20480904847E+01  0.97880934932E+01  0.35183306514E+02  0.36576857524E+02  0.51100000000E-03 0.  1.
<mgrwt>
<rscale>  0 0.20001060E+02</rscale>
<asrwt>0</asrwt>
<pdfrwt beam="2">  1        1 0.21236119E-03 0.20001060E+02</pdfrwt>
<pdfrwt beam="1">  1       -1 0.11146645E-01 0.20001060E+02</pdfrwt>
<totfact> 0.33444574E+06</totfact>
</mgrwt>
</event>
<event>
 5    1  0.9583198E-007  0.2000039E+02  0.7818608E-02  0.1745320E+00
         -1   -1    0    0    0  501 -0.00000000000E+00  0.00000000000E+00  0.10149852175E+03  0.10149852186E+03  0.46700000000E-02 0. -1.
          1   -1    0    0  501    0  0.00000000000E+00 -0.00000000000E+00 -0.98526916429E+00  0.98528023171E+00  0.46700000000E-02 0.  1.
       1023    2    1    2    0    0  0.00000000000E+00  0.00000000000E+00  0.10051325259E+03  0.10248380209E+03  0.20000393629E+02 0.  0.
        -11    1    3    3    0    0  0.66455197907E+01  0.74725370913E+01  0.50496540663E+02  0.51477202363E+02  0.51100000000E-03 0.  1.
         11    1    3    3    0    0 -0.66455197907E+01 -0.74725370913E+01  0.50016711925E+02  0.51006599729E+02  0.51100000000E-03 0. -1.
<mgrwt>
<rscale>  0 0.20000394E+02</rscale>
<asrwt>0</asrwt>
<pdfrwt beam="2">  1        1 0.15158065E-03 0.20000394E+02</pdfrwt>
<pdfrwt beam="1">  1       -1 0.15615166E-01 0.20000394E+02</pdfrwt>
<totfact> 0.31786221E+06</totfact>
</mgrwt>
</event>
<event>
 5    1  0.9873401E-007  0.2000136E+02  0.7818608E-02  0.1745301E+00
         -1   -1    0    0    0  501 -0.00000000000E+00  0.00000000000E+00  0.69193414012E+01  0.69193429772E+01  0.46700000000E-02 0.  1.
          1   -1    0    0  501    0  0.00000000000E+00 -0.00000000000E+00 -0.14454209950E+02  0.14454210704E+02  0.46700000000E-02 0. -1.
       1023    2    1    2    0    0  0.00000000000E+00  0.00000000000E+00 -0.75348685489E+01  0.21373553682E+02  0.20001363777E+02 0.  0.
        -11    1    3    3    0    0  0.86302027449E+01 -0.50528063146E+01 -0.38196419546E+01  0.10705181736E+02  0.51100000000E-03 0. -1.
         11    1    3    3    0    0 -0.86302027449E+01  0.50528063146E+01 -0.37152265942E+01  0.10668371946E+02  0.51100000000E-03 0.  1.
<mgrwt>
<rscale>  0 0.20001364E+02</rscale>
<asrwt>0</asrwt>
<pdfrwt beam="2">  1        1 0.22237248E-02 0.20001364E+02</pdfrwt>
<pdfrwt beam="1">  1       -1 0.10645142E-02 0.20001364E+02</pdfrwt>
<totfact> 0.39181474E+06</totfact>
</mgrwt>
</event>
<event>
 5    1  0.9670497E-007  0.2000073E+02  0.7818608E-02  0.1745313E+00
          1   -1    0    0  501    0  0.00000000000E+00  0.00000000000E+00  0.98636251998E+01  0.98636263053E+01  0.46700000000E-02 0. -1.
         -1   -1    0    0    0  501 -0.00000000000E+00 -0.00000000000E+00 -0.10139002377E+02  0.10139003453E+02  0.46700000000E-02 0.  1.
       1023    2    1    2    0    0  0.00000000000E+00  0.00000000000E+00 -0.27537717748E+00  0.20002629758E+02  0.20000734103E+02 0.  0.
        -11    1    3    3    0    0 -0.58403681939E+00 -0.99832078792E+01 -0.18014652651E+00  0.10001899400E+02  0.51100000000E-03 0.  1.
         11    1    3    3    0    0  0.58403681939E+00  0.99832078792E+01 -0.95230650970E-01  0.10000730359E+02  0.51100000000E-03 0. -1.
<mgrwt>
<rscale>  0 0.20000734E+02</rscale>
<asrwt>0</asrwt>
<pdfrwt beam="1">  1        1 0.15174810E-02 0.20000734E+02</pdfrwt>
<pdfrwt beam="2">  1       -1 0.15598467E-02 0.20000734E+02</pdfrwt>
<totfact> 0.38599447E+06</totfact>
</mgrwt>
</event>
<event>
 5    1  0.9692037E-007  0.2000125E+02  0.7818608E-02  0.1745303E+00
         -1   -1    0    0    0  501 -0.00000000000E+00  0.00000000000E+00  0.68769754153E+02  0.68769754311E+02  0.46700000000E-02 0.  1.
          1   -1    0    0  501    0  0.00000000000E+00 -0.00000000000E+00 -0.14543051147E+01  0.14543126127E+01  0.46700000000E-02 0. -1.
       1023    2    1    2    0    0  0.00000000000E+00  0.00000000000E+00  0.67315449038E+02  0.70224066924E+02  0.20001247365E+02 0.  0.
        -11    1    3    3    0    0 -0.14865588712E+01  0.98891069909E+01  0.33340190487E+02  0.34807651405E+02  0.51100000000E-03 0. -1.
         11    1    3    3    0    0  0.14865588712E+01 -0.98891069909E+01  0.33975258551E+02  0.35416415519E+02  0.51100000000E-03 0.  1.
<mgrwt>
<rscale>  0 0.20001247E+02</rscale>
<asrwt>0</asrwt>
<pdfrwt beam="2">  1        1 0.22373983E-03 0.20001247E+02</pdfrwt>
<pdfrwt beam="1">  1       -1 0.10579963E-01 0.20001247E+02</pdfrwt>
<totfact> 0.33672820E+06</totfact>
</mgrwt>
</event>
<event>
 5    1  0.9583198E-007  0.2000016E+02  0.7818608E-02  0.1745325E+00
         -1   -1    0    0    0  501 -0.00000000000E+00  0.00000000000E+00  0.36084410734E+01  0.36084440954E+01  0.46700000000E-02 0. -1.
          1   -1    0    0  501    0  0.00000000000E+00 -0.00000000000E+00 -0.27713233601E+02  0.27713233994E+02  0.46700000000E-02 0.  1.
       1023    2    1    2    0    0  0.00000000000E+00  0.00000000000E+00 -0.24104792527E+02  0.31321678089E+02  0.20000162388E+02 0.  0.
        -11    1    3    3    0    0  0.11295935616E+01  0.99360132474E+01 -0.12108486173E+02  0.15704005174E+02  0.51100000000E-03 0. -1.
         11    1    3    3    0    0 -0.11295935616E+01 -0.99360132474E+01 -0.11996306355E+02  0.15617672915E+02  0.51100000000E-03 0.  1.
<mgrwt>
<rscale>  0 0.20000162E+02</rscale>
<asrwt>0</asrwt>
<pdfrwt beam="2">  1        1 0.42635745E-02 0.20000162E+02</pdfrwt>
<pdfrwt beam="1">  1       -1 0.55514506E-03 0.20000162E+02</pdfrwt>
<totfact> 0.40295995E+06</totfact>
</mgrwt>
</event>
<event>
 5    1  0.9583198E-007  0.2000470E+02  0.7818608E-02  0.1745235E+00
         -1   -1    0    0    0  501 -0.00000000000E+00  0.00000000000E+00  0.39471654186E+02  0.39471654462E+02  0.46700000000E-02 0.  1.
          1   -1    0    0  501    0  0.00000000000E+00 -0.00000000000E+00 -0.25346515515E+01  0.25346558536E+01  0.46700000000E-02 0. -1.
       1023    2    1    2    0    0  0.00000000000E+00  0.00000000000E+00  0.36937002634E+02  0.42006310316E+02  0.20004698017E+02 0.  0.
        -11    1    3    3    0    0  0.85655537249E+01 -0.51645286157E+01  0.18306951598E+02  0.20861101205E+02  0.51100000000E-03 0.  1.
         11    1    3    3    0    0 -0.85655537249E+01  0.51645286157E+01  0.18630051037E+02  0.21145209111E+02  0.51100000000E-03 0. -1.
<mgrwt>
<rscale>  0 0.20004698E+02</rscale>
<asrwt>0</asrwt>
<pdfrwt beam="2">  1        1 0.38994677E-03 0.20004698E+02</pdfrwt>
<pdfrwt beam="1">  1       -1 0.60725621E-02 0.20004698E+02</pdfrwt>
<totfact> 0.35693700E+06</totfact>
</mgrwt>
</event>
<event>
 5    1  0.9583198E-007  0.2000088E+02  0.7818608E-02  0.1745311E+00
         -1   -1    0    0    0  501 -0.00000000000E+00  0.00000000000E+00  0.22865539967E+02  0.22865540443E+02  0.46700000000E-02 0.  1.
          1   -1    0    0  501    0  0.00000000000E+00 -0.00000000000E+00 -0.43737750082E+01  0.43737775014E+01  0.46700000000E-02 0. -1.
       1023    2    1    2    0    0  0.00000000000E+00  0.00000000000E+00  0.18491764958E+02  0.27239317945E+02  0.20000876751E+02 0.  0.
        -11    1    3    3    0    0  0.76740859208E+01  0.64115879577E+01  0.93730044825E+01  0.13705957396E+02  0.51100000000E-03 0. -1.
         11    1    3    3    0    0 -0.76740859208E+01 -0.64115879577E+01  0.91187604758E+01  0.13533360549E+02  0.51100000000E-03 0.  1.
<mgrwt>
<rscale>  0 0.20000877E+02</rscale>
<asrwt>0</asrwt>
<pdfrwt beam="2">  1        1 0.67288870E-03 0.20000877E+02</pdfrwt>
<pdfrwt beam="1">  1       -1 0.35177756E-02 0.20000877E+02</pdfrwt>
<totfact> 0.37130232E+06</totfact>
</mgrwt>
</event>
<event>
 5    1  0.9583198E-007  0.2000012E+02  0.7818608E-02  0.1745326E+00
         -1   -1    0    0    0  501 -0.00000000000E+00  0.00000000000E+00  0.89163470433E+02  0.89163470556E+02  0.46700000000E-02 0.  1.
          1   -1    0    0  501    0  0.00000000000E+00 -0.00000000000E+00 -0.11215441960E+01  0.11215539187E+01  0.46700000000E-02 0. -1.
       1023    2    1    2    0    0  0.00000000000E+00  0.00000000000E+00  0.88041926237E+02  0.90285024474E+02  0.20000121719E+02 0.  0.
        -11    1    3    3    0    0  0.73305770128E+01  0.68017495721E+01  0.44056030495E+02  0.45176708377E+02  0.51100000000E-03 0. -1.
         11    1    3    3    0    0 -0.73305770128E+01 -0.68017495721E+01  0.43985895743E+02  0.45108316097E+02  0.51100000000E-03 0.  1.
<mgrwt>
<rscale>  0 0.20000122E+02</rscale>
<asrwt>0</asrwt>
<pdfrwt beam="2">  1        1 0.17254601E-03 0.20000122E+02</pdfrwt>
<pdfrwt beam="1">  1       -1 0.13717458E-01 0.20000122E+02</pdfrwt>
<totfact> 0.32463869E+06</totfact>
</mgrwt>
</event>
<event>
 4    1  0.9583198E-007  0.2001955E+02  0.7818608E-02  0.1744940E+00
          1   -1    0    0  501    0  0.00000000000E+00  0.00000000000E+00  0.19305008596E+01  0.19305065081E+01  0.46700000000E-02 0. -1.
         -1   -1    0    0    0  501 -0.00000000000E+00 -0.00000000000E+00 -0.51901250355E+02  0.51901250565E+02  0.46700000000E-02 0.  1.
        -11    1    1    2    0    0  0.92121211482E+01  0.39108168757E+01 -0.25508867426E+02  0.27401824434E+02  0.51100000000E-03 0. -1.
         11    1    1    2    0    0 -0.92121211482E+01 -0.39108168757E+01 -0.24461882069E+02  0.26429932639E+02  0.51100000000E-03 0.  1.
<mgrwt>
<rscale>  0 0.20019547E+02</rscale>
<asrwt>0</asrwt>
<pdfrwt beam="1">  1        1 0.29700062E-03 0.20019547E+02</pdfrwt>
<pdfrwt beam="2">  1       -1 0.79848071E-02 0.20019547E+02</pdfrwt>
<totfact> 0.34720650E+06</totfact>
</mgrwt>
</event>
<event>
 5    1  0.9583198E-007  0.2000322E+02  0.7818608E-02  0.1745264E+00
         -1   -1    0    0    0  501 -0.00000000000E+00  0.00000000000E+00  0.10410771033E+01  0.10410875774E+01  0.46700000000E-02 0.  1.
          1   -1    0    0  501    0  0.00000000000E+00 -0.00000000000E+00 -0.96084769237E+02  0.96084769350E+02  0.46700000000E-02 0. -1.
       1023    2    1    2    0    0  0.00000000000E+00  0.00000000000E+00 -0.95043692134E+02  0.97125856928E+02  0.20003216481E+02 0.  0.
        -11    1    3    3    0    0  0.96598479874E+01 -0.25920963993E+01 -0.47408988321E+02  0.48452490140E+02  0.51100000000E-03 0.  1.
         11    1    3    3    0    0 -0.96598479874E+01  0.25920963993E+01 -0.47634703812E+02  0.48673366787E+02  0.51100000000E-03 0. -1.
<mgrwt>
<rscale>  0 0.20003216E+02</rscale>
<asrwt>0</asrwt>
<pdfrwt beam="2">  1        1 0.14782266E-01 0.20003216E+02</pdfrwt>
<pdfrwt beam="1">  1       -1 0.16016660E-03 0.20003216E+02</pdfrwt>
<totfact> 0.44153907E+06</totfact>
</mgrwt>
</event>
<event>
 5    1  0.1007440E-006  0.2000107E+02  0.7818608E-02  0.1745307E+00
         -1   -1    0    0    0  501 -0.00000000000E+00  0.00000000000E+00  0.15345875026E+01  0.15345946084E+01  0.46700000000E-02 0.  1.
          1   -1    0    0  501    0  0.00000000000E+00 -0.00000000000E+00 -0.65170938331E+02  0.65170938498E+02  0.46700000000E-02 0. -1.
       1023    2    1    2    0    0  0.00000000000E+00  0.00000000000E+00 -0.63636350828E+02  0.66705533107E+02  0.20001074978E+02 0.  0.
        -11    1    3    3    0    0  0.82239958208E+01 -0.56896325571E+01 -0.31588951650E+02  0.33134089583E+02  0.51100000000E-03 0.  1.
         11    1    3    3    0    0 -0.82239958208E+01  0.56896325571E+01 -0.32047399178E+02  0.33571443524E+02  0.51100000000E-03 0. -1.
<mgrwt>
<rscale>  0 0.20001075E+02</rscale>
<asrwt>0</asrwt>
<pdfrwt beam="2">  1        1 0.10026297E-01 0.20001075E+02</pdfrwt>
<pdfrwt beam="1">  1       -1 0.23609099E-03 0.20001075E+02</pdfrwt>
<totfact> 0.42567373E+06</totfact>
</mgrwt>
</event>
<event>
 5    1  0.9800301E-007  0.2000211E+02  0.7818608E-02  0.1745286E+00
          1   -1    0    0  501    0  0.00000000000E+00  0.00000000000E+00  0.19260864657E+02  0.19260865223E+02  0.46700000000E-02 0. -1.
         -1   -1    0    0    0  501 -0.00000000000E+00 -0.00000000000E+00 -0.51929698853E+01  0.51929719852E+01  0.46700000000E-02 0.  1.
       1023    2    1    2    0    0  0.00000000000E+00  0.00000000000E+00  0.14067894771E+02  0.24453837208E+02  0.20002112161E+02 0.  0.
        -11    1    3    3    0    0  0.42611101741E+01  0.90474547228E+01  0.69271875781E+01  0.12165501423E+02  0.51100000000E-03 0.  1.
         11    1    3    3    0    0 -0.42611101741E+01 -0.90474547228E+01  0.71407071934E+01  0.12288335785E+02  0.51100000000E-03 0. -1.
<mgrwt>
<rscale>  0 0.20002112E+02</rscale>
<asrwt>0</asrwt>
<pdfrwt beam="1">  1        1 0.29632101E-02 0.20002112E+02</pdfrwt>
<pdfrwt beam="2">  1       -1 0.79891865E-03 0.20002112E+02</pdfrwt>
<totfact> 0.39633826E+06</totfact>
</mgrwt>
</event>
<event>
 5    1  0.9583198E-007  0.2000029E+02  0.7818608E-02  0.1745322E+00
         -1   -1    0    0    0  501 -0.00000000000E+00  0.00000000000E+00  0.73136459797E+01  0.73136474706E+01  0.46700000000E-02 0. -1.
          1   -1    0    0  501    0  0.00000000000E+00 -0.00000000000E+00 -0.13673469791E+02  0.13673470589E+02  0.46700000000E-02 0.  1.
       1023    2    1    2    0    0  0.00000000000E+00  0.00000000000E+00 -0.63598238118E+01  0.20987118060E+02  0.20000294136E+02 0.  0.
        -11    1    3    3    0    0  0.91455868364E+01  0.40448713968E+01 -0.31651492973E+01  0.10489085448E+02  0.51100000000E-03 0.  1.
         11    1    3    3    0    0 -0.91455868364E+01 -0.40448713968E+01 -0.31946745145E+01  0.10498032612E+02  0.51100000000E-03 0. -1.
<mgrwt>
<rscale>  0 0.20000294E+02</rscale>
<asrwt>0</asrwt>
<pdfrwt beam="2">  1        1 0.21036109E-02 0.20000294E+02</pdfrwt>
<pdfrwt beam="1">  1       -1 0.11251765E-02 0.20000294E+02</pdfrwt>
<totfact> 0.39101102E+06</totfact>
</mgrwt>
</event>
<event>
 5    1  0.9827267E-007  0.2000233E+02  0.7818608E-02  0.1745282E+00
         -1   -1    0    0    0  501 -0.00000000000E+00  0.00000000000E+00  0.63077269027E+01  0.63077286315E+01  0.46700000000E-02 0.  1.
          1   -1    0    0  501    0  0.00000000000E+00 -0.00000000000E+00 -0.15857266615E+02  0.15857267302E+02  0.46700000000E-02 0. -1.
       1023    2    1    2    0    0  0.00000000000E+00  0.00000000000E+00 -0.95495397121E+01  0.22164995934E+02  0.20002333265E+02 0.  0.
        -11    1    3    3    0    0  0.61349983070E+01 -0.78975797629E+01 -0.49028688282E+01  0.11137687971E+02  0.51100000000E-03 0. -1.
         11    1    3    3    0    0 -0.61349983070E+01  0.78975797629E+01 -0.46466708839E+01  0.11027307963E+02  0.51100000000E-03 0.  1.
<mgrwt>
<rscale>  0 0.20002333E+02</rscale>
<asrwt>0</asrwt>
<pdfrwt beam="2">  1        1 0.24395796E-02 0.20002333E+02</pdfrwt>
<pdfrwt beam="1">  1       -1 0.97041972E-03 0.20002333E+02</pdfrwt>
<totfact> 0.39320766E+06</totfact>
</mgrwt>
</event>
<event>
 5    1  0.9583198E-007  0.2000046E+02  0.7818608E-02  0.1745319E+00
         -1   -1    0    0    0  501 -0.00000000000E+00  0.00000000000E+00  0.65764045165E+02  0.65764045331E+02  0.46700000000E-02 0. -1.
          1   -1    0    0  501    0  0.00000000000E+00 -0.00000000000E+00 -0.15206543848E+01  0.15206615557E+01  0.46700000000E-02 0.  1.
       1023    2    1    2    0    0  0.00000000000E+00  0.00000000000E+00  0.64243390780E+02  0.67284706887E+02  0.20000463041E+02 0.  0.
        -11    1    3    3    0    0  0.67992517964E+01 -0.73331015388E+01  0.32052175460E+02  0.33575975863E+02  0.51100000000E-03 0. -1.
         11    1    3    3    0    0 -0.67992517964E+01  0.73331015388E+01  0.32191215321E+02  0.33708731024E+02  0.51100000000E-03 0.  1.
<mgrwt>
<rscale>  0 0.20000463E+02</rscale>
<asrwt>0</asrwt>
<pdfrwt beam="2">  1        1 0.23394740E-03 0.20000463E+02</pdfrwt>
<pdfrwt beam="1">  1       -1 0.10117546E-01 0.20000463E+02</pdfrwt>
<totfact> 0.33866179E+06</totfact>
</mgrwt>
</event>
<event>
 5    1  0.1035700E-006  0.2000224E+02  0.7818608E-02  0.1745284E+00
          1   -1    0    0  501    0  0.00000000000E+00  0.00000000000E+00  0.89818169409E+02  0.89818169531E+02  0.46700000000E-02 0. -1.
         -1   -1    0    0    0  501 -0.00000000000E+00 -0.00000000000E+00 -0.11136044112E+01  0.11136142032E+01  0.46700000000E-02 0.  1.
       1023    2    1    2    0    0  0.00000000000E+00  0.00000000000E+00  0.88704564998E+02  0.90931783734E+02  0.20002235913E+02 0.  0.
        -11    1    3    3    0    0 -0.90626400925E+01  0.42275525063E+01  0.44974190353E+02  0.46072567151E+02  0.51100000000E-03 0.  1.
         11    1    3    3    0    0  0.90626400925E+01 -0.42275525063E+01  0.43730374645E+02  0.44859216583E+02  0.51100000000E-03 0. -1.
<mgrwt>
<rscale>  0 0.20002236E+02</rscale>
<asrwt>0</asrwt>
<pdfrwt beam="1">  1        1 0.13818180E-01 0.20002236E+02</pdfrwt>
<pdfrwt beam="2">  1       -1 0.17132453E-03 0.20002236E+02</pdfrwt>
<totfact> 0.43847913E+06</totfact>
</mgrwt>
</event>
<event>
 5    1  0.9583198E-007  0.2000055E+02  0.7818608E-02  0.1745317E+00
          1   -1    0    0  501    0  0.00000000000E+00  0.00000000000E+00  0.30302421097E+02  0.30302421457E+02  0.46700000000E-02 0.  1.
         -1   -1    0    0    0  501 -0.00000000000E+00 -0.00000000000E+00 -0.33002458995E+01  0.33002492037E+01  0.46700000000E-02 0. -1.
       1023    2    1    2    0    0  0.00000000000E+00  0.00000000000E+00  0.27002175198E+02  0.33602670661E+02  0.20000550246E+02 0.  0.
        -11    1    3    3    0    0 -0.47504333710E+01  0.87998989584E+01  0.13457814980E+02  0.16766562653E+02  0.51100000000E-03 0. -1.
         11    1    3    3    0    0  0.47504333710E+01 -0.87998989584E+01  0.13544360217E+02  0.16836108008E+02  0.51100000000E-03 0.  1.
<mgrwt>
<rscale>  0 0.20000550E+02</rscale>
<asrwt>0</asrwt>
<pdfrwt beam="1">  1        1 0.46619112E-02 0.20000550E+02</pdfrwt>
<pdfrwt beam="2">  1       -1 0.50773042E-03 0.20000550E+02</pdfrwt>
<totfact> 0.40474986E+06</totfact>
</mgrwt>
</event>
<event>
 5    1  0.9583198E-007  0.2001181E+02  0.7818608E-02  0.1745093E+00
         -1   -1    0    0    0  501 -0.00000000000E+00  0.00000000000E+00  0.13254319309E+01  0.13254401579E+01  0.46700000000E-02 0. -1.
          1   -1    0    0  501    0  0.00000000000E+00 -0.00000000000E+00 -0.75535955682E+02  0.75535955827E+02  0.46700000000E-02 0.  1.
       1023    2    1    2    0    0  0.00000000000E+00  0.00000000000E+00 -0.74210523751E+02  0.76861395985E+02  0.20011805447E+02 0.  0.
        -11    1    3    3    0    0  0.11394889560E+01 -0.99394538182E+01 -0.37735338078E+02  0.39039043500E+02  0.51100000000E-03 0.  1.
         11    1    3    3    0    0 -0.11394889560E+01  0.99394538182E+01 -0.36475185674E+02  0.37822352485E+02  0.51100000000E-03 0. -1.
<mgrwt>
<rscale>  0 0.20011805E+02</rscale>
<asrwt>0</asrwt>
<pdfrwt beam="2">  1        1 0.11620914E-01 0.20011805E+02</pdfrwt>
<pdfrwt beam="1">  1       -1 0.20391331E-03 0.20011805E+02</pdfrwt>
<totfact> 0.43070960E+06</totfact>
</mgrwt>
</event>
<event>
 5    1  0.9674077E-007  0.2000103E+02  0.7818608E-02  0.1745308E+00
         -1   -1    0    0    0  501 -0.00000000000E+00  0.00000000000E+00  0.52578353235E+01  0.52578373974E+01  0.46700000000E-02 0.  1.
          1   -1    0    0  501    0  0.00000000000E+00 -0.00000000000E+00 -0.19021183837E+02  0.19021184410E+02  0.46700000000E-02 0. -1.
       1023    2    1    2    0    0  0.00000000000E+00  0.00000000000E+00 -0.13763348514E+02  0.24279021808E+02  0.20001028414E+02 0.  0.
        -11    1    3    3    0    0  0.96108158024E+01  0.27633476548E+01 -0.67844607992E+01  0.12084402312E+02  0.51100000000E-03 0.  1.
         11    1    3    3    0    0 -0.96108158024E+01 -0.27633476548E+01 -0.69788877146E+01  0.12194619496E+02  0.51100000000E-03 0. -1.
<mgrwt>
<rscale>  0 0.20001028E+02</rscale>
<asrwt>0</asrwt>
<pdfrwt beam="2">  1        1 0.29263361E-02 0.20001028E+02</pdfrwt>
<pdfrwt beam="1">  1       -1 0.80889796E-03 0.20001028E+02</pdfrwt>
<totfact> 0.39617996E+06</totfact>
</mgrwt>
</event>
<event>
 5    1  0.9583198E-007  0.2000007E+02  0.7818608E-02  0.1745327E+00
         -1   -1    0    0    0  501 -0.00000000000E+00  0.00000000000E+00  0.40849562734E+01  0.40849589428E+01  0.46700000000E-02 0.  1.
          1   -1    0    0  501    0  0.00000000000E+00 -0.00000000000E+00 -0.24480222375E+02  0.24480222820E+02  0.46700000000E-02 0. -1.
       1023    2    1    2    0    0  0.00000000000E+00  0.00000000000E+00 -0.20395266101E+02  0.28565181763E+02  0.20000068245E+02 0.  0.
        -11    1    3    3    0    0  0.15415559828E+01  0.98804994208E+01 -0.10203782705E+02  0.14286981675E+02  0.51100000000E-03 0. -1.
         11    1    3    3    0    0 -0.15415559828E+01 -0.98804994208E+01 -0.10191483397E+02  0.14278200088E+02  0.51100000000E-03 0.  1.
<mgrwt>
<rscale>  0 0.20000068E+02</rscale>
<asrwt>0</asrwt>
<pdfrwt beam="2">  1        1 0.37661882E-02 0.20000068E+02</pdfrwt>
<pdfrwt beam="1">  1       -1 0.62845506E-03 0.20000068E+02</pdfrwt>
<totfact> 0.40060120E+06</totfact>
</mgrwt>
</event>
<event>
 4    1  0.9583198E-007  0.2005450E+02  0.7818608E-02  0.1744247E+00
         -1   -1    0    0    0  501 -0.00000000000E+00  0.00000000000E+00  0.11528226885E+01  0.11528321473E+01  0.46700000000E-02 0.  1.
          1   -1    0    0  501    0  0.00000000000E+00 -0.00000000000E+00 -0.87216609832E+02  0.87216609957E+02  0.46700000000E-02 0. -1.
        -11    1    1    2    0    0  0.99027553058E+01  0.14693392914E+01 -0.40530708360E+02  0.41748794486E+02  0.51100000000E-03 0.  1.
         11    1    1    2    0    0 -0.99027553058E+01 -0.14693392914E+01 -0.45533078783E+02  0.46620647618E+02  0.51100000000E-03 0. -1.
<mgrwt>
<rscale>  0 0.20054497E+02</rscale>
<asrwt>0</asrwt>
<pdfrwt beam="2">  1        1 0.13417936E-01 0.20054497E+02</pdfrwt>
<pdfrwt beam="1">  1       -1 0.17735814E-03 0.20054497E+02</pdfrwt>
<totfact> 0.43465683E+06</totfact>
</mgrwt>
</event>
<event>
 5    1  0.9583198E-007  0.2000013E+02  0.7818608E-02  0.1745325E+00
         -1   -1    0    0    0  501 -0.00000000000E+00  0.00000000000E+00  0.18612659907E+02  0.18612660493E+02  0.46700000000E-02 0.  1.
          1   -1    0    0  501    0  0.00000000000E+00 -0.00000000000E+00 -0.53727572576E+01  0.53727592871E+01  0.46700000000E-02 0. -1.
       1023    2    1    2    0    0  0.00000000000E+00  0.00000000000E+00  0.13239902650E+02  0.23985419780E+02  0.20000133496E+02 0.  0.
        -11    1    3    3    0    0 -0.94100235133E+01 -0.33840388775E+01  0.65806663887E+01  0.11971024686E+02  0.51100000000E-03 0. -1.
         11    1    3    3    0    0  0.94100235133E+01  0.33840388775E+01  0.66592362608E+01  0.12014395094E+02  0.51100000000E-03 0.  1.
<mgrwt>
<rscale>  0 0.20000133E+02</rscale>
<asrwt>0</asrwt>
<pdfrwt beam="2">  1        1 0.82657823E-03 0.20000133E+02</pdfrwt>
<pdfrwt beam="1">  1       -1 0.28634864E-02 0.20000133E+02</pdfrwt>
<totfact> 0.37559675E+06</totfact>
</mgrwt>
</event>
<event>
 5    1  0.9583198E-007  0.2000292E+02  0.7818608E-02  0.1745270E+00
         -1   -1    0    0    0  501 -0.00000000000E+00  0.00000000000E+00  0.23190517518E+01  0.23190564539E+01  0.46700000000E-02 0.  1.
          1   -1    0    0  501    0  0.00000000000E+00 -0.00000000000E+00 -0.43133614036E+02  0.43133614288E+02  0.46700000000E-02 0. -1.
       1023    2    1    2    0    0  0.00000000000E+00  0.00000000000E+00 -0.40814562284E+02  0.45452670742E+02  0.20002919367E+02 0.  0.
        -11    1    3    3    0    0 -0.92289015600E+01  0.38543187694E+01 -0.20343076800E+02  0.22668682607E+02  0.51100000000E-03 0.  1.
         11    1    3    3    0    0  0.92289015600E+01 -0.38543187694E+01 -0.20471485484E+02  0.22783988135E+02  0.51100000000E-03 0. -1.
<mgrwt>
<rscale>  0 0.20002919E+02</rscale>
<asrwt>0</asrwt>
<pdfrwt beam="2">  1        1 0.66359404E-02 0.20002919E+02</pdfrwt>
<pdfrwt beam="1">  1       -1 0.35677761E-03 0.20002919E+02</pdfrwt>
<totfact> 0.41290639E+06</totfact>
</mgrwt>
</event>
<event>
 5    1  0.1017157E-006  0.2000085E+02  0.7818608E-02  0.1745311E+00
          1   -1    0    0  501    0  0.00000000000E+00  0.00000000000E+00  0.18554887433E+02  0.18554888020E+02  0.46700000000E-02 0. -1.
         -1   -1    0    0    0  501 -0.00000000000E+00 -0.00000000000E+00 -0.53898714980E+01  0.53898735211E+01  0.46700000000E-02 0.  1.
       1023    2    1    2    0    0  0.00000000000E+00  0.00000000000E+00  0.13165015935E+02  0.23944761541E+02  0.20000849000E+02 0.  0.
        -11    1    3    3    0    0 -0.21885693722E+01 -0.97579953769E+01  0.65985808678E+01  0.11981217776E+02  0.51100000000E-03 0. -1.
         11    1    3    3    0    0  0.21885693722E+01  0.97579953769E+01  0.65664350668E+01  0.11963543765E+02  0.51100000000E-03 0.  1.
<mgrwt>
<rscale>  0 0.20000849E+02</rscale>
<asrwt>0</asrwt>
<pdfrwt beam="1">  1        1 0.28545983E-02 0.20000849E+02</pdfrwt>
<pdfrwt beam="2">  1       -1 0.82921120E-03 0.20000849E+02</pdfrwt>
<totfact> 0.39578072E+06</totfact>
</mgrwt>
</event>
<event>
 5    1  0.9583198E-007  0.2000015E+02  0.7818608E-02  0.1745325E+00
          1   -1    0    0  501    0  0.00000000000E+00  0.00000000000E+00  0.72924575986E+01  0.72924590939E+01  0.46700000000E-02 0.  1.
         -1   -1    0    0    0  501 -0.00000000000E+00 -0.00000000000E+00 -0.13712997036E+02  0.13712997831E+02  0.46700000000E-02 0. -1.
       1023    2    1    2    0    0  0.00000000000E+00  0.00000000000E+00 -0.64205394373E+01  0.21005456925E+02  0.20000147349E+02 0.  0.
        -11    1    3    3    0    0  0.99001679692E+01  0.14099900343E+01 -0.32193964261E+01  0.10505518137E+02  0.51100000000E-03 0. -1.
         11    1    3    3    0    0 -0.99001679692E+01 -0.14099900343E+01 -0.32011430113E+01  0.10499938788E+02  0.51100000000E-03 0.  1.
<mgrwt>
<rscale>  0 0.20000147E+02</rscale>
<asrwt>0</asrwt>
<pdfrwt beam="1">  1        1 0.11219167E-02 0.20000147E+02</pdfrwt>
<pdfrwt beam="2">  1       -1 0.21096920E-02 0.20000147E+02</pdfrwt>
<totfact> 0.38114237E+06</totfact>
</mgrwt>
</event>
<event>
 5    1  0.9583198E-007  0.2000475E+02  0.7818608E-02  0.1745234E+00
         -1   -1    0    0    0  501 -0.00000000000E+00  0.00000000000E+00  0.11924487984E+02  0.11924488899E+02  0.46700000000E-02 0.  1.
          1   -1    0    0  501    0  0.00000000000E+00 -0.00000000000E+00 -0.83900822114E+01  0.83900835111E+01  0.46700000000E-02 0. -1.
       1023    2    1    2    0    0  0.00000000000E+00  0.00000000000E+00  0.35344057727E+01  0.20314572410E+02  0.20004745138E+02 0.  0.
        -11    1    3    3    0    0 -0.11029142472E+01 -0.99413778710E+01  0.17738567247E+01  0.10158443865E+02  0.51100000000E-03 0.  1.
         11    1    3    3    0    0  0.11029142472E+01  0.99413778710E+01  0.17605490480E+01  0.10156128545E+02  0.51100000000E-03 0. -1.
<mgrwt>
<rscale>  0 0.20004745E+02</rscale>
<asrwt>0</asrwt>
<pdfrwt beam="2">  1        1 0.12907820E-02 0.20004745E+02</pdfrwt>
<pdfrwt beam="1">  1       -1 0.18345368E-02 0.20004745E+02</pdfrwt>
<totfact> 0.38326084E+06</totfact>
</mgrwt>
</event>
<event>
 5    1  0.9661543E-007  0.2000119E+02  0.7818608E-02  0.1745304E+00
          1   -1    0    0  501    0  0.00000000000E+00  0.00000000000E+00  0.18097397644E+02  0.18097398247E+02  0.46700000000E-02 0. -1.
         -1   -1    0    0    0  501 -0.00000000000E+00 -0.00000000000E+00 -0.55263112775E+01  0.55263132506E+01  0.46700000000E-02 0.  1.
       1023    2    1    2    0    0  0.00000000000E+00  0.00000000000E+00  0.12571086367E+02  0.23623711497E+02  0.20001188277E+02 0.  0.
        -11    1    3    3    0    0  0.92671512747E+01 -0.37585540665E+01  0.63695722102E+01  0.11856570829E+02  0.51100000000E-03 0. -1.
         11    1    3    3    0    0 -0.92671512747E+01  0.37585540665E+01  0.62015141567E+01  0.11767140669E+02  0.51100000000E-03 0.  1.
<mgrwt>
<rscale>  0 0.20001188E+02</rscale>
<asrwt>0</asrwt>
<pdfrwt beam="1">  1        1 0.27842152E-02 0.20001188E+02</pdfrwt>
<pdfrwt beam="2">  1       -1 0.85020194E-03 0.20001188E+02</pdfrwt>
<totfact> 0.39535941E+06</totfact>
</mgrwt>
</event>
<event>
 5    1  0.9583198E-007  0.2000124E+02  0.7818608E-02  0.1745303E+00
         -1   -1    0    0    0  501 -0.00000000000E+00  0.00000000000E+00  0.88905826171E+00  0.88907052679E+00  0.46700000000E-02 0. -1.
          1   -1    0    0  501    0  0.00000000000E+00 -0.00000000000E+00 -0.11249168654E+03  0.11249168664E+03  0.46700000000E-02 0.  1.
       1023    2    1    2    0    0  0.00000000000E+00  0.00000000000E+00 -0.11160262828E+03  0.11338075716E+03  0.20001236372E+02 0.  0.
        -11    1    3    3    0    0  0.44908300842E+00  0.99904327716E+01 -0.55551549010E+02  0.56444530471E+02  0.51100000000E-03 0.  1.
         11    1    3    3    0    0 -0.44908300842E+00 -0.99904327716E+01 -0.56051079269E+02  0.56936226693E+02  0.51100000000E-03 0. -1.
<mgrwt>
<rscale>  0 0.20001236E+02</rscale>
<asrwt>0</asrwt>
<pdfrwt beam="2">  1        1 0.17306403E-01 0.20001236E+02</pdfrwt>
<pdfrwt beam="1">  1       -1 0.13677923E-03 0.20001236E+02</pdfrwt>
<totfact> 0.44948042E+06</totfact>
</mgrwt>
</event>
<event>
 5    1  0.9756232E-007  0.2000160E+02  0.7818608E-02  0.1745296E+00
         -1   -1    0    0    0  501 -0.00000000000E+00  0.00000000000E+00  0.66142946480E+01  0.66142962966E+01  0.46700000000E-02 0. -1.
          1   -1    0    0  501    0  0.00000000000E+00 -0.00000000000E+00 -0.15121189609E+02  0.15121190330E+02  0.46700000000E-02 0.  1.
       1023    2    1    2    0    0  0.00000000000E+00  0.00000000000E+00 -0.85068949610E+01  0.21735486627E+02  0.20001602861E+02 0.  0.
        -11    1    3    3    0    0  0.98164420776E+01  0.19102149857E+01 -0.41799642792E+01  0.10838983254E+02  0.51100000000E-03 0.  1.
         11    1    3    3    0    0 -0.98164420776E+01 -0.19102149857E+01 -0.43269306818E+01  0.10896503372E+02  0.51100000000E-03 0. -1.
<mgrwt>
<rscale>  0 0.20001603E+02</rscale>
<asrwt>0</asrwt>
<pdfrwt beam="2">  1        1 0.23263370E-02 0.20001603E+02</pdfrwt>
<pdfrwt beam="1">  1       -1 0.10175840E-02 0.20001603E+02</pdfrwt>
<totfact> 0.39250031E+06</totfact>
</mgrwt>
</event>
<event>
 5    1  0.9583198E-007  0.2000108E+02  0.7818608E-02  0.1745307E+00
          1   -1    0    0  501    0  0.00000000000E+00  0.00000000000E+00  0.30898912806E+01  0.30898948096E+01  0.46700000000E-02 0. -1.
         -1   -1    0    0    0  501 -0.00000000000E+00 -0.00000000000E+00 -0.32367082307E+02  0.32367082644E+02  0.46700000000E-02 0.  1.
       1023    2    1    2    0    0  0.00000000000E+00  0.00000000000E+00 -0.29277191027E+02  0.35456977454E+02  0.20001083364E+02 0.  0.
        -11    1    3    3    0    0 -0.96116834793E+01 -0.27604751982E+01 -0.14777630077E+02  0.17843290996E+02  0.51100000000E-03 0.  1.
         11    1    3    3    0    0  0.96116834793E+01  0.27604751982E+01 -0.14499560950E+02  0.17613686458E+02  0.51100000000E-03 0. -1.
<mgrwt>
<rscale>  0 0.20001083E+02</rscale>
<asrwt>0</asrwt>
<pdfrwt beam="1">  1        1 0.47536821E-03 0.20001083E+02</pdfrwt>
<pdfrwt beam="2">  1       -1 0.49795512E-02 0.20001083E+02</pdfrwt>
<totfact> 0.36280821E+06</totfact>
</mgrwt>
</event>
<event>
 4    1  0.9583198E-007  0.2004779E+02  0.7818608E-02  0.1744379E+00
         -1   -1    0    0    0  501 -0.00000000000E+00  0.00000000000E+00  0.12702451503E+01  0.12702537348E+01  0.46700000000E-02 0. -1.
          1   -1    0    0  501    0  0.00000000000E+00 -0.00000000000E+00 -0.79101333449E+02  0.79101333587E+02  0.46700000000E-02 0.  1.
        -11    1    1    2    0    0 -0.21023725817E+01  0.97967351041E+01 -0.37764421353E+02  0.39071057185E+02  0.51100000000E-03 0.  1.
         11    1    1    2    0    0  0.21023725817E+01 -0.97967351041E+01 -0.40066666946E+02  0.41300530137E+02  0.51100000000E-03 0. -1.
<mgrwt>
<rscale>  0 0.20047786E+02</rscale>
<asrwt>0</asrwt>
<pdfrwt beam="2">  1        1 0.12169433E-01 0.20047786E+02</pdfrwt>
<pdfrwt beam="1">  1       -1 0.19542306E-03 0.20047786E+02</pdfrwt>
<totfact> 0.43084928E+06</totfact>
</mgrwt>
</event>
<event>
 4    1  0.9583198E-007  0.2001519E+02  0.7818608E-02  0.1745026E+00
          1   -1    0    0  501    0  0.00000000000E+00  0.00000000000E+00  0.84887127481E+00  0.84888412054E+00  0.46700000000E-02 0. -1.
         -1   -1    0    0    0  501 -0.00000000000E+00 -0.00000000000E+00 -0.11798161029E+03  0.11798161039E+03  0.46700000000E-02 0.  1.
        -11    1    1    2    0    0 -0.13727694325E+01  0.99081288839E+01 -0.60410235766E+02  0.61232769817E+02  0.51100000000E-03 0.  1.
         11    1    1    2    0    0  0.13727694325E+01 -0.99081288839E+01 -0.56722503254E+02  0.57597724690E+02  0.51100000000E-03 0. -1.
<mgrwt>
<rscale>  0 0.20015191E+02</rscale>
<asrwt>0</asrwt>
<pdfrwt beam="1">  1        1 0.13059667E-03 0.20015191E+02</pdfrwt>
<pdfrwt beam="2">  1       -1 0.18151005E-01 0.20015191E+02</pdfrwt>
<totfact> 0.30885507E+06</totfact>
</mgrwt>
</event>
<event>
 5    1  0.9583198E-007  0.2000090E+02  0.7818608E-02  0.1745310E+00
         -1   -1    0    0    0  501 -0.00000000000E+00  0.00000000000E+00  0.90248703087E+02  0.90248703208E+02  0.46700000000E-02 0. -1.
          1   -1    0    0  501    0  0.00000000000E+00 -0.00000000000E+00 -0.11081434199E+01  0.11081532602E+01  0.46700000000E-02 0.  1.
       1023    2    1    2    0    0  0.00000000000E+00  0.00000000000E+00  0.89140559667E+02  0.91356856468E+02  0.20000896129E+02 0.  0.
        -11    1    3    3    0    0 -0.74304468507E+01  0.66925277409E+01  0.44965671187E+02  0.46064227482E+02  0.51100000000E-03 0.  1.
         11    1    3    3    0    0  0.74304468507E+01 -0.66925277409E+01  0.44174888479E+02  0.45292628985E+02  0.51100000000E-03 0. -1.
<mgrwt>
<rscale>  0 0.20000896E+02</rscale>
<asrwt>0</asrwt>
<pdfrwt beam="2">  1        1 0.17048431E-03 0.20000896E+02</pdfrwt>
<pdfrwt beam="1">  1       -1 0.13884421E-01 0.20000896E+02</pdfrwt>
<totfact> 0.32400014E+06</totfact>
</mgrwt>
</event>
<event>
 5    1  0.9812103E-007  0.2000056E+02  0.7818608E-02  0.1745317E+00
          1   -1    0    0  501    0  0.00000000000E+00  0.00000000000E+00  0.93500249170E+02  0.93500249287E+02  0.46700000000E-02 0.  1.
         -1   -1    0    0    0  501 -0.00000000000E+00 -0.00000000000E+00 -0.10695702317E+01  0.10695804268E+01  0.46700000000E-02 0. -1.
       1023    2    1    2    0    0  0.00000000000E+00  0.00000000000E+00  0.92430678939E+02  0.94569829714E+02  0.20000557068E+02 0.  0.
        -11    1    3    3    0    0 -0.62891047535E+01  0.77749412843E+01  0.46475180800E+02  0.47538878628E+02  0.51100000000E-03 0.  1.
         11    1    3    3    0    0  0.62891047535E+01 -0.77749412843E+01  0.45955498139E+02  0.47030951086E+02  0.51100000000E-03 0. -1.
<mgrwt>
<rscale>  0 0.20000557E+02</rscale>
<asrwt>0</asrwt>
<pdfrwt beam="1">  1        1 0.14384656E-01 0.20000557E+02</pdfrwt>
<pdfrwt beam="2">  1       -1 0.16455005E-03 0.20000557E+02</pdfrwt>
<totfact> 0.44039431E+06</totfact>
</mgrwt>
</event>
<event>
 5    1  0.1023160E-006  0.2000094E+02  0.7818608E-02  0.1745309E+00
         -1   -1    0    0    0  501 -0.00000000000E+00  0.00000000000E+00  0.33532095231E+01  0.33532127750E+01  0.46700000000E-02 0.  1.
          1   -1    0    0  501    0  0.00000000000E+00 -0.00000000000E+00 -0.29824946161E+02  0.29824946526E+02  0.46700000000E-02 0. -1.
       1023    2    1    2    0    0  0.00000000000E+00  0.00000000000E+00 -0.26471736638E+02  0.33178159301E+02  0.20000935329E+02 0.  0.
        -11    1    3    3    0    0 -0.12201745630E+01  0.99253550164E+01 -0.13088848052E+02  0.16471777128E+02  0.51100000000E-03 0. -1.
         11    1    3    3    0    0  0.12201745630E+01 -0.99253550164E+01 -0.13382888586E+02  0.16706382174E+02  0.51100000000E-03 0.  1.
<mgrwt>
<rscale>  0 0.20000935E+02</rscale>
<asrwt>0</asrwt>
<pdfrwt beam="2">  1        1 0.45884534E-02 0.20000935E+02</pdfrwt>
<pdfrwt beam="1">  1       -1 0.51587869E-03 0.20000935E+02</pdfrwt>
<totfact> 0.40440391E+06</totfact>
</mgrwt>
</event>
<event>
 4    1  0.9583198E-007  0.2017080E+02  0.7818608E-02  0.1741953E+00
         -1   -1    0    0    0  501 -0.00000000000E+00  0.00000000000E+00  0.75168494019E+02  0.75168494164E+02  0.46700000000E-02 0. -1.
          1   -1    0    0  501    0  0.00000000000E+00 -0.00000000000E+00 -0.13531601390E+01  0.13531681975E+01  0.46700000000E-02 0.  1.
        -11    1    1    2    0    0  0.41541360443E+01 -0.91540995081E+01  0.33823470633E+02  0.35285713115E+02  0.51100000000E-03 0.  1.
         11    1    1    2    0    0 -0.41541360443E+01  0.91540995081E+01  0.39991863246E+02  0.41235949247E+02  0.51100000000E-03 0. -1.
<mgrwt>
<rscale>  0 0.20170803E+02</rscale>
<asrwt>0</asrwt>
<pdfrwt beam="2">  1        1 0.20817908E-03 0.20170803E+02</pdfrwt>
<pdfrwt beam="1">  1       -1 0.11564386E-01 0.20170803E+02</pdfrwt>
<totfact> 0.32667026E+06</totfact>
</mgrwt>
</event>
<event>
 5    1  0.1008190E-006  0.2000150E+02  0.7818608E-02  0.1745298E+00
         -1   -1    0    0    0  501 -0.00000000000E+00  0.00000000000E+00  0.65761315270E+01  0.65761331852E+01  0.46700000000E-02 0. -1.
          1   -1    0    0  501    0  0.00000000000E+00 -0.00000000000E+00 -0.15208785796E+02  0.15208786513E+02  0.46700000000E-02 0.  1.
       1023    2    1    2    0    0  0.00000000000E+00  0.00000000000E+00 -0.86326542688E+01  0.21784919698E+02  0.20001500107E+02 0.  0.
        -11    1    3    3    0    0  0.66819757701E+01 -0.74407237122E+01 -0.42697112177E+01  0.10873987479E+02  0.51100000000E-03 0.  1.
         11    1    3    3    0    0 -0.66819757701E+01  0.74407237122E+01 -0.43629430511E+01  0.10910932219E+02  0.51100000000E-03 0. -1.
<mgrwt>
<rscale>  0 0.20001500E+02</rscale>
<asrwt>0</asrwt>
<pdfrwt beam="2">  1        1 0.23398134E-02 0.20001500E+02</pdfrwt>
<pdfrwt beam="1">  1       -1 0.10117127E-02 0.20001500E+02</pdfrwt>
<totfact> 0.39259436E+06</totfact>
</mgrwt>
</event>
<event>
 5    1  0.9583198E-007  0.2000533E+02  0.7818608E-02  0.1745222E+00
          1   -1    0    0  501    0  0.00000000000E+00  0.00000000000E+00  0.12310675110E+01  0.12310763686E+01  0.46700000000E-02 0.  1.
         -1   -1    0    0    0  501 -0.00000000000E+00 -0.00000000000E+00 -0.81273317409E+02  0.81273317543E+02  0.46700000000E-02 0. -1.
       1023    2    1    2    0    0  0.00000000000E+00  0.00000000000E+00 -0.80042249898E+02  0.82504393912E+02  0.20005330440E+02 0.  0.
        -11    1    3    3    0    0 -0.91946039137E+01 -0.39366984191E+01 -0.40525814698E+02  0.41741825461E+02  0.51100000000E-03 0.  1.
         11    1    3    3    0    0  0.91946039137E+01  0.39366984191E+01 -0.39516435200E+02  0.40762568451E+02  0.51100000000E-03 0. -1.
<mgrwt>
<rscale>  0 0.20005330E+02</rscale>
<asrwt>0</asrwt>
<pdfrwt beam="1">  1        1 0.18939576E-03 0.20005330E+02</pdfrwt>
<pdfrwt beam="2">  1       -1 0.12503584E-01 0.20005330E+02</pdfrwt>
<totfact> 0.32899204E+06</totfact>
</mgrwt>
</event>
<event>
 5    1  0.9583198E-007  0.2000970E+02  0.7818608E-02  0.1745135E+00
         -1   -1    0    0    0  501 -0.00000000000E+00  0.00000000000E+00  0.34602448327E+02  0.34602448642E+02  0.46700000000E-02 0.  1.
          1   -1    0    0  501    0  0.00000000000E+00 -0.00000000000E+00 -0.28927703866E+01  0.28927741561E+01  0.46700000000E-02 0. -1.
       1023    2    1    2    0    0  0.00000000000E+00  0.00000000000E+00  0.31709677940E+02  0.37495222798E+02  0.20009699088E+02 0.  0.
        -11    1    3    3    0    0  0.59500340424E+01  0.80375842162E+01  0.16421192064E+02  0.19226575728E+02  0.51100000000E-03 0.  1.
         11    1    3    3    0    0 -0.59500340424E+01 -0.80375842162E+01  0.15288485876E+02  0.18268647070E+02  0.51100000000E-03 0. -1.
<mgrwt>
<rscale>  0 0.20009699E+02</rscale>
<asrwt>0</asrwt>
<pdfrwt beam="2">  1        1 0.44504190E-03 0.20009699E+02</pdfrwt>
<pdfrwt beam="1">  1       -1 0.53234540E-02 0.20009699E+02</pdfrwt>
<totfact> 0.36061631E+06</totfact>
</mgrwt>
</event>
<event>
 5    1  0.9583198E-007  0.2000025E+02  0.7818608E-02  0.1745323E+00
         -1   -1    0    0    0  501 -0.00000000000E+00  0.00000000000E+00  0.14962612645E+02  0.14962613373E+02  0.46700000000E-02 0. -1.
          1   -1    0    0  501    0  0.00000000000E+00 -0.00000000000E+00 -0.66834891409E+01  0.66834907725E+01  0.46700000000E-02 0.  1.
       1023    2    1    2    0    0  0.00000000000E+00  0.00000000000E+00  0.82791235037E+01  0.21646104146E+02  0.20000248466E+02 0.  0.
        -11    1    3    3    0    0  0.88133043931E+01 -0.47252232523E+01  0.41175056488E+01  0.10814616135E+02  0.51100000000E-03 0.  1.
         11    1    3    3    0    0 -0.88133043931E+01  0.47252232523E+01  0.41616178548E+01  0.10831488011E+02  0.51100000000E-03 0. -1.
<mgrwt>
<rscale>  0 0.20000248E+02</rscale>
<asrwt>0</asrwt>
<pdfrwt beam="2">  1        1 0.10282293E-02 0.20000248E+02</pdfrwt>
<pdfrwt beam="1">  1       -1 0.23019406E-02 0.20000248E+02</pdfrwt>
<totfact> 0.37963207E+06</totfact>
</mgrwt>
</event>
<event>
 5    1  0.9583198E-007  0.2000557E+02  0.7818608E-02  0.1745217E+00
         -1   -1    0    0    0  501 -0.00000000000E+00  0.00000000000E+00  0.34354171805E+02  0.34354172122E+02  0.46700000000E-02 0.  1.
          1   -1    0    0  501    0  0.00000000000E+00 -0.00000000000E+00 -0.29124728898E+01  0.29124766339E+01  0.46700000000E-02 0. -1.
       1023    2    1    2    0    0  0.00000000000E+00  0.00000000000E+00  0.31441698915E+02  0.37266648756E+02  0.20005566197E+02 0.  0.
        -11    1    3    3    0    0  0.35631088944E+00  0.99938604559E+01  0.16143446323E+02  0.18989867396E+02  0.51100000000E-03 0. -1.
         11    1    3    3    0    0 -0.35631088944E+00 -0.99938604559E+01  0.15298252592E+02  0.18276781360E+02  0.51100000000E-03 0.  1.
<mgrwt>
<rscale>  0 0.20005566E+02</rscale>
<asrwt>0</asrwt>
<pdfrwt beam="2">  1        1 0.44807307E-03 0.20005566E+02</pdfrwt>
<pdfrwt beam="1">  1       -1 0.52852575E-02 0.20005566E+02</pdfrwt>
<totfact> 0.36098325E+06</totfact>
</mgrwt>
</event>
<event>
 5    1  0.9583198E-007  0.2000064E+02  0.7818608E-02  0.1745315E+00
          1   -1    0    0  501    0  0.00000000000E+00  0.00000000000E+00  0.10301089551E+02  0.10301090609E+02  0.46700000000E-02 0.  1.
         -1   -1    0    0    0  501 -0.00000000000E+00 -0.00000000000E+00 -0.97083256312E+01  0.97083267544E+01  0.46700000000E-02 0. -1.
       1023    2    1    2    0    0  0.00000000000E+00  0.00000000000E+00  0.59276391961E+00  0.20009417364E+02  0.20000635344E+02 0.  0.
        -11    1    3    3    0    0  0.69747168680E+01 -0.71664735358E+01  0.25982890236E+00  0.10003625825E+02  0.51100000000E-03 0.  1.
         11    1    3    3    0    0 -0.69747168680E+01  0.71664735358E+01  0.33293501725E+00  0.10005791539E+02  0.51100000000E-03 0. -1.
<mgrwt>
<rscale>  0 0.20000635E+02</rscale>
<asrwt>0</asrwt>
<pdfrwt beam="1">  1        1 0.15847832E-02 0.20000635E+02</pdfrwt>
<pdfrwt beam="2">  1       -1 0.14935887E-02 0.20000635E+02</pdfrwt>
<totfact> 0.38667044E+06</totfact>
</mgrwt>
</event>
<event>
 5    1  0.9690538E-007  0.2000020E+02  0.7818608E-02  0.1745324E+00
         -1   -1    0    0    0  501 -0.00000000000E+00  0.00000000000E+00  0.50617167063E+02  0.50617167279E+02  0.46700000000E-02 0. -1.
          1   -1    0    0  501    0  0.00000000000E+00 -0.00000000000E+00 -0.19756515085E+01  0.19756570279E+01  0.46700000000E-02 0.  1.
       1023    2    1    2    0    0  0.00000000000E+00  0.00000000000E+00  0.48641515555E+02  0.52592824307E+02  0.20000203326E+02 0.  0.
        -11    1    3    3    0    0 -0.99888309869E+01  0.47464414003E+00  0.24317572839E+02  0.26293466500E+02  0.51100000000E-03 0.  1.
         11    1    3    3    0    0  0.99888309869E+01 -0.47464414003E+00  0.24323942716E+02  0.26299357807E+02  0.51100000000E-03 0. -1.
<mgrwt>
<rscale>  0 0.20000203E+02</rscale>
<asrwt>0</asrwt>
<pdfrwt beam="2">  1        1 0.30394688E-03 0.20000203E+02</pdfrwt>
<pdfrwt beam="1">  1       -1 0.77872554E-02 0.20000203E+02</pdfrwt>
<totfact> 0.34885011E+06</totfact>
</mgrwt>
</event>
<event>
 5    1  0.9583198E-007  0.2000364E+02  0.7818608E-02  0.1745256E+00
          1   -1    0    0  501    0  0.00000000000E+00  0.00000000000E+00  0.51877569670E+02  0.51877569881E+02  0.46700000000E-02 0. -1.
         -1   -1    0    0    0  501 -0.00000000000E+00 -0.00000000000E+00 -0.19283148073E+01  0.19283204622E+01  0.46700000000E-02 0.  1.
       1023    2    1    2    0    0  0.00000000000E+00  0.00000000000E+00  0.49949254863E+02  0.53805890343E+02  0.20003644023E+02 0.  0.
        -11    1    3    3    0    0 -0.11859552139E+01  0.99300235987E+01  0.25396376847E+02  0.27294464927E+02  0.51100000000E-03 0. -1.
         11    1    3    3    0    0  0.11859552139E+01 -0.99300235987E+01  0.24552878016E+02  0.26511425415E+02  0.51100000000E-03 0.  1.
<mgrwt>
<rscale>  0 0.20003644E+02</rscale>
<asrwt>0</asrwt>
<pdfrwt beam="1">  1        1 0.79811637E-02 0.20003644E+02</pdfrwt>
<pdfrwt beam="2">  1       -1 0.29666432E-03 0.20003644E+02</pdfrwt>
<totfact> 0.41807426E+06</totfact>
</mgrwt>
</event>
<event>
 5    1  0.9583198E-007  0.2000016E+02  0.7818608E-02  0.1745325E+00
         -1   -1    0    0    0  501 -0.00000000000E+00  0.00000000000E+00  0.80674383323E+02  0.80674383459E+02  0.46700000000E-02 0.  1.
          1   -1    0    0  501    0  0.00000000000E+00 -0.00000000000E+00 -0.12395667537E+01  0.12395755507E+01  0.46700000000E-02 0. -1.
       1023    2    1    2    0    0  0.00000000000E+00  0.00000000000E+00  0.79434816570E+02  0.81913959009E+02  0.20000164927E+02 0.  0.
        -11    1    3    3    0    0 -0.43121951246E+01 -0.90225182316E+01  0.39832304762E+02  0.41068398617E+02  0.51100000000E-03 0. -1.
         11    1    3    3    0    0  0.43121951246E+01  0.90225182316E+01  0.39602511808E+02  0.40845560393E+02  0.51100000000E-03 0.  1.
<mgrwt>
<rscale>  0 0.20000165E+02</rscale>
<asrwt>0</asrwt>
<pdfrwt beam="2">  1        1 0.19070318E-03 0.20000165E+02</pdfrwt>
<pdfrwt beam="1">  1       -1 0.12411449E-01 0.20000165E+02</pdfrwt>
<totfact> 0.32953041E+06</totfact>
</mgrwt>
</event>
<event>
 5    1  0.9583198E-007  0.2000261E+02  0.7818608E-02  0.1745276E+00
          1   -1    0    0  501    0  0.00000000000E+00  0.00000000000E+00  0.14592676771E+02  0.14592677518E+02  0.46700000000E-02 0. -1.
         -1   -1    0    0    0  501 -0.00000000000E+00 -0.00000000000E+00 -0.68545389351E+01  0.68545405259E+01  0.46700000000E-02 0.  1.
       1023    2    1    2    0    0  0.00000000000E+00  0.00000000000E+00  0.77381378360E+01  0.21447218044E+02  0.20002609446E+02 0.  0.
        -11    1    3    3    0    0  0.77266032344E+01 -0.63496536458E+01  0.39625241748E+01  0.10757327598E+02  0.51100000000E-03 0.  1.
         11    1    3    3    0    0 -0.77266032344E+01  0.63496536458E+01  0.37756136612E+01  0.10689890446E+02  0.51100000000E-03 0. -1.
<mgrwt>
<rscale>  0 0.20002609E+02</rscale>
<asrwt>0</asrwt>
<pdfrwt beam="1">  1        1 0.22450274E-02 0.20002609E+02</pdfrwt>
<pdfrwt beam="2">  1       -1 0.10545446E-02 0.20002609E+02</pdfrwt>
<totfact> 0.39190649E+06</totfact>
</mgrwt>
</event>
<event>
 5    1  0.9583198E-007  0.2000052E+02  0.7818608E-02  0.1745318E+00
         -1   -1    0    0    0  501 -0.00000000000E+00  0.00000000000E+00  0.10110693382E+01  0.10110801232E+01  0.46700000000E-02 0.  1.
          1   -1    0    0  501    0  0.00000000000E+00 -0.00000000000E+00 -0.98909788541E+02  0.98909788651E+02  0.46700000000E-02 0. -1.
       1023    2    1    2    0    0  0.00000000000E+00  0.00000000000E+00 -0.97898719203E+02  0.99920868774E+02  0.20000519871E+02 0.  0.
        -11    1    3    3    0    0 -0.17775068824E+01 -0.98410159489E+01 -0.48906706229E+02  0.49918644213E+02  0.51100000000E-03 0.  1.
         11    1    3    3    0    0  0.17775068824E+01  0.98410159489E+01 -0.48992012973E+02  0.50002224561E+02  0.51100000000E-03 0. -1.
<mgrwt>
<rscale>  0 0.20000520E+02</rscale>
<asrwt>0</asrwt>
<pdfrwt beam="2">  1        1 0.15216884E-01 0.20000520E+02</pdfrwt>
<pdfrwt beam="1">  1       -1 0.15555004E-03 0.20000520E+02</pdfrwt>
<totfact> 0.44305156E+06</totfact>
</mgrwt>
</event>
<event>
 5    1  0.1043155E-006  0.2000077E+02  0.7818608E-02  0.1745313E+00
         -1   -1    0    0    0  501 -0.00000000000E+00  0.00000000000E+00  0.94084580629E+00  0.94085739627E+00  0.46700000000E-02 0.  1.
          1   -1    0    0  501    0  0.00000000000E+00 -0.00000000000E+00 -0.10629481919E+03  0.10629481930E+03  0.46700000000E-02 0. -1.
       1023    2    1    2    0    0  0.00000000000E+00  0.00000000000E+00 -0.10535397339E+03  0.10723567669E+03  0.20000766165E+02 0.  0.
        -11    1    3    3    0    0  0.97114483658E+00  0.99527382627E+01 -0.53142559381E+02  0.54075241461E+02  0.51100000000E-03 0.  1.
         11    1    3    3    0    0 -0.97114483658E+00 -0.99527382627E+01 -0.52211414007E+02  0.53160435232E+02  0.51100000000E-03 0. -1.
<mgrwt>
<rscale>  0 0.20000766E+02</rscale>
<asrwt>0</asrwt>
<pdfrwt beam="2">  1        1 0.16353041E-01 0.20000766E+02</pdfrwt>
<pdfrwt beam="1">  1       -1 0.14474649E-03 0.20000766E+02</pdfrwt>
<totfact> 0.44658975E+06</totfact>
</mgrwt>
</event>
<event>
 5    1  0.1018202E-006  0.2000164E+02  0.7818608E-02  0.1745295E+00
         -1   -1    0    0    0  501 -0.00000000000E+00  0.00000000000E+00  0.11153618315E+01  0.11153716081E+01  0.46700000000E-02 0.  1.
          1   -1    0    0  501    0  0.00000000000E+00 -0.00000000000E+00 -0.89671340077E+02  0.89671340199E+02  0.46700000000E-02 0. -1.
       1023    2    1    2    0    0  0.00000000000E+00  0.00000000000E+00 -0.88555978246E+02  0.90786711807E+02  0.20001643874E+02 0.  0.
        -11    1    3    3    0    0  0.24256071121E+01  0.97020089892E+01 -0.43994863103E+02  0.45117186614E+02  0.51100000000E-03 0.  1.
         11    1    3    3    0    0 -0.24256071121E+01 -0.97020089892E+01 -0.44561115143E+02  0.45669525193E+02  0.51100000000E-03 0. -1.
<mgrwt>
<rscale>  0 0.20001644E+02</rscale>
<asrwt>0</asrwt>
<pdfrwt beam="2">  1        1 0.13795586E-01 0.20001644E+02</pdfrwt>
<pdfrwt beam="1">  1       -1 0.17159496E-03 0.20001644E+02</pdfrwt>
<totfact> 0.43843420E+06</totfact>
</mgrwt>
</event>
<event>
 5    1  0.9583198E-007  0.2000736E+02  0.7818608E-02  0.1745182E+00
          1   -1    0    0  501    0  0.00000000000E+00  0.00000000000E+00  0.63225988071E+01  0.63226005318E+01  0.46700000000E-02 0. -1.
         -1   -1    0    0    0  501 -0.00000000000E+00 -0.00000000000E+00 -0.15827921930E+02  0.15827922619E+02  0.46700000000E-02 0.  1.
       1023    2    1    2    0    0  0.00000000000E+00  0.00000000000E+00 -0.95053231229E+01  0.22150523151E+02  0.20007361350E+02 0.  0.
        -11    1    3    3    0    0 -0.87391334399E+01 -0.48662369067E+01 -0.49127612978E+01  0.11143964229E+02  0.51100000000E-03 0. -1.
         11    1    3    3    0    0  0.87391334399E+01  0.48662369067E+01 -0.45925618251E+01  0.11006558921E+02  0.51100000000E-03 0.  1.
<mgrwt>
<rscale>  0 0.20007361E+02</rscale>
<asrwt>0</asrwt>
<pdfrwt beam="1">  1        1 0.97270770E-03 0.20007361E+02</pdfrwt>
<pdfrwt beam="2">  1       -1 0.24350651E-02 0.20007361E+02</pdfrwt>
<totfact> 0.37833608E+06</totfact>
</mgrwt>
</event>
<event>
 5    1  0.9583198E-007  0.2000022E+02  0.7818608E-02  0.1745324E+00
         -1   -1    0    0    0  501 -0.00000000000E+00  0.00000000000E+00  0.59635460048E+01  0.59635478333E+01  0.46700000000E-02 0.  1.
          1   -1    0    0  501    0  0.00000000000E+00 -0.00000000000E+00 -0.16768903398E+02  0.16768904048E+02  0.46700000000E-02 0. -1.
       1023    2    1    2    0    0  0.00000000000E+00  0.00000000000E+00 -0.10805357393E+02  0.22732451882E+02  0.20000215503E+02 0.  0.
        -11    1    3    3    0    0  0.86130602829E+01 -0.50808747045E+01 -0.53510963696E+01  0.11341707447E+02  0.51100000000E-03 0.  1.
         11    1    3    3    0    0 -0.86130602829E+01  0.50808747045E+01 -0.54542610237E+01  0.11390744435E+02  0.51100000000E-03 0. -1.
<mgrwt>
<rscale>  0 0.20000216E+02</rscale>
<asrwt>0</asrwt>
<pdfrwt beam="2">  1        1 0.25798315E-02 0.20000216E+02</pdfrwt>
<pdfrwt beam="1">  1       -1 0.91746881E-03 0.20000216E+02</pdfrwt>
<totfact> 0.39418111E+06</totfact>
</mgrwt>
</event>
<event>
 5    1  0.9583198E-007  0.2000055E+02  0.7818608E-02  0.1745317E+00
         -1   -1    0    0    0  501 -0.00000000000E+00  0.00000000000E+00  0.12965811890E+02  0.12965812731E+02  0.46700000000E-02 0. -1.
          1   -1    0    0  501    0  0.00000000000E+00 -0.00000000000E+00 -0.77130140235E+01  0.77130154373E+01  0.46700000000E-02 0.  1.
       1023    2    1    2    0    0  0.00000000000E+00  0.00000000000E+00  0.52527978664E+01  0.20678828168E+02  0.20000551217E+02 0.  0.
        -11    1    3    3    0    0 -0.53308542846E+01 -0.84609292937E+01  0.26125249022E+01  0.10335889828E+02  0.51100000000E-03 0.  1.
         11    1    3    3    0    0  0.53308542846E+01  0.84609292937E+01  0.26402729642E+01  0.10342938340E+02  0.51100000000E-03 0. -1.
<mgrwt>
<rscale>  0 0.20000551E+02</rscale>
<asrwt>0</asrwt>
<pdfrwt beam="2">  1        1 0.11866177E-02 0.20000551E+02</pdfrwt>
<pdfrwt beam="1">  1       -1 0.19947404E-02 0.20000551E+02</pdfrwt>
<totfact> 0.38206641E+06</totfact>
</mgrwt>
</event>
<event>
 5    1  0.9583198E-007  0.2000467E+02  0.7818608E-02  0.1745235E+00
         -1   -1    0    0    0  501 -0.00000000000E+00  0.00000000000E+00  0.20839947686E+01  0.20840000010E+01  0.46700000000E-02 0. -1.
          1   -1    0    0  501    0  0.00000000000E+00 -0.00000000000E+00 -0.48007126025E+02  0.48007126252E+02  0.46700000000E-02 0.  1.
       1023    2    1    2    0    0  0.00000000000E+00  0.00000000000E+00 -0.45923131256E+02  0.50091126253E+02  0.20004673077E+02 0.  0.
        -11    1    3    3    0    0  0.90194858177E+01  0.43238125707E+01 -0.23001660786E+02  0.25082322036E+02  0.51100000000E-03 0. -1.
         11    1    3    3    0    0 -0.90194858177E+01 -0.43238125707E+01 -0.22921470470E+02  0.25008804217E+02  0.51100000000E-03 0.  1.
<mgrwt>
<rscale>  0 0.20004673E+02</rscale>
<asrwt>0</asrwt>
<pdfrwt beam="2">  1        1 0.73857113E-02 0.20004673E+02</pdfrwt>
<pdfrwt beam="1">  1       -1 0.32061504E-03 0.20004673E+02</pdfrwt>
<totfact> 0.41575740E+06</totfact>
</mgrwt>
</event>
<event>
 5    1  0.9583198E-007  0.2000406E+02  0.7818608E-02  0.1745247E+00
         -1   -1    0    0    0  501 -0.00000000000E+00  0.00000000000E+00  0.35115910231E+02  0.35115910541E+02  0.46700000000E-02 0.  1.
          1   -1    0    0  501    0  0.00000000000E+00 -0.00000000000E+00 -0.28488666543E+01  0.28488704819E+01  0.46700000000E-02 0. -1.
       1023    2    1    2    0    0  0.00000000000E+00  0.00000000000E+00  0.32267043576E+02  0.37964781023E+02  0.20004062012E+02 0.  0.
        -11    1    3    3    0    0  0.84369872584E+01 -0.53698136238E+01  0.16421167964E+02  0.19226866877E+02  0.51100000000E-03 0.  1.
         11    1    3    3    0    0 -0.84369872584E+01  0.53698136238E+01  0.15845875613E+02  0.18737914146E+02  0.51100000000E-03 0. -1.
<mgrwt>
<rscale>  0 0.20004062E+02</rscale>
<asrwt>0</asrwt>
<pdfrwt beam="2">  1        1 0.43828750E-03 0.20004062E+02</pdfrwt>
<pdfrwt beam="1">  1       -1 0.54024480E-02 0.20004062E+02</pdfrwt>
<totfact> 0.36042164E+06</totfact>
</mgrwt>
</event>
<event>
 5    1  0.1024008E-006  0.2000207E+02  0.7818608E-02  0.1745287E+00
          1   -1    0    0  501    0  0.00000000000E+00  0.00000000000E+00  0.92812596393E+02  0.92812596511E+02  0.46700000000E-02 0. -1.
         -1   -1    0    0    0  501 -0.00000000000E+00 -0.00000000000E+00 -0.10776581078E+01  0.10776682264E+01  0.46700000000E-02 0.  1.
       1023    2    1    2    0    0  0.00000000000E+00  0.00000000000E+00  0.91734938286E+02  0.93890264737E+02  0.20002072647E+02 0.  0.
        -11    1    3    3    0    0  0.97953835886E+01  0.20148309759E+01  0.46373984328E+02  0.47440020091E+02  0.51100000000E-03 0. -1.
         11    1    3    3    0    0 -0.97953835886E+01 -0.20148309759E+01  0.45360953958E+02  0.46450244646E+02  0.51100000000E-03 0.  1.
<mgrwt>
<rscale>  0 0.20002073E+02</rscale>
<asrwt>0</asrwt>
<pdfrwt beam="1">  1        1 0.14278864E-01 0.20002073E+02</pdfrwt>
<pdfrwt beam="2">  1       -1 0.16579431E-03 0.20002073E+02</pdfrwt>
<totfact> 0.43997985E+06</totfact>
</mgrwt>
</event>
<event>
 5    1  0.9583198E-007  0.2000021E+02  0.7818608E-02  0.1745324E+00
         -1   -1    0    0    0  501 -0.00000000000E+00  0.00000000000E+00  0.19458139397E+01  0.19458195438E+01  0.46700000000E-02 0. -1.
          1   -1    0    0  501    0  0.00000000000E+00 -0.00000000000E+00 -0.51393385050E+02  0.51393385262E+02  0.46700000000E-02 0.  1.
       1023    2    1    2    0    0  0.00000000000E+00  0.00000000000E+00 -0.49447571110E+02  0.53339204806E+02  0.20000212014E+02 0.  0.
        -11    1    3    3    0    0  0.53601378737E+01  0.84422057613E+01 -0.24761853841E+02  0.26704893223E+02  0.51100000000E-03 0. -1.
         11    1    3    3    0    0 -0.53601378737E+01 -0.84422057613E+01 -0.24685717269E+02  0.26634311583E+02  0.51100000000E-03 0.  1.
<mgrwt>
<rscale>  0 0.20000212E+02</rscale>
<asrwt>0</asrwt>
<pdfrwt beam="2">  1        1 0.79066741E-02 0.20000212E+02</pdfrwt>
<pdfrwt beam="1">  1       -1 0.29935648E-03 0.20000212E+02</pdfrwt>
<totfact> 0.41795228E+06</totfact>
</mgrwt>
</event>
<event>
 5    1  0.9583198E-007  0.2000150E+02  0.7818608E-02  0.1745298E+00
         -1   -1    0    0    0  501 -0.00000000000E+00  0.00000000000E+00  0.66489734456E+02  0.66489734620E+02  0.46700000000E-02 0. -1.
          1   -1    0    0  501    0  0.00000000000E+00 -0.00000000000E+00 -0.15042141318E+01  0.15042213810E+01  0.46700000000E-02 0.  1.
       1023    2    1    2    0    0  0.00000000000E+00  0.00000000000E+00  0.64985520324E+02  0.67993956001E+02  0.20001504965E+02 0.  0.
        -11    1    3    3    0    0 -0.43258032507E+01  0.90167634836E+01  0.32565070845E+02  0.34066089252E+02  0.51100000000E-03 0.  1.
         11    1    3    3    0    0  0.43258032507E+01 -0.90167634836E+01  0.32420449479E+02  0.33927866749E+02  0.51100000000E-03 0. -1.
<mgrwt>
<rscale>  0 0.20001505E+02</rscale>
<asrwt>0</asrwt>
<pdfrwt beam="2">  1        1 0.23141813E-03 0.20001505E+02</pdfrwt>
<pdfrwt beam="1">  1       -1 0.10229191E-01 0.20001505E+02</pdfrwt>
<totfact> 0.33816012E+06</totfact>
</mgrwt>
</event>
<event>
 5    1  0.9583198E-007  0.2000324E+02  0.7818608E-02  0.1745264E+00
          1   -1    0    0  501    0  0.00000000000E+00  0.00000000000E+00  0.15564505220E+02  0.15564505921E+02  0.46700000000E-02 0.  1.
         -1   -1    0    0    0  501 -0.00000000000E+00 -0.00000000000E+00 -0.64269581463E+01  0.64269598430E+01  0.46700000000E-02 0. -1.
       1023    2    1    2    0    0  0.00000000000E+00  0.00000000000E+00  0.91375470738E+01  0.21991465764E+02  0.20003244735E+02 0.  0.
        -11    1    3    3    0    0  0.35165877408E+01 -0.93629759151E+01  0.45987285931E+01  0.11008179334E+02  0.51100000000E-03 0. -1.
         11    1    3    3    0    0 -0.35165877408E+01  0.93629759151E+01  0.45388184807E+01  0.10983286429E+02  0.51100000000E-03 0.  1.
<mgrwt>
<rscale>  0 0.20003245E+02</rscale>
<asrwt>0</asrwt>
<pdfrwt beam="1">  1        1 0.23945394E-02 0.20003245E+02</pdfrwt>
<pdfrwt beam="2">  1       -1 0.98876298E-03 0.20003245E+02</pdfrwt>
<totfact> 0.39287657E+06</totfact>
</mgrwt>
</event>
<event>
 4    1  0.9583198E-007  0.2002002E+02  0.7818608E-02  0.1744930E+00
         -1   -1    0    0    0  501 -0.00000000000E+00  0.00000000000E+00  0.40236461899E+02  0.40236462170E+02  0.46700000000E-02 0.  1.
          1   -1    0    0  501    0  0.00000000000E+00 -0.00000000000E+00 -0.24902843609E+01  0.24902887397E+01  0.46700000000E-02 0. -1.
        -11    1    1    2    0    0 -0.15276027240E+01 -0.98833534241E+01  0.17952444146E+02  0.20550048566E+02  0.51100000000E-03 0.  1.
         11    1    1    2    0    0  0.15276027240E+01  0.98833534241E+01  0.19793733392E+02  0.22176702344E+02  0.51100000000E-03 0. -1.
<mgrwt>
<rscale>  0 0.20020023E+02</rscale>
<asrwt>0</asrwt>
<pdfrwt beam="2">  1        1 0.38312104E-03 0.20020023E+02</pdfrwt>
<pdfrwt beam="1">  1       -1 0.61902252E-02 0.20020023E+02</pdfrwt>
<totfact> 0.35574477E+06</totfact>
</mgrwt>
</event>
<event>
 5    1  0.9583198E-007  0.2000096E+02  0.7818608E-02  0.1745309E+00
          1   -1    0    0  501    0  0.00000000000E+00  0.00000000000E+00  0.26045016249E+01  0.26045058116E+01  0.46700000000E-02 0. -1.
         -1   -1    0    0    0  501 -0.00000000000E+00 -0.00000000000E+00 -0.38398704495E+02  0.38398704779E+02  0.46700000000E-02 0.  1.
       1023    2    1    2    0    0  0.00000000000E+00  0.00000000000E+00 -0.35794202871E+02  0.41003210591E+02  0.20000957968E+02 0.  0.
        -11    1    3    3    0    0 -0.98744312228E+01 -0.15808827592E+01 -0.17738339039E+02  0.20363011918E+02  0.51100000000E-03 0. -1.
         11    1    3    3    0    0  0.98744312228E+01  0.15808827592E+01 -0.18055863832E+02  0.20640198673E+02  0.51100000000E-03 0.  1.
<mgrwt>
<rscale>  0 0.20000958E+02</rscale>
<asrwt>0</asrwt>
<pdfrwt beam="1">  1        1 0.40069293E-03 0.20000958E+02</pdfrwt>
<pdfrwt beam="2">  1       -1 0.59074929E-02 0.20000958E+02</pdfrwt>
<totfact> 0.35792237E+06</totfact>
</mgrwt>
</event>
<event>
 4    1  0.9583198E-007  0.2003045E+02  0.7818608E-02  0.1744723E+00
         -1   -1    0    0    0  501 -0.00000000000E+00  0.00000000000E+00  0.24981624590E+02  0.24981625027E+02  0.46700000000E-02 0. -1.
          1   -1    0    0  501    0  0.00000000000E+00 -0.00000000000E+00 -0.40151385029E+01  0.40151412187E+01  0.46700000000E-02 0.  1.
        -11    1    1    2    0    0  0.66108696564E+01 -0.75126061980E+01  0.99007996544E+01  0.14077239913E+02  0.51100000000E-03 0.  1.
         11    1    1    2    0    0 -0.66108696564E+01  0.75126061980E+01  0.11065686433E+02  0.14919526333E+02  0.51100000000E-03 0. -1.
<mgrwt>
<rscale>  0 0.20030450E+02</rscale>
<asrwt>0</asrwt>
<pdfrwt beam="2">  1        1 0.61771387E-03 0.20030450E+02</pdfrwt>
<pdfrwt beam="1">  1       -1 0.38433271E-02 0.20030450E+02</pdfrwt>
<totfact> 0.36811101E+06</totfact>
</mgrwt>
</event>
<event>
 4    1  0.9583198E-007  0.2006487E+02  0.7818608E-02  0.1744041E+00
         -1   -1    0    0    0  501 -0.00000000000E+00  0.00000000000E+00  0.38262979411E+01  0.38263007910E+01  0.46700000000E-02 0. -1.
          1   -1    0    0  501    0  0.00000000000E+00 -0.00000000000E+00 -0.26304727310E+02  0.26304727724E+02  0.46700000000E-02 0.  1.
        -11    1    1    2    0    0 -0.47241738686E+01  0.88245324283E+01 -0.10221188727E+02  0.14306043848E+02  0.51100000000E-03 0.  1.
         11    1    1    2    0    0  0.47241738686E+01 -0.88245324283E+01 -0.12257240642E+02  0.15824984668E+02  0.51100000000E-03 0. -1.
<mgrwt>
<rscale>  0 0.20064872E+02</rscale>
<asrwt>0</asrwt>
<pdfrwt beam="2">  1        1 0.40468813E-02 0.20064872E+02</pdfrwt>
<pdfrwt beam="1">  1       -1 0.58866149E-03 0.20064872E+02</pdfrwt>
<totfact> 0.39905293E+06</totfact>
</mgrwt>
</event>
<event>
 5    1  0.9583198E-007  0.2000356E+02  0.7818608E-02  0.1745257E+00
          1   -1    0    0  501    0  0.00000000000E+00  0.00000000000E+00  0.30038530605E+02  0.30038530968E+02  0.46700000000E-02 0.  1.
         -1   -1    0    0    0  501 -0.00000000000E+00 -0.00000000000E+00 -0.33302393579E+01  0.33302426322E+01  0.46700000000E-02 0. -1.
       1023    2    1    2    0    0  0.00000000000E+00  0.00000000000E+00  0.26708291247E+02  0.33368773600E+02  0.20003555440E+02 0.  0.
        -11    1    3    3    0    0 -0.98109006502E+01  0.19443086461E+01  0.13417658243E+02  0.16735222157E+02  0.51100000000E-03 0. -1.
         11    1    3    3    0    0  0.98109006502E+01 -0.19443086461E+01  0.13290633004E+02  0.16633551443E+02  0.51100000000E-03 0.  1.
<mgrwt>
<rscale>  0 0.20003555E+02</rscale>
<asrwt>0</asrwt>
<pdfrwt beam="1">  1        1 0.46213125E-02 0.20003555E+02</pdfrwt>
<pdfrwt beam="2">  1       -1 0.51234481E-03 0.20003555E+02</pdfrwt>
<totfact> 0.40443280E+06</totfact>
</mgrwt>
</event>
<event>
 5    1  0.9583198E-007  0.2000005E+02  0.7818608E-02  0.1745327E+00
         -1   -1    0    0    0  501 -0.00000000000E+00  0.00000000000E+00  0.87083840463E+01  0.87083852985E+01  0.46700000000E-02 0.  1.
          1   -1    0    0  501    0  0.00000000000E+00 -0.00000000000E+00 -0.11483242098E+02  0.11483243048E+02  0.46700000000E-02 0. -1.
       1023    2    1    2    0    0  0.00000000000E+00  0.00000000000E+00 -0.27748580521E+01  0.20191628347E+02  0.20000050452E+02 0.  0.
        -11    1    3    3    0    0 -0.35267880868E+01 -0.93574569437E+01 -0.14040056521E+01  0.10098092235E+02  0.51100000000E-03 0.  1.
         11    1    3    3    0    0  0.35267880868E+01  0.93574569437E+01 -0.13708524000E+01  0.10093536111E+02  0.51100000000E-03 0. -1.
<mgrwt>
<rscale>  0 0.20000050E+02</rscale>
<asrwt>0</asrwt>
<pdfrwt beam="2">  1        1 0.17666528E-02 0.20000050E+02</pdfrwt>
<pdfrwt beam="1">  1       -1 0.13397516E-02 0.20000050E+02</pdfrwt>
<totfact> 0.38836150E+06</totfact>
</mgrwt>
</event>
<event>
 5    1  0.9583198E-007  0.2000286E+02  0.7818608E-02  0.1745271E+00
          1   -1    0    0  501    0  0.00000000000E+00  0.00000000000E+00  0.61077102309E+01  0.61077120163E+01  0.46700000000E-02 0.  1.
         -1   -1    0    0    0  501 -0.00000000000E+00 -0.00000000000E+00 -0.16377425570E+02  0.16377426236E+02  0.46700000000E-02 0. -1.
       1023    2    1    2    0    0  0.00000000000E+00  0.00000000000E+00 -0.10269715339E+02  0.22485138252E+02  0.20002859522E+02 0.  0.
        -11    1    3    3    0    0 -0.75374687820E+01  0.65729989267E+01 -0.50177870758E+01  0.11189099067E+02  0.51100000000E-03 0.  1.
         11    1    3    3    0    0  0.75374687820E+01 -0.65729989267E+01 -0.52519282633E+01  0.11296039185E+02  0.51100000000E-03 0. -1.
<mgrwt>
<rscale>  0 0.20002860E+02</rscale>
<asrwt>0</asrwt>
<pdfrwt beam="1">  1        1 0.93964793E-03 0.20002860E+02</pdfrwt>
<pdfrwt beam="2">  1       -1 0.25196041E-02 0.20002860E+02</pdfrwt>
<totfact> 0.37790296E+06</totfact>
</mgrwt>
</event>
<event>
 5    1  0.9960382E-007  0.2000076E+02  0.7818608E-02  0.1745313E+00
         -1   -1    0    0    0  501 -0.00000000000E+00  0.00000000000E+00  0.19170458726E+01  0.19170515607E+01  0.46700000000E-02 0.  1.
          1   -1    0    0  501    0  0.00000000000E+00 -0.00000000000E+00 -0.52167489640E+02  0.52167489849E+02  0.46700000000E-02 0. -1.
       1023    2    1    2    0    0  0.00000000000E+00  0.00000000000E+00 -0.50250443767E+02  0.54084541410E+02  0.20000763003E+02 0.  0.
        -11    1    3    3    0    0 -0.90559179811E+01 -0.42419614047E+01 -0.25290657498E+02  0.27195978452E+02  0.51100000000E-03 0.  1.
         11    1    3    3    0    0  0.90559179811E+01  0.42419614047E+01 -0.24959786270E+02  0.26888562958E+02  0.51100000000E-03 0. -1.
<mgrwt>
<rscale>  0 0.20000763E+02</rscale>
<asrwt>0</asrwt>
<pdfrwt beam="2">  1        1 0.80257670E-02 0.20000763E+02</pdfrwt>
<pdfrwt beam="1">  1       -1 0.29493063E-03 0.20000763E+02</pdfrwt>
<totfact> 0.41837618E+06</totfact>
</mgrwt>
</event>
<event>
 5    1  0.9739083E-007  0.2000276E+02  0.7818608E-02  0.1745273E+00
         -1   -1    0    0    0  501 -0.00000000000E+00  0.00000000000E+00  0.28547552041E+01  0.28547590238E+01  0.46700000000E-02 0. -1.
          1   -1    0    0  501    0  0.00000000000E+00 -0.00000000000E+00 -0.35038926212E+02  0.35038926523E+02  0.46700000000E-02 0.  1.
       1023    2    1    2    0    0  0.00000000000E+00  0.00000000000E+00 -0.32184171008E+02  0.37893685547E+02  0.20002763331E+02 0.  0.
        -11    1    3    3    0    0 -0.22257249665E+01  0.97495567896E+01 -0.16359499440E+02  0.19173964937E+02  0.51100000000E-03 0. -1.
         11    1    3    3    0    0  0.22257249665E+01 -0.97495567896E+01 -0.15824671567E+02  0.18719720609E+02  0.51100000000E-03 0.  1.
<mgrwt>
<rscale>  0 0.20002763E+02</rscale>
<asrwt>0</asrwt>
<pdfrwt beam="2">  1        1 0.53906041E-02 0.20002763E+02</pdfrwt>
<pdfrwt beam="1">  1       -1 0.43919345E-03 0.20002763E+02</pdfrwt>
<totfact> 0.40781293E+06</totfact>
</mgrwt>
</event>
<event>
 5    1  0.9583198E-007  0.2000005E+02  0.7818608E-02  0.1745327E+00
          1   -1    0    0  501    0  0.00000000000E+00  0.00000000000E+00  0.92175538580E+00  0.92176721582E+00  0.46700000000E-02 0.  1.
         -1   -1    0    0    0  501 -0.00000000000E+00 -0.00000000000E+00 -0.10848850787E+03  0.10848850797E+03  0.46700000000E-02 0. -1.
       1023    2    1    2    0    0  0.00000000000E+00  0.00000000000E+00 -0.10756675249E+03  0.10941027519E+03  0.20000051909E+02 0.  0.
        -11    1    3    3    0    0 -0.96341072661E+01 -0.26803825293E+01 -0.53820282077E+02  0.54741421578E+02  0.51100000000E-03 0. -1.
         11    1    3    3    0    0  0.96341072661E+01  0.26803825293E+01 -0.53746470411E+02  0.54668853612E+02  0.51100000000E-03 0.  1.
<mgrwt>
<rscale>  0 0.20000052E+02</rscale>
<asrwt>0</asrwt>
<pdfrwt beam="1">  1        1 0.14180952E-03 0.20000052E+02</pdfrwt>
<pdfrwt beam="2">  1       -1 0.16690531E-01 0.20000052E+02</pdfrwt>
<totfact> 0.31419634E+06</totfact>
</mgrwt>
</event>
<event>
 5    1  0.1027427E-006  0.2000076E+02  0.7818608E-02  0.1745313E+00
          1   -1    0    0  501    0  0.00000000000E+00  0.00000000000E+00  0.90545480418E+02  0.90545480539E+02  0.46700000000E-02 0.  1.
         -1   -1    0    0    0  501 -0.00000000000E+00 -0.00000000000E+00 -0.11044961077E+01  0.11045059804E+01  0.46700000000E-02 0. -1.
       1023    2    1    2    0    0  0.00000000000E+00  0.00000000000E+00  0.89440984311E+02  0.91649986519E+02  0.20000758848E+02 0.  0.
        -11    1    3    3    0    0 -0.87939177211E+01  0.47616309213E+01  0.44544776420E+02  0.45653512729E+02  0.51100000000E-03 0. -1.
         11    1    3    3    0    0  0.87939177211E+01 -0.47616309213E+01  0.44896207891E+02  0.45996473791E+02  0.51100000000E-03 0.  1.
<mgrwt>
<rscale>  0 0.20000759E+02</rscale>
<asrwt>0</asrwt>
<pdfrwt beam="1">  1        1 0.13930075E-01 0.20000759E+02</pdfrwt>
<pdfrwt beam="2">  1       -1 0.16992325E-03 0.20000759E+02</pdfrwt>
<totfact> 0.43891461E+06</totfact>
</mgrwt>
</event>
<event>
 4    1  0.9583198E-007  0.2001453E+02  0.7818608E-02  0.1745039E+00
         -1   -1    0    0    0  501 -0.00000000000E+00  0.00000000000E+00  0.48538858182E+02  0.48538858407E+02  0.46700000000E-02 0.  1.
          1   -1    0    0  501    0  0.00000000000E+00 -0.00000000000E+00 -0.20631965004E+01  0.20632017856E+01  0.46700000000E-02 0. -1.
        -11    1    1    2    0    0  0.78704035781E+01  0.61728920635E+01  0.22448409997E+02  0.24575983410E+02  0.51100000000E-03 0.  1.
         11    1    1    2    0    0 -0.78704035781E+01 -0.61728920635E+01  0.24027251685E+02  0.26026076783E+02  0.51100000000E-03 0. -1.
<mgrwt>
<rscale>  0 0.20014529E+02</rscale>
<asrwt>0</asrwt>
<pdfrwt beam="2">  1        1 0.31741530E-03 0.20014529E+02</pdfrwt>
<pdfrwt beam="1">  1       -1 0.74675163E-02 0.20014529E+02</pdfrwt>
<totfact> 0.34978291E+06</totfact>
</mgrwt>
</event>
<event>
 5    1  0.9583198E-007  0.2000015E+02  0.7818608E-02  0.1745325E+00
          1   -1    0    0  501    0  0.00000000000E+00  0.00000000000E+00  0.21886632670E+02  0.21886633168E+02  0.46700000000E-02 0. -1.
         -1   -1    0    0    0  501 -0.00000000000E+00 -0.00000000000E+00 -0.45690660141E+01  0.45690684007E+01  0.46700000000E-02 0.  1.
       1023    2    1    2    0    0  0.00000000000E+00  0.00000000000E+00  0.17317566656E+02  0.26455701569E+02  0.20000150765E+02 0.  0.
        -11    1    3    3    0    0 -0.37797188430E+01  0.92582519921E+01  0.86565253514E+01  0.13226372742E+02  0.51100000000E-03 0. -1.
         11    1    3    3    0    0  0.37797188430E+01 -0.92582519921E+01  0.86610413045E+01  0.13229328827E+02  0.51100000000E-03 0.  1.
<mgrwt>
<rscale>  0 0.20000151E+02</rscale>
<asrwt>0</asrwt>
<pdfrwt beam="1">  1        1 0.33671745E-02 0.20000151E+02</pdfrwt>
<pdfrwt beam="2">  1       -1 0.70293346E-03 0.20000151E+02</pdfrwt>
<totfact> 0.39859245E+06</totfact>
</mgrwt>
</event>
<event>
 5    1  0.9583198E-007  0.2000046E+02  0.7818608E-02  0.1745319E+00
         -1   -1    0    0    0  501 -0.00000000000E+00  0.00000000000E+00  0.83723106521E+02  0.83723106651E+02  0.46700000000E-02 0. -1.
          1   -1    0    0  501    0  0.00000000000E+00 -0.00000000000E+00 -0.11944640789E+01  0.11944732080E+01  0.46700000000E-02 0.  1.
       1023    2    1    2    0    0  0.00000000000E+00  0.00000000000E+00  0.82528642442E+02  0.84917579859E+02  0.20000463640E+02 0.  0.
        -11    1    3    3    0    0 -0.88994026581E+01 -0.45612740045E+01  0.41234912093E+02  0.42430208152E+02  0.51100000000E-03 0. -1.
         11    1    3    3    0    0  0.88994026581E+01  0.45612740045E+01  0.41293730348E+02  0.42487371707E+02  0.51100000000E-03 0.  1.
<mgrwt>
<rscale>  0 0.20000464E+02</rscale>
<asrwt>0</asrwt>
<pdfrwt beam="2">  1        1 0.18376443E-03 0.20000464E+02</pdfrwt>
<pdfrwt beam="1">  1       -1 0.12880477E-01 0.20000464E+02</pdfrwt>
<totfact> 0.32773888E+06</totfact>
</mgrwt>
</event>
<event>
 5    1  0.9583198E-007  0.2000709E+02  0.7818608E-02  0.1745187E+00
         -1   -1    0    0    0  501 -0.00000000000E+00  0.00000000000E+00  0.20764007433E+02  0.20764007959E+02  0.46700000000E-02 0.  1.
          1   -1    0    0  501    0  0.00000000000E+00 -0.00000000000E+00 -0.48194400134E+01  0.48194422760E+01  0.46700000000E-02 0. -1.
       1023    2    1    2    0    0  0.00000000000E+00  0.00000000000E+00  0.15944567420E+02  0.25583450235E+02  0.20007091135E+02 0.  0.
        -11    1    3    3    0    0  0.64636058430E+01  0.76341591972E+01  0.78302565122E+01  0.12703208431E+02  0.51100000000E-03 0. -1.
         11    1    3    3    0    0 -0.64636058430E+01 -0.76341591972E+01  0.81143109079E+01  0.12880241803E+02  0.51100000000E-03 0.  1.
<mgrwt>
<rscale>  0 0.20007091E+02</rscale>
<asrwt>0</asrwt>
<pdfrwt beam="2">  1        1 0.74145252E-03 0.20007091E+02</pdfrwt>
<pdfrwt beam="1">  1       -1 0.31944629E-02 0.20007091E+02</pdfrwt>
<totfact> 0.37310609E+06</totfact>
</mgrwt>
</event>
<event>
 5    1  0.1037377E-006  0.2000092E+02  0.7818608E-02  0.1745310E+00
          1   -1    0    0  501    0  0.00000000000E+00  0.00000000000E+00  0.61071242300E+02  0.61071242478E+02  0.46700000000E-02 0.  1.
         -1   -1    0    0    0  501 -0.00000000000E+00 -0.00000000000E+00 -0.16375785431E+01  0.16375852020E+01  0.46700000000E-02 0. -1.
       1023    2    1    2    0    0  0.00000000000E+00  0.00000000000E+00  0.59433663757E+02  0.62708827680E+02  0.20000917016E+02 0.  0.
        -11    1    3    3    0    0 -0.20547487452E+01 -0.97868731238E+01  0.29511424027E+02  0.31159734054E+02  0.51100000000E-03 0. -1.
         11    1    3    3    0    0  0.20547487452E+01  0.97868731238E+01  0.29922239730E+02  0.31549093627E+02  0.51100000000E-03 0.  1.
<mgrwt>
<rscale>  0 0.20000917E+02</rscale>
<asrwt>0</asrwt>
<pdfrwt beam="1">  1        1 0.93955746E-02 0.20000917E+02</pdfrwt>
<pdfrwt beam="2">  1       -1 0.25193573E-03 0.20000917E+02</pdfrwt>
<totfact> 0.42342052E+06</totfact>
</mgrwt>
</event>
<event>
 5    1  0.9583198E-007  0.2000074E+02  0.7818608E-02  0.1745313E+00
          1   -1    0    0  501    0  0.00000000000E+00  0.00000000000E+00  0.26364465628E+01  0.26364506988E+01  0.46700000000E-02 0. -1.
         -1   -1    0    0    0  501 -0.00000000000E+00 -0.00000000000E+00 -0.37932610448E+02  0.37932610735E+02  0.46700000000E-02 0.  1.
       1023    2    1    2    0    0  0.00000000000E+00  0.00000000000E+00 -0.35296163885E+02  0.40569061434E+02  0.20000739002E+02 0.  0.
        -11    1    3    3    0    0 -0.17069359572E+01  0.98532815882E+01 -0.17812886654E+02  0.20427915205E+02  0.51100000000E-03 0. -1.
         11    1    3    3    0    0  0.17069359572E+01 -0.98532815882E+01 -0.17483277231E+02  0.20141146229E+02  0.51100000000E-03 0.  1.
<mgrwt>
<rscale>  0 0.20000739E+02</rscale>
<asrwt>0</asrwt>
<pdfrwt beam="1">  1        1 0.40560753E-03 0.20000739E+02</pdfrwt>
<pdfrwt beam="2">  1       -1 0.58357862E-02 0.20000739E+02</pdfrwt>
<totfact> 0.35829801E+06</totfact>
</mgrwt>
</event>
<event>
 5    1  0.9583198E-007  0.2000027E+02  0.7818608E-02  0.1745323E+00
         -1   -1    0    0    0  501 -0.00000000000E+00  0.00000000000E+00  0.22446323057E+01  0.22446371637E+01  0.46700000000E-02 0.  1.
          1   -1    0    0  501    0  0.00000000000E+00 -0.00000000000E+00 -0.44551856492E+02  0.44551856736E+02  0.46700000000E-02 0. -1.
       1023    2    1    2    0    0  0.00000000000E+00  0.00000000000E+00 -0.42307224186E+02  0.46796493900E+02  0.20000265574E+02 0.  0.
        -11    1    3    3    0    0  0.88636066889E+01 -0.46299680736E+01 -0.21035978458E+02  0.23291898116E+02  0.51100000000E-03 0. -1.
         11    1    3    3    0    0 -0.88636066889E+01  0.46299680736E+01 -0.21271245728E+02  0.23504595784E+02  0.51100000000E-03 0.  1.
<mgrwt>
<rscale>  0 0.20000266E+02</rscale>
<asrwt>0</asrwt>
<pdfrwt beam="2">  1        1 0.68541315E-02 0.20000266E+02</pdfrwt>
<pdfrwt beam="1">  1       -1 0.34532847E-03 0.20000266E+02</pdfrwt>
<totfact> 0.41389114E+06</totfact>
</mgrwt>
</event>
<event>
 5    1  0.9583198E-007  0.2000079E+02  0.7818608E-02  0.1745312E+00
         -1   -1    0    0    0  501 -0.00000000000E+00  0.00000000000E+00  0.19742727965E+02  0.19742728517E+02  0.46700000000E-02 0. -1.
          1   -1    0    0  501    0  0.00000000000E+00 -0.00000000000E+00 -0.50655543772E+01  0.50655565299E+01  0.46700000000E-02 0.  1.
       1023    2    1    2    0    0  0.00000000000E+00  0.00000000000E+00  0.14677173588E+02  0.24808285047E+02  0.20000789546E+02 0.  0.
        -11    1    3    3    0    0  0.63811592537E+01  0.76998907052E+01  0.73142472372E+01  0.12389742661E+02  0.51100000000E-03 0.  1.
         11    1    3    3    0    0 -0.63811592537E+01 -0.76998907052E+01  0.73629263504E+01  0.12418542386E+02  0.51100000000E-03 0. -1.
<mgrwt>
<rscale>  0 0.20000790E+02</rscale>
<asrwt>0</asrwt>
<pdfrwt beam="2">  1        1 0.77931630E-03 0.20000790E+02</pdfrwt>
<pdfrwt beam="1">  1       -1 0.30373429E-02 0.20000790E+02</pdfrwt>
<totfact> 0.37439805E+06</totfact>
</mgrwt>
</event>
<event>
 5    1  0.9637833E-007  0.2000144E+02  0.7818608E-02  0.1745299E+00
          1   -1    0    0  501    0  0.00000000000E+00  0.00000000000E+00  0.45485077743E+02  0.45485077983E+02  0.46700000000E-02 0. -1.
         -1   -1    0    0    0  501 -0.00000000000E+00 -0.00000000000E+00 -0.21988379038E+01  0.21988428630E+01  0.46700000000E-02 0.  1.
       1023    2    1    2    0    0  0.00000000000E+00  0.00000000000E+00  0.43286239839E+02  0.47683920846E+02  0.20001443643E+02 0.  0.
        -11    1    3    3    0    0  0.97810323295E+01 -0.20846233016E+01  0.21610349360E+02  0.23812212150E+02  0.51100000000E-03 0. -1.
         11    1    3    3    0    0 -0.97810323295E+01  0.20846233016E+01  0.21675890479E+02  0.23871708696E+02  0.51100000000E-03 0.  1.
<mgrwt>
<rscale>  0 0.20001444E+02</rscale>
<asrwt>0</asrwt>
<pdfrwt beam="1">  1        1 0.69977037E-02 0.20001444E+02</pdfrwt>
<pdfrwt beam="2">  1       -1 0.33828320E-03 0.20001444E+02</pdfrwt>
<totfact> 0.41440027E+06</totfact>
</mgrwt>
</event>
<event>
 5    1  0.9583198E-007  0.2000076E+02  0.7818608E-02  0.1745313E+00
         -1   -1    0    0    0  501 -0.00000000000E+00  0.00000000000E+00  0.25068921070E+02  0.25068921505E+02  0.46700000000E-02 0. -1.
          1   -1    0    0  501    0  0.00000000000E+00 -0.00000000000E+00 -0.39893048450E+01  0.39893075784E+01  0.46700000000E-02 0.  1.
       1023    2    1    2    0    0  0.00000000000E+00  0.00000000000E+00  0.21079616225E+02  0.29058229083E+02  0.20000761417E+02 0.  0.
        -11    1    3    3    0    0  0.90699549267E+01 -0.42118341978E+01  0.10631515149E+02  0.14595641278E+02  0.51100000000E-03 0. -1.
         11    1    3    3    0    0 -0.90699549267E+01  0.42118341978E+01  0.10448101076E+02  0.14462587806E+02  0.51100000000E-03 0.  1.
<mgrwt>
<rscale>  0 0.20000761E+02</rscale>
<asrwt>0</asrwt>
<pdfrwt beam="2">  1        1 0.61373944E-03 0.20000761E+02</pdfrwt>
<pdfrwt beam="1">  1       -1 0.38567574E-02 0.20000761E+02</pdfrwt>
<totfact> 0.36923302E+06</totfact>
</mgrwt>
</event>
<event>
 5    1  0.9948306E-007  0.2000127E+02  0.7818608E-02  0.1745303E+00
         -1   -1    0    0    0  501 -0.00000000000E+00  0.00000000000E+00  0.23989401882E+02  0.23989402337E+02  0.46700000000E-02 0.  1.
          1   -1    0    0  501    0  0.00000000000E+00 -0.00000000000E+00 -0.41690364795E+01  0.41690390950E+01  0.46700000000E-02 0. -1.
       1023    2    1    2    0    0  0.00000000000E+00  0.00000000000E+00  0.19820365403E+02  0.28158441432E+02  0.20001273439E+02 0.  0.
        -11    1    3    3    0    0 -0.20373769471E+01  0.97906311751E+01  0.98070076891E+01  0.14006597149E+02  0.51100000000E-03 0. -1.
         11    1    3    3    0    0  0.20373769471E+01 -0.97906311751E+01  0.10013357714E+02  0.14151844282E+02  0.51100000000E-03 0.  1.
<mgrwt>
<rscale>  0 0.20001273E+02</rscale>
<asrwt>0</asrwt>
<pdfrwt beam="2">  1        1 0.64139047E-03 0.20001273E+02</pdfrwt>
<pdfrwt beam="1">  1       -1 0.36906774E-02 0.20001273E+02</pdfrwt>
<totfact> 0.37021846E+06</totfact>
</mgrwt>
</event>
<event>
 5    1  0.9583198E-007  0.2000934E+02  0.7818608E-02  0.1745142E+00
         -1   -1    0    0    0  501 -0.00000000000E+00  0.00000000000E+00  0.10867187314E+02  0.10867188317E+02  0.46700000000E-02 0.  1.
          1   -1    0    0  501    0  0.00000000000E+00 -0.00000000000E+00 -0.92106039013E+01  0.92106050852E+01  0.46700000000E-02 0. -1.
       1023    2    1    2    0    0  0.00000000000E+00  0.00000000000E+00  0.16565834122E+01  0.20077793402E+02  0.20009335804E+02 0.  0.
        -11    1    3    3    0    0 -0.86324364051E+01 -0.50535215645E+01  0.63700615003E+00  0.10023114066E+02  0.51100000000E-03 0. -1.
         11    1    3    3    0    0  0.86324364051E+01  0.50535215645E+01  0.10195772621E+01  0.10054679336E+02  0.51100000000E-03 0.  1.
<mgrwt>
<rscale>  0 0.20009336E+02</rscale>
<asrwt>0</asrwt>
<pdfrwt beam="2">  1        1 0.14170162E-02 0.20009336E+02</pdfrwt>
<pdfrwt beam="1">  1       -1 0.16718751E-02 0.20009336E+02</pdfrwt>
<totfact> 0.38454821E+06</totfact>
</mgrwt>
</event>
<event>
 5    1  0.9965998E-007  0.2000135E+02  0.7818608E-02  0.1745301E+00
         -1   -1    0    0    0  501 -0.00000000000E+00  0.00000000000E+00  0.30697875478E+01  0.30697910999E+01  0.46700000000E-02 0. -1.
          1   -1    0    0  501    0  0.00000000000E+00 -0.00000000000E+00 -0.32579905679E+02  0.32579906013E+02  0.46700000000E-02 0.  1.
       1023    2    1    2    0    0  0.00000000000E+00  0.00000000000E+00 -0.29510118131E+02  0.35649697113E+02  0.20001345759E+02 0.  0.
        -11    1    3    3    0    0  0.99981048615E+01 -0.19599264373E+00 -0.14552277599E+02  0.17656990047E+02  0.51100000000E-03 0.  1.
         11    1    3    3    0    0 -0.99981048615E+01  0.19599264373E+00 -0.14957840532E+02  0.17992707066E+02  0.51100000000E-03 0. -1.
<mgrwt>
<rscale>  0 0.20001346E+02</rscale>
<asrwt>0</asrwt>
<pdfrwt beam="2">  1        1 0.50122932E-02 0.20001346E+02</pdfrwt>
<pdfrwt beam="1">  1       -1 0.47227533E-03 0.20001346E+02</pdfrwt>
<totfact> 0.40625511E+06</totfact>
</mgrwt>
</event>
<event>
 5    1  0.9583198E-007  0.2000015E+02  0.7818608E-02  0.1745325E+00
          1   -1    0    0  501    0  0.00000000000E+00  0.00000000000E+00  0.48467112504E+02  0.48467112729E+02  0.46700000000E-02 0. -1.
         -1   -1    0    0    0  501 -0.00000000000E+00 -0.00000000000E+00 -0.20632824081E+01  0.20632876931E+01  0.46700000000E-02 0.  1.
       1023    2    1    2    0    0  0.00000000000E+00  0.00000000000E+00  0.46403830096E+02  0.50530400422E+02  0.20000147981E+02 0.  0.
        -11    1    3    3    0    0  0.54558855091E+01 -0.83806092263E+01  0.23235986465E+02  0.25296489182E+02  0.51100000000E-03 0.  1.
         11    1    3    3    0    0 -0.54558855091E+01  0.83806092263E+01  0.23167843631E+02  0.25233911240E+02  0.51100000000E-03 0. -1.
<mgrwt>
<rscale>  0 0.20000148E+02</rscale>
<asrwt>0</asrwt>
<pdfrwt beam="1">  1        1 0.74564783E-02 0.20000148E+02</pdfrwt>
<pdfrwt beam="2">  1       -1 0.31742853E-03 0.20000148E+02</pdfrwt>
<totfact> 0.41623892E+06</totfact>
</mgrwt>
</event>
<event>
 5    1  0.9583198E-007  0.2000011E+02  0.7818608E-02  0.1745326E+00
         -1   -1    0    0    0  501 -0.00000000000E+00  0.00000000000E+00  0.36937840731E+01  0.36937870252E+01  0.46700000000E-02 0.  1.
          1   -1    0    0  501    0  0.00000000000E+00 -0.00000000000E+00 -0.27072804716E+02  0.27072805119E+02  0.46700000000E-02 0. -1.
       1023    2    1    2    0    0  0.00000000000E+00  0.00000000000E+00 -0.23379020643E+02  0.30766592144E+02  0.20000114648E+02 0.  0.
        -11    1    3    3    0    0  0.10000006478E+02  0.30369269710E-01 -0.11674566532E+02  0.15371940536E+02  0.51100000000E-03 0.  1.
         11    1    3    3    0    0 -0.10000006478E+02 -0.30369269710E-01 -0.11704454111E+02  0.15394651608E+02  0.51100000000E-03 0. -1.
<mgrwt>
<rscale>  0 0.20000115E+02</rscale>
<asrwt>0</asrwt>
<pdfrwt beam="2">  1        1 0.41650470E-02 0.20000115E+02</pdfrwt>
<pdfrwt beam="1">  1       -1 0.56827475E-03 0.20000115E+02</pdfrwt>
<totfact> 0.40250423E+06</totfact>
</mgrwt>
</event>
<event>
 5    1  0.9583198E-007  0.2000402E+02  0.7818608E-02  0.1745248E+00
         -1   -1    0    0    0  501 -0.00000000000E+00  0.00000000000E+00  0.10268843574E+03  0.10268843585E+03  0.46700000000E-02 0.  1.
          1   -1    0    0  501    0  0.00000000000E+00 -0.00000000000E+00 -0.97420535968E+00  0.97421655279E+00  0.46700000000E-02 0. -1.
       1023    2    1    2    0    0  0.00000000000E+00  0.00000000000E+00  0.10171423038E+03  0.10366265240E+03  0.20004020609E+02 0.  0.
        -11    1    3    3    0    0  0.94123388123E+01 -0.33809729113E+01  0.50179268242E+02  0.51166219924E+02  0.51100000000E-03 0. -1.
         11    1    3    3    0    0 -0.94123388123E+01  0.33809729113E+01  0.51534962139E+02  0.52496432476E+02  0.51100000000E-03 0.  1.
<mgrwt>
<rscale>  0 0.20004021E+02</rscale>
<asrwt>0</asrwt>
<pdfrwt beam="2">  1        1 0.14987875E-03 0.20004021E+02</pdfrwt>
<pdfrwt beam="1">  1       -1 0.15798208E-01 0.20004021E+02</pdfrwt>
<totfact> 0.31710317E+06</totfact>
</mgrwt>
</event>
<event>
 5    1  0.9647543E-007  0.2000243E+02  0.7818608E-02  0.1745280E+00
         -1   -1    0    0    0  501 -0.00000000000E+00  0.00000000000E+00  0.41144536834E+01  0.41144563336E+01  0.46700000000E-02 0. -1.
          1   -1    0    0  501    0  0.00000000000E+00 -0.00000000000E+00 -0.24310447408E+02  0.24310447857E+02  0.46700000000E-02 0.  1.
       1023    2    1    2    0    0  0.00000000000E+00  0.00000000000E+00 -0.20195993725E+02  0.28424904191E+02  0.20002425246E+02 0.  0.
        -11    1    3    3    0    0  0.59966419779E+01 -0.80037549513E+01 -0.10003249202E+02  0.14145133551E+02  0.51100000000E-03 0.  1.
         11    1    3    3    0    0 -0.59966419779E+01  0.80037549513E+01 -0.10192744524E+02  0.14279770639E+02  0.51100000000E-03 0. -1.
<mgrwt>
<rscale>  0 0.20002425E+02</rscale>
<asrwt>0</asrwt>
<pdfrwt beam="2">  1        1 0.37400690E-02 0.20002425E+02</pdfrwt>
<pdfrwt beam="1">  1       -1 0.63299313E-03 0.20002425E+02</pdfrwt>
<totfact> 0.40036766E+06</totfact>
</mgrwt>
</event>
<event>
 5    1  0.9583198E-007  0.2000238E+02  0.7818608E-02  0.1745281E+00
         -1   -1    0    0    0  501 -0.00000000000E+00  0.00000000000E+00  0.23301178275E+01  0.23301225072E+01  0.46700000000E-02 0.  1.
          1   -1    0    0  501    0  0.00000000000E+00 -0.00000000000E+00 -0.42926446524E+02  0.42926446778E+02  0.46700000000E-02 0. -1.
       1023    2    1    2    0    0  0.00000000000E+00  0.00000000000E+00 -0.40596328696E+02  0.45256569285E+02  0.20002378854E+02 0.  0.
        -11    1    3    3    0    0 -0.35176288491E+01 -0.93621481457E+01 -0.20261746638E+02  0.22595617002E+02  0.51100000000E-03 0. -1.
         11    1    3    3    0    0  0.35176288491E+01  0.93621481457E+01 -0.20334582058E+02  0.22660952283E+02  0.51100000000E-03 0.  1.
<mgrwt>
<rscale>  0 0.20002379E+02</rscale>
<asrwt>0</asrwt>
<pdfrwt beam="2">  1        1 0.66040685E-02 0.20002379E+02</pdfrwt>
<pdfrwt beam="1">  1       -1 0.35848008E-03 0.20002379E+02</pdfrwt>
<totfact> 0.41280453E+06</totfact>
</mgrwt>
</event>
<event>
 5    1  0.9583198E-007  0.2000145E+02  0.7818608E-02  0.1745299E+00
          1   -1    0    0  501    0  0.00000000000E+00  0.00000000000E+00  0.35201415909E+01  0.35201446886E+01  0.46700000000E-02 0.  1.
         -1   -1    0    0    0  501 -0.00000000000E+00 -0.00000000000E+00 -0.28412044122E+02  0.28412044505E+02  0.46700000000E-02 0. -1.
       1023    2    1    2    0    0  0.00000000000E+00  0.00000000000E+00 -0.24891902531E+02  0.31932189194E+02  0.20001447326E+02 0.  0.
        -11    1    3    3    0    0 -0.44393316500E+01 -0.89613112672E+01 -0.12379963837E+02  0.15914655824E+02  0.51100000000E-03 0. -1.
         11    1    3    3    0    0  0.44393316500E+01  0.89613112672E+01 -0.12511938694E+02  0.16017533371E+02  0.51100000000E-03 0.  1.
<mgrwt>
<rscale>  0 0.20001447E+02</rscale>
<asrwt>0</asrwt>
<pdfrwt beam="1">  1        1 0.54156053E-03 0.20001447E+02</pdfrwt>
<pdfrwt beam="2">  1       -1 0.43710838E-02 0.20001447E+02</pdfrwt>
<totfact> 0.36619193E+06</totfact>
</mgrwt>
</event>
<event>
 5    1  0.9583198E-007  0.2000033E+02  0.7818608E-02  0.1745322E+00
         -1   -1    0    0    0  501 -0.00000000000E+00  0.00000000000E+00  0.26842131547E+02  0.26842131953E+02  0.46700000000E-02 0. -1.
          1   -1    0    0  501    0  0.00000000000E+00 -0.00000000000E+00 -0.37256069142E+01  0.37256098411E+01  0.46700000000E-02 0.  1.
       1023    2    1    2    0    0  0.00000000000E+00  0.00000000000E+00  0.23116524633E+02  0.30567741794E+02  0.20000328180E+02 0.  0.
        -11    1    3    3    0    0 -0.15598677462E+01 -0.98777323401E+01  0.11592369032E+02  0.15309663732E+02  0.51100000000E-03 0.  1.
         11    1    3    3    0    0  0.15598677462E+01  0.98777323401E+01  0.11524155601E+02  0.15258078062E+02  0.51100000000E-03 0. -1.
<mgrwt>
<rscale>  0 0.20000328E+02</rscale>
<asrwt>0</asrwt>
<pdfrwt beam="2">  1        1 0.57317054E-03 0.20000328E+02</pdfrwt>
<pdfrwt beam="1">  1       -1 0.41295590E-02 0.20000328E+02</pdfrwt>
<totfact> 0.36763478E+06</totfact>
</mgrwt>
</event>
<event>
 5    1  0.9583198E-007  0.2000048E+02  0.7818608E-02  0.1745319E+00
         -1   -1    0    0    0  501 -0.00000000000E+00  0.00000000000E+00  0.10339371449E+03  0.10339371460E+03  0.46700000000E-02 0.  1.
          1   -1    0    0  501    0  0.00000000000E+00 -0.00000000000E+00 -0.96721718625E+00  0.96722846023E+00  0.46700000000E-02 0. -1.
       1023    2    1    2    0    0  0.00000000000E+00  0.00000000000E+00  0.10242649731E+03  0.10436094306E+03  0.20000477133E+02 0.  0.
        -11    1    3    3    0    0 -0.62794607070E+01 -0.77828302902E+01  0.51075488213E+02  0.52045264631E+02  0.51100000000E-03 0.  1.
         11    1    3    3    0    0  0.62794607070E+01  0.77828302902E+01  0.51351009093E+02  0.52315678426E+02  0.51100000000E-03 0. -1.
<mgrwt>
<rscale>  0 0.20000477E+02</rscale>
<asrwt>0</asrwt>
<pdfrwt beam="2">  1        1 0.14880350E-03 0.20000477E+02</pdfrwt>
<pdfrwt beam="1">  1       -1 0.15906728E-01 0.20000477E+02</pdfrwt>
<totfact> 0.31685243E+06</totfact>
</mgrwt>
</event>
<event>
 5    1  0.9677237E-007  0.2000136E+02  0.7818608E-02  0.1745301E+00
         -1   -1    0    0    0  501 -0.00000000000E+00  0.00000000000E+00  0.28827511843E+02  0.28827512221E+02  0.46700000000E-02 0. -1.
          1   -1    0    0  501    0  0.00000000000E+00 -0.00000000000E+00 -0.34693771110E+01  0.34693802541E+01  0.46700000000E-02 0.  1.
       1023    2    1    2    0    0  0.00000000000E+00  0.00000000000E+00  0.25358134732E+02  0.32296892475E+02  0.20001356616E+02 0.  0.
        -11    1    3    3    0    0 -0.26179885570E+01  0.96513715793E+01  0.12511812364E+02  0.16017124784E+02  0.51100000000E-03 0. -1.
         11    1    3    3    0    0  0.26179885570E+01 -0.96513715793E+01  0.12846322368E+02  0.16279767691E+02  0.51100000000E-03 0.  1.
<mgrwt>
<rscale>  0 0.20001357E+02</rscale>
<asrwt>0</asrwt>
<pdfrwt beam="2">  1        1 0.53375058E-03 0.20001357E+02</pdfrwt>
<pdfrwt beam="1">  1       -1 0.44350022E-02 0.20001357E+02</pdfrwt>
<totfact> 0.36583040E+06</totfact>
</mgrwt>
</event>
<event>
 5    1  0.9583198E-007  0.2000016E+02  0.7818608E-02  0.1745325E+00
         -1   -1    0    0    0  501 -0.00000000000E+00  0.00000000000E+00  0.12892883961E+01  0.12892968538E+01  0.46700000000E-02 0.  1.
          1   -1    0    0  501    0  0.00000000000E+00 -0.00000000000E+00 -0.77563122841E+02  0.77563122981E+02  0.46700000000E-02 0. -1.
       1023    2    1    2    0    0  0.00000000000E+00  0.00000000000E+00 -0.76273834445E+02  0.78852419835E+02  0.20000157324E+02 0.  0.
        -11    1    3    3    0    0  0.96057311661E+01 -0.27804515825E+01 -0.38232742762E+02  0.39518901827E+02  0.51100000000E-03 0. -1.
         11    1    3    3    0    0 -0.96057311661E+01  0.27804515825E+01 -0.38041091682E+02  0.39333518008E+02  0.51100000000E-03 0.  1.
<mgrwt>
<rscale>  0 0.20000157E+02</rscale>
<asrwt>0</asrwt>
<pdfrwt beam="2">  1        1 0.11932785E-01 0.20000157E+02</pdfrwt>
<pdfrwt beam="1">  1       -1 0.19835278E-03 0.20000157E+02</pdfrwt>
<totfact> 0.43232369E+06</totfact>
</mgrwt>
</event>
<event>
 5    1  0.9583198E-007  0.2000528E+02  0.7818608E-02  0.1745223E+00
          1   -1    0    0  501    0  0.00000000000E+00  0.00000000000E+00  0.14989182275E+02  0.14989183002E+02  0.46700000000E-02 0.  1.
         -1   -1    0    0    0  501 -0.00000000000E+00 -0.00000000000E+00 -0.66750002460E+01  0.66750018796E+01  0.46700000000E-02 0. -1.
       1023    2    1    2    0    0  0.00000000000E+00  0.00000000000E+00  0.83141820289E+01  0.21664184882E+02  0.20005281397E+02 0.  0.
        -11    1    3    3    0    0 -0.71677322661E+01  0.69762542488E+01  0.40583636658E+01  0.10794203310E+02  0.51100000000E-03 0.  1.
         11    1    3    3    0    0  0.71677322661E+01 -0.69762542488E+01  0.42558183631E+01  0.10869981572E+02  0.51100000000E-03 0. -1.
<mgrwt>
<rscale>  0 0.20005281E+02</rscale>
<asrwt>0</asrwt>
<pdfrwt beam="1">  1        1 0.23060282E-02 0.20005281E+02</pdfrwt>
<pdfrwt beam="2">  1       -1 0.10269233E-02 0.20005281E+02</pdfrwt>
<totfact> 0.39220222E+06</totfact>
</mgrwt>
</event>
<event>
 5    1  0.9916245E-007  0.2000143E+02  0.7818608E-02  0.1745300E+00
         -1   -1    0    0    0  501 -0.00000000000E+00  0.00000000000E+00  0.21246339040E+01  0.21246390364E+01  0.46700000000E-02 0.  1.
          1   -1    0    0  501    0  0.00000000000E+00 -0.00000000000E+00 -0.47073578680E+02  0.47073578912E+02  0.46700000000E-02 0. -1.
       1023    2    1    2    0    0  0.00000000000E+00  0.00000000000E+00 -0.44948944776E+02  0.49198217949E+02  0.20001425269E+02 0.  0.
        -11    1    3    3    0    0 -0.80649140200E+01 -0.59134094080E+01 -0.22609286566E+02  0.24722279189E+02  0.51100000000E-03 0.  1.
         11    1    3    3    0    0  0.80649140200E+01  0.59134094080E+01 -0.22339658210E+02  0.24475938760E+02  0.51100000000E-03 0. -1.
<mgrwt>
<rscale>  0 0.20001425E+02</rscale>
<asrwt>0</asrwt>
<pdfrwt beam="2">  1        1 0.72420887E-02 0.20001425E+02</pdfrwt>
<pdfrwt beam="1">  1       -1 0.32686720E-03 0.20001425E+02</pdfrwt>
<totfact> 0.41535257E+06</totfact>
</mgrwt>
</event>
<event>
 5    1  0.9583198E-007  0.2000088E+02  0.7818608E-02  0.1745311E+00
          1   -1    0    0  501    0  0.00000000000E+00  0.00000000000E+00  0.30796574169E+01  0.30796609577E+01  0.46700000000E-02 0.  1.
         -1   -1    0    0    0  501 -0.00000000000E+00 -0.00000000000E+00 -0.32473973089E+02  0.32473973425E+02  0.46700000000E-02 0. -1.
       1023    2    1    2    0    0  0.00000000000E+00  0.00000000000E+00 -0.29394315673E+02  0.35553634383E+02  0.20000878080E+02 0.  0.
        -11    1    3    3    0    0  0.52284468693E+01 -0.85247930632E+01 -0.14706445287E+02  0.17784495682E+02  0.51100000000E-03 0.  1.
         11    1    3    3    0    0 -0.52284468693E+01  0.85247930632E+01 -0.14687870386E+02  0.17769138701E+02  0.51100000000E-03 0. -1.
<mgrwt>
<rscale>  0 0.20000878E+02</rscale>
<asrwt>0</asrwt>
<pdfrwt beam="1">  1        1 0.47379377E-03 0.20000878E+02</pdfrwt>
<pdfrwt beam="2">  1       -1 0.49959959E-02 0.20000878E+02</pdfrwt>
<totfact> 0.36272683E+06</totfact>
</mgrwt>
</event>
<event>
 5    1  0.9674452E-007  0.2000057E+02  0.7818608E-02  0.1745317E+00
         -1   -1    0    0    0  501 -0.00000000000E+00  0.00000000000E+00  0.36399201666E+01  0.36399231624E+01  0.46700000000E-02 0.  1.
          1   -1    0    0  501    0  0.00000000000E+00 -0.00000000000E+00 -0.27474674054E+02  0.27474674450E+02  0.46700000000E-02 0. -1.
       1023    2    1    2    0    0  0.00000000000E+00  0.00000000000E+00 -0.23834753887E+02  0.31114597613E+02  0.20000567286E+02 0.  0.
        -11    1    3    3    0    0  0.66228633386E+01  0.74925501385E+01 -0.11806865212E+02  0.15472643367E+02  0.51100000000E-03 0. -1.
         11    1    3    3    0    0 -0.66228633386E+01 -0.74925501385E+01 -0.12027888675E+02  0.15641954246E+02  0.51100000000E-03 0.  1.
<mgrwt>
<rscale>  0 0.20000567E+02</rscale>
<asrwt>0</asrwt>
<pdfrwt beam="2">  1        1 0.42268731E-02 0.20000567E+02</pdfrwt>
<pdfrwt beam="1">  1       -1 0.55998800E-03 0.20000567E+02</pdfrwt>
<totfact> 0.40277179E+06</totfact>
</mgrwt>
</event>
<event>
 5    1  0.1011687E-006  0.2000156E+02  0.7818608E-02  0.1745297E+00
         -1   -1    0    0    0  501 -0.00000000000E+00  0.00000000000E+00  0.60421268660E+01  0.60421286707E+01  0.46700000000E-02 0.  1.
          1   -1    0    0  501    0  0.00000000000E+00 -0.00000000000E+00 -0.16553044680E+02  0.16553045339E+02  0.46700000000E-02 0. -1.
       1023    2    1    2    0    0  0.00000000000E+00  0.00000000000E+00 -0.10510917814E+02  0.22595174010E+02  0.20001562320E+02 0.  0.
        -11    1    3    3    0    0 -0.71891111094E+01  0.69515330642E+01 -0.51513509602E+01  0.11249157633E+02  0.51100000000E-03 0.  1.
         11    1    3    3    0    0  0.71891111094E+01 -0.69515330642E+01 -0.53595668539E+01  0.11346016376E+02  0.51100000000E-03 0. -1.
<mgrwt>
<rscale>  0 0.20001562E+02</rscale>
<asrwt>0</asrwt>
<pdfrwt beam="2">  1        1 0.25466224E-02 0.20001562E+02</pdfrwt>
<pdfrwt beam="1">  1       -1 0.92955817E-03 0.20001562E+02</pdfrwt>
<totfact> 0.39391650E+06</totfact>
</mgrwt>
</event>
<event>
 5    1  0.9647078E-007  0.2000059E+02  0.7818608E-02  0.1745316E+00
          1   -1    0    0  501    0  0.00000000000E+00  0.00000000000E+00  0.79360075578E+02  0.79360075715E+02  0.46700000000E-02 0.  1.
         -1   -1    0    0    0  501 -0.00000000000E+00 -0.00000000000E+00 -0.12601490371E+01  0.12601576904E+01  0.46700000000E-02 0. -1.
       1023    2    1    2    0    0  0.00000000000E+00  0.00000000000E+00  0.78099926541E+02  0.80620233406E+02  0.20000587709E+02 0.  0.
        -11    1    3    3    0    0 -0.99407095186E+01  0.10899096280E+01  0.39115974457E+02  0.40374064283E+02  0.51100000000E-03 0. -1.
         11    1    3    3    0    0  0.99407095186E+01 -0.10899096280E+01  0.38983952084E+02  0.40246169123E+02  0.51100000000E-03 0.  1.
<mgrwt>
<rscale>  0 0.20000588E+02</rscale>
<asrwt>0</asrwt>
<pdfrwt beam="1">  1        1 0.12209244E-01 0.20000588E+02</pdfrwt>
<pdfrwt beam="2">  1       -1 0.19386974E-03 0.20000588E+02</pdfrwt>
<totfact> 0.43323536E+06</totfact>
</mgrwt>
</event>
<event>
 5    1  0.9583198E-007  0.2000286E+02  0.7818608E-02  0.1745271E+00
         -1   -1    0    0    0  501 -0.00000000000E+00  0.00000000000E+00  0.16905804030E+01  0.16905868531E+01  0.46700000000E-02 0. -1.
          1   -1    0    0  501    0  0.00000000000E+00 -0.00000000000E+00 -0.59168094979E+02  0.59168095163E+02  0.46700000000E-02 0.  1.
       1023    2    1    2    0    0  0.00000000000E+00  0.00000000000E+00 -0.57477514576E+02  0.60858682016E+02  0.20002862169E+02 0.  0.
        -11    1    3    3    0    0 -0.46610589828E+01 -0.88488276028E+01 -0.28852706393E+02  0.30536959365E+02  0.51100000000E-03 0. -1.
         11    1    3    3    0    0  0.46610589828E+01  0.88488276028E+01 -0.28624808183E+02  0.30321722652E+02  0.51100000000E-03 0.  1.
<mgrwt>
<rscale>  0 0.20002862E+02</rscale>
<asrwt>0</asrwt>
<pdfrwt beam="2">  1        1 0.91027828E-02 0.20002862E+02</pdfrwt>
<pdfrwt beam="1">  1       -1 0.26008985E-03 0.20002862E+02</pdfrwt>
<totfact> 0.42226623E+06</totfact>
</mgrwt>
</event>
<event>
 5    1  0.9583198E-007  0.2000095E+02  0.7818608E-02  0.1745309E+00
         -1   -1    0    0    0  501 -0.00000000000E+00  0.00000000000E+00  0.51152037018E+02  0.51152037232E+02  0.46700000000E-02 0.  1.
          1   -1    0    0  501    0  0.00000000000E+00 -0.00000000000E+00 -0.19551388358E+01  0.19551444131E+01  0.46700000000E-02 0. -1.
       1023    2    1    2    0    0  0.00000000000E+00  0.00000000000E+00  0.49196898183E+02  0.53107181645E+02  0.20000948764E+02 0.  0.
        -11    1    3    3    0    0 -0.91706286003E+01  0.39880118941E+01  0.24782788292E+02  0.26724357122E+02  0.51100000000E-03 0.  1.
         11    1    3    3    0    0  0.91706286003E+01 -0.39880118941E+01  0.24414109891E+02  0.26382824523E+02  0.51100000000E-03 0. -1.
<mgrwt>
<rscale>  0 0.20000949E+02</rscale>
<asrwt>0</asrwt>
<pdfrwt beam="2">  1        1 0.30079103E-03 0.20000949E+02</pdfrwt>
<pdfrwt beam="1">  1       -1 0.78695448E-02 0.20000949E+02</pdfrwt>
<totfact> 0.34844348E+06</totfact>
</mgrwt>
</event>
<event>
 5    1  0.9583198E-007  0.2000098E+02  0.7818608E-02  0.1745309E+00
          1   -1    0    0  501    0  0.00000000000E+00  0.00000000000E+00  0.27453920662E+01  0.27453960381E+01  0.46700000000E-02 0. -1.
         -1   -1    0    0    0  501 -0.00000000000E+00 -0.00000000000E+00 -0.36428191932E+02  0.36428192232E+02  0.46700000000E-02 0.  1.
       1023    2    1    2    0    0  0.00000000000E+00  0.00000000000E+00 -0.33682799866E+02  0.39173588270E+02  0.20000975254E+02 0.  0.
        -11    1    3    3    0    0  0.95313733752E+01 -0.30265889698E+01 -0.16744785874E+02  0.19503722040E+02  0.51100000000E-03 0. -1.
         11    1    3    3    0    0 -0.95313733752E+01  0.30265889698E+01 -0.16938013993E+02  0.19669866229E+02  0.51100000000E-03 0.  1.
<mgrwt>
<rscale>  0 0.20000975E+02</rscale>
<asrwt>0</asrwt>
<pdfrwt beam="1">  1        1 0.42236837E-03 0.20000975E+02</pdfrwt>
<pdfrwt beam="2">  1       -1 0.56043372E-02 0.20000975E+02</pdfrwt>
<totfact> 0.35948510E+06</totfact>
</mgrwt>
</event>
<event>
 5    1  0.9583198E-007  0.2000379E+02  0.7818608E-02  0.1745253E+00
          1   -1    0    0  501    0  0.00000000000E+00  0.00000000000E+00  0.15690938314E+02  0.15690939009E+02  0.46700000000E-02 0. -1.
         -1   -1    0    0    0  501 -0.00000000000E+00 -0.00000000000E+00 -0.63755160516E+01  0.63755177619E+01  0.46700000000E-02 0.  1.
       1023    2    1    2    0    0  0.00000000000E+00  0.00000000000E+00  0.93154222620E+01  0.22066456770E+02  0.20003785204E+02 0.  0.
        -11    1    3    3    0    0  0.77057100732E+01  0.63761638294E+01  0.45843524048E+01  0.11002259774E+02  0.51100000000E-03 0. -1.
         11    1    3    3    0    0 -0.77057100732E+01 -0.63761638294E+01  0.47310698572E+01  0.11064196996E+02  0.51100000000E-03 0.  1.
<mgrwt>
<rscale>  0 0.20003785E+02</rscale>
<asrwt>0</asrwt>
<pdfrwt beam="1">  1        1 0.24139907E-02 0.20003785E+02</pdfrwt>
<pdfrwt beam="2">  1       -1 0.98084881E-03 0.20003785E+02</pdfrwt>
<totfact> 0.39297879E+06</totfact>
</mgrwt>
</event>
<event>
 5    1  0.9583198E-007  0.2000041E+02  0.7818608E-02  0.1745320E+00
         -1   -1    0    0    0  501 -0.00000000000E+00  0.00000000000E+00  0.12552274112E+02  0.12552274980E+02  0.46700000000E-02 0.  1.
          1   -1    0    0  501    0  0.00000000000E+00 -0.00000000000E+00 -0.79670103507E+01  0.79670117194E+01  0.46700000000E-02 0. -1.
       1023    2    1    2    0    0  0.00000000000E+00  0.00000000000E+00  0.45852637610E+01  0.20519286700E+02  0.20000412069E+02 0.  0.
        -11    1    3    3    0    0 -0.85032516862E+01  0.52629202630E+01  0.23156078271E+01  0.10264777582E+02  0.51100000000E-03 0. -1.
         11    1    3    3    0    0  0.85032516862E+01 -0.52629202630E+01  0.22696559339E+01  0.10254509118E+02  0.51100000000E-03 0.  1.
<mgrwt>
<rscale>  0 0.20000412E+02</rscale>
<asrwt>0</asrwt>
<pdfrwt beam="2">  1        1 0.12256941E-02 0.20000412E+02</pdfrwt>
<pdfrwt beam="1">  1       -1 0.19311193E-02 0.20000412E+02</pdfrwt>
<totfact> 0.38260720E+06</totfact>
</mgrwt>
</event>
<event>
 5    1  0.9583198E-007  0.2000051E+02  0.7818608E-02  0.1745318E+00
          1   -1    0    0  501    0  0.00000000000E+00  0.00000000000E+00  0.16074496776E+01  0.16074564613E+01  0.46700000000E-02 0. -1.
         -1   -1    0    0    0  501 -0.00000000000E+00 -0.00000000000E+00 -0.62213377670E+02  0.62213377845E+02  0.46700000000E-02 0.  1.
       1023    2    1    2    0    0  0.00000000000E+00  0.00000000000E+00 -0.60605927992E+02  0.63820834306E+02  0.20000509588E+02 0.  0.
        -11    1    3    3    0    0  0.89464601310E+01  0.44683262751E+01 -0.30294457758E+02  0.31902339408E+02  0.51100000000E-03 0.  1.
         11    1    3    3    0    0 -0.89464601310E+01 -0.44683262751E+01 -0.30311470234E+02  0.31918494898E+02  0.51100000000E-03 0. -1.
<mgrwt>
<rscale>  0 0.20000510E+02</rscale>
<asrwt>0</asrwt>
<pdfrwt beam="1">  1        1 0.24730053E-03 0.20000510E+02</pdfrwt>
<pdfrwt beam="2">  1       -1 0.95712876E-02 0.20000510E+02</pdfrwt>
<totfact> 0.34095549E+06</totfact>
</mgrwt>
</event>
<event>
 4    1  0.9583198E-007  0.2230154E+02  0.7818608E-02  0.1703089E+00
          1   -1    0    0  501    0  0.00000000000E+00  0.00000000000E+00  0.39257411766E+02  0.39257412044E+02  0.46700000000E-02 0. -1.
         -1   -1    0    0    0  501 -0.00000000000E+00 -0.00000000000E+00 -0.31672894262E+01  0.31672928690E+01  0.46700000000E-02 0.  1.
        -11    1    1    2    0    0  0.10769390968E+02 -0.28486862500E+01  0.17103712286E+02  0.20411559700E+02  0.51100000000E-03 0.  1.
         11    1    1    2    0    0 -0.10769390968E+02  0.28486862500E+01  0.18986410054E+02  0.22013145213E+02  0.51100000000E-03 0. -1.
<mgrwt>
<rscale>  0 0.22301539E+02</rscale>
<asrwt>0</asrwt>
<pdfrwt beam="1">  1        1 0.60396023E-02 0.22301539E+02</pdfrwt>
<pdfrwt beam="2">  1       -1 0.48727557E-03 0.22301539E+02</pdfrwt>
<totfact> 0.32134890E+06</totfact>
</mgrwt>
</event>
<event>
 4    1  0.9583198E-007  0.2003131E+02  0.7818608E-02  0.1744706E+00
         -1   -1    0    0    0  501 -0.00000000000E+00  0.00000000000E+00  0.10363186789E+03  0.10363186799E+03  0.46700000000E-02 0.  1.
          1   -1    0    0  501    0  0.00000000000E+00 -0.00000000000E+00 -0.96797195510E+00  0.96798322029E+00  0.46700000000E-02 0. -1.
        -11    1    1    2    0    0  0.97908853831E+01  0.20730465387E+01  0.53383648361E+02  0.54313652714E+02  0.51100000000E-03 0.  1.
         11    1    1    2    0    0 -0.97908853831E+01 -0.20730465387E+01  0.49280247574E+02  0.50286198501E+02  0.51100000000E-03 0. -1.
<mgrwt>
<rscale>  0 0.20031309E+02</rscale>
<asrwt>0</asrwt>
<pdfrwt beam="2">  1        1 0.14891971E-03 0.20031309E+02</pdfrwt>
<pdfrwt beam="1">  1       -1 0.15943357E-01 0.20031309E+02</pdfrwt>
<totfact> 0.31565970E+06</totfact>
</mgrwt>
</event>
<event>
 5    1  0.9583198E-007  0.2000021E+02  0.7818608E-02  0.1745324E+00
          1   -1    0    0  501    0  0.00000000000E+00  0.00000000000E+00  0.11518345195E+03  0.11518345204E+03  0.46700000000E-02 0.  1.
         -1   -1    0    0    0  501 -0.00000000000E+00 -0.00000000000E+00 -0.86819187432E+00  0.86820443419E+00  0.46700000000E-02 0. -1.
       1023    2    1    2    0    0  0.00000000000E+00  0.00000000000E+00  0.11431526007E+03  0.11605165648E+03  0.20000207132E+02 0.  0.
        -11    1    3    3    0    0 -0.46561344460E+01  0.88499216497E+01  0.57372392439E+02  0.58237377307E+02  0.51100000000E-03 0. -1.
         11    1    3    3    0    0  0.46561344460E+01 -0.88499216497E+01  0.56942867635E+02  0.57814279170E+02  0.51100000000E-03 0.  1.
<mgrwt>
<rscale>  0 0.20000207E+02</rscale>
<asrwt>0</asrwt>
<pdfrwt beam="1">  1        1 0.17720532E-01 0.20000207E+02</pdfrwt>
<pdfrwt beam="2">  1       -1 0.13356895E-03 0.20000207E+02</pdfrwt>
<totfact> 0.45078087E+06</totfact>
</mgrwt>
</event>
<event>
 4    1  0.9679245E-007  0.2010639E+02  0.7818608E-02  0.1743221E+00
          1   -1    0    0  501    0  0.00000000000E+00  0.00000000000E+00  0.16379839893E+01  0.16379906466E+01  0.46700000000E-02 0. -1.
         -1   -1    0    0    0  501 -0.00000000000E+00 -0.00000000000E+00 -0.61701743491E+02  0.61701743668E+02  0.46700000000E-02 0.  1.
        -11    1    1    2    0    0 -0.93671115067E+01  0.35319312219E+01 -0.32935168134E+02  0.34422995460E+02  0.51100000000E-03 0.  1.
         11    1    1    2    0    0  0.93671115067E+01 -0.35319312219E+01 -0.27128591367E+02  0.28916738854E+02  0.51100000000E-03 0. -1.
<mgrwt>
<rscale>  0 0.20106385E+02</rscale>
<asrwt>0</asrwt>
<pdfrwt beam="1">  1        1 0.25199811E-03 0.20106385E+02</pdfrwt>
<pdfrwt beam="2">  1       -1 0.94925746E-02 0.20106385E+02</pdfrwt>
<totfact> 0.33735437E+06</totfact>
</mgrwt>
</event>
<event>
 5    1  0.9583198E-007  0.2000054E+02  0.7818608E-02  0.1745317E+00
         -1   -1    0    0    0  501 -0.00000000000E+00  0.00000000000E+00  0.10249810247E+01  0.10249916634E+01  0.46700000000E-02 0.  1.
          1   -1    0    0  501    0  0.00000000000E+00 -0.00000000000E+00 -0.97567581867E+02  0.97567581979E+02  0.46700000000E-02 0. -1.
       1023    2    1    2    0    0  0.00000000000E+00  0.00000000000E+00 -0.96542600842E+02  0.98592573642E+02  0.20000544992E+02 0.  0.
        -11    1    3    3    0    0  0.88377578709E+01 -0.46794823831E+01 -0.48054729065E+02  0.49084218495E+02  0.51100000000E-03 0. -1.
         11    1    3    3    0    0 -0.88377578709E+01  0.46794823831E+01 -0.48487871777E+02  0.49508355146E+02  0.51100000000E-03 0.  1.
<mgrwt>
<rscale>  0 0.20000545E+02</rscale>
<asrwt>0</asrwt>
<pdfrwt beam="2">  1        1 0.15010391E-01 0.20000545E+02</pdfrwt>
<pdfrwt beam="1">  1       -1 0.15769029E-03 0.20000545E+02</pdfrwt>
<totfact> 0.44239569E+06</totfact>
</mgrwt>
</event>
<event>
 5    1  0.9611656E-007  0.2000121E+02  0.7818608E-02  0.1745304E+00
          1   -1    0    0  501    0  0.00000000000E+00  0.00000000000E+00  0.38600865134E+02  0.38600865416E+02  0.46700000000E-02 0. -1.
         -1   -1    0    0    0  501 -0.00000000000E+00 -0.00000000000E+00 -0.25909266015E+01  0.25909308102E+01  0.46700000000E-02 0.  1.
       1023    2    1    2    0    0  0.00000000000E+00  0.00000000000E+00  0.36009938532E+02  0.41191796226E+02  0.20001210045E+02 0.  0.
        -11    1    3    3    0    0  0.92725764870E+01  0.37458315375E+01  0.17977964299E+02  0.20572290325E+02  0.51100000000E-03 0.  1.
         11    1    3    3    0    0 -0.92725764870E+01 -0.37458315375E+01  0.18031974233E+02  0.20619505901E+02  0.51100000000E-03 0. -1.
<mgrwt>
<rscale>  0 0.20001210E+02</rscale>
<asrwt>0</asrwt>
<pdfrwt beam="1">  1        1 0.59385951E-02 0.20001210E+02</pdfrwt>
<pdfrwt beam="2">  1       -1 0.39860443E-03 0.20001210E+02</pdfrwt>
<totfact> 0.41016909E+06</totfact>
</mgrwt>
</event>
<event>
 5    1  0.9583198E-007  0.2000327E+02  0.7818608E-02  0.1745263E+00
         -1   -1    0    0    0  501 -0.00000000000E+00  0.00000000000E+00  0.17526405369E+01  0.17526467586E+01  0.46700000000E-02 0.  1.
          1   -1    0    0  501    0  0.00000000000E+00 -0.00000000000E+00 -0.57075299071E+02  0.57075299262E+02  0.46700000000E-02 0. -1.
       1023    2    1    2    0    0  0.00000000000E+00  0.00000000000E+00 -0.55322658534E+02  0.58827946020E+02  0.20003266876E+02 0.  0.
        -11    1    3    3    0    0 -0.99729928652E+01  0.75105324170E+00 -0.27924430525E+02  0.29661397271E+02  0.51100000000E-03 0.  1.
         11    1    3    3    0    0  0.99729928652E+01 -0.75105324170E+00 -0.27398228008E+02  0.29166548749E+02  0.51100000000E-03 0. -1.
<mgrwt>
<rscale>  0 0.20003267E+02</rscale>
<asrwt>0</asrwt>
<pdfrwt beam="2">  1        1 0.87808143E-02 0.20003267E+02</pdfrwt>
<pdfrwt beam="1">  1       -1 0.26963754E-03 0.20003267E+02</pdfrwt>
<totfact> 0.42106846E+06</totfact>
</mgrwt>
</event>
<event>
 5    1  0.1020110E-006  0.2000041E+02  0.7818608E-02  0.1745320E+00
          1   -1    0    0  501    0  0.00000000000E+00  0.00000000000E+00  0.10855046243E+03  0.10855046253E+03  0.46700000000E-02 0.  1.
         -1   -1    0    0    0  501 -0.00000000000E+00 -0.00000000000E+00 -0.92126249646E+00  0.92127433280E+00  0.46700000000E-02 0. -1.
       1023    2    1    2    0    0  0.00000000000E+00  0.00000000000E+00  0.10762919994E+03  0.10947173687E+03  0.20000412334E+02 0.  0.
        -11    1    3    3    0    0  0.99961107226E+01 -0.28615859177E+00  0.53800321089E+02  0.54721829884E+02  0.51100000000E-03 0.  1.
         11    1    3    3    0    0 -0.99961107226E+01  0.28615859177E+00  0.53828878848E+02  0.54749906983E+02  0.51100000000E-03 0. -1.
<mgrwt>
<rscale>  0 0.20000412E+02</rscale>
<asrwt>0</asrwt>
<pdfrwt beam="1">  1        1 0.16700072E-01 0.20000412E+02</pdfrwt>
<pdfrwt beam="2">  1       -1 0.14173361E-03 0.20000412E+02</pdfrwt>
<totfact> 0.44767410E+06</totfact>
</mgrwt>
</event>
<event>
 5    1  0.9583198E-007  0.2000052E+02  0.7818608E-02  0.1745318E+00
         -1   -1    0    0    0  501 -0.00000000000E+00  0.00000000000E+00  0.29779470609E+02  0.29779470975E+02  0.46700000000E-02 0. -1.
          1   -1    0    0  501    0  0.00000000000E+00 -0.00000000000E+00 -0.33581899343E+01  0.33581931814E+01  0.46700000000E-02 0.  1.
       1023    2    1    2    0    0  0.00000000000E+00  0.00000000000E+00  0.26421280675E+02  0.33137664157E+02  0.20000517825E+02 0.  0.
        -11    1    3    3    0    0  0.91234931576E+01  0.40946193104E+01  0.13154616539E+02  0.16524163254E+02  0.51100000000E-03 0. -1.
         11    1    3    3    0    0 -0.91234931576E+01 -0.40946193104E+01  0.13266664136E+02  0.16613500903E+02  0.51100000000E-03 0.  1.
<mgrwt>
<rscale>  0 0.20000518E+02</rscale>
<asrwt>0</asrwt>
<pdfrwt beam="2">  1        1 0.51664491E-03 0.20000518E+02</pdfrwt>
<pdfrwt beam="1">  1       -1 0.45814570E-02 0.20000518E+02</pdfrwt>
<totfact> 0.36503490E+06</totfact>
</mgrwt>
</event>
<event>
 5    1  0.9583198E-007  0.2000070E+02  0.7818608E-02  0.1745314E+00
          1   -1    0    0  501    0  0.00000000000E+00  0.00000000000E+00  0.21084246686E+01  0.21084298405E+01  0.46700000000E-02 0. -1.
         -1   -1    0    0    0  501 -0.00000000000E+00 -0.00000000000E+00 -0.47432009750E+02  0.47432009980E+02  0.46700000000E-02 0.  1.
       1023    2    1    2    0    0  0.00000000000E+00  0.00000000000E+00 -0.45323585081E+02  0.49540439820E+02  0.20000695312E+02 0.  0.
        -11    1    3    3    0    0 -0.95706061157E+01  0.28997726356E+01 -0.22557577980E+02  0.24674876035E+02  0.51100000000E-03 0. -1.
         11    1    3    3    0    0  0.95706061157E+01 -0.28997726356E+01 -0.22766007101E+02  0.24865563785E+02  0.51100000000E-03 0.  1.
<mgrwt>
<rscale>  0 0.20000695E+02</rscale>
<asrwt>0</asrwt>
<pdfrwt beam="1">  1        1 0.32437348E-03 0.20000695E+02</pdfrwt>
<pdfrwt beam="2">  1       -1 0.72972319E-02 0.20000695E+02</pdfrwt>
<totfact> 0.35111505E+06</totfact>
</mgrwt>
</event>
<event>
 5    1  0.9583198E-007  0.2001003E+02  0.7818608E-02  0.1745129E+00
          1   -1    0    0  501    0  0.00000000000E+00  0.00000000000E+00  0.23471612566E+02  0.23471613031E+02  0.46700000000E-02 0. -1.
         -1   -1    0    0    0  501 -0.00000000000E+00 -0.00000000000E+00 -0.42647401990E+01  0.42647427559E+01  0.46700000000E-02 0.  1.
       1023    2    1    2    0    0  0.00000000000E+00  0.00000000000E+00  0.19206872367E+02  0.27736355786E+02  0.20010034637E+02 0.  0.
        -11    1    3    3    0    0 -0.65989604915E+01  0.75198129950E+01  0.94916470036E+01  0.13790766119E+02  0.51100000000E-03 0. -1.
         11    1    3    3    0    0  0.65989604915E+01 -0.75198129950E+01  0.97152253635E+01  0.13945589667E+02  0.51100000000E-03 0.  1.
<mgrwt>
<rscale>  0 0.20010035E+02</rscale>
<asrwt>0</asrwt>
<pdfrwt beam="1">  1        1 0.36110177E-02 0.20010035E+02</pdfrwt>
<pdfrwt beam="2">  1       -1 0.65611408E-03 0.20010035E+02</pdfrwt>
<totfact> 0.39938891E+06</totfact>
</mgrwt>
</event>
<event>
 4    1  0.1079147E-006  0.2019496E+02  0.7818608E-02  0.1741479E+00
         -1   -1    0    0    0  501 -0.00000000000E+00  0.00000000000E+00  0.12235864768E+01  0.12235953886E+01  0.46700000000E-02 0.  1.
          1   -1    0    0  501    0  0.00000000000E+00 -0.00000000000E+00 -0.83327751333E+02  0.83327751464E+02  0.46700000000E-02 0. -1.
        -11    1    1    2    0    0 -0.52948779582E+00  0.10037956923E+02 -0.45063848494E+02  0.46171326360E+02  0.51100000000E-03 0.  1.
         11    1    1    2    0    0  0.52948779582E+00 -0.10037956923E+02 -0.37040316362E+02  0.38380020492E+02  0.51100000000E-03 0. -1.
<mgrwt>
<rscale>  0 0.20194959E+02</rscale>
<asrwt>0</asrwt>
<pdfrwt beam="2">  1        1 0.12819650E-01 0.20194959E+02</pdfrwt>
<pdfrwt beam="1">  1       -1 0.18824483E-03 0.20194959E+02</pdfrwt>
<totfact> 0.42605981E+06</totfact>
</mgrwt>
</event>
<event>
 5    1  0.9583198E-007  0.2000171E+02  0.7818608E-02  0.1745294E+00
         -1   -1    0    0    0  501 -0.00000000000E+00  0.00000000000E+00  0.30754703210E+02  0.30754703565E+02  0.46700000000E-02 0. -1.
          1   -1    0    0  501    0  0.00000000000E+00 -0.00000000000E+00 -0.32520892840E+01  0.32520926371E+01  0.46700000000E-02 0.  1.
       1023    2    1    2    0    0  0.00000000000E+00  0.00000000000E+00  0.27502613926E+02  0.34006796202E+02  0.20001710305E+02 0.  0.
        -11    1    3    3    0    0 -0.84614513647E+00 -0.99649935900E+01  0.13739941782E+02  0.16994206638E+02  0.51100000000E-03 0. -1.
         11    1    3    3    0    0  0.84614513647E+00  0.99649935900E+01  0.13762672145E+02  0.17012589564E+02  0.51100000000E-03 0.  1.
<mgrwt>
<rscale>  0 0.20001710E+02</rscale>
<asrwt>0</asrwt>
<pdfrwt beam="2">  1        1 0.50032172E-03 0.20001710E+02</pdfrwt>
<pdfrwt beam="1">  1       -1 0.47314931E-02 0.20001710E+02</pdfrwt>
<totfact> 0.36414814E+06</totfact>
</mgrwt>
</event>
<event>
 5    1  0.9583198E-007  0.2000068E+02  0.7818608E-02  0.1745314E+00
          1   -1    0    0  501    0  0.00000000000E+00  0.00000000000E+00  0.20531568030E+01  0.20531621140E+01  0.46700000000E-02 0. -1.
         -1   -1    0    0    0  501 -0.00000000000E+00 -0.00000000000E+00 -0.48708751232E+02  0.48708751456E+02  0.46700000000E-02 0.  1.
       1023    2    1    2    0    0  0.00000000000E+00  0.00000000000E+00 -0.46655594429E+02  0.50761913570E+02  0.20000684432E+02 0.  0.
        -11    1    3    3    0    0 -0.23217429331E+01 -0.97270919614E+01 -0.23343004946E+02  0.25394934306E+02  0.51100000000E-03 0. -1.
         11    1    3    3    0    0  0.23217429331E+01  0.97270919614E+01 -0.23312589484E+02  0.25366979264E+02  0.51100000000E-03 0.  1.
<mgrwt>
<rscale>  0 0.20000684E+02</rscale>
<asrwt>0</asrwt>
<pdfrwt beam="1">  1        1 0.31587074E-03 0.20000684E+02</pdfrwt>
<pdfrwt beam="2">  1       -1 0.74936536E-02 0.20000684E+02</pdfrwt>
<totfact> 0.35019322E+06</totfact>
</mgrwt>
</event>
<event>
 5    1  0.9583198E-007  0.2000120E+02  0.7818608E-02  0.1745304E+00
          1   -1    0    0  501    0  0.00000000000E+00  0.00000000000E+00  0.74804196115E+01  0.74804210692E+01  0.46700000000E-02 0. -1.
         -1   -1    0    0    0  501 -0.00000000000E+00 -0.00000000000E+00 -0.13369840604E+02  0.13369841420E+02  0.46700000000E-02 0.  1.
       1023    2    1    2    0    0  0.00000000000E+00  0.00000000000E+00 -0.58894209930E+01  0.20850262489E+02  0.20001204120E+02 0.  0.
        -11    1    3    3    0    0  0.91334815814E+01  0.40728101727E+01 -0.30087410367E+01  0.10443217483E+02  0.51100000000E-03 0. -1.
         11    1    3    3    0    0 -0.91334815814E+01 -0.40728101727E+01 -0.28806799562E+01  0.10407045007E+02  0.51100000000E-03 0.  1.
<mgrwt>
<rscale>  0 0.20001204E+02</rscale>
<asrwt>0</asrwt>
<pdfrwt beam="1">  1        1 0.11508340E-02 0.20001204E+02</pdfrwt>
<pdfrwt beam="2">  1       -1 0.20568987E-02 0.20001204E+02</pdfrwt>
<totfact> 0.38152629E+06</totfact>
</mgrwt>
</event>
<event>
 5    1  0.9583198E-007  0.2000381E+02  0.7818608E-02  0.1745252E+00
         -1   -1    0    0    0  501 -0.00000000000E+00  0.00000000000E+00  0.99989390696E+01  0.99989401602E+01  0.46700000000E-02 0. -1.
          1   -1    0    0  501    0  0.00000000000E+00 -0.00000000000E+00 -0.10004869372E+02  0.10004870462E+02  0.46700000000E-02 0.  1.
       1023    2    1    2    0    0  0.00000000000E+00  0.00000000000E+00 -0.59303026898E-02  0.20003810622E+02  0.20003809743E+02 0.  0.
        -11    1    3    3    0    0  0.15022615375E+01  0.98883450236E+01  0.41123022980E-01  0.10001892241E+02  0.51100000000E-03 0.  1.
         11    1    3    3    0    0 -0.15022615375E+01 -0.98883450236E+01 -0.47053325670E-01  0.10001918382E+02  0.51100000000E-03 0. -1.
<mgrwt>
<rscale>  0 0.20003810E+02</rscale>
<asrwt>0</asrwt>
<pdfrwt beam="2">  1        1 0.15392108E-02 0.20003810E+02</pdfrwt>
<pdfrwt beam="1">  1       -1 0.15382985E-02 0.20003810E+02</pdfrwt>
<totfact> 0.38608050E+06</totfact>
</mgrwt>
</event>
<event>
 5    1  0.9583198E-007  0.2000159E+02  0.7818608E-02  0.1745296E+00
          1   -1    0    0  501    0  0.00000000000E+00  0.00000000000E+00  0.22436664987E+01  0.22436713588E+01  0.46700000000E-02 0.  1.
         -1   -1    0    0    0  501 -0.00000000000E+00 -0.00000000000E+00 -0.44576938178E+02  0.44576938423E+02  0.46700000000E-02 0. -1.
       1023    2    1    2    0    0  0.00000000000E+00  0.00000000000E+00 -0.42333271679E+02  0.46820609782E+02  0.20001590168E+02 0.  0.
        -11    1    3    3    0    0 -0.55603296241E+01  0.83124770358E+01 -0.21253026880E+02  0.23488416120E+02  0.51100000000E-03 0. -1.
         11    1    3    3    0    0  0.55603296241E+01 -0.83124770358E+01 -0.21080244799E+02  0.23332193662E+02  0.51100000000E-03 0.  1.
<mgrwt>
<rscale>  0 0.20001590E+02</rscale>
<asrwt>0</asrwt>
<pdfrwt beam="1">  1        1 0.34517989E-03 0.20001590E+02</pdfrwt>
<pdfrwt beam="2">  1       -1 0.68579903E-02 0.20001590E+02</pdfrwt>
<totfact> 0.35317765E+06</totfact>
</mgrwt>
</event>
<event>
 5    1  0.9583198E-007  0.2000702E+02  0.7818608E-02  0.1745189E+00
         -1   -1    0    0    0  501 -0.00000000000E+00  0.00000000000E+00  0.67141553023E+02  0.67141553185E+02  0.46700000000E-02 0. -1.
          1   -1    0    0  501    0  0.00000000000E+00 -0.00000000000E+00 -0.14904320347E+01  0.14904393510E+01  0.46700000000E-02 0.  1.
       1023    2    1    2    0    0  0.00000000000E+00  0.00000000000E+00  0.65651120988E+02  0.68631992536E+02  0.20007016582E+02 0.  0.
        -11    1    3    3    0    0 -0.42094104275E+01 -0.90746900435E+01  0.32714809712E+02  0.34210055689E+02  0.51100000000E-03 0.  1.
         11    1    3    3    0    0  0.42094104275E+01  0.90746900435E+01  0.32936311277E+02  0.34421936847E+02  0.51100000000E-03 0. -1.
<mgrwt>
<rscale>  0 0.20007017E+02</rscale>
<asrwt>0</asrwt>
<pdfrwt beam="2">  1        1 0.22929784E-03 0.20007017E+02</pdfrwt>
<pdfrwt beam="1">  1       -1 0.10329469E-01 0.20007017E+02</pdfrwt>
<totfact> 0.33754181E+06</totfact>
</mgrwt>
</event>
<event>
 5    1  0.9583198E-007  0.2000471E+02  0.7818608E-02  0.1745234E+00
         -1   -1    0    0    0  501 -0.00000000000E+00  0.00000000000E+00  0.89581140663E+01  0.89581152836E+01  0.46700000000E-02 0.  1.
          1   -1    0    0  501    0  0.00000000000E+00 -0.00000000000E+00 -0.11168321969E+02  0.11168322946E+02  0.46700000000E-02 0. -1.
       1023    2    1    2    0    0  0.00000000000E+00  0.00000000000E+00 -0.22102079032E+01  0.20126438229E+02  0.20004711866E+02 0.  0.
        -11    1    3    3    0    0  0.13518992001E+01  0.99102590543E+01 -0.11846926721E+01  0.10071959241E+02  0.51100000000E-03 0. -1.
         11    1    3    3    0    0 -0.13518992001E+01 -0.99102590543E+01 -0.10255152311E+01  0.10054478988E+02  0.51100000000E-03 0.  1.
<mgrwt>
<rscale>  0 0.20004712E+02</rscale>
<asrwt>0</asrwt>
<pdfrwt beam="2">  1        1 0.17182036E-02 0.20004712E+02</pdfrwt>
<pdfrwt beam="1">  1       -1 0.13781716E-02 0.20004712E+02</pdfrwt>
<totfact> 0.38773273E+06</totfact>
</mgrwt>
</event>
<event>
 5    1  0.9583198E-007  0.2000263E+02  0.7818608E-02  0.1745276E+00
          1   -1    0    0  501    0  0.00000000000E+00  0.00000000000E+00  0.35312931539E+02  0.35312931847E+02  0.46700000000E-02 0. -1.
         -1   -1    0    0    0  501 -0.00000000000E+00 -0.00000000000E+00 -0.28325652768E+01  0.28325691264E+01  0.46700000000E-02 0.  1.
       1023    2    1    2    0    0  0.00000000000E+00  0.00000000000E+00  0.32480366262E+02  0.38145500974E+02  0.20002626129E+02 0.  0.
        -11    1    3    3    0    0 -0.63116453286E+01 -0.77581677956E+01  0.16269006998E+02  0.19097293611E+02  0.51100000000E-03 0. -1.
         11    1    3    3    0    0  0.63116453286E+01  0.77581677956E+01  0.16211359264E+02  0.19048207363E+02  0.51100000000E-03 0.  1.
<mgrwt>
<rscale>  0 0.20002626E+02</rscale>
<asrwt>0</asrwt>
<pdfrwt beam="1">  1        1 0.54327590E-02 0.20002626E+02</pdfrwt>
<pdfrwt beam="2">  1       -1 0.43577960E-03 0.20002626E+02</pdfrwt>
<totfact> 0.40799757E+06</totfact>
</mgrwt>
</event>
<event>
 5    1  0.9583198E-007  0.2000059E+02  0.7818608E-02  0.1745316E+00
         -1   -1    0    0    0  501 -0.00000000000E+00  0.00000000000E+00  0.85399403370E+01  0.85399416139E+01  0.46700000000E-02 0. -1.
          1   -1    0    0  501    0  0.00000000000E+00 -0.00000000000E+00 -0.11710374030E+02  0.11710374961E+02  0.46700000000E-02 0.  1.
       1023    2    1    2    0    0  0.00000000000E+00  0.00000000000E+00 -0.31704336932E+01  0.20250316575E+02  0.20000591781E+02 0.  0.
        -11    1    3    3    0    0 -0.85992304544E+01 -0.51042864815E+01 -0.16597068058E+01  0.10136820598E+02  0.51100000000E-03 0.  1.
         11    1    3    3    0    0  0.85992304544E+01  0.51042864815E+01 -0.15107268874E+01  0.10113495977E+02  0.51100000000E-03 0. -1.
<mgrwt>
<rscale>  0 0.20000592E+02</rscale>
<asrwt>0</asrwt>
<pdfrwt beam="2">  1        1 0.18015962E-02 0.20000592E+02</pdfrwt>
<pdfrwt beam="1">  1       -1 0.13138371E-02 0.20000592E+02</pdfrwt>
<totfact> 0.38863629E+06</totfact>
</mgrwt>
</event>
<event>
 5    1  0.9784802E-007  0.2000234E+02  0.7818608E-02  0.1745281E+00
          1   -1    0    0  501    0  0.00000000000E+00  0.00000000000E+00  0.23681686979E+02  0.23681687439E+02  0.46700000000E-02 0.  1.
         -1   -1    0    0    0  501 -0.00000000000E+00 -0.00000000000E+00 -0.42236596129E+01  0.42236621947E+01  0.46700000000E-02 0. -1.
       1023    2    1    2    0    0  0.00000000000E+00  0.00000000000E+00  0.19458027366E+02  0.27905349634E+02  0.20002342593E+02 0.  0.
        -11    1    3    3    0    0  0.16074112679E-01 -0.10001146825E+02  0.97502110224E+01  0.13967455438E+02  0.51100000000E-03 0. -1.
         11    1    3    3    0    0 -0.16074112679E-01  0.10001146825E+02  0.97078163433E+01  0.13937894195E+02  0.51100000000E-03 0.  1.
<mgrwt>
<rscale>  0 0.20002343E+02</rscale>
<asrwt>0</asrwt>
<pdfrwt beam="1">  1        1 0.36433366E-02 0.20002343E+02</pdfrwt>
<pdfrwt beam="2">  1       -1 0.64979404E-03 0.20002343E+02</pdfrwt>
<totfact> 0.39989380E+06</totfact>
</mgrwt>
</event>
<event>
 5    1  0.1012326E-006  0.2000204E+02  0.7818608E-02  0.1745287E+00
         -1   -1    0    0    0  501 -0.00000000000E+00  0.00000000000E+00  0.11044099991E+01  0.11044198726E+01  0.46700000000E-02 0. -1.
          1   -1    0    0  501    0  0.00000000000E+00 -0.00000000000E+00 -0.90564182650E+02  0.90564182771E+02  0.46700000000E-02 0.  1.
       1023    2    1    2    0    0  0.00000000000E+00  0.00000000000E+00 -0.89459772651E+02  0.91668602643E+02  0.20002044590E+02 0.  0.
        -11    1    3    3    0    0  0.65809086927E+01  0.75307427727E+01 -0.44725912168E+02  0.45830422924E+02  0.51100000000E-03 0.  1.
         11    1    3    3    0    0 -0.65809086927E+01 -0.75307427727E+01 -0.44733860483E+02  0.45838179719E+02  0.51100000000E-03 0. -1.
<mgrwt>
<rscale>  0 0.20002045E+02</rscale>
<asrwt>0</asrwt>
<pdfrwt beam="2">  1        1 0.13932946E-01 0.20002045E+02</pdfrwt>
<pdfrwt beam="1">  1       -1 0.16991007E-03 0.20002045E+02</pdfrwt>
<totfact> 0.43886163E+06</totfact>
</mgrwt>
</event>
<event>
 5    1  0.9722778E-007  0.2000265E+02  0.7818608E-02  0.1745275E+00
          1   -1    0    0  501    0  0.00000000000E+00  0.00000000000E+00  0.33965991224E+02  0.33965991545E+02  0.46700000000E-02 0. -1.
         -1   -1    0    0    0  501 -0.00000000000E+00 -0.00000000000E+00 -0.29448984293E+01  0.29449021321E+01  0.46700000000E-02 0.  1.
       1023    2    1    2    0    0  0.00000000000E+00  0.00000000000E+00  0.31021092794E+02  0.36910893677E+02  0.20002646672E+02 0.  0.
        -11    1    3    3    0    0  0.97757377865E+01  0.21068466274E+01  0.15788055435E+02  0.18688674288E+02  0.51100000000E-03 0. -1.
         11    1    3    3    0    0 -0.97757377865E+01 -0.21068466274E+01  0.15233037360E+02  0.18222219388E+02  0.51100000000E-03 0.  1.
<mgrwt>
<rscale>  0 0.20002647E+02</rscale>
<asrwt>0</asrwt>
<pdfrwt beam="1">  1        1 0.52255376E-02 0.20002647E+02</pdfrwt>
<pdfrwt beam="2">  1       -1 0.45306160E-03 0.20002647E+02</pdfrwt>
<totfact> 0.40711512E+06</totfact>
</mgrwt>
</event>
<event>
 5    1  0.9583198E-007  0.2000044E+02  0.7818608E-02  0.1745319E+00
         -1   -1    0    0    0  501 -0.00000000000E+00  0.00000000000E+00  0.23008964665E+01  0.23009012058E+01  0.46700000000E-02 0. -1.
          1   -1    0    0  501    0  0.00000000000E+00 -0.00000000000E+00 -0.43463189865E+02  0.43463190116E+02  0.46700000000E-02 0.  1.
       1023    2    1    2    0    0  0.00000000000E+00  0.00000000000E+00 -0.41162293398E+02  0.45764091322E+02  0.20000441412E+02 0.  0.
        -11    1    3    3    0    0  0.95734106718E+01  0.28903540210E+01 -0.20601048243E+02  0.22899946009E+02  0.51100000000E-03 0.  1.
         11    1    3    3    0    0 -0.95734106718E+01 -0.28903540210E+01 -0.20561245156E+02  0.22864145312E+02  0.51100000000E-03 0. -1.
<mgrwt>
<rscale>  0 0.20000441E+02</rscale>
<asrwt>0</asrwt>
<pdfrwt beam="2">  1        1 0.66866444E-02 0.20000441E+02</pdfrwt>
<pdfrwt beam="1">  1       -1 0.35398449E-03 0.20000441E+02</pdfrwt>
<totfact> 0.41322147E+06</totfact>
</mgrwt>
</event>
<event>
 5    1  0.9583198E-007  0.2000117E+02  0.7818608E-02  0.1745305E+00
         -1   -1    0    0    0  501 -0.00000000000E+00  0.00000000000E+00  0.52111982456E+02  0.52111982665E+02  0.46700000000E-02 0. -1.
          1   -1    0    0  501    0  0.00000000000E+00 -0.00000000000E+00 -0.19191657083E+01  0.19191713902E+01  0.46700000000E-02 0.  1.
       1023    2    1    2    0    0  0.00000000000E+00  0.00000000000E+00  0.50192816748E+02  0.54031154055E+02  0.20001168853E+02 0.  0.
        -11    1    3    3    0    0 -0.87818957780E+01  0.47842870905E+01  0.25162146967E+02  0.27076645595E+02  0.51100000000E-03 0. -1.
         11    1    3    3    0    0  0.87818957780E+01 -0.47842870905E+01  0.25030669780E+02  0.26954508460E+02  0.51100000000E-03 0.  1.
<mgrwt>
<rscale>  0 0.20001169E+02</rscale>
<asrwt>0</asrwt>
<pdfrwt beam="2">  1        1 0.29525679E-03 0.20001169E+02</pdfrwt>
<pdfrwt beam="1">  1       -1 0.80172266E-02 0.20001169E+02</pdfrwt>
<totfact> 0.34776041E+06</totfact>
</mgrwt>
</event>
<event>
 5    1  0.9976681E-007  0.2000085E+02  0.7818608E-02  0.1745311E+00
         -1   -1    0    0    0  501 -0.00000000000E+00  0.00000000000E+00  0.66550064083E+01  0.66550080468E+01  0.46700000000E-02 0. -1.
          1   -1    0    0  501    0  0.00000000000E+00 -0.00000000000E+00 -0.15027558279E+02  0.15027559005E+02  0.46700000000E-02 0.  1.
       1023    2    1    2    0    0  0.00000000000E+00  0.00000000000E+00 -0.83725518711E+01  0.21682567052E+02  0.20000852210E+02 0.  0.
        -11    1    3    3    0    0  0.99738785500E+01 -0.72530748288E+00 -0.42565136290E+01  0.10868405256E+02  0.51100000000E-03 0. -1.
         11    1    3    3    0    0 -0.99738785500E+01  0.72530748288E+00 -0.41160382421E+01  0.10814161796E+02  0.51100000000E-03 0.  1.
<mgrwt>
<rscale>  0 0.20000852E+02</rscale>
<asrwt>0</asrwt>
<pdfrwt beam="2">  1        1 0.23119322E-02 0.20000852E+02</pdfrwt>
<pdfrwt beam="1">  1       -1 0.10238473E-02 0.20000852E+02</pdfrwt>
<totfact> 0.39243729E+06</totfact>
</mgrwt>
</event>
<event>
 5    1  0.1103735E-006  0.2000034E+02  0.7818608E-02  0.1745321E+00
         -1   -1    0    0    0  501 -0.00000000000E+00  0.00000000000E+00  0.56752231127E+01  0.56752250341E+01  0.46700000000E-02 0.  1.
          1   -1    0    0  501    0  0.00000000000E+00 -0.00000000000E+00 -0.17621038331E+02  0.17621038950E+02  0.46700000000E-02 0. -1.
       1023    2    1    2    0    0  0.00000000000E+00  0.00000000000E+00 -0.11945815218E+02  0.23296263984E+02  0.20000335357E+02 0.  0.
        -11    1    3    3    0    0 -0.99905196203E+01  0.43777568142E+00 -0.60136504702E+01  0.11669024041E+02  0.51100000000E-03 0. -1.
         11    1    3    3    0    0  0.99905196203E+01 -0.43777568142E+00 -0.59321647483E+01  0.11627239943E+02  0.51100000000E-03 0.  1.
<mgrwt>
<rscale>  0 0.20000335E+02</rscale>
<asrwt>0</asrwt>
<pdfrwt beam="2">  1        1 0.27109291E-02 0.20000335E+02</pdfrwt>
<pdfrwt beam="1">  1       -1 0.87311145E-03 0.20000335E+02</pdfrwt>
<totfact> 0.39496676E+06</totfact>
</mgrwt>
</event>
<event>
 5    1  0.9583198E-007  0.2000602E+02  0.7818608E-02  0.1745208E+00
          1   -1    0    0  501    0  0.00000000000E+00  0.00000000000E+00  0.19744125510E+01  0.19744180739E+01  0.46700000000E-02 0. -1.
         -1   -1    0    0    0  501 -0.00000000000E+00 -0.00000000000E+00 -0.50678410675E+02  0.50678410890E+02  0.46700000000E-02 0.  1.
       1023    2    1    2    0    0  0.00000000000E+00  0.00000000000E+00 -0.48703998124E+02  0.52652828964E+02  0.20006023209E+02 0.  0.
        -11    1    3    3    0    0  0.34450231410E+01 -0.93890118524E+01 -0.24868491576E+02  0.26804171346E+02  0.51100000000E-03 0. -1.
         11    1    3    3    0    0 -0.34450231410E+01  0.93890118524E+01 -0.23835506547E+02  0.25848657618E+02  0.51100000000E-03 0.  1.
<mgrwt>
<rscale>  0 0.20006023E+02</rscale>
<asrwt>0</asrwt>
<pdfrwt beam="1">  1        1 0.30375626E-03 0.20006023E+02</pdfrwt>
<pdfrwt beam="2">  1       -1 0.77966780E-02 0.20006023E+02</pdfrwt>
<totfact> 0.34858375E+06</totfact>
</mgrwt>
</event>
<event>
 5    1  0.9682545E-007  0.2000145E+02  0.7818608E-02  0.1745299E+00
          1   -1    0    0  501    0  0.00000000000E+00  0.00000000000E+00  0.27669439879E+01  0.27669479288E+01  0.46700000000E-02 0.  1.
         -1   -1    0    0    0  501 -0.00000000000E+00 -0.00000000000E+00 -0.36146149224E+02  0.36146149526E+02  0.46700000000E-02 0. -1.
       1023    2    1    2    0    0  0.00000000000E+00  0.00000000000E+00 -0.33379205236E+02  0.38913097455E+02  0.20001445230E+02 0.  0.
        -11    1    3    3    0    0  0.98307598279E+01  0.18330139739E+01 -0.16890599238E+02  0.19628961305E+02  0.51100000000E-03 0. -1.
         11    1    3    3    0    0 -0.98307598279E+01 -0.18330139739E+01 -0.16488605998E+02  0.19284136150E+02  0.51100000000E-03 0.  1.
<mgrwt>
<rscale>  0 0.20001445E+02</rscale>
<asrwt>0</asrwt>
<pdfrwt beam="1">  1        1 0.42568404E-03 0.20001445E+02</pdfrwt>
<pdfrwt beam="2">  1       -1 0.55609460E-02 0.20001445E+02</pdfrwt>
<totfact> 0.35969286E+06</totfact>
</mgrwt>
</event>
<event>
 5    1  0.9583198E-007  0.2000036E+02  0.7818608E-02  0.1745321E+00
          1   -1    0    0  501    0  0.00000000000E+00  0.00000000000E+00  0.13074174497E+02  0.13074175331E+02  0.46700000000E-02 0.  1.
         -1   -1    0    0    0  501 -0.00000000000E+00 -0.00000000000E+00 -0.76489419039E+01  0.76489433296E+01  0.46700000000E-02 0. -1.
       1023    2    1    2    0    0  0.00000000000E+00  0.00000000000E+00  0.54252325927E+01  0.20723118660E+02  0.20000362455E+02 0.  0.
        -11    1    3    3    0    0  0.44943307043E+01  0.89332117251E+01  0.26624506185E+01  0.10348426149E+02  0.51100000000E-03 0.  1.
         11    1    3    3    0    0 -0.44943307043E+01 -0.89332117251E+01  0.27627819742E+01  0.10374692511E+02  0.51100000000E-03 0. -1.
<mgrwt>
<rscale>  0 0.20000362E+02</rscale>
<asrwt>0</asrwt>
<pdfrwt beam="1">  1        1 0.20114116E-02 0.20000362E+02</pdfrwt>
<pdfrwt beam="2">  1       -1 0.11767605E-02 0.20000362E+02</pdfrwt>
<totfact> 0.39032459E+06</totfact>
</mgrwt>
</event>
<event>
 5    1  0.9583198E-007  0.2000053E+02  0.7818608E-02  0.1745318E+00
         -1   -1    0    0    0  501 -0.00000000000E+00  0.00000000000E+00  0.13529799353E+02  0.13529800159E+02  0.46700000000E-02 0.  1.
          1   -1    0    0  501    0  0.00000000000E+00 -0.00000000000E+00 -0.73914799591E+01  0.73914814343E+01  0.46700000000E-02 0. -1.
       1023    2    1    2    0    0  0.00000000000E+00  0.00000000000E+00  0.61383193940E+01  0.20921281593E+02  0.20000526456E+02 0.  0.
        -11    1    3    3    0    0  0.78948583505E+01  0.61380774775E+01  0.30462212804E+01  0.10453910648E+02  0.51100000000E-03 0.  1.
         11    1    3    3    0    0 -0.78948583505E+01 -0.61380774775E+01  0.30920981136E+01  0.10467370945E+02  0.51100000000E-03 0. -1.
<mgrwt>
<rscale>  0 0.20000526E+02</rscale>
<asrwt>0</asrwt>
<pdfrwt beam="2">  1        1 0.11371509E-02 0.20000526E+02</pdfrwt>
<pdfrwt beam="1">  1       -1 0.20815078E-02 0.20000526E+02</pdfrwt>
<totfact> 0.38135423E+06</totfact>
</mgrwt>
</event>
<event>
 5    1  0.9583198E-007  0.2000012E+02  0.7818608E-02  0.1745326E+00
         -1   -1    0    0    0  501 -0.00000000000E+00  0.00000000000E+00  0.53661476278E+01  0.53661496599E+01  0.46700000000E-02 0.  1.
          1   -1    0    0  501    0  0.00000000000E+00 -0.00000000000E+00 -0.18635551555E+02  0.18635552140E+02  0.46700000000E-02 0. -1.
       1023    2    1    2    0    0  0.00000000000E+00  0.00000000000E+00 -0.13269403927E+02  0.24001701800E+02  0.20000115218E+02 0.  0.
        -11    1    3    3    0    0 -0.13529848960E+01  0.99080834307E+01 -0.66606225099E+01  0.12015181142E+02  0.51100000000E-03 0.  1.
         11    1    3    3    0    0  0.13529848960E+01 -0.99080834307E+01 -0.66087814171E+01  0.11986520658E+02  0.51100000000E-03 0. -1.
<mgrwt>
<rscale>  0 0.20000115E+02</rscale>
<asrwt>0</asrwt>
<pdfrwt beam="2">  1        1 0.28670081E-02 0.20000115E+02</pdfrwt>
<pdfrwt beam="1">  1       -1 0.82556138E-03 0.20000115E+02</pdfrwt>
<totfact> 0.39588426E+06</totfact>
</mgrwt>
</event>
<event>
 5    1  0.9583198E-007  0.2000289E+02  0.7818608E-02  0.1745271E+00
         -1   -1    0    0    0  501 -0.00000000000E+00  0.00000000000E+00  0.20343711478E+02  0.20343712014E+02  0.46700000000E-02 0.  1.
          1   -1    0    0  501    0  0.00000000000E+00 -0.00000000000E+00 -0.49169409180E+01  0.49169431357E+01  0.46700000000E-02 0. -1.
       1023    2    1    2    0    0  0.00000000000E+00  0.00000000000E+00  0.15426770560E+02  0.25260655150E+02  0.20002886009E+02 0.  0.
        -11    1    3    3    0    0  0.40642486828E+01 -0.91373502525E+01  0.78900711934E+01  0.12738230281E+02  0.51100000000E-03 0. -1.
         11    1    3    3    0    0 -0.40642486828E+01  0.91373502525E+01  0.75366993669E+01  0.12522424869E+02  0.51100000000E-03 0.  1.
<mgrwt>
<rscale>  0 0.20002886E+02</rscale>
<asrwt>0</asrwt>
<pdfrwt beam="2">  1        1 0.75645266E-03 0.20002886E+02</pdfrwt>
<pdfrwt beam="1">  1       -1 0.31298020E-02 0.20002886E+02</pdfrwt>
<totfact> 0.37370091E+06</totfact>
</mgrwt>
</event>
<event>
 5    1  0.9693385E-007  0.2000101E+02  0.7818608E-02  0.1745308E+00
         -1   -1    0    0    0  501 -0.00000000000E+00  0.00000000000E+00  0.54103626209E+01  0.54103646364E+01  0.46700000000E-02 0. -1.
          1   -1    0    0  501    0  0.00000000000E+00 -0.00000000000E+00 -0.18484901994E+02  0.18484902584E+02  0.46700000000E-02 0.  1.
       1023    2    1    2    0    0  0.00000000000E+00  0.00000000000E+00 -0.13074539373E+02  0.23895267220E+02  0.20001005367E+02 0.  0.
        -11    1    3    3    0    0  0.88794204970E+01  0.45996451878E+01 -0.66519204397E+01  0.12010365940E+02  0.51100000000E-03 0. -1.
         11    1    3    3    0    0 -0.88794204970E+01 -0.45996451878E+01 -0.64226189331E+01  0.11884901280E+02  0.51100000000E-03 0.  1.
<mgrwt>
<rscale>  0 0.20001005E+02</rscale>
<asrwt>0</asrwt>
<pdfrwt beam="2">  1        1 0.28438313E-02 0.20001005E+02</pdfrwt>
<pdfrwt beam="1">  1       -1 0.83236368E-03 0.20001005E+02</pdfrwt>
<totfact> 0.39571206E+06</totfact>
</mgrwt>
</event>
<event>
 5    1  0.9583198E-007  0.2000053E+02  0.7818608E-02  0.1745318E+00
          1   -1    0    0  501    0  0.00000000000E+00  0.00000000000E+00  0.87624621202E+01  0.87624633647E+01  0.46700000000E-02 0.  1.
         -1   -1    0    0    0  501 -0.00000000000E+00 -0.00000000000E+00 -0.11412921052E+02  0.11412922007E+02  0.46700000000E-02 0. -1.
       1023    2    1    2    0    0  0.00000000000E+00  0.00000000000E+00 -0.26504589315E+01  0.20175385372E+02  0.20000531052E+02 0.  0.
        -11    1    3    3    0    0  0.38780171492E+01 -0.92175958938E+01 -0.12777086189E+01  0.10081449829E+02  0.51100000000E-03 0. -1.
         11    1    3    3    0    0 -0.38780171492E+01  0.92175958938E+01 -0.13727503126E+01  0.10093935543E+02  0.51100000000E-03 0.  1.
<mgrwt>
<rscale>  0 0.20000531E+02</rscale>
<asrwt>0</asrwt>
<pdfrwt beam="1">  1        1 0.13480713E-02 0.20000531E+02</pdfrwt>
<pdfrwt beam="2">  1       -1 0.17558342E-02 0.20000531E+02</pdfrwt>
<totfact> 0.38414180E+06</totfact>
</mgrwt>
</event>
<event>
 5    1  0.9583198E-007  0.2000217E+02  0.7818608E-02  0.1745285E+00
          1   -1    0    0  501    0  0.00000000000E+00  0.00000000000E+00  0.14744428344E+01  0.14744502301E+01  0.46700000000E-02 0.  1.
         -1   -1    0    0    0  501 -0.00000000000E+00 -0.00000000000E+00 -0.67836765568E+02  0.67836765728E+02  0.46700000000E-02 0. -1.
       1023    2    1    2    0    0  0.00000000000E+00  0.00000000000E+00 -0.66362322733E+02  0.69311215959E+02  0.20002169360E+02 0.  0.
        -11    1    3    3    0    0 -0.86204115230E+01 -0.50687447234E+01 -0.33646408288E+02  0.35101060651E+02  0.51100000000E-03 0. -1.
         11    1    3    3    0    0  0.86204115230E+01  0.50687447234E+01 -0.32715914446E+02  0.34210155308E+02  0.51100000000E-03 0.  1.
<mgrwt>
<rscale>  0 0.20002169E+02</rscale>
<asrwt>0</asrwt>
<pdfrwt beam="1">  1        1 0.22683799E-03 0.20002169E+02</pdfrwt>
<pdfrwt beam="2">  1       -1 0.10436424E-01 0.20002169E+02</pdfrwt>
<totfact> 0.33728157E+06</totfact>
</mgrwt>
</event>
<event>
 5    1  0.9583198E-007  0.2000359E+02  0.7818608E-02  0.1745257E+00
          1   -1    0    0  501    0  0.00000000000E+00  0.00000000000E+00  0.33740329443E+01  0.33740361762E+01  0.46700000000E-02 0. -1.
         -1   -1    0    0    0  501 -0.00000000000E+00 -0.00000000000E+00 -0.29648736468E+02  0.29648736836E+02  0.46700000000E-02 0.  1.
       1023    2    1    2    0    0  0.00000000000E+00  0.00000000000E+00 -0.26274703524E+02  0.33022773012E+02  0.20003586982E+02 0.  0.
        -11    1    3    3    0    0  0.15564886804E+01  0.98782233469E+01 -0.12833313022E+02  0.16269476847E+02  0.51100000000E-03 0. -1.
         11    1    3    3    0    0 -0.15564886804E+01 -0.98782233469E+01 -0.13441390502E+02  0.16753296165E+02  0.51100000000E-03 0.  1.
<mgrwt>
<rscale>  0 0.20003587E+02</rscale>
<asrwt>0</asrwt>
<pdfrwt beam="1">  1        1 0.51908229E-03 0.20003587E+02</pdfrwt>
<pdfrwt beam="2">  1       -1 0.45613442E-02 0.20003587E+02</pdfrwt>
<totfact> 0.36502496E+06</totfact>
</mgrwt>
</event>
<event>
 5    1  0.9583198E-007  0.2000108E+02  0.7818608E-02  0.1745307E+00
          1   -1    0    0  501    0  0.00000000000E+00  0.00000000000E+00  0.16368193748E+01  0.16368260367E+01  0.46700000000E-02 0.  1.
         -1   -1    0    0    0  501 -0.00000000000E+00 -0.00000000000E+00 -0.61100560906E+02  0.61100561085E+02  0.46700000000E-02 0. -1.
       1023    2    1    2    0    0  0.00000000000E+00  0.00000000000E+00 -0.59463741532E+02  0.62737387122E+02  0.20001079618E+02 0.  0.
        -11    1    3    3    0    0 -0.15468796821E+01 -0.98799194272E+01 -0.29957005764E+02  0.31582080984E+02  0.51100000000E-03 0.  1.
         11    1    3    3    0    0  0.15468796821E+01  0.98799194272E+01 -0.29506735767E+02  0.31155306138E+02  0.51100000000E-03 0. -1.
<mgrwt>
<rscale>  0 0.20001080E+02</rscale>
<asrwt>0</asrwt>
<pdfrwt beam="1">  1        1 0.25181894E-03 0.20001080E+02</pdfrwt>
<pdfrwt beam="2">  1       -1 0.94000850E-02 0.20001080E+02</pdfrwt>
<totfact> 0.34166417E+06</totfact>
</mgrwt>
</event>
<event>
 5    1  0.9583198E-007  0.2000039E+02  0.7818608E-02  0.1745320E+00
          1   -1    0    0  501    0  0.00000000000E+00  0.00000000000E+00  0.69070673544E+01  0.69070689331E+01  0.46700000000E-02 0.  1.
         -1   -1    0    0    0  501 -0.00000000000E+00 -0.00000000000E+00 -0.14478487511E+02  0.14478488264E+02  0.46700000000E-02 0. -1.
       1023    2    1    2    0    0  0.00000000000E+00  0.00000000000E+00 -0.75714201566E+01  0.21385557197E+02  0.20000391332E+02 0.  0.
        -11    1    3    3    0    0  0.94030171981E+01 -0.34038067163E+01 -0.37474475322E+01  0.10679231988E+02  0.51100000000E-03 0. -1.
         11    1    3    3    0    0 -0.94030171981E+01  0.34038067163E+01 -0.38239726244E+01  0.10706325209E+02  0.51100000000E-03 0.  1.
<mgrwt>
<rscale>  0 0.20000391E+02</rscale>
<asrwt>0</asrwt>
<pdfrwt beam="1">  1        1 0.10626259E-02 0.20000391E+02</pdfrwt>
<pdfrwt beam="2">  1       -1 0.22274598E-02 0.20000391E+02</pdfrwt>
<totfact> 0.38020038E+06</totfact>
</mgrwt>
</event>
<event>
 5    1  0.9583198E-007  0.2000132E+02  0.7818608E-02  0.1745302E+00
          1   -1    0    0  501    0  0.00000000000E+00  0.00000000000E+00  0.25290447160E+01  0.25290490276E+01  0.46700000000E-02 0.  1.
         -1   -1    0    0    0  501 -0.00000000000E+00 -0.00000000000E+00 -0.39545786484E+02  0.39545786760E+02  0.46700000000E-02 0. -1.
       1023    2    1    2    0    0  0.00000000000E+00  0.00000000000E+00 -0.37016741768E+02  0.42074835788E+02  0.20001315842E+02 0.  0.
        -11    1    3    3    0    0 -0.66341990211E+01 -0.74833516031E+01 -0.18501481009E+02  0.21031356296E+02  0.51100000000E-03 0. -1.
         11    1    3    3    0    0  0.66341990211E+01  0.74833516031E+01 -0.18515260759E+02  0.21043479492E+02  0.51100000000E-03 0.  1.
<mgrwt>
<rscale>  0 0.20001316E+02</rscale>
<asrwt>0</asrwt>
<pdfrwt beam="1">  1        1 0.38908418E-03 0.20001316E+02</pdfrwt>
<pdfrwt beam="2">  1       -1 0.60839671E-02 0.20001316E+02</pdfrwt>
<totfact> 0.35701214E+06</totfact>
</mgrwt>
</event>
<event>
 5    1  0.9583198E-007  0.2000342E+02  0.7818608E-02  0.1745260E+00
         -1   -1    0    0    0  501 -0.00000000000E+00  0.00000000000E+00  0.31193570736E+02  0.31193571086E+02  0.46700000000E-02 0. -1.
          1   -1    0    0  501    0  0.00000000000E+00 -0.00000000000E+00 -0.32068827354E+01  0.32068861358E+01  0.46700000000E-02 0.  1.
       1023    2    1    2    0    0  0.00000000000E+00  0.00000000000E+00  0.27986688001E+02  0.34400457221E+02  0.20003418503E+02 0.  0.
        -11    1    3    3    0    0  0.90497530815E+01 -0.42586350207E+01  0.13969977630E+02  0.17181218767E+02  0.51100000000E-03 0.  1.
         11    1    3    3    0    0 -0.90497530815E+01  0.42586350207E+01  0.14016710370E+02  0.17219238454E+02  0.51100000000E-03 0. -1.
<mgrwt>
<rscale>  0 0.20003419E+02</rscale>
<asrwt>0</asrwt>
<pdfrwt beam="2">  1        1 0.49336688E-03 0.20003419E+02</pdfrwt>
<pdfrwt beam="1">  1       -1 0.47990110E-02 0.20003419E+02</pdfrwt>
<totfact> 0.36370564E+06</totfact>
</mgrwt>
</event>
<event>
 5    1  0.9583198E-007  0.2000422E+02  0.7818608E-02  0.1745244E+00
          1   -1    0    0  501    0  0.00000000000E+00  0.00000000000E+00  0.27275281641E+01  0.27275321621E+01  0.46700000000E-02 0. -1.
         -1   -1    0    0    0  501 -0.00000000000E+00 -0.00000000000E+00 -0.36678669416E+02  0.36678669713E+02  0.46700000000E-02 0.  1.
       1023    2    1    2    0    0  0.00000000000E+00  0.00000000000E+00 -0.33951141252E+02  0.39406201875E+02  0.20004218404E+02 0.  0.
        -11    1    3    3    0    0 -0.99814390325E+01  0.63996981725E+00 -0.17092139419E+02  0.19803532935E+02  0.51100000000E-03 0. -1.
         11    1    3    3    0    0  0.99814390325E+01 -0.63996981725E+00 -0.16859001833E+02  0.19602668941E+02  0.51100000000E-03 0.  1.
<mgrwt>
<rscale>  0 0.20004218E+02</rscale>
<asrwt>0</asrwt>
<pdfrwt beam="1">  1        1 0.41962007E-03 0.20004218E+02</pdfrwt>
<pdfrwt beam="2">  1       -1 0.56428722E-02 0.20004218E+02</pdfrwt>
<totfact> 0.35915652E+06</totfact>
</mgrwt>
</event>
<event>
 4    1  0.9583198E-007  0.2039124E+02  0.7818608E-02  0.1737658E+00
         -1   -1    0    0    0  501 -0.00000000000E+00  0.00000000000E+00  0.21900712802E+01  0.21900762593E+01  0.46700000000E-02 0. -1.
          1   -1    0    0  501    0  0.00000000000E+00 -0.00000000000E+00 -0.47464469543E+02  0.47464469772E+02  0.46700000000E-02 0.  1.
        -11    1    1    2    0    0 -0.10177716778E+02  0.60053620370E+00 -0.22480554758E+02  0.24684446622E+02  0.51100000000E-03 0.  1.
         11    1    1    2    0    0  0.10177716778E+02 -0.60053620370E+00 -0.22793843504E+02  0.24970099409E+02  0.51100000000E-03 0. -1.
<mgrwt>
<rscale>  0 0.20391243E+02</rscale>
<asrwt>0</asrwt>
<pdfrwt beam="2">  1        1 0.73022257E-02 0.20391243E+02</pdfrwt>
<pdfrwt beam="1">  1       -1 0.33693448E-03 0.20391243E+02</pdfrwt>
<totfact> 0.39808983E+06</totfact>
</mgrwt>
</event>
<event>
 5    1  0.9583198E-007  0.2000048E+02  0.7818608E-02  0.1745319E+00
          1   -1    0    0  501    0  0.00000000000E+00  0.00000000000E+00  0.28894876648E+01  0.28894914386E+01  0.46700000000E-02 0.  1.
         -1   -1    0    0    0  501 -0.00000000000E+00 -0.00000000000E+00 -0.34609846804E+02  0.34609847120E+02  0.46700000000E-02 0. -1.
       1023    2    1    2    0    0  0.00000000000E+00  0.00000000000E+00 -0.31720359140E+02  0.37499338558E+02  0.20000480203E+02 0.  0.
        -11    1    3    3    0    0  0.68562481921E+01  0.72798789292E+01 -0.15850743099E+02  0.18741687052E+02  0.51100000000E-03 0. -1.
         11    1    3    3    0    0 -0.68562481921E+01 -0.72798789292E+01 -0.15869616040E+02  0.18757651506E+02  0.51100000000E-03 0.  1.
<mgrwt>
<rscale>  0 0.20000480E+02</rscale>
<asrwt>0</asrwt>
<pdfrwt beam="1">  1        1 0.44453690E-03 0.20000480E+02</pdfrwt>
<pdfrwt beam="2">  1       -1 0.53245918E-02 0.20000480E+02</pdfrwt>
<totfact> 0.36097600E+06</totfact>
</mgrwt>
</event>
<event>
 5    1  0.9848717E-007  0.2000177E+02  0.7818608E-02  0.1745293E+00
         -1   -1    0    0    0  501 -0.00000000000E+00  0.00000000000E+00  0.33184455928E+01  0.33184488788E+01  0.46700000000E-02 0. -1.
          1   -1    0    0  501    0  0.00000000000E+00 -0.00000000000E+00 -0.30139919903E+02  0.30139920265E+02  0.46700000000E-02 0.  1.
       1023    2    1    2    0    0  0.00000000000E+00  0.00000000000E+00 -0.26821474311E+02  0.33458369144E+02  0.20001774461E+02 0.  0.
        -11    1    3    3    0    0  0.14715861642E+01  0.98917639639E+01 -0.13290286350E+02  0.16632626722E+02  0.51100000000E-03 0. -1.
         11    1    3    3    0    0 -0.14715861642E+01 -0.98917639639E+01 -0.13531187961E+02  0.16825742422E+02  0.51100000000E-03 0.  1.
<mgrwt>
<rscale>  0 0.20001774E+02</rscale>
<asrwt>0</asrwt>
<pdfrwt beam="2">  1        1 0.46369109E-02 0.20001774E+02</pdfrwt>
<pdfrwt beam="1">  1       -1 0.51053039E-03 0.20001774E+02</pdfrwt>
<totfact> 0.40458296E+06</totfact>
</mgrwt>
</event>
<event>
 5    1  0.9759923E-007  0.2000090E+02  0.7818608E-02  0.1745310E+00
          1   -1    0    0  501    0  0.00000000000E+00  0.00000000000E+00  0.46171457316E+02  0.46171457552E+02  0.46700000000E-02 0. -1.
         -1   -1    0    0    0  501 -0.00000000000E+00 -0.00000000000E+00 -0.21660320996E+01  0.21660371339E+01  0.46700000000E-02 0.  1.
       1023    2    1    2    0    0  0.00000000000E+00  0.00000000000E+00  0.44005425217E+02  0.48337494686E+02  0.20000898581E+02 0.  0.
        -11    1    3    3    0    0  0.85528002599E+01  0.51825242835E+01  0.22017115614E+02  0.24181859533E+02  0.51100000000E-03 0.  1.
         11    1    3    3    0    0 -0.85528002599E+01 -0.51825242835E+01  0.21988309602E+02  0.24155635153E+02  0.51100000000E-03 0. -1.
<mgrwt>
<rscale>  0 0.20000899E+02</rscale>
<asrwt>0</asrwt>
<pdfrwt beam="1">  1        1 0.71033007E-02 0.20000899E+02</pdfrwt>
<pdfrwt beam="2">  1       -1 0.33323615E-03 0.20000899E+02</pdfrwt>
<totfact> 0.41483766E+06</totfact>
</mgrwt>
</event>
<event>
 5    1  0.9583198E-007  0.2000202E+02  0.7818608E-02  0.1745288E+00
          1   -1    0    0  501    0  0.00000000000E+00  0.00000000000E+00  0.34231738259E+02  0.34231738577E+02  0.46700000000E-02 0. -1.
         -1   -1    0    0    0  501 -0.00000000000E+00 -0.00000000000E+00 -0.29218538239E+01  0.29218575559E+01  0.46700000000E-02 0.  1.
       1023    2    1    2    0    0  0.00000000000E+00  0.00000000000E+00  0.31309884435E+02  0.37153596133E+02  0.20002020956E+02 0.  0.
        -11    1    3    3    0    0  0.84718612146E+01  0.53148296688E+01  0.15690355017E+02  0.18606640956E+02  0.51100000000E-03 0.  1.
         11    1    3    3    0    0 -0.84718612146E+01 -0.53148296688E+01  0.15619529418E+02  0.18546955177E+02  0.51100000000E-03 0. -1.
<mgrwt>
<rscale>  0 0.20002021E+02</rscale>
<asrwt>0</asrwt>
<pdfrwt beam="1">  1        1 0.52664217E-02 0.20002021E+02</pdfrwt>
<pdfrwt beam="2">  1       -1 0.44951628E-03 0.20002021E+02</pdfrwt>
<totfact> 0.40731838E+06</totfact>
</mgrwt>
</event>
<event>
 5    1  0.9583198E-007  0.2000040E+02  0.7818608E-02  0.1745320E+00
         -1   -1    0    0    0  501 -0.00000000000E+00  0.00000000000E+00  0.87660804844E+01  0.87660817283E+01  0.46700000000E-02 0. -1.
          1   -1    0    0  501    0  0.00000000000E+00 -0.00000000000E+00 -0.11408058432E+02  0.11408059387E+02  0.46700000000E-02 0.  1.
       1023    2    1    2    0    0  0.00000000000E+00  0.00000000000E+00 -0.26419779472E+01  0.20174141116E+02  0.20000398053E+02 0.  0.
        -11    1    3    3    0    0 -0.65919014377E+01  0.75198755426E+01 -0.12727449471E+01  0.10080752586E+02  0.51100000000E-03 0.  1.
         11    1    3    3    0    0  0.65919014377E+01 -0.75198755426E+01 -0.13692330001E+01  0.10093388530E+02  0.51100000000E-03 0. -1.
<mgrwt>
<rscale>  0 0.20000398E+02</rscale>
<asrwt>0</asrwt>
<pdfrwt beam="2">  1        1 0.17550861E-02 0.20000398E+02</pdfrwt>
<pdfrwt beam="1">  1       -1 0.13486279E-02 0.20000398E+02</pdfrwt>
<totfact> 0.38824606E+06</totfact>
</mgrwt>
</event>
<event>
 5    1  0.9730631E-007  0.2000151E+02  0.7818608E-02  0.1745298E+00
          1   -1    0    0  501    0  0.00000000000E+00  0.00000000000E+00  0.12171224438E+02  0.12171225334E+02  0.46700000000E-02 0.  1.
         -1   -1    0    0    0  501 -0.00000000000E+00 -0.00000000000E+00 -0.82173354599E+01  0.82173367869E+01  0.46700000000E-02 0. -1.
       1023    2    1    2    0    0  0.00000000000E+00  0.00000000000E+00  0.39538889784E+01  0.20388562121E+02  0.20001505626E+02 0.  0.
        -11    1    3    3    0    0 -0.45396364750E+01 -0.89108903643E+01  0.20307885998E+01  0.10204722878E+02  0.51100000000E-03 0.  1.
         11    1    3    3    0    0  0.45396364750E+01  0.89108903643E+01  0.19231003786E+01  0.10183839244E+02  0.51100000000E-03 0. -1.
<mgrwt>
<rscale>  0 0.20001506E+02</rscale>
<asrwt>0</asrwt>
<pdfrwt beam="1">  1        1 0.18724962E-02 0.20001506E+02</pdfrwt>
<pdfrwt beam="2">  1       -1 0.12642056E-02 0.20001506E+02</pdfrwt>
<totfact> 0.38918401E+06</totfact>
</mgrwt>
</event>
<event>
 5    1  0.9583198E-007  0.2001092E+02  0.7818608E-02  0.1745111E+00
         -1   -1    0    0    0  501 -0.00000000000E+00  0.00000000000E+00  0.50783922299E+02  0.50783922513E+02  0.46700000000E-02 0.  1.
          1   -1    0    0  501    0  0.00000000000E+00 -0.00000000000E+00 -0.19712744897E+01  0.19712800214E+01  0.46700000000E-02 0. -1.
       1023    2    1    2    0    0  0.00000000000E+00  0.00000000000E+00  0.48812647809E+02  0.52755202535E+02  0.20010917229E+02 0.  0.
        -11    1    3    3    0    0  0.57526977800E+01 -0.81854187294E+01  0.24087881798E+02  0.26082957296E+02  0.51100000000E-03 0.  1.
         11    1    3    3    0    0 -0.57526977800E+01  0.81854187294E+01  0.24724766011E+02  0.26672245239E+02  0.51100000000E-03 0. -1.
<mgrwt>
<rscale>  0 0.20010917E+02</rscale>
<asrwt>0</asrwt>
<pdfrwt beam="2">  1        1 0.30327350E-03 0.20010917E+02</pdfrwt>
<pdfrwt beam="1">  1       -1 0.78129099E-02 0.20010917E+02</pdfrwt>
<totfact> 0.34832181E+06</totfact>
</mgrwt>
</event>
<event>
 5    1  0.9583198E-007  0.2000037E+02  0.7818608E-02  0.1745321E+00
         -1   -1    0    0    0  501 -0.00000000000E+00  0.00000000000E+00  0.60589014402E+02  0.60589014582E+02  0.46700000000E-02 0.  1.
          1   -1    0    0  501    0  0.00000000000E+00 -0.00000000000E+00 -0.16505214064E+01  0.16505280130E+01  0.46700000000E-02 0. -1.
       1023    2    1    2    0    0  0.00000000000E+00  0.00000000000E+00  0.58938492996E+02  0.62239542595E+02  0.20000367643E+02 0.  0.
        -11    1    3    3    0    0 -0.93888978076E+01  0.34423656276E+01  0.29621477719E+02  0.31263928507E+02  0.51100000000E-03 0. -1.
         11    1    3    3    0    0  0.93888978076E+01 -0.34423656276E+01  0.29317015277E+02  0.30975614088E+02  0.51100000000E-03 0.  1.
<mgrwt>
<rscale>  0 0.20000368E+02</rscale>
<asrwt>0</asrwt>
<pdfrwt beam="2">  1        1 0.25392693E-03 0.20000368E+02</pdfrwt>
<pdfrwt beam="1">  1       -1 0.93213861E-02 0.20000368E+02</pdfrwt>
<totfact> 0.34202824E+06</totfact>
</mgrwt>
</event>
<event>
 5    1  0.9583198E-007  0.2000448E+02  0.7818608E-02  0.1745239E+00
          1   -1    0    0  501    0  0.00000000000E+00  0.00000000000E+00  0.81964073178E+02  0.81964073311E+02  0.46700000000E-02 0.  1.
         -1   -1    0    0    0  501 -0.00000000000E+00 -0.00000000000E+00 -0.12205891892E+01  0.12205981229E+01  0.46700000000E-02 0. -1.
       1023    2    1    2    0    0  0.00000000000E+00  0.00000000000E+00  0.80743483989E+02  0.83184671434E+02  0.20004483371E+02 0.  0.
        -11    1    3    3    0    0  0.74798936260E+01 -0.66404571960E+01  0.40293058406E+02  0.41515961224E+02  0.51100000000E-03 0. -1.
         11    1    3    3    0    0 -0.74798936260E+01  0.66404571960E+01  0.40450425583E+02  0.41668710210E+02  0.51100000000E-03 0.  1.
<mgrwt>
<rscale>  0 0.20004483E+02</rscale>
<asrwt>0</asrwt>
<pdfrwt beam="1">  1        1 0.12609863E-01 0.20004483E+02</pdfrwt>
<pdfrwt beam="2">  1       -1 0.18778357E-03 0.20004483E+02</pdfrwt>
<totfact> 0.43438897E+06</totfact>
</mgrwt>
</event>
<event>
 5    1  0.9583198E-007  0.2000718E+02  0.7818608E-02  0.1745185E+00
         -1   -1    0    0    0  501 -0.00000000000E+00  0.00000000000E+00  0.47521179373E+02  0.47521179603E+02  0.46700000000E-02 0.  1.
          1   -1    0    0  501    0  0.00000000000E+00 -0.00000000000E+00 -0.21058326789E+01  0.21058378571E+01  0.46700000000E-02 0. -1.
       1023    2    1    2    0    0  0.00000000000E+00  0.00000000000E+00  0.45415346694E+02  0.49627017460E+02  0.20007177377E+02 0.  0.
        -11    1    3    3    0    0  0.94453093520E+01  0.32934587370E+01  0.22446963133E+02  0.24574924076E+02  0.51100000000E-03 0. -1.
         11    1    3    3    0    0 -0.94453093520E+01 -0.32934587370E+01  0.22968383562E+02  0.25052093384E+02  0.51100000000E-03 0.  1.
<mgrwt>
<rscale>  0 0.20007177E+02</rscale>
<asrwt>0</asrwt>
<pdfrwt beam="2">  1        1 0.32397469E-03 0.20007177E+02</pdfrwt>
<pdfrwt beam="1">  1       -1 0.73109508E-02 0.20007177E+02</pdfrwt>
<totfact> 0.35080034E+06</totfact>
</mgrwt>
</event>
<event>
 5    1  0.9583198E-007  0.2000028E+02  0.7818608E-02  0.1745322E+00
          1   -1    0    0  501    0  0.00000000000E+00  0.00000000000E+00  0.25216565468E+01  0.25216608711E+01  0.46700000000E-02 0. -1.
         -1   -1    0    0    0  501 -0.00000000000E+00 -0.00000000000E+00 -0.39657562220E+02  0.39657562495E+02  0.46700000000E-02 0.  1.
       1023    2    1    2    0    0  0.00000000000E+00  0.00000000000E+00 -0.37135905673E+02  0.42179223366E+02  0.20000284838E+02 0.  0.
        -11    1    3    3    0    0  0.35075483602E+01 -0.93647293882E+01 -0.18657330773E+02  0.21168302810E+02  0.51100000000E-03 0. -1.
         11    1    3    3    0    0 -0.35075483602E+01  0.93647293882E+01 -0.18478574899E+02  0.21010920556E+02  0.51100000000E-03 0.  1.
<mgrwt>
<rscale>  0 0.20000285E+02</rscale>
<asrwt>0</asrwt>
<pdfrwt beam="1">  1        1 0.38794754E-03 0.20000285E+02</pdfrwt>
<pdfrwt beam="2">  1       -1 0.61011633E-02 0.20000285E+02</pdfrwt>
<totfact> 0.35696581E+06</totfact>
</mgrwt>
</event>
<event>
 5    1  0.9583198E-007  0.2000014E+02  0.7818608E-02  0.1745325E+00
          1   -1    0    0  501    0  0.00000000000E+00  0.00000000000E+00  0.10027967932E+03  0.10027967943E+03  0.46700000000E-02 0.  1.
         -1   -1    0    0    0  501 -0.00000000000E+00 -0.00000000000E+00 -0.99721922855E+00  0.99723016335E+00  0.46700000000E-02 0. -1.
       1023    2    1    2    0    0  0.00000000000E+00  0.00000000000E+00  0.99282460093E+02  0.10127690959E+03  0.20000138367E+02 0.  0.
        -11    1    3    3    0    0 -0.58057404562E+01  0.81421504303E+01  0.49579721070E+02  0.50578157119E+02  0.51100000000E-03 0.  1.
         11    1    3    3    0    0  0.58057404562E+01 -0.81421504303E+01  0.49702739023E+02  0.50698752475E+02  0.51100000000E-03 0. -1.
<mgrwt>
<rscale>  0 0.20000138E+02</rscale>
<asrwt>0</asrwt>
<pdfrwt beam="1">  1        1 0.15427639E-01 0.20000138E+02</pdfrwt>
<pdfrwt beam="2">  1       -1 0.15341924E-03 0.20000138E+02</pdfrwt>
<totfact> 0.44373556E+06</totfact>
</mgrwt>
</event>
<event>
 5    1  0.9583198E-007  0.2000070E+02  0.7818608E-02  0.1745314E+00
          1   -1    0    0  501    0  0.00000000000E+00  0.00000000000E+00  0.12891236337E+01  0.12891320925E+01  0.46700000000E-02 0.  1.
         -1   -1    0    0    0  501 -0.00000000000E+00 -0.00000000000E+00 -0.77577275748E+02  0.77577275889E+02  0.46700000000E-02 0. -1.
       1023    2    1    2    0    0  0.00000000000E+00  0.00000000000E+00 -0.76288152115E+02  0.78866407981E+02  0.20000703858E+02 0.  0.
        -11    1    3    3    0    0  0.98272179876E+01 -0.18511775554E+01 -0.37839486689E+02  0.39138572085E+02  0.51100000000E-03 0.  1.
         11    1    3    3    0    0 -0.98272179876E+01  0.18511775554E+01 -0.38448665426E+02  0.39727835896E+02  0.51100000000E-03 0. -1.
<mgrwt>
<rscale>  0 0.20000704E+02</rscale>
<asrwt>0</asrwt>
<pdfrwt beam="1">  1        1 0.19832743E-03 0.20000704E+02</pdfrwt>
<pdfrwt beam="2">  1       -1 0.11934963E-01 0.20000704E+02</pdfrwt>
<totfact> 0.33134917E+06</totfact>
</mgrwt>
</event>
<event>
 5    1  0.9583198E-007  0.2000042E+02  0.7818608E-02  0.1745320E+00
          1   -1    0    0  501    0  0.00000000000E+00  0.00000000000E+00  0.73048510870E+02  0.73048511020E+02  0.46700000000E-02 0.  1.
         -1   -1    0    0    0  501 -0.00000000000E+00 -0.00000000000E+00 -0.13690063796E+01  0.13690143448E+01  0.46700000000E-02 0. -1.
       1023    2    1    2    0    0  0.00000000000E+00  0.00000000000E+00  0.71679504491E+02  0.74417525364E+02  0.20000417929E+02 0.  0.
        -11    1    3    3    0    0  0.18151480004E+01  0.98339572143E+01  0.36033173520E+02  0.37395067468E+02  0.51100000000E-03 0. -1.
         11    1    3    3    0    0 -0.18151480004E+01 -0.98339572143E+01  0.35646330971E+02  0.37022457896E+02  0.51100000000E-03 0.  1.
<mgrwt>
<rscale>  0 0.20000418E+02</rscale>
<asrwt>0</asrwt>
<pdfrwt beam="1">  1        1 0.11238235E-01 0.20000418E+02</pdfrwt>
<pdfrwt beam="2">  1       -1 0.21061695E-03 0.20000418E+02</pdfrwt>
<totfact> 0.42994246E+06</totfact>
</mgrwt>
</event>
<event>
 5    1  0.9583198E-007  0.2000112E+02  0.7818608E-02  0.1745306E+00
         -1   -1    0    0    0  501 -0.00000000000E+00  0.00000000000E+00  0.16389523413E+02  0.16389524079E+02  0.46700000000E-02 0.  1.
          1   -1    0    0  501    0  0.00000000000E+00 -0.00000000000E+00 -0.61021402160E+01  0.61021420030E+01  0.46700000000E-02 0. -1.
       1023    2    1    2    0    0  0.00000000000E+00  0.00000000000E+00  0.10287383197E+02  0.22491666082E+02  0.20001119721E+02 0.  0.
        -11    1    3    3    0    0  0.96267879806E+01  0.27076235955E+01  0.50647754127E+01  0.11209737847E+02  0.51100000000E-03 0.  1.
         11    1    3    3    0    0 -0.96267879806E+01 -0.27076235955E+01  0.52226077847E+01  0.11281928235E+02  0.51100000000E-03 0. -1.
<mgrwt>
<rscale>  0 0.20001120E+02</rscale>
<asrwt>0</asrwt>
<pdfrwt beam="2">  1        1 0.93879100E-03 0.20001120E+02</pdfrwt>
<pdfrwt beam="1">  1       -1 0.25214653E-02 0.20001120E+02</pdfrwt>
<totfact> 0.37796159E+06</totfact>
</mgrwt>
</event>
<event>
 5    1  0.9583198E-007  0.2000184E+02  0.7818608E-02  0.1745291E+00
         -1   -1    0    0    0  501 -0.00000000000E+00  0.00000000000E+00  0.11475889510E+03  0.11475889520E+03  0.46700000000E-02 0. -1.
          1   -1    0    0  501    0  0.00000000000E+00 -0.00000000000E+00 -0.87154636969E+00  0.87155888121E+00  0.46700000000E-02 0.  1.
       1023    2    1    2    0    0  0.00000000000E+00  0.00000000000E+00  0.11388734873E+03  0.11563045408E+03  0.20001842642E+02 0.  0.
        -11    1    3    3    0    0 -0.20194670352E+01 -0.97943995683E+01  0.57519369120E+02  0.58382243313E+02  0.51100000000E-03 0.  1.
         11    1    3    3    0    0  0.20194670352E+01  0.97943995683E+01  0.56367979614E+02  0.57248210767E+02  0.51100000000E-03 0. -1.
<mgrwt>
<rscale>  0 0.20001843E+02</rscale>
<asrwt>0</asrwt>
<pdfrwt beam="2">  1        1 0.13408507E-03 0.20001843E+02</pdfrwt>
<pdfrwt beam="1">  1       -1 0.17655210E-01 0.20001843E+02</pdfrwt>
<totfact> 0.31092480E+06</totfact>
</mgrwt>
</event>
<event>
 5    1  0.9583198E-007  0.2000066E+02  0.7818608E-02  0.1745315E+00
          1   -1    0    0  501    0  0.00000000000E+00  0.00000000000E+00  0.69940537057E+01  0.69940552648E+01  0.46700000000E-02 0. -1.
         -1   -1    0    0    0  501 -0.00000000000E+00 -0.00000000000E+00 -0.14298806756E+02  0.14298807518E+02  0.46700000000E-02 0.  1.
       1023    2    1    2    0    0  0.00000000000E+00  0.00000000000E+00 -0.73047530500E+01  0.21292862783E+02  0.20000664698E+02 0.  0.
        -11    1    3    3    0    0  0.96855227901E+01 -0.24893200708E+01 -0.36780311637E+01  0.10655232500E+02  0.51100000000E-03 0. -1.
         11    1    3    3    0    0 -0.96855227901E+01  0.24893200708E+01 -0.36267218863E+01  0.10637630283E+02  0.51100000000E-03 0.  1.
<mgrwt>
<rscale>  0 0.20000665E+02</rscale>
<asrwt>0</asrwt>
<pdfrwt beam="1">  1        1 0.10760084E-02 0.20000665E+02</pdfrwt>
<pdfrwt beam="2">  1       -1 0.21998166E-02 0.20000665E+02</pdfrwt>
<totfact> 0.38040498E+06</totfact>
</mgrwt>
</event>
<event>
 5    1  0.9583198E-007  0.2000227E+02  0.7818608E-02  0.1745283E+00
          1   -1    0    0  501    0  0.00000000000E+00  0.00000000000E+00  0.80025433706E+01  0.80025447332E+01  0.46700000000E-02 0.  1.
         -1   -1    0    0    0  501 -0.00000000000E+00 -0.00000000000E+00 -0.12498859848E+02  0.12498860721E+02  0.46700000000E-02 0. -1.
       1023    2    1    2    0    0  0.00000000000E+00  0.00000000000E+00 -0.44963164775E+01  0.20501405454E+02  0.20002268964E+02 0.  0.
        -11    1    3    3    0    0  0.94117902175E+01 -0.33821969709E+01 -0.22066606609E+01  0.10241601583E+02  0.51100000000E-03 0.  1.
         11    1    3    3    0    0 -0.94117902175E+01  0.33821969709E+01 -0.22896558167E+01  0.10259803871E+02  0.51100000000E-03 0. -1.
<mgrwt>
<rscale>  0 0.20002269E+02</rscale>
<asrwt>0</asrwt>
<pdfrwt beam="1">  1        1 0.12311607E-02 0.20002269E+02</pdfrwt>
<pdfrwt beam="2">  1       -1 0.19229017E-02 0.20002269E+02</pdfrwt>
<totfact> 0.38259934E+06</totfact>
</mgrwt>
</event>
<event>
 5    1  0.1042177E-006  0.2000087E+02  0.7818608E-02  0.1745311E+00
          1   -1    0    0  501    0  0.00000000000E+00  0.00000000000E+00  0.77843311289E+02  0.77843311429E+02  0.46700000000E-02 0.  1.
         -1   -1    0    0    0  501 -0.00000000000E+00 -0.00000000000E+00 -0.12847391391E+01  0.12847476267E+01  0.46700000000E-02 0. -1.
       1023    2    1    2    0    0  0.00000000000E+00  0.00000000000E+00  0.76558572150E+02  0.79128059056E+02  0.20000868989E+02 0.  0.
        -11    1    3    3    0    0 -0.19429352069E+01 -0.98097085273E+01  0.38506939733E+02  0.39784290700E+02  0.51100000000E-03 0.  1.
         11    1    3    3    0    0  0.19429352069E+01  0.98097085273E+01  0.38051632417E+02  0.39343768356E+02  0.51100000000E-03 0. -1.
<mgrwt>
<rscale>  0 0.20000869E+02</rscale>
<asrwt>0</asrwt>
<pdfrwt beam="1">  1        1 0.11975893E-01 0.20000869E+02</pdfrwt>
<pdfrwt beam="2">  1       -1 0.19765286E-03 0.20000869E+02</pdfrwt>
<totfact> 0.43243542E+06</totfact>
</mgrwt>
</event>
<event>
 5    1  0.9583198E-007  0.2000037E+02  0.7818608E-02  0.1745321E+00
          1   -1    0    0  501    0  0.00000000000E+00  0.00000000000E+00  0.34980162283E+02  0.34980162594E+02  0.46700000000E-02 0.  1.
         -1   -1    0    0    0  501 -0.00000000000E+00 -0.00000000000E+00 -0.28588677862E+01  0.28588716004E+01  0.46700000000E-02 0. -1.
       1023    2    1    2    0    0  0.00000000000E+00  0.00000000000E+00  0.32121294496E+02  0.37839034195E+02  0.20000373713E+02 0.  0.
        -11    1    3    3    0    0 -0.93836061535E+01  0.34569956514E+01  0.16115919952E+02  0.18966437714E+02  0.51100000000E-03 0.  1.
         11    1    3    3    0    0  0.93836061535E+01 -0.34569956514E+01  0.16005374544E+02  0.18872596481E+02  0.51100000000E-03 0. -1.
<mgrwt>
<rscale>  0 0.20000374E+02</rscale>
<asrwt>0</asrwt>
<pdfrwt beam="1">  1        1 0.53815636E-02 0.20000374E+02</pdfrwt>
<pdfrwt beam="2">  1       -1 0.43982614E-03 0.20000374E+02</pdfrwt>
<totfact> 0.40788327E+06</totfact>
</mgrwt>
</event>
<event>
 5    1  0.9721039E-007  0.2000200E+02  0.7818608E-02  0.1745288E+00
         -1   -1    0    0    0  501 -0.00000000000E+00  0.00000000000E+00  0.25218010642E+01  0.25218053883E+01  0.46700000000E-02 0. -1.
          1   -1    0    0  501    0  0.00000000000E+00 -0.00000000000E+00 -0.39662089836E+02  0.39662090111E+02  0.46700000000E-02 0.  1.
       1023    2    1    2    0    0  0.00000000000E+00  0.00000000000E+00 -0.37140288772E+02  0.42183895500E+02  0.20001999636E+02 0.  0.
        -11    1    3    3    0    0 -0.23433021964E+01 -0.97216730663E+01 -0.18853131282E+02  0.21341100060E+02  0.51100000000E-03 0.  1.
         11    1    3    3    0    0  0.23433021964E+01  0.97216730663E+01 -0.18287157490E+02  0.20842795439E+02  0.51100000000E-03 0. -1.
<mgrwt>
<rscale>  0 0.20002000E+02</rscale>
<asrwt>0</asrwt>
<pdfrwt beam="2">  1        1 0.61018599E-02 0.20002000E+02</pdfrwt>
<pdfrwt beam="1">  1       -1 0.38796978E-03 0.20002000E+02</pdfrwt>
<totfact> 0.41080081E+06</totfact>
</mgrwt>
</event>
<event>
 5    1  0.9583198E-007  0.2000364E+02  0.7818608E-02  0.1745256E+00
          1   -1    0    0  501    0  0.00000000000E+00  0.00000000000E+00  0.80461741447E+02  0.80461741583E+02  0.46700000000E-02 0.  1.
         -1   -1    0    0    0  501 -0.00000000000E+00 -0.00000000000E+00 -0.12432751867E+01  0.12432839575E+01  0.46700000000E-02 0. -1.
       1023    2    1    2    0    0  0.00000000000E+00  0.00000000000E+00  0.79218466261E+02  0.81705025540E+02  0.20003644714E+02 0.  0.
        -11    1    3    3    0    0  0.13520186283E+01  0.99099834594E+01  0.39719110686E+02  0.40959046381E+02  0.51100000000E-03 0.  1.
         11    1    3    3    0    0 -0.13520186283E+01 -0.99099834594E+01  0.39499355575E+02  0.40745979159E+02  0.51100000000E-03 0. -1.
<mgrwt>
<rscale>  0 0.20003645E+02</rscale>
<asrwt>0</asrwt>
<pdfrwt beam="1">  1        1 0.12378730E-01 0.20003645E+02</pdfrwt>
<pdfrwt beam="2">  1       -1 0.19127380E-03 0.20003645E+02</pdfrwt>
<totfact> 0.43365743E+06</totfact>
</mgrwt>
</event>
<event>
 5    1  0.9652571E-007  0.2000118E+02  0.7818608E-02  0.1745305E+00
          1   -1    0    0  501    0  0.00000000000E+00  0.00000000000E+00  0.12717817286E+02  0.12717818144E+02  0.46700000000E-02 0. -1.
         -1   -1    0    0    0  501 -0.00000000000E+00 -0.00000000000E+00 -0.78639125309E+01  0.78639139176E+01  0.46700000000E-02 0.  1.
       1023    2    1    2    0    0  0.00000000000E+00  0.00000000000E+00  0.48539047554E+01  0.20581732061E+02  0.20001182547E+02 0.  0.
        -11    1    3    3    0    0  0.99977790229E+01 -0.23654317606E+00  0.24444000853E+01  0.10294980821E+02  0.51100000000E-03 0. -1.
         11    1    3    3    0    0 -0.99977790229E+01  0.23654317606E+00  0.24095046701E+01  0.10286751240E+02  0.51100000000E-03 0.  1.
<mgrwt>
<rscale>  0 0.20001183E+02</rscale>
<asrwt>0</asrwt>
<pdfrwt beam="1">  1        1 0.19565874E-02 0.20001183E+02</pdfrwt>
<pdfrwt beam="2">  1       -1 0.12098329E-02 0.20001183E+02</pdfrwt>
<totfact> 0.38986722E+06</totfact>
</mgrwt>
</event>
<event>
 5    1  0.9932063E-007  0.2000060E+02  0.7818608E-02  0.1745316E+00
         -1   -1    0    0    0  501 -0.00000000000E+00  0.00000000000E+00  0.10209159783E+01  0.10209266593E+01  0.46700000000E-02 0.  1.
          1   -1    0    0  501    0  0.00000000000E+00 -0.00000000000E+00 -0.97956635039E+02  0.97956635150E+02  0.46700000000E-02 0. -1.
       1023    2    1    2    0    0  0.00000000000E+00  0.00000000000E+00 -0.96935719061E+02  0.98977561809E+02  0.20000602790E+02 0.  0.
        -11    1    3    3    0    0 -0.94185814896E+01 -0.33605656019E+01 -0.48736611751E+02  0.49751988942E+02  0.51100000000E-03 0.  1.
         11    1    3    3    0    0  0.94185814896E+01  0.33605656019E+01 -0.48199107309E+02  0.49225572867E+02  0.51100000000E-03 0. -1.
<mgrwt>
<rscale>  0 0.20000603E+02</rscale>
<asrwt>0</asrwt>
<pdfrwt beam="2">  1        1 0.15070245E-01 0.20000603E+02</pdfrwt>
<pdfrwt beam="1">  1       -1 0.15706490E-03 0.20000603E+02</pdfrwt>
<totfact> 0.44258291E+06</totfact>
</mgrwt>
</event>
<event>
 5    1  0.9583198E-007  0.2000019E+02  0.7818608E-02  0.1745324E+00
          1   -1    0    0  501    0  0.00000000000E+00  0.00000000000E+00  0.12007745516E+03  0.12007745525E+03  0.46700000000E-02 0.  1.
         -1   -1    0    0    0  501 -0.00000000000E+00 -0.00000000000E+00 -0.83280481045E+00  0.83281790399E+00  0.46700000000E-02 0. -1.
       1023    2    1    2    0    0  0.00000000000E+00  0.00000000000E+00  0.11924465035E+03  0.12091027316E+03  0.20000187934E+02 0.  0.
        -11    1    3    3    0    0  0.57574408584E+01  0.81763369884E+01  0.59837538358E+02  0.60667385050E+02  0.51100000000E-03 0. -1.
         11    1    3    3    0    0 -0.57574408584E+01 -0.81763369884E+01  0.59407111993E+02  0.60242888107E+02  0.51100000000E-03 0.  1.
<mgrwt>
<rscale>  0 0.20000188E+02</rscale>
<asrwt>0</asrwt>
<pdfrwt beam="1">  1        1 0.18473454E-01 0.20000188E+02</pdfrwt>
<pdfrwt beam="2">  1       -1 0.12812484E-03 0.20000188E+02</pdfrwt>
<totfact> 0.45302905E+06</totfact>
</mgrwt>
</event>
<event>
 5    1  0.9583198E-007  0.2000033E+02  0.7818608E-02  0.1745321E+00
          1   -1    0    0  501    0  0.00000000000E+00  0.00000000000E+00  0.73246214477E+01  0.73246229364E+01  0.46700000000E-02 0.  1.
         -1   -1    0    0    0  501 -0.00000000000E+00 -0.00000000000E+00 -0.13653035225E+02  0.13653036023E+02  0.46700000000E-02 0. -1.
       1023    2    1    2    0    0  0.00000000000E+00  0.00000000000E+00 -0.63284137770E+01  0.20977658960E+02  0.20000333860E+02 0.  0.
        -11    1    3    3    0    0  0.97283081778E+01  0.23158924173E+01 -0.31650668377E+01  0.10489088904E+02  0.51100000000E-03 0. -1.
         11    1    3    3    0    0 -0.97283081778E+01 -0.23158924173E+01 -0.31633469393E+01  0.10488570056E+02  0.51100000000E-03 0.  1.
<mgrwt>
<rscale>  0 0.20000334E+02</rscale>
<asrwt>0</asrwt>
<pdfrwt beam="1">  1        1 0.11268650E-02 0.20000334E+02</pdfrwt>
<pdfrwt beam="2">  1       -1 0.21004671E-02 0.20000334E+02</pdfrwt>
<totfact> 0.38120890E+06</totfact>
</mgrwt>
</event>
<event>
 5    1  0.9583198E-007  0.2000382E+02  0.7818608E-02  0.1745252E+00
         -1   -1    0    0    0  501 -0.00000000000E+00  0.00000000000E+00  0.72433441800E+02  0.72433441950E+02  0.46700000000E-02 0.  1.
          1   -1    0    0  501    0  0.00000000000E+00 -0.00000000000E+00 -0.13811013601E+01  0.13811092555E+01  0.46700000000E-02 0. -1.
       1023    2    1    2    0    0  0.00000000000E+00  0.00000000000E+00  0.71052340440E+02  0.73814551206E+02  0.20003821829E+02 0.  0.
        -11    1    3    3    0    0 -0.46805163128E+01 -0.88371940731E+01  0.34835932410E+02  0.36242867149E+02  0.51100000000E-03 0. -1.
         11    1    3    3    0    0  0.46805163128E+01  0.88371940731E+01  0.36216408029E+02  0.37571684057E+02  0.51100000000E-03 0.  1.
<mgrwt>
<rscale>  0 0.20003822E+02</rscale>
<asrwt>0</asrwt>
<pdfrwt beam="2">  1        1 0.21247777E-03 0.20003822E+02</pdfrwt>
<pdfrwt beam="1">  1       -1 0.11143606E-01 0.20003822E+02</pdfrwt>
<totfact> 0.33435659E+06</totfact>
</mgrwt>
</event>
<event>
 5    1  0.9583198E-007  0.2000450E+02  0.7818608E-02  0.1745239E+00
         -1   -1    0    0    0  501 -0.00000000000E+00  0.00000000000E+00  0.50527230313E+02  0.50527230528E+02  0.46700000000E-02 0. -1.
          1   -1    0    0  501    0  0.00000000000E+00 -0.00000000000E+00 -0.19800182575E+01  0.19800237648E+01  0.46700000000E-02 0.  1.
       1023    2    1    2    0    0  0.00000000000E+00  0.00000000000E+00  0.48547212055E+02  0.52507254293E+02  0.20004498371E+02 0.  0.
        -11    1    3    3    0    0 -0.70664512584E+01  0.70761667003E+01  0.23761136769E+02  0.25779807784E+02  0.51100000000E-03 0.  1.
         11    1    3    3    0    0  0.70664512584E+01 -0.70761667003E+01  0.24786075286E+02  0.26727446509E+02  0.51100000000E-03 0. -1.
<mgrwt>
<rscale>  0 0.20004498E+02</rscale>
<asrwt>0</asrwt>
<pdfrwt beam="2">  1        1 0.30461862E-03 0.20004498E+02</pdfrwt>
<pdfrwt beam="1">  1       -1 0.77734209E-02 0.20004498E+02</pdfrwt>
<totfact> 0.34874919E+06</totfact>
</mgrwt>
</event>
<event>
 5    1  0.9583198E-007  0.2000086E+02  0.7818608E-02  0.1745311E+00
         -1   -1    0    0    0  501 -0.00000000000E+00  0.00000000000E+00  0.86269204432E+00  0.86270468426E+00  0.46700000000E-02 0. -1.
          1   -1    0    0  501    0  0.00000000000E+00 -0.00000000000E+00 -0.11592531321E+03  0.11592531330E+03  0.46700000000E-02 0.  1.
       1023    2    1    2    0    0  0.00000000000E+00  0.00000000000E+00 -0.11506262116E+03  0.11678801799E+03  0.20000858884E+02 0.  0.
        -11    1    3    3    0    0  0.78042358656E+01 -0.62528360817E+01 -0.57924414080E+02  0.58781304879E+02  0.51100000000E-03 0. -1.
         11    1    3    3    0    0 -0.78042358656E+01  0.62528360817E+01 -0.57138207083E+02  0.58006713106E+02  0.51100000000E-03 0.  1.
<mgrwt>
<rscale>  0 0.20000859E+02</rscale>
<asrwt>0</asrwt>
<pdfrwt beam="2">  1        1 0.17834652E-01 0.20000859E+02</pdfrwt>
<pdfrwt beam="1">  1       -1 0.13272292E-03 0.20000859E+02</pdfrwt>
<totfact> 0.45109111E+06</totfact>
</mgrwt>
</event>
<event>
 4    1  0.9583198E-007  0.2002495E+02  0.7818608E-02  0.1744832E+00
         -1   -1    0    0    0  501 -0.00000000000E+00  0.00000000000E+00  0.52225435582E+02  0.52225435791E+02  0.46700000000E-02 0. -1.
          1   -1    0    0  501    0  0.00000000000E+00 -0.00000000000E+00 -0.19195530444E+01  0.19195587252E+01  0.46700000000E-02 0.  1.
        -11    1    1    2    0    0 -0.76387384422E+01 -0.64682204478E+01  0.25823220803E+02  0.27695251103E+02  0.51100000000E-03 0.  1.
         11    1    1    2    0    0  0.76387384422E+01  0.64682204478E+01  0.24482661735E+02  0.26449743414E+02  0.51100000000E-03 0. -1.
<mgrwt>
<rscale>  0 0.20024950E+02</rscale>
<asrwt>0</asrwt>
<pdfrwt beam="2">  1        1 0.29531632E-03 0.20024950E+02</pdfrwt>
<pdfrwt beam="1">  1       -1 0.80346825E-02 0.20024950E+02</pdfrwt>
<totfact> 0.34677412E+06</totfact>
</mgrwt>
</event>
<event>
 5    1  0.9583198E-007  0.2000015E+02  0.7818608E-02  0.1745325E+00
         -1   -1    0    0    0  501 -0.00000000000E+00  0.00000000000E+00  0.11640901425E+02  0.11640902362E+02  0.46700000000E-02 0. -1.
          1   -1    0    0  501    0  0.00000000000E+00 -0.00000000000E+00 -0.85905272493E+01  0.85905285187E+01  0.46700000000E-02 0.  1.
       1023    2    1    2    0    0  0.00000000000E+00  0.00000000000E+00  0.30503741759E+01  0.20231430881E+02  0.20000150321E+02 0.  0.
        -11    1    3    3    0    0 -0.89439611850E+01  0.44729136361E+01  0.15148275500E+01  0.10114153491E+02  0.51100000000E-03 0.  1.
         11    1    3    3    0    0  0.89439611850E+01 -0.44729136361E+01  0.15355466259E+01  0.10117277389E+02  0.51100000000E-03 0. -1.
<mgrwt>
<rscale>  0 0.20000150E+02</rscale>
<asrwt>0</asrwt>
<pdfrwt beam="2">  1        1 0.13216198E-02 0.20000150E+02</pdfrwt>
<pdfrwt beam="1">  1       -1 0.17909081E-02 0.20000150E+02</pdfrwt>
<totfact> 0.38384123E+06</totfact>
</mgrwt>
</event>
<event>
 5    1  0.9583198E-007  0.2000058E+02  0.7818608E-02  0.1745316E+00
          1   -1    0    0  501    0  0.00000000000E+00  0.00000000000E+00  0.10209470596E+01  0.10209577402E+01  0.46700000000E-02 0.  1.
         -1   -1    0    0    0  501 -0.00000000000E+00 -0.00000000000E+00 -0.97953470177E+02  0.97953470288E+02  0.46700000000E-02 0. -1.
       1023    2    1    2    0    0  0.00000000000E+00  0.00000000000E+00 -0.96932523118E+02  0.98974428029E+02  0.20000584133E+02 0.  0.
        -11    1    3    3    0    0 -0.95459952130E+01 -0.29795183392E+01 -0.48702916081E+02  0.49718986205E+02  0.51100000000E-03 0. -1.
         11    1    3    3    0    0  0.95459952130E+01  0.29795183392E+01 -0.48229607036E+02  0.49255441824E+02  0.51100000000E-03 0.  1.
<mgrwt>
<rscale>  0 0.20000584E+02</rscale>
<asrwt>0</asrwt>
<pdfrwt beam="1">  1        1 0.15706969E-03 0.20000584E+02</pdfrwt>
<pdfrwt beam="2">  1       -1 0.15069758E-01 0.20000584E+02</pdfrwt>
<totfact> 0.31976161E+06</totfact>
</mgrwt>
</event>
<event>
 5    1  0.9583198E-007  0.2000182E+02  0.7818608E-02  0.1745292E+00
          1   -1    0    0  501    0  0.00000000000E+00  0.00000000000E+00  0.69416706264E+01  0.69416721973E+01  0.46700000000E-02 0. -1.
         -1   -1    0    0    0  501 -0.00000000000E+00 -0.00000000000E+00 -0.14408369320E+02  0.14408370076E+02  0.46700000000E-02 0.  1.
       1023    2    1    2    0    0  0.00000000000E+00  0.00000000000E+00 -0.74666986931E+01  0.21350042274E+02  0.20001817810E+02 0.  0.
        -11    1    3    3    0    0  0.61378756439E+01 -0.78953952502E+01 -0.36415581621E+01  0.10642919228E+02  0.51100000000E-03 0. -1.
         11    1    3    3    0    0 -0.61378756439E+01  0.78953952502E+01 -0.38251405310E+01  0.10707123046E+02  0.51100000000E-03 0.  1.
<mgrwt>
<rscale>  0 0.20001818E+02</rscale>
<asrwt>0</asrwt>
<pdfrwt beam="1">  1        1 0.10679495E-02 0.20001818E+02</pdfrwt>
<pdfrwt beam="2">  1       -1 0.22166724E-02 0.20001818E+02</pdfrwt>
<totfact> 0.38022500E+06</totfact>
</mgrwt>
</event>
<event>
 5    1  0.9583198E-007  0.2000042E+02  0.7818608E-02  0.1745320E+00
          1   -1    0    0  501    0  0.00000000000E+00  0.00000000000E+00  0.29959299124E+02  0.29959299488E+02  0.46700000000E-02 0.  1.
         -1   -1    0    0    0  501 -0.00000000000E+00 -0.00000000000E+00 -0.33380015536E+01  0.33380048203E+01  0.46700000000E-02 0. -1.
       1023    2    1    2    0    0  0.00000000000E+00  0.00000000000E+00  0.26621297570E+02  0.33297304308E+02  0.20000424742E+02 0.  0.
        -11    1    3    3    0    0  0.73716637895E+01  0.67571351017E+01  0.13206076835E+02  0.16565046557E+02  0.51100000000E-03 0. -1.
         11    1    3    3    0    0 -0.73716637895E+01 -0.67571351017E+01  0.13415220736E+02  0.16732257751E+02  0.51100000000E-03 0.  1.
<mgrwt>
<rscale>  0 0.20000425E+02</rscale>
<asrwt>0</asrwt>
<pdfrwt beam="1">  1        1 0.46091232E-02 0.20000425E+02</pdfrwt>
<pdfrwt beam="2">  1       -1 0.51353898E-03 0.20000425E+02</pdfrwt>
<totfact> 0.40451963E+06</totfact>
</mgrwt>
</event>
<event>
 5    1  0.9583198E-007  0.2000031E+02  0.7818608E-02  0.1745322E+00
         -1   -1    0    0    0  501 -0.00000000000E+00  0.00000000000E+00  0.10065865552E+02  0.10065866635E+02  0.46700000000E-02 0.  1.
          1   -1    0    0  501    0  0.00000000000E+00 -0.00000000000E+00 -0.99348699404E+01  0.99348710380E+01  0.46700000000E-02 0. -1.
       1023    2    1    2    0    0  0.00000000000E+00  0.00000000000E+00  0.13099561152E+00  0.20000737673E+02  0.20000308688E+02 0.  0.
        -11    1    3    3    0    0  0.98471598137E+01  0.17423379825E+01  0.37415121906E-01  0.10000184908E+02  0.51100000000E-03 0. -1.
         11    1    3    3    0    0 -0.98471598137E+01 -0.17423379825E+01  0.93580489618E-01  0.10000552765E+02  0.51100000000E-03 0.  1.
<mgrwt>
<rscale>  0 0.20000309E+02</rscale>
<asrwt>0</asrwt>
<pdfrwt beam="2">  1        1 0.15284417E-02 0.20000309E+02</pdfrwt>
<pdfrwt beam="1">  1       -1 0.15485949E-02 0.20000309E+02</pdfrwt>
<totfact> 0.38612479E+06</totfact>
</mgrwt>
</event>
<event>
 5    1  0.9583198E-007  0.2000039E+02  0.7818608E-02  0.1745320E+00
         -1   -1    0    0    0  501 -0.00000000000E+00  0.00000000000E+00  0.40960031260E+02  0.40960031526E+02  0.46700000000E-02 0.  1.
          1   -1    0    0  501    0  0.00000000000E+00 -0.00000000000E+00 -0.24414979072E+01  0.24415023735E+01  0.46700000000E-02 0. -1.
       1023    2    1    2    0    0  0.00000000000E+00  0.00000000000E+00  0.38518533352E+02  0.43401533899E+02  0.20000393326E+02 0.  0.
        -11    1    3    3    0    0 -0.56888492420E+01 -0.82243960037E+01  0.19225809088E+02  0.21671073593E+02  0.51100000000E-03 0. -1.
         11    1    3    3    0    0  0.56888492420E+01  0.82243960037E+01  0.19292724265E+02  0.21730460307E+02  0.51100000000E-03 0.  1.
<mgrwt>
<rscale>  0 0.20000393E+02</rscale>
<asrwt>0</asrwt>
<pdfrwt beam="2">  1        1 0.37561547E-03 0.20000393E+02</pdfrwt>
<pdfrwt beam="1">  1       -1 0.63015428E-02 0.20000393E+02</pdfrwt>
<totfact> 0.35595591E+06</totfact>
</mgrwt>
</event>
<event>
 5    1  0.9583198E-007  0.2000107E+02  0.7818608E-02  0.1745307E+00
          1   -1    0    0  501    0  0.00000000000E+00  0.00000000000E+00  0.58375313614E+01  0.58375332294E+01  0.46700000000E-02 0. -1.
         -1   -1    0    0    0  501 -0.00000000000E+00 -0.00000000000E+00 -0.17132356188E+02  0.17132356824E+02  0.46700000000E-02 0.  1.
       1023    2    1    2    0    0  0.00000000000E+00  0.00000000000E+00 -0.11294824826E+02  0.22969890054E+02  0.20001069502E+02 0.  0.
        -11    1    3    3    0    0 -0.83645320064E+01  0.54812644728E+01 -0.56103919466E+01  0.11466741209E+02  0.51100000000E-03 0. -1.
         11    1    3    3    0    0  0.83645320064E+01 -0.54812644728E+01 -0.56844328796E+01  0.11503148844E+02  0.51100000000E-03 0.  1.
<mgrwt>
<rscale>  0 0.20001070E+02</rscale>
<asrwt>0</asrwt>
<pdfrwt beam="1">  1        1 0.89808195E-03 0.20001070E+02</pdfrwt>
<pdfrwt beam="2">  1       -1 0.26357473E-02 0.20001070E+02</pdfrwt>
<totfact> 0.37714254E+06</totfact>
</mgrwt>
</event>
<event>
 5    1  0.9583198E-007  0.2000028E+02  0.7818608E-02  0.1745323E+00
          1   -1    0    0  501    0  0.00000000000E+00  0.00000000000E+00  0.12010043807E+01  0.12010134601E+01  0.46700000000E-02 0.  1.
         -1   -1    0    0    0  501 -0.00000000000E+00 -0.00000000000E+00 -0.83265648564E+02  0.83265648695E+02  0.46700000000E-02 0. -1.
       1023    2    1    2    0    0  0.00000000000E+00  0.00000000000E+00 -0.82064644184E+02  0.84466662155E+02  0.20000279765E+02 0.  0.
        -11    1    3    3    0    0  0.24010602640E+01  0.97074924533E+01 -0.40829900461E+02  0.42036665806E+02  0.51100000000E-03 0. -1.
         11    1    3    3    0    0 -0.24010602640E+01 -0.97074924533E+01 -0.41234743723E+02  0.42429996350E+02  0.51100000000E-03 0.  1.
<mgrwt>
<rscale>  0 0.20000280E+02</rscale>
<asrwt>0</asrwt>
<pdfrwt beam="1">  1        1 0.18477068E-03 0.20000280E+02</pdfrwt>
<pdfrwt beam="2">  1       -1 0.12810096E-01 0.20000280E+02</pdfrwt>
<totfact> 0.32801093E+06</totfact>
</mgrwt>
</event>
<event>
 5    1  0.1026988E-006  0.2000160E+02  0.7818608E-02  0.1745296E+00
          1   -1    0    0  501    0  0.00000000000E+00  0.00000000000E+00  0.32613006689E+02  0.32613007023E+02  0.46700000000E-02 0. -1.
         -1   -1    0    0    0  501 -0.00000000000E+00 -0.00000000000E+00 -0.30667497004E+01  0.30667532561E+01  0.46700000000E-02 0.  1.
       1023    2    1    2    0    0  0.00000000000E+00  0.00000000000E+00  0.29546256988E+02  0.35679760279E+02  0.20001599725E+02 0.  0.
        -11    1    3    3    0    0 -0.12368812117E+01 -0.99237230964E+01  0.14909477822E+02  0.17952790435E+02  0.51100000000E-03 0. -1.
         11    1    3    3    0    0  0.12368812117E+01  0.99237230964E+01  0.14636779166E+02  0.17726969844E+02  0.51100000000E-03 0.  1.
<mgrwt>
<rscale>  0 0.20001600E+02</rscale>
<asrwt>0</asrwt>
<pdfrwt beam="1">  1        1 0.50173858E-02 0.20001600E+02</pdfrwt>
<pdfrwt beam="2">  1       -1 0.47180796E-03 0.20001600E+02</pdfrwt>
<totfact> 0.40626570E+06</totfact>
</mgrwt>
</event>
<event>
 4    1  0.9583198E-007  0.2003472E+02  0.7818608E-02  0.1744639E+00
         -1   -1    0    0    0  501 -0.00000000000E+00  0.00000000000E+00  0.23992329358E+01  0.23992374807E+01  0.46700000000E-02 0. -1.
          1   -1    0    0  501    0  0.00000000000E+00 -0.00000000000E+00 -0.41824775843E+02  0.41824776103E+02  0.46700000000E-02 0.  1.
        -11    1    1    2    0    0 -0.94749022246E+01 -0.32255198783E+01 -0.20622183536E+02  0.22922744267E+02  0.51100000000E-03 0.  1.
         11    1    1    2    0    0  0.94749022246E+01  0.32255198783E+01 -0.18803359371E+02  0.21301269317E+02  0.51100000000E-03 0. -1.
<mgrwt>
<rscale>  0 0.20034718E+02</rscale>
<asrwt>0</asrwt>
<pdfrwt beam="2">  1        1 0.64345807E-02 0.20034718E+02</pdfrwt>
<pdfrwt beam="1">  1       -1 0.36911316E-03 0.20034718E+02</pdfrwt>
<totfact> 0.41064802E+06</totfact>
</mgrwt>
</event>
<event>
 5    1  0.9583198E-007  0.2000148E+02  0.7818608E-02  0.1745299E+00
          1   -1    0    0  501    0  0.00000000000E+00  0.00000000000E+00  0.61695397518E+01  0.61695415193E+01  0.46700000000E-02 0.  1.
         -1   -1    0    0    0  501 -0.00000000000E+00 -0.00000000000E+00 -0.16211051220E+02  0.16211051893E+02  0.46700000000E-02 0. -1.
       1023    2    1    2    0    0  0.00000000000E+00  0.00000000000E+00 -0.10041511468E+02  0.22380593412E+02  0.20001475168E+02 0.  0.
        -11    1    3    3    0    0  0.72555643773E+01 -0.68826872398E+01 -0.50068749013E+01  0.11184068786E+02  0.51100000000E-03 0. -1.
         11    1    3    3    0    0 -0.72555643773E+01  0.68826872398E+01 -0.50346365668E+01  0.11196524626E+02  0.51100000000E-03 0.  1.
<mgrwt>
<rscale>  0 0.20001475E+02</rscale>
<asrwt>0</asrwt>
<pdfrwt beam="1">  1        1 0.94916016E-03 0.20001475E+02</pdfrwt>
<pdfrwt beam="2">  1       -1 0.24940080E-02 0.20001475E+02</pdfrwt>
<totfact> 0.37814702E+06</totfact>
</mgrwt>
</event>
<event>
 5    1  0.9583198E-007  0.2000087E+02  0.7818608E-02  0.1745311E+00
          1   -1    0    0  501    0  0.00000000000E+00  0.00000000000E+00  0.28347009737E+01  0.28347048205E+01  0.46700000000E-02 0.  1.
         -1   -1    0    0    0  501 -0.00000000000E+00 -0.00000000000E+00 -0.35280126316E+02  0.35280126625E+02  0.46700000000E-02 0. -1.
       1023    2    1    2    0    0  0.00000000000E+00  0.00000000000E+00 -0.32445425342E+02  0.38114831445E+02  0.20000868743E+02 0.  0.
        -11    1    3    3    0    0 -0.96620532496E+01  0.25793029100E+01 -0.16269812044E+02  0.19097509281E+02  0.51100000000E-03 0.  1.
         11    1    3    3    0    0  0.96620532496E+01 -0.25793029100E+01 -0.16175613298E+02  0.19017322165E+02  0.51100000000E-03 0. -1.
<mgrwt>
<rscale>  0 0.20000869E+02</rscale>
<asrwt>0</asrwt>
<pdfrwt beam="1">  1        1 0.43610819E-03 0.20000869E+02</pdfrwt>
<pdfrwt beam="2">  1       -1 0.54277117E-02 0.20000869E+02</pdfrwt>
<totfact> 0.36041491E+06</totfact>
</mgrwt>
</event>
<event>
 5    1  0.9830953E-007  0.2000161E+02  0.7818608E-02  0.1745296E+00
          1   -1    0    0  501    0  0.00000000000E+00  0.00000000000E+00  0.67595086454E+01  0.67595102586E+01  0.46700000000E-02 0. -1.
         -1   -1    0    0    0  501 -0.00000000000E+00 -0.00000000000E+00 -0.14796345924E+02  0.14796346661E+02  0.46700000000E-02 0.  1.
       1023    2    1    2    0    0  0.00000000000E+00  0.00000000000E+00 -0.80368372790E+01  0.21555856920E+02  0.20001605288E+02 0.  0.
        -11    1    3    3    0    0  0.21297632089E+01 -0.97708083557E+01 -0.41338188811E+01  0.10820954027E+02  0.51100000000E-03 0.  1.
         11    1    3    3    0    0 -0.21297632089E+01  0.97708083557E+01 -0.39030183979E+01  0.10734902893E+02  0.51100000000E-03 0. -1.
<mgrwt>
<rscale>  0 0.20001605E+02</rscale>
<asrwt>0</asrwt>
<pdfrwt beam="1">  1        1 0.10399246E-02 0.20001605E+02</pdfrwt>
<pdfrwt beam="2">  1       -1 0.22763611E-02 0.20001605E+02</pdfrwt>
<totfact> 0.37977154E+06</totfact>
</mgrwt>
</event>
<event>
 5    1  0.9583198E-007  0.2000012E+02  0.7818608E-02  0.1745326E+00
         -1   -1    0    0    0  501 -0.00000000000E+00  0.00000000000E+00  0.20940264494E+01  0.20940316568E+01  0.46700000000E-02 0.  1.
          1   -1    0    0  501    0  0.00000000000E+00 -0.00000000000E+00 -0.47755375067E+02  0.47755375295E+02  0.46700000000E-02 0. -1.
       1023    2    1    2    0    0  0.00000000000E+00  0.00000000000E+00 -0.45661348618E+02  0.49849406952E+02  0.20000115397E+02 0.  0.
        -11    1    3    3    0    0  0.31847513291E+00  0.99949846690E+01 -0.22823293589E+02  0.24917942841E+02  0.51100000000E-03 0. -1.
         11    1    3    3    0    0 -0.31847513291E+00 -0.99949846690E+01 -0.22838055029E+02  0.24931464111E+02  0.51100000000E-03 0.  1.
<mgrwt>
<rscale>  0 0.20000115E+02</rscale>
<asrwt>0</asrwt>
<pdfrwt beam="2">  1        1 0.73469804E-02 0.20000115E+02</pdfrwt>
<pdfrwt beam="1">  1       -1 0.32215837E-03 0.20000115E+02</pdfrwt>
<totfact> 0.41581870E+06</totfact>
</mgrwt>
</event>
<event>
 4    1  0.9583198E-007  0.2001748E+02  0.7818608E-02  0.1744981E+00
         -1   -1    0    0    0  501 -0.00000000000E+00  0.00000000000E+00  0.37439724533E+01  0.37439753658E+01  0.46700000000E-02 0.  1.
          1   -1    0    0  501    0  0.00000000000E+00 -0.00000000000E+00 -0.26756304732E+02  0.26756305140E+02  0.46700000000E-02 0. -1.
        -11    1    1    2    0    0 -0.98799300575E+01  0.15906371682E+01 -0.11234567100E+02  0.15045219930E+02  0.51100000000E-03 0. -1.
         11    1    1    2    0    0  0.98799300575E+01 -0.15906371682E+01 -0.11777765179E+02  0.15455060576E+02  0.51100000000E-03 0.  1.
<mgrwt>
<rscale>  0 0.20017484E+02</rscale>
<asrwt>0</asrwt>
<pdfrwt beam="2">  1        1 0.41163547E-02 0.20017484E+02</pdfrwt>
<pdfrwt beam="1">  1       -1 0.57599603E-03 0.20017484E+02</pdfrwt>
<totfact> 0.40149612E+06</totfact>
</mgrwt>
</event>
<event>
 5    1  0.9583198E-007  0.2000468E+02  0.7818608E-02  0.1745235E+00
          1   -1    0    0  501    0  0.00000000000E+00  0.00000000000E+00  0.61173652070E+02  0.61173652248E+02  0.46700000000E-02 0.  1.
         -1   -1    0    0    0  501 -0.00000000000E+00 -0.00000000000E+00 -0.16354516278E+01  0.16354582953E+01  0.46700000000E-02 0. -1.
       1023    2    1    2    0    0  0.00000000000E+00  0.00000000000E+00  0.59538200442E+02  0.62809110544E+02  0.20004675838E+02 0.  0.
        -11    1    3    3    0    0  0.94221862323E+01  0.33538866959E+01  0.30219890515E+02  0.31831869759E+02  0.51100000000E-03 0. -1.
         11    1    3    3    0    0 -0.94221862323E+01 -0.33538866959E+01  0.29318309927E+02  0.30977240784E+02  0.51100000000E-03 0.  1.
<mgrwt>
<rscale>  0 0.20004676E+02</rscale>
<asrwt>0</asrwt>
<pdfrwt beam="1">  1        1 0.94113302E-02 0.20004676E+02</pdfrwt>
<pdfrwt beam="2">  1       -1 0.25160851E-03 0.20004676E+02</pdfrwt>
<totfact> 0.42330103E+06</totfact>
</mgrwt>
</event>
<event>
 5    1  0.9583198E-007  0.2000058E+02  0.7818608E-02  0.1745317E+00
          1   -1    0    0  501    0  0.00000000000E+00  0.00000000000E+00  0.26230817127E+01  0.26230858698E+01  0.46700000000E-02 0. -1.
         -1   -1    0    0    0  501 -0.00000000000E+00 -0.00000000000E+00 -0.38125261056E+02  0.38125261342E+02  0.46700000000E-02 0.  1.
       1023    2    1    2    0    0  0.00000000000E+00  0.00000000000E+00 -0.35502179343E+02  0.40748347212E+02  0.20000576551E+02 0.  0.
        -11    1    3    3    0    0 -0.33056650189E+01 -0.94379777689E+01 -0.17641001634E+02  0.20278258912E+02  0.51100000000E-03 0. -1.
         11    1    3    3    0    0  0.33056650189E+01  0.94379777689E+01 -0.17861177709E+02  0.20470088300E+02  0.51100000000E-03 0.  1.
<mgrwt>
<rscale>  0 0.20000577E+02</rscale>
<asrwt>0</asrwt>
<pdfrwt beam="1">  1        1 0.40355140E-03 0.20000577E+02</pdfrwt>
<pdfrwt beam="2">  1       -1 0.58654247E-02 0.20000577E+02</pdfrwt>
<totfact> 0.35815251E+06</totfact>
</mgrwt>
</event>
<event>
 5    1  0.9583198E-007  0.2000036E+02  0.7818608E-02  0.1745321E+00
          1   -1    0    0  501    0  0.00000000000E+00  0.00000000000E+00  0.48727183369E+02  0.48727183592E+02  0.46700000000E-02 0.  1.
         -1   -1    0    0    0  501 -0.00000000000E+00 -0.00000000000E+00 -0.20523127135E+01  0.20523180268E+01  0.46700000000E-02 0. -1.
       1023    2    1    2    0    0  0.00000000000E+00  0.00000000000E+00  0.46674870655E+02  0.50779501619E+02  0.20000355848E+02 0.  0.
        -11    1    3    3    0    0 -0.85486556925E+01 -0.51888270856E+01  0.23364965139E+02  0.25415055319E+02  0.51100000000E-03 0.  1.
         11    1    3    3    0    0  0.85486556925E+01  0.51888270856E+01  0.23309905517E+02  0.25364446300E+02  0.51100000000E-03 0. -1.
<mgrwt>
<rscale>  0 0.20000356E+02</rscale>
<asrwt>0</asrwt>
<pdfrwt beam="1">  1        1 0.74964907E-02 0.20000356E+02</pdfrwt>
<pdfrwt beam="2">  1       -1 0.31574082E-03 0.20000356E+02</pdfrwt>
<totfact> 0.41638298E+06</totfact>
</mgrwt>
</event>
<event>
 5    1  0.9583198E-007  0.2000036E+02  0.7818608E-02  0.1745321E+00
          1   -1    0    0  501    0  0.00000000000E+00  0.00000000000E+00  0.10589309792E+03  0.10589309802E+03  0.46700000000E-02 0.  1.
         -1   -1    0    0    0  501 -0.00000000000E+00 -0.00000000000E+00 -0.94437715423E+00  0.94438870087E+00  0.46700000000E-02 0. -1.
       1023    2    1    2    0    0  0.00000000000E+00  0.00000000000E+00  0.10494872077E+03  0.10683748672E+03  0.20000364474E+02 0.  0.
        -11    1    3    3    0    0 -0.74985969783E+01  0.66162442048E+01  0.52478104114E+02  0.53422420908E+02  0.51100000000E-03 0.  1.
         11    1    3    3    0    0  0.74985969783E+01 -0.66162442048E+01  0.52470616651E+02  0.53415065815E+02  0.51100000000E-03 0. -1.
<mgrwt>
<rscale>  0 0.20000364E+02</rscale>
<asrwt>0</asrwt>
<pdfrwt beam="1">  1        1 0.16291238E-01 0.20000364E+02</pdfrwt>
<pdfrwt beam="2">  1       -1 0.14528977E-03 0.20000364E+02</pdfrwt>
<totfact> 0.44641875E+06</totfact>
</mgrwt>
</event>
<event>
 5    1  0.9583198E-007  0.2000018E+02  0.7818608E-02  0.1745324E+00
         -1   -1    0    0    0  501 -0.00000000000E+00  0.00000000000E+00  0.42749527725E+01  0.42749553233E+01  0.46700000000E-02 0. -1.
          1   -1    0    0  501    0  0.00000000000E+00 -0.00000000000E+00 -0.23392490260E+02  0.23392490726E+02  0.46700000000E-02 0.  1.
       1023    2    1    2    0    0  0.00000000000E+00  0.00000000000E+00 -0.19117537487E+02  0.27667446049E+02  0.20000183282E+02 0.  0.
        -11    1    3    3    0    0 -0.83267170341E+01  0.55378170277E+01 -0.95392753662E+01  0.13820253571E+02  0.51100000000E-03 0. -1.
         11    1    3    3    0    0  0.83267170341E+01 -0.55378170277E+01 -0.95782621209E+01  0.13847192478E+02  0.51100000000E-03 0.  1.
<mgrwt>
<rscale>  0 0.20000183E+02</rscale>
<asrwt>0</asrwt>
<pdfrwt beam="2">  1        1 0.35988448E-02 0.20000183E+02</pdfrwt>
<pdfrwt beam="1">  1       -1 0.65768529E-03 0.20000183E+02</pdfrwt>
<totfact> 0.39976866E+06</totfact>
</mgrwt>
</event>
<event>
 5    1  0.9583198E-007  0.2000055E+02  0.7818608E-02  0.1745317E+00
          1   -1    0    0  501    0  0.00000000000E+00  0.00000000000E+00  0.20792968597E+02  0.20792969122E+02  0.46700000000E-02 0. -1.
         -1   -1    0    0    0  501 -0.00000000000E+00 -0.00000000000E+00 -0.48095822323E+01  0.48095844996E+01  0.46700000000E-02 0.  1.
       1023    2    1    2    0    0  0.00000000000E+00  0.00000000000E+00  0.15983386365E+02  0.25602553621E+02  0.20000552798E+02 0.  0.
        -11    1    3    3    0    0  0.63670684972E+01 -0.77113856005E+01  0.80202788981E+01  0.12819122552E+02  0.51100000000E-03 0.  1.
         11    1    3    3    0    0 -0.63670684972E+01  0.77113856005E+01  0.79631074671E+01  0.12783431070E+02  0.51100000000E-03 0. -1.
<mgrwt>
<rscale>  0 0.20000553E+02</rscale>
<asrwt>0</asrwt>
<pdfrwt beam="1">  1        1 0.31989184E-02 0.20000553E+02</pdfrwt>
<pdfrwt beam="2">  1       -1 0.73993595E-03 0.20000553E+02</pdfrwt>
<totfact> 0.39769149E+06</totfact>
</mgrwt>
</event>
<event>
 5    1  0.9583198E-007  0.2000478E+02  0.7818608E-02  0.1745233E+00
         -1   -1    0    0    0  501 -0.00000000000E+00  0.00000000000E+00  0.36564754684E+01  0.36564784507E+01  0.46700000000E-02 0. -1.
          1   -1    0    0  501    0  0.00000000000E+00 -0.00000000000E+00 -0.27361792228E+02  0.27361792627E+02  0.46700000000E-02 0.  1.
       1023    2    1    2    0    0  0.00000000000E+00  0.00000000000E+00 -0.23705316760E+02  0.31018271078E+02  0.20004776878E+02 0.  0.
        -11    1    3    3    0    0  0.66747423028E+01  0.74476200999E+01 -0.11590693351E+02  0.15308932118E+02  0.51100000000E-03 0.  1.
         11    1    3    3    0    0 -0.66747423028E+01 -0.74476200999E+01 -0.12114623409E+02  0.15709338960E+02  0.51100000000E-03 0. -1.
<mgrwt>
<rscale>  0 0.20004777E+02</rscale>
<asrwt>0</asrwt>
<pdfrwt beam="2">  1        1 0.42095066E-02 0.20004777E+02</pdfrwt>
<pdfrwt beam="1">  1       -1 0.56253496E-03 0.20004777E+02</pdfrwt>
<totfact> 0.40250170E+06</totfact>
</mgrwt>
</event>
<event>
 5    1  0.9583198E-007  0.2000015E+02  0.7818608E-02  0.1745325E+00
         -1   -1    0    0    0  501 -0.00000000000E+00  0.00000000000E+00  0.10405533022E+02  0.10405534070E+02  0.46700000000E-02 0.  1.
          1   -1    0    0  501    0  0.00000000000E+00 -0.00000000000E+00 -0.96104095051E+01  0.96104106397E+01  0.46700000000E-02 0. -1.
       1023    2    1    2    0    0  0.00000000000E+00  0.00000000000E+00  0.79512351722E+00  0.20015944710E+02  0.20000145530E+02 0.  0.
        -11    1    3    3    0    0 -0.94629942057E+01 -0.32331017031E+01  0.41335668227E+00  0.10008599801E+02  0.51100000000E-03 0.  1.
         11    1    3    3    0    0  0.94629942057E+01  0.32331017031E+01  0.38176683496E+00  0.10007344909E+02  0.51100000000E-03 0. -1.
<mgrwt>
<rscale>  0 0.20000146E+02</rscale>
<asrwt>0</asrwt>
<pdfrwt beam="2">  1        1 0.14785247E-02 0.20000146E+02</pdfrwt>
<pdfrwt beam="1">  1       -1 0.16008514E-02 0.20000146E+02</pdfrwt>
<totfact> 0.38561534E+06</totfact>
</mgrwt>
</event>
<event>
 5    1  0.9583198E-007  0.2000017E+02  0.7818608E-02  0.1745325E+00
         -1   -1    0    0    0  501 -0.00000000000E+00  0.00000000000E+00  0.18034564500E+01  0.18034624964E+01  0.46700000000E-02 0.  1.
          1   -1    0    0  501    0  0.00000000000E+00 -0.00000000000E+00 -0.55449928742E+02  0.55449928938E+02  0.46700000000E-02 0. -1.
       1023    2    1    2    0    0  0.00000000000E+00  0.00000000000E+00 -0.53646472292E+02  0.57253391435E+02  0.20000171035E+02 0.  0.
        -11    1    3    3    0    0  0.91564571990E+01 -0.40200670102E+01 -0.26845938772E+02  0.28647968096E+02  0.51100000000E-03 0.  1.
         11    1    3    3    0    0 -0.91564571990E+01  0.40200670102E+01 -0.26800533520E+02  0.28605423339E+02  0.51100000000E-03 0. -1.
<mgrwt>
<rscale>  0 0.20000171E+02</rscale>
<asrwt>0</asrwt>
<pdfrwt beam="2">  1        1 0.85307574E-02 0.20000171E+02</pdfrwt>
<pdfrwt beam="1">  1       -1 0.27745536E-03 0.20000171E+02</pdfrwt>
<totfact> 0.42029015E+06</totfact>
</mgrwt>
</event>
<event>
 5    1  0.1008787E-006  0.2000081E+02  0.7818608E-02  0.1745312E+00
         -1   -1    0    0    0  501 -0.00000000000E+00  0.00000000000E+00  0.14513200011E+01  0.14513275146E+01  0.46700000000E-02 0.  1.
          1   -1    0    0  501    0  0.00000000000E+00 -0.00000000000E+00 -0.68908162283E+02  0.68908162441E+02  0.46700000000E-02 0. -1.
       1023    2    1    2    0    0  0.00000000000E+00  0.00000000000E+00 -0.67456842282E+02  0.70359489956E+02  0.20000806389E+02 0.  0.
        -11    1    3    3    0    0  0.48792492686E+01  0.87291918444E+01 -0.33563416149E+02  0.35021547189E+02  0.51100000000E-03 0. -1.
         11    1    3    3    0    0 -0.48792492686E+01 -0.87291918444E+01 -0.33893426133E+02  0.35337942767E+02  0.51100000000E-03 0.  1.
<mgrwt>
<rscale>  0 0.20000806E+02</rscale>
<asrwt>0</asrwt>
<pdfrwt beam="2">  1        1 0.10601254E-01 0.20000806E+02</pdfrwt>
<pdfrwt beam="1">  1       -1 0.22328064E-03 0.20000806E+02</pdfrwt>
<totfact> 0.42771392E+06</totfact>
</mgrwt>
</event>
<event>
 5    1  0.9583198E-007  0.2000024E+02  0.7818608E-02  0.1745323E+00
         -1   -1    0    0    0  501 -0.00000000000E+00  0.00000000000E+00  0.17710256014E+02  0.17710256630E+02  0.46700000000E-02 0.  1.
          1   -1    0    0  501    0  0.00000000000E+00 -0.00000000000E+00 -0.56465768853E+01  0.56465788165E+01  0.46700000000E-02 0. -1.
       1023    2    1    2    0    0  0.00000000000E+00  0.00000000000E+00  0.12063679129E+02  0.23356835446E+02  0.20000235197E+02 0.  0.
        -11    1    3    3    0    0  0.76581249372E+01  0.64306785572E+01  0.60820353105E+01  0.11704343554E+02  0.51100000000E-03 0.  1.
         11    1    3    3    0    0 -0.76581249372E+01 -0.64306785572E+01  0.59816438181E+01  0.11652491892E+02  0.51100000000E-03 0. -1.
<mgrwt>
<rscale>  0 0.20000235E+02</rscale>
<asrwt>0</asrwt>
<pdfrwt beam="2">  1        1 0.86870432E-03 0.20000235E+02</pdfrwt>
<pdfrwt beam="1">  1       -1 0.27246550E-02 0.20000235E+02</pdfrwt>
<totfact> 0.37655075E+06</totfact>
</mgrwt>
</event>
<event>
 5    1  0.9583198E-007  0.2000042E+02  0.7818608E-02  0.1745320E+00
          1   -1    0    0  501    0  0.00000000000E+00  0.00000000000E+00  0.74487171906E+02  0.74487172052E+02  0.46700000000E-02 0. -1.
         -1   -1    0    0    0  501 -0.00000000000E+00 -0.00000000000E+00 -0.13425648521E+01  0.13425729742E+01  0.46700000000E-02 0.  1.
       1023    2    1    2    0    0  0.00000000000E+00  0.00000000000E+00  0.73144607054E+02  0.75829745027E+02  0.20000417239E+02 0.  0.
        -11    1    3    3    0    0  0.72241597559E+01  0.69148474107E+01  0.36481525008E+02  0.37827308470E+02  0.51100000000E-03 0. -1.
         11    1    3    3    0    0 -0.72241597559E+01 -0.69148474107E+01  0.36663082045E+02  0.38002436556E+02  0.51100000000E-03 0.  1.
<mgrwt>
<rscale>  0 0.20000417E+02</rscale>
<asrwt>0</asrwt>
<pdfrwt beam="1">  1        1 0.11459569E-01 0.20000417E+02</pdfrwt>
<pdfrwt beam="2">  1       -1 0.20654902E-03 0.20000417E+02</pdfrwt>
<totfact> 0.43070160E+06</totfact>
</mgrwt>
</event>
<event>
 5    1  0.9583198E-007  0.2000016E+02  0.7818608E-02  0.1745325E+00
         -1   -1    0    0    0  501 -0.00000000000E+00  0.00000000000E+00  0.29441595403E+02  0.29441595774E+02  0.46700000000E-02 0.  1.
          1   -1    0    0  501    0  0.00000000000E+00 -0.00000000000E+00 -0.33966058278E+01  0.33966090382E+01  0.46700000000E-02 0. -1.
       1023    2    1    2    0    0  0.00000000000E+00  0.00000000000E+00  0.26044989575E+02  0.32838204812E+02  0.20000155331E+02 0.  0.
        -11    1    3    3    0    0  0.79584250778E+01 -0.60550999069E+01  0.13068598395E+02  0.16455668594E+02  0.51100000000E-03 0. -1.
         11    1    3    3    0    0 -0.79584250778E+01  0.60550999069E+01  0.12976391180E+02  0.16382536218E+02  0.51100000000E-03 0.  1.
<mgrwt>
<rscale>  0 0.20000155E+02</rscale>
<asrwt>0</asrwt>
<pdfrwt beam="2">  1        1 0.52255503E-03 0.20000155E+02</pdfrwt>
<pdfrwt beam="1">  1       -1 0.45294764E-02 0.20000155E+02</pdfrwt>
<totfact> 0.36534260E+06</totfact>
</mgrwt>
</event>
<event>
 4    1  0.9583198E-007  0.2003993E+02  0.7818608E-02  0.1744535E+00
          1   -1    0    0  501    0  0.00000000000E+00  0.00000000000E+00  0.26889482186E+01  0.26889522739E+01  0.46700000000E-02 0. -1.
         -1   -1    0    0    0  501 -0.00000000000E+00 -0.00000000000E+00 -0.37337864386E+02  0.37337864678E+02  0.46700000000E-02 0.  1.
        -11    1    1    2    0    0  0.74368517379E+01  0.67087614010E+01 -0.17908243736E+02  0.20518758180E+02  0.51100000000E-03 0.  1.
         11    1    1    2    0    0 -0.74368517379E+01 -0.67087614010E+01 -0.16740672431E+02  0.19508058771E+02  0.51100000000E-03 0. -1.
<mgrwt>
<rscale>  0 0.20039927E+02</rscale>
<asrwt>0</asrwt>
<pdfrwt beam="1">  1        1 0.41368470E-03 0.20039927E+02</pdfrwt>
<pdfrwt beam="2">  1       -1 0.57442868E-02 0.20039927E+02</pdfrwt>
<totfact> 0.35722728E+06</totfact>
</mgrwt>
</event>
<event>
 4    1  0.9583198E-007  0.2001785E+02  0.7818608E-02  0.1744973E+00
          1   -1    0    0  501    0  0.00000000000E+00  0.00000000000E+00  0.34167138073E+02  0.34167138392E+02  0.46700000000E-02 0. -1.
         -1   -1    0    0    0  501 -0.00000000000E+00 -0.00000000000E+00 -0.29320122115E+01  0.29320159306E+01  0.46700000000E-02 0.  1.
        -11    1    1    2    0    0 -0.93865079095E+00  0.99602657134E+01  0.15059775932E+02  0.18079956022E+02  0.51100000000E-03 0. -1.
         11    1    1    2    0    0  0.93865079095E+00 -0.99602657134E+01  0.16175349930E+02  0.19019198301E+02  0.51100000000E-03 0.  1.
<mgrwt>
<rscale>  0 0.20017846E+02</rscale>
<asrwt>0</asrwt>
<pdfrwt beam="1">  1        1 0.52564833E-02 0.20017846E+02</pdfrwt>
<pdfrwt beam="2">  1       -1 0.45107909E-03 0.20017846E+02</pdfrwt>
<totfact> 0.40655804E+06</totfact>
</mgrwt>
</event>
<event>
 5    1  0.1004634E-006  0.2000099E+02  0.7818608E-02  0.1745308E+00
          1   -1    0    0  501    0  0.00000000000E+00  0.00000000000E+00  0.49567449520E+02  0.49567449740E+02  0.46700000000E-02 0.  1.
         -1   -1    0    0    0  501 -0.00000000000E+00 -0.00000000000E+00 -0.20176496273E+01  0.20176550318E+01  0.46700000000E-02 0. -1.
       1023    2    1    2    0    0  0.00000000000E+00  0.00000000000E+00  0.47549799893E+02  0.51585104772E+02  0.20000989088E+02 0.  0.
        -11    1    3    3    0    0  0.65311544212E+01 -0.75726819682E+01  0.24011289296E+02  0.26010449904E+02  0.51100000000E-03 0.  1.
         11    1    3    3    0    0 -0.65311544212E+01  0.75726819682E+01  0.23538510597E+02  0.25574654869E+02  0.51100000000E-03 0. -1.
<mgrwt>
<rscale>  0 0.20000989E+02</rscale>
<asrwt>0</asrwt>
<pdfrwt beam="1">  1        1 0.76257615E-02 0.20000989E+02</pdfrwt>
<pdfrwt beam="2">  1       -1 0.31040808E-03 0.20000989E+02</pdfrwt>
<totfact> 0.41684859E+06</totfact>
</mgrwt>
</event>
<event>
 5    1  0.9583198E-007  0.2000049E+02  0.7818608E-02  0.1745318E+00
         -1   -1    0    0    0  501 -0.00000000000E+00  0.00000000000E+00  0.37200874105E+01  0.37200903417E+01  0.46700000000E-02 0. -1.
          1   -1    0    0  501    0  0.00000000000E+00 -0.00000000000E+00 -0.26882386653E+02  0.26882387059E+02  0.46700000000E-02 0.  1.
       1023    2    1    2    0    0  0.00000000000E+00  0.00000000000E+00 -0.23162299243E+02  0.30602477401E+02  0.20000487915E+02 0.  0.
        -11    1    3    3    0    0  0.97489708661E+01 -0.22275770906E+01 -0.11609623491E+02  0.15322789906E+02  0.51100000000E-03 0.  1.
         11    1    3    3    0    0 -0.97489708661E+01  0.22275770906E+01 -0.11552675752E+02  0.15279687495E+02  0.51100000000E-03 0. -1.
<mgrwt>
<rscale>  0 0.20000488E+02</rscale>
<asrwt>0</asrwt>
<pdfrwt beam="2">  1        1 0.41357519E-02 0.20000488E+02</pdfrwt>
<pdfrwt beam="1">  1       -1 0.57232141E-03 0.20000488E+02</pdfrwt>
<totfact> 0.40235037E+06</totfact>
</mgrwt>
</event>
<event>
 5    1  0.9675867E-007  0.2000158E+02  0.7818608E-02  0.1745297E+00
          1   -1    0    0  501    0  0.00000000000E+00  0.00000000000E+00  0.32554054037E+01  0.32554087533E+01  0.46700000000E-02 0.  1.
         -1   -1    0    0    0  501 -0.00000000000E+00 -0.00000000000E+00 -0.30722971206E+02  0.30722971561E+02  0.46700000000E-02 0. -1.
       1023    2    1    2    0    0  0.00000000000E+00  0.00000000000E+00 -0.27467565802E+02  0.33978380314E+02  0.20001578880E+02 0.  0.
        -11    1    3    3    0    0 -0.70164369965E+01 -0.71258730962E+01 -0.13588304527E+02  0.16871587823E+02  0.51100000000E-03 0. -1.
         11    1    3    3    0    0  0.70164369965E+01  0.71258730962E+01 -0.13879261276E+02  0.17106792491E+02  0.51100000000E-03 0.  1.
<mgrwt>
<rscale>  0 0.20001579E+02</rscale>
<asrwt>0</asrwt>
<pdfrwt beam="1">  1        1 0.50083191E-03 0.20001579E+02</pdfrwt>
<pdfrwt beam="2">  1       -1 0.47266110E-02 0.20001579E+02</pdfrwt>
<totfact> 0.36418054E+06</totfact>
</mgrwt>
</event>
<event>
 5    1  0.9816170E-007  0.2000090E+02  0.7818608E-02  0.1745310E+00
          1   -1    0    0  501    0  0.00000000000E+00  0.00000000000E+00  0.21466764404E+02  0.21466764912E+02  0.46700000000E-02 0. -1.
         -1   -1    0    0    0  501 -0.00000000000E+00 -0.00000000000E+00 -0.46587823022E+01  0.46587846428E+01  0.46700000000E-02 0.  1.
       1023    2    1    2    0    0  0.00000000000E+00  0.00000000000E+00  0.16807982102E+02  0.26125549554E+02  0.20000901910E+02 0.  0.
        -11    1    3    3    0    0  0.76808190119E+01 -0.64035996924E+01  0.85204521753E+01  0.13137700531E+02  0.51100000000E-03 0.  1.
         11    1    3    3    0    0 -0.76808190119E+01  0.64035996924E+01  0.82875299263E+01  0.12987849023E+02  0.51100000000E-03 0. -1.
<mgrwt>
<rscale>  0 0.20000902E+02</rscale>
<asrwt>0</asrwt>
<pdfrwt beam="1">  1        1 0.33025794E-02 0.20000902E+02</pdfrwt>
<pdfrwt beam="2">  1       -1 0.71673595E-03 0.20000902E+02</pdfrwt>
<totfact> 0.39822291E+06</totfact>
</mgrwt>
</event>
<event>
 5    1  0.9919131E-007  0.2000015E+02  0.7818608E-02  0.1745325E+00
          1   -1    0    0  501    0  0.00000000000E+00  0.00000000000E+00  0.31263098152E+01  0.31263133032E+01  0.46700000000E-02 0. -1.
         -1   -1    0    0    0  501 -0.00000000000E+00 -0.00000000000E+00 -0.31987059085E+02  0.31987059426E+02  0.46700000000E-02 0.  1.
       1023    2    1    2    0    0  0.00000000000E+00  0.00000000000E+00 -0.28860749269E+02  0.35113372729E+02  0.20000152399E+02 0.  0.
        -11    1    3    3    0    0 -0.99894008274E+01 -0.46194650429E+00 -0.14431290965E+02  0.17557439524E+02  0.51100000000E-03 0. -1.
         11    1    3    3    0    0  0.99894008274E+01  0.46194650429E+00 -0.14429458305E+02  0.17555933205E+02  0.51100000000E-03 0.  1.
<mgrwt>
<rscale>  0 0.20000152E+02</rscale>
<asrwt>0</asrwt>
<pdfrwt beam="1">  1        1 0.48097106E-03 0.20000152E+02</pdfrwt>
<pdfrwt beam="2">  1       -1 0.49210861E-02 0.20000152E+02</pdfrwt>
<totfact> 0.36316473E+06</totfact>
</mgrwt>
</event>
<event>
 5    1  0.9583198E-007  0.2000072E+02  0.7818608E-02  0.1745314E+00
         -1   -1    0    0    0  501 -0.00000000000E+00  0.00000000000E+00  0.98208759135E+01  0.98208770238E+01  0.46700000000E-02 0.  1.
          1   -1    0    0  501    0  0.00000000000E+00 -0.00000000000E+00 -0.10183121304E+02  0.10183122375E+02  0.46700000000E-02 0. -1.
       1023    2    1    2    0    0  0.00000000000E+00  0.00000000000E+00 -0.36224539073E+00  0.20003999399E+02  0.20000719243E+02 0.  0.
        -11    1    3    3    0    0 -0.42160452978E+01  0.90681915372E+01 -0.17359903518E+00  0.10001863456E+02  0.51100000000E-03 0. -1.
         11    1    3    3    0    0  0.42160452978E+01 -0.90681915372E+01 -0.18864635554E+00  0.10002135943E+02  0.51100000000E-03 0.  1.
<mgrwt>
<rscale>  0 0.20000719E+02</rscale>
<asrwt>0</asrwt>
<pdfrwt beam="2">  1        1 0.15666342E-02 0.20000719E+02</pdfrwt>
<pdfrwt beam="1">  1       -1 0.15109042E-02 0.20000719E+02</pdfrwt>
<totfact> 0.38648893E+06</totfact>
</mgrwt>
</event>
<event>
 5    1  0.9583198E-007  0.2000048E+02  0.7818608E-02  0.1745318E+00
         -1   -1    0    0    0  501 -0.00000000000E+00  0.00000000000E+00  0.57060463640E+02  0.57060463831E+02  0.46700000000E-02 0. -1.
          1   -1    0    0  501    0  0.00000000000E+00 -0.00000000000E+00 -0.17526084282E+01  0.17526146500E+01  0.46700000000E-02 0.  1.
       1023    2    1    2    0    0  0.00000000000E+00  0.00000000000E+00  0.55307855212E+02  0.58813078482E+02  0.20000483802E+02 0.  0.
        -11    1    3    3    0    0 -0.74863155899E+01  0.66301771193E+01  0.27729932985E+02  0.29478014746E+02  0.51100000000E-03 0.  1.
         11    1    3    3    0    0  0.74863155899E+01 -0.66301771193E+01  0.27577922227E+02  0.29335063736E+02  0.51100000000E-03 0. -1.
<mgrwt>
<rscale>  0 0.20000484E+02</rscale>
<asrwt>0</asrwt>
<pdfrwt beam="2">  1        1 0.26963259E-03 0.20000484E+02</pdfrwt>
<pdfrwt beam="1">  1       -1 0.87785323E-02 0.20000484E+02</pdfrwt>
<totfact> 0.34438207E+06</totfact>
</mgrwt>
</event>
<event>
 5    1  0.9583198E-007  0.2000719E+02  0.7818608E-02  0.1745185E+00
          1   -1    0    0  501    0  0.00000000000E+00  0.00000000000E+00  0.15038237273E+02  0.15038237998E+02  0.46700000000E-02 0. -1.
         -1   -1    0    0    0  501 -0.00000000000E+00 -0.00000000000E+00 -0.66544985929E+01  0.66545002316E+01  0.46700000000E-02 0.  1.
       1023    2    1    2    0    0  0.00000000000E+00  0.00000000000E+00  0.83837386796E+01  0.21692738229E+02  0.20007194147E+02 0.  0.
        -11    1    3    3    0    0  0.55592706048E+01 -0.83162334941E+01  0.41029547363E+01  0.10812005689E+02  0.51100000000E-03 0. -1.
         11    1    3    3    0    0 -0.55592706048E+01  0.83162334941E+01  0.42807839434E+01  0.10880732540E+02  0.51100000000E-03 0.  1.
<mgrwt>
<rscale>  0 0.20007194E+02</rscale>
<asrwt>0</asrwt>
<pdfrwt beam="1">  1        1 0.23135751E-02 0.20007194E+02</pdfrwt>
<pdfrwt beam="2">  1       -1 0.10237692E-02 0.20007194E+02</pdfrwt>
<totfact> 0.39216835E+06</totfact>
</mgrwt>
</event>
<event>
 5    1  0.1111404E-006  0.2000304E+02  0.7818608E-02  0.1745268E+00
          1   -1    0    0  501    0  0.00000000000E+00  0.00000000000E+00  0.11761206095E+02  0.11761207022E+02  0.46700000000E-02 0. -1.
         -1   -1    0    0    0  501 -0.00000000000E+00 -0.00000000000E+00 -0.85051117512E+01  0.85051130333E+01  0.46700000000E-02 0.  1.
       1023    2    1    2    0    0  0.00000000000E+00  0.00000000000E+00  0.32560943435E+01  0.20266320055E+02  0.20003039224E+02 0.  0.
        -11    1    3    3    0    0 -0.10000519682E+02 -0.13379958879E+00  0.15816397875E+01  0.10125703971E+02  0.51100000000E-03 0. -1.
         11    1    3    3    0    0  0.10000519682E+02  0.13379958879E+00  0.16744545560E+01  0.10140616084E+02  0.51100000000E-03 0.  1.
<mgrwt>
<rscale>  0 0.20003039E+02</rscale>
<asrwt>0</asrwt>
<pdfrwt beam="1">  1        1 0.18094165E-02 0.20003039E+02</pdfrwt>
<pdfrwt beam="2">  1       -1 0.13084789E-02 0.20003039E+02</pdfrwt>
<totfact> 0.38859485E+06</totfact>
</mgrwt>
</event>
<event>
 5    1  0.9583198E-007  0.2000037E+02  0.7818608E-02  0.1745321E+00
          1   -1    0    0  501    0  0.00000000000E+00  0.00000000000E+00  0.37547556021E+02  0.37547556311E+02  0.46700000000E-02 0.  1.
         -1   -1    0    0    0  501 -0.00000000000E+00 -0.00000000000E+00 -0.26633844245E+01  0.26633885187E+01  0.46700000000E-02 0. -1.
       1023    2    1    2    0    0  0.00000000000E+00  0.00000000000E+00  0.34884171596E+02  0.40210944830E+02  0.20000366400E+02 0.  0.
        -11    1    3    3    0    0 -0.39467131827E+01 -0.91884115180E+01  0.17471401154E+02  0.20130904344E+02  0.51100000000E-03 0. -1.
         11    1    3    3    0    0  0.39467131827E+01  0.91884115180E+01  0.17412770442E+02  0.20080040486E+02  0.51100000000E-03 0.  1.
<mgrwt>
<rscale>  0 0.20000366E+02</rscale>
<asrwt>0</asrwt>
<pdfrwt beam="1">  1        1 0.57765472E-02 0.20000366E+02</pdfrwt>
<pdfrwt beam="2">  1       -1 0.40975180E-03 0.20000366E+02</pdfrwt>
<totfact> 0.40953905E+06</totfact>
</mgrwt>
</event>
<event>
 5    1  0.9583198E-007  0.2000052E+02  0.7818608E-02  0.1745318E+00
         -1   -1    0    0    0  501 -0.00000000000E+00  0.00000000000E+00  0.39390563526E+02  0.39390563803E+02  0.46700000000E-02 0.  1.
          1   -1    0    0  501    0  0.00000000000E+00 -0.00000000000E+00 -0.25388078961E+01  0.25388121912E+01  0.46700000000E-02 0. -1.
       1023    2    1    2    0    0  0.00000000000E+00  0.00000000000E+00  0.36851755630E+02  0.41929375994E+02  0.20000516949E+02 0.  0.
        -11    1    3    3    0    0 -0.86594175099E+01 -0.50019266588E+01  0.18467139848E+02  0.21000953225E+02  0.51100000000E-03 0.  1.
         11    1    3    3    0    0  0.86594175099E+01  0.50019266588E+01  0.18384615782E+02  0.20928422769E+02  0.51100000000E-03 0. -1.
<mgrwt>
<rscale>  0 0.20000517E+02</rscale>
<asrwt>0</asrwt>
<pdfrwt beam="2">  1        1 0.39058622E-03 0.20000517E+02</pdfrwt>
<pdfrwt beam="1">  1       -1 0.60600865E-02 0.20000517E+02</pdfrwt>
<totfact> 0.35716421E+06</totfact>
</mgrwt>
</event>
<event>
 5    1  0.9583198E-007  0.2000657E+02  0.7818608E-02  0.1745197E+00
         -1   -1    0    0    0  501 -0.00000000000E+00  0.00000000000E+00  0.47586397923E+01  0.47586420838E+01  0.46700000000E-02 0. -1.
          1   -1    0    0  501    0  0.00000000000E+00 -0.00000000000E+00 -0.21028206364E+02  0.21028206883E+02  0.46700000000E-02 0.  1.
       1023    2    1    2    0    0  0.00000000000E+00  0.00000000000E+00 -0.16269566572E+02  0.25786848966E+02  0.20006568501E+02 0.  0.
        -11    1    3    3    0    0  0.59206693139E+01  0.80629530197E+01 -0.81185299617E+01  0.12883169855E+02  0.51100000000E-03 0. -1.
         11    1    3    3    0    0 -0.59206693139E+01 -0.80629530197E+01 -0.81510366100E+01  0.12903679111E+02  0.51100000000E-03 0.  1.
<mgrwt>
<rscale>  0 0.20006569E+02</rscale>
<asrwt>0</asrwt>
<pdfrwt beam="2">  1        1 0.32351088E-02 0.20006569E+02</pdfrwt>
<pdfrwt beam="1">  1       -1 0.73209866E-03 0.20006569E+02</pdfrwt>
<totfact> 0.39761548E+06</totfact>
</mgrwt>
</event>
<event>
 5    1  0.9742299E-007  0.2000117E+02  0.7818608E-02  0.1745305E+00
          1   -1    0    0  501    0  0.00000000000E+00  0.00000000000E+00  0.10243214470E+02  0.10243215534E+02  0.46700000000E-02 0. -1.
         -1   -1    0    0    0  501 -0.00000000000E+00 -0.00000000000E+00 -0.97637037296E+01  0.97637048464E+01  0.46700000000E-02 0.  1.
       1023    2    1    2    0    0  0.00000000000E+00  0.00000000000E+00  0.47951073995E+00  0.20006920381E+02  0.20001173280E+02 0.  0.
        -11    1    3    3    0    0  0.12502024654E+01  0.99217811972E+01  0.15615773821E+00  0.10001456585E+02  0.51100000000E-03 0.  1.
         11    1    3    3    0    0 -0.12502024654E+01 -0.99217811972E+01  0.32335300174E+00  0.10005463795E+02  0.51100000000E-03 0. -1.
<mgrwt>
<rscale>  0 0.20001173E+02</rscale>
<asrwt>0</asrwt>
<pdfrwt beam="1">  1        1 0.15758793E-02 0.20001173E+02</pdfrwt>
<pdfrwt beam="2">  1       -1 0.15021084E-02 0.20001173E+02</pdfrwt>
<totfact> 0.38655994E+06</totfact>
</mgrwt>
</event>
<event>
 5    1  0.9583198E-007  0.2000160E+02  0.7818608E-02  0.1745296E+00
         -1   -1    0    0    0  501 -0.00000000000E+00  0.00000000000E+00  0.55373080120E+02  0.55373080317E+02  0.46700000000E-02 0.  1.
          1   -1    0    0  501    0  0.00000000000E+00 -0.00000000000E+00 -0.18062180285E+01  0.18062240656E+01  0.46700000000E-02 0. -1.
       1023    2    1    2    0    0  0.00000000000E+00  0.00000000000E+00  0.53566862092E+02  0.57179304383E+02  0.20001603319E+02 0.  0.
        -11    1    3    3    0    0  0.34322021033E+01 -0.93934026393E+01  0.26774781550E+02  0.28581549149E+02  0.51100000000E-03 0. -1.
         11    1    3    3    0    0 -0.34322021033E+01  0.93934026393E+01  0.26792080542E+02  0.28597755234E+02  0.51100000000E-03 0.  1.
<mgrwt>
<rscale>  0 0.20001603E+02</rscale>
<asrwt>0</asrwt>
<pdfrwt beam="2">  1        1 0.27788022E-03 0.20001603E+02</pdfrwt>
<pdfrwt beam="1">  1       -1 0.85189344E-02 0.20001603E+02</pdfrwt>
<totfact> 0.34548708E+06</totfact>
</mgrwt>
</event>
<event>
 5    1  0.9706155E-007  0.2000035E+02  0.7818608E-02  0.1745321E+00
         -1   -1    0    0    0  501 -0.00000000000E+00  0.00000000000E+00  0.93606651031E+00  0.93607815947E+00  0.46700000000E-02 0.  1.
          1   -1    0    0  501    0  0.00000000000E+00 -0.00000000000E+00 -0.10683312364E+03  0.10683312374E+03  0.46700000000E-02 0. -1.
       1023    2    1    2    0    0  0.00000000000E+00  0.00000000000E+00 -0.10589705713E+03  0.10776920190E+03  0.20000354241E+02 0.  0.
        -11    1    3    3    0    0  0.82791588991E+01  0.56086535604E+01 -0.52703056821E+02  0.53643393493E+02  0.51100000000E-03 0. -1.
         11    1    3    3    0    0 -0.82791588991E+01 -0.56086535604E+01 -0.53194000304E+02  0.54125808404E+02  0.51100000000E-03 0.  1.
<mgrwt>
<rscale>  0 0.20000354E+02</rscale>
<asrwt>0</asrwt>
<pdfrwt beam="2">  1        1 0.16435856E-01 0.20000354E+02</pdfrwt>
<pdfrwt beam="1">  1       -1 0.14401122E-03 0.20000354E+02</pdfrwt>
<totfact> 0.44686530E+06</totfact>
</mgrwt>
</event>
<event>
 5    1  0.9929624E-007  0.2000111E+02  0.7818608E-02  0.1745306E+00
         -1   -1    0    0    0  501 -0.00000000000E+00  0.00000000000E+00  0.19374549697E+01  0.19374605980E+01  0.46700000000E-02 0. -1.
          1   -1    0    0  501    0  0.00000000000E+00 -0.00000000000E+00 -0.51619748575E+02  0.51619748786E+02  0.46700000000E-02 0.  1.
       1023    2    1    2    0    0  0.00000000000E+00  0.00000000000E+00 -0.49682293605E+02  0.53557209384E+02  0.20001109448E+02 0.  0.
        -11    1    3    3    0    0  0.94718148235E+01 -0.32081133586E+01 -0.25006800704E+02  0.26932273374E+02  0.51100000000E-03 0.  1.
         11    1    3    3    0    0 -0.94718148235E+01  0.32081133586E+01 -0.24675492901E+02  0.26624936010E+02  0.51100000000E-03 0. -1.
<mgrwt>
<rscale>  0 0.20001109E+02</rscale>
<asrwt>0</asrwt>
<pdfrwt beam="2">  1        1 0.79414992E-02 0.20001109E+02</pdfrwt>
<pdfrwt beam="1">  1       -1 0.29807048E-03 0.20001109E+02</pdfrwt>
<totfact> 0.41804224E+06</totfact>
</mgrwt>
</event>
<event>
 5    1  0.9583198E-007  0.2000053E+02  0.7818608E-02  0.1745318E+00
          1   -1    0    0  501    0  0.00000000000E+00  0.00000000000E+00  0.30022407287E+02  0.30022407650E+02  0.46700000000E-02 0. -1.
         -1   -1    0    0    0  501 -0.00000000000E+00 -0.00000000000E+00 -0.33310195165E+01  0.33310227901E+01  0.46700000000E-02 0.  1.
       1023    2    1    2    0    0  0.00000000000E+00  0.00000000000E+00  0.26691387770E+02  0.33353430440E+02  0.20000528518E+02 0.  0.
        -11    1    3    3    0    0  0.29967427751E+01  0.95406836005E+01  0.13367702099E+02  0.16694327495E+02  0.51100000000E-03 0.  1.
         11    1    3    3    0    0 -0.29967427751E+01 -0.95406836005E+01  0.13323685671E+02  0.16659102945E+02  0.51100000000E-03 0. -1.
<mgrwt>
<rscale>  0 0.20000529E+02</rscale>
<asrwt>0</asrwt>
<pdfrwt beam="1">  1        1 0.46188321E-02 0.20000529E+02</pdfrwt>
<pdfrwt beam="2">  1       -1 0.51246483E-03 0.20000529E+02</pdfrwt>
<totfact> 0.40455841E+06</totfact>
</mgrwt>
</event>
<event>
 5    1  0.9583198E-007  0.2000109E+02  0.7818608E-02  0.1745306E+00
         -1   -1    0    0    0  501 -0.00000000000E+00  0.00000000000E+00  0.16835153128E+02  0.16835153776E+02  0.46700000000E-02 0.  1.
          1   -1    0    0  501    0  0.00000000000E+00 -0.00000000000E+00 -0.59406005114E+01  0.59406023470E+01  0.46700000000E-02 0. -1.
       1023    2    1    2    0    0  0.00000000000E+00  0.00000000000E+00  0.10894552617E+02  0.22775756123E+02  0.20001094726E+02 0.  0.
        -11    1    3    3    0    0  0.93792855748E+01  0.34689400561E+01  0.55384049225E+01  0.11431468513E+02  0.51100000000E-03 0.  1.
         11    1    3    3    0    0 -0.93792855748E+01 -0.34689400561E+01  0.53561476945E+01  0.11344287611E+02  0.51100000000E-03 0. -1.
<mgrwt>
<rscale>  0 0.20001095E+02</rscale>
<asrwt>0</asrwt>
<pdfrwt beam="2">  1        1 0.91393875E-03 0.20001095E+02</pdfrwt>
<pdfrwt beam="1">  1       -1 0.25900237E-02 0.20001095E+02</pdfrwt>
<totfact> 0.37746777E+06</totfact>
</mgrwt>
</event>
<event>
 5    1  0.9583198E-007  0.2000022E+02  0.7818608E-02  0.1745324E+00
          1   -1    0    0  501    0  0.00000000000E+00  0.00000000000E+00  0.50253228929E+02  0.50253229146E+02  0.46700000000E-02 0. -1.
         -1   -1    0    0    0  501 -0.00000000000E+00 -0.00000000000E+00 -0.19899630046E+01  0.19899684843E+01  0.46700000000E-02 0.  1.
       1023    2    1    2    0    0  0.00000000000E+00  0.00000000000E+00  0.48263265925E+02  0.52243197631E+02  0.20000221523E+02 0.  0.
        -11    1    3    3    0    0  0.85584195525E+01 -0.51724844102E+01  0.24217268155E+02  0.26200710246E+02  0.51100000000E-03 0.  1.
         11    1    3    3    0    0 -0.85584195525E+01  0.51724844102E+01  0.24045997770E+02  0.26042487385E+02  0.51100000000E-03 0. -1.
<mgrwt>
<rscale>  0 0.20000222E+02</rscale>
<asrwt>0</asrwt>
<pdfrwt beam="1">  1        1 0.77312656E-02 0.20000222E+02</pdfrwt>
<pdfrwt beam="2">  1       -1 0.30614863E-03 0.20000222E+02</pdfrwt>
<totfact> 0.41728639E+06</totfact>
</mgrwt>
</event>
<event>
 5    1  0.9583198E-007  0.2000071E+02  0.7818608E-02  0.1745314E+00
          1   -1    0    0  501    0  0.00000000000E+00  0.00000000000E+00  0.26106632114E+01  0.26106673883E+01  0.46700000000E-02 0.  1.
         -1   -1    0    0    0  501 -0.00000000000E+00 -0.00000000000E+00 -0.38307125630E+02  0.38307125915E+02  0.46700000000E-02 0. -1.
       1023    2    1    2    0    0  0.00000000000E+00  0.00000000000E+00 -0.35696462419E+02  0.40917793303E+02  0.20000709477E+02 0.  0.
        -11    1    3    3    0    0  0.90098589912E+00  0.99596414882E+01 -0.17788219629E+02  0.20406542873E+02  0.51100000000E-03 0. -1.
         11    1    3    3    0    0 -0.90098589912E+00 -0.99596414882E+01 -0.17908242789E+02  0.20511250431E+02  0.51100000000E-03 0.  1.
<mgrwt>
<rscale>  0 0.20000709E+02</rscale>
<asrwt>0</asrwt>
<pdfrwt beam="1">  1        1 0.40164086E-03 0.20000709E+02</pdfrwt>
<pdfrwt beam="2">  1       -1 0.58934039E-02 0.20000709E+02</pdfrwt>
<totfact> 0.35800413E+06</totfact>
</mgrwt>
</event>
<event>
 5    1  0.9790977E-007  0.2000057E+02  0.7818608E-02  0.1745317E+00
         -1   -1    0    0    0  501 -0.00000000000E+00  0.00000000000E+00  0.11757628990E+01  0.11757721733E+01  0.46700000000E-02 0.  1.
          1   -1    0    0  501    0  0.00000000000E+00 -0.00000000000E+00 -0.85055706227E+02  0.85055706355E+02  0.46700000000E-02 0. -1.
       1023    2    1    2    0    0  0.00000000000E+00  0.00000000000E+00 -0.83879943328E+02  0.86231478529E+02  0.20000574904E+02 0.  0.
        -11    1    3    3    0    0 -0.29446156645E+01 -0.95568650514E+01 -0.42096486398E+02  0.43267985837E+02  0.51100000000E-03 0. -1.
         11    1    3    3    0    0  0.29446156645E+01  0.95568650514E+01 -0.41783456930E+02  0.42963492692E+02  0.51100000000E-03 0.  1.
<mgrwt>
<rscale>  0 0.20000575E+02</rscale>
<asrwt>0</asrwt>
<pdfrwt beam="2">  1        1 0.13085489E-01 0.20000575E+02</pdfrwt>
<pdfrwt beam="1">  1       -1 0.18088739E-03 0.20000575E+02</pdfrwt>
<totfact> 0.43615485E+06</totfact>
</mgrwt>
</event>
<event>
 5    1  0.9583198E-007  0.2000062E+02  0.7818608E-02  0.1745316E+00
         -1   -1    0    0    0  501 -0.00000000000E+00  0.00000000000E+00  0.38649304594E+02  0.38649304876E+02  0.46700000000E-02 0.  1.
          1   -1    0    0  501    0  0.00000000000E+00 -0.00000000000E+00 -0.25875265039E+01  0.25875307182E+01  0.46700000000E-02 0. -1.
       1023    2    1    2    0    0  0.00000000000E+00  0.00000000000E+00  0.36061778090E+02  0.41236835594E+02  0.20000619261E+02 0.  0.
        -11    1    3    3    0    0 -0.91978413974E+01 -0.39249675571E+01  0.17983166768E+02  0.20576684474E+02  0.51100000000E-03 0. -1.
         11    1    3    3    0    0  0.91978413974E+01  0.39249675571E+01  0.18078611322E+02  0.20660151120E+02  0.51100000000E-03 0.  1.
<mgrwt>
<rscale>  0 0.20000619E+02</rscale>
<asrwt>0</asrwt>
<pdfrwt beam="2">  1        1 0.39808135E-03 0.20000619E+02</pdfrwt>
<pdfrwt beam="1">  1       -1 0.59460471E-02 0.20000619E+02</pdfrwt>
<totfact> 0.35773906E+06</totfact>
</mgrwt>
</event>
<event>
 5    1  0.9583198E-007  0.2000261E+02  0.7818608E-02  0.1745276E+00
         -1   -1    0    0    0  501 -0.00000000000E+00  0.00000000000E+00  0.88685139504E+01  0.88685151799E+01  0.46700000000E-02 0. -1.
          1   -1    0    0  501    0  0.00000000000E+00 -0.00000000000E+00 -0.11278791882E+02  0.11278792849E+02  0.46700000000E-02 0.  1.
       1023    2    1    2    0    0  0.00000000000E+00  0.00000000000E+00 -0.24102779314E+01  0.20147308029E+02  0.20002614356E+02 0.  0.
        -11    1    3    3    0    0  0.72006533529E+01  0.69404123540E+01 -0.12918585685E+01  0.10084028519E+02  0.51100000000E-03 0. -1.
         11    1    3    3    0    0 -0.72006533529E+01 -0.69404123540E+01 -0.11184193629E+01  0.10063279509E+02  0.51100000000E-03 0.  1.
<mgrwt>
<rscale>  0 0.20002614E+02</rscale>
<asrwt>0</asrwt>
<pdfrwt beam="2">  1        1 0.17351989E-02 0.20002614E+02</pdfrwt>
<pdfrwt beam="1">  1       -1 0.13643869E-02 0.20002614E+02</pdfrwt>
<totfact> 0.38797496E+06</totfact>
</mgrwt>
</event>
<event>
 5    1  0.9583198E-007  0.2000012E+02  0.7818608E-02  0.1745326E+00
         -1   -1    0    0    0  501 -0.00000000000E+00  0.00000000000E+00  0.99559665800E+02  0.99559665910E+02  0.46700000000E-02 0.  1.
          1   -1    0    0  501    0  0.00000000000E+00 -0.00000000000E+00 -0.10044290378E+01  0.10044398941E+01  0.46700000000E-02 0. -1.
       1023    2    1    2    0    0  0.00000000000E+00  0.00000000000E+00  0.98555236763E+02  0.10056410580E+03  0.20000117071E+02 0.  0.
        -11    1    3    3    0    0  0.43715941114E+01 -0.89938988623E+01  0.49222853169E+02  0.50228381680E+02  0.51100000000E-03 0.  1.
         11    1    3    3    0    0 -0.43715941114E+01  0.89938988623E+01  0.49332383594E+02  0.50335724124E+02  0.51100000000E-03 0. -1.
<mgrwt>
<rscale>  0 0.20000117E+02</rscale>
<asrwt>0</asrwt>
<pdfrwt beam="2">  1        1 0.15452834E-03 0.20000117E+02</pdfrwt>
<pdfrwt beam="1">  1       -1 0.15316877E-01 0.20000117E+02</pdfrwt>
<totfact> 0.31891062E+06</totfact>
</mgrwt>
</event>
<event>
 5    1  0.9583198E-007  0.2000902E+02  0.7818608E-02  0.1745149E+00
          1   -1    0    0  501    0  0.00000000000E+00  0.00000000000E+00  0.12982201660E+02  0.12982202500E+02  0.46700000000E-02 0.  1.
         -1   -1    0    0    0  501 -0.00000000000E+00 -0.00000000000E+00 -0.77098051030E+01  0.77098065174E+01  0.46700000000E-02 0. -1.
       1023    2    1    2    0    0  0.00000000000E+00  0.00000000000E+00  0.52723965566E+01  0.20692009017E+02  0.20009024756E+02 0.  0.
        -11    1    3    3    0    0 -0.30938174936E+01  0.95141137297E+01  0.26215398237E+01  0.10342269483E+02  0.51100000000E-03 0. -1.
         11    1    3    3    0    0  0.30938174936E+01 -0.95141137297E+01  0.26508567329E+01  0.10349739534E+02  0.51100000000E-03 0.  1.
<mgrwt>
<rscale>  0 0.20009025E+02</rscale>
<asrwt>0</asrwt>
<pdfrwt beam="1">  1        1 0.19972619E-02 0.20009025E+02</pdfrwt>
<pdfrwt beam="2">  1       -1 0.11861240E-02 0.20009025E+02</pdfrwt>
<totfact> 0.38983600E+06</totfact>
</mgrwt>
</event>
<event>
 5    1  0.9583198E-007  0.2000093E+02  0.7818608E-02  0.1745309E+00
          1   -1    0    0  501    0  0.00000000000E+00  0.00000000000E+00  0.47974665584E+01  0.47974688314E+01  0.46700000000E-02 0. -1.
         -1   -1    0    0    0  501 -0.00000000000E+00 -0.00000000000E+00 -0.20846275245E+02  0.20846275768E+02  0.46700000000E-02 0.  1.
       1023    2    1    2    0    0  0.00000000000E+00  0.00000000000E+00 -0.16048808687E+02  0.25643744599E+02  0.20000934399E+02 0.  0.
        -11    1    3    3    0    0 -0.85080634819E+01  0.52549792990E+01 -0.81346397016E+01  0.12890861685E+02  0.51100000000E-03 0. -1.
         11    1    3    3    0    0  0.85080634819E+01 -0.52549792990E+01 -0.79141689850E+01  0.12752882914E+02  0.51100000000E-03 0.  1.
<mgrwt>
<rscale>  0 0.20000934E+02</rscale>
<asrwt>0</asrwt>
<pdfrwt beam="1">  1        1 0.73807200E-03 0.20000934E+02</pdfrwt>
<pdfrwt beam="2">  1       -1 0.32071194E-02 0.20000934E+02</pdfrwt>
<totfact> 0.37327629E+06</totfact>
</mgrwt>
</event>
<event>
 4    1  0.9583198E-007  0.2027691E+02  0.7818608E-02  0.1739877E+00
          1   -1    0    0  501    0  0.00000000000E+00  0.00000000000E+00  0.35348927870E+02  0.35348928178E+02  0.46700000000E-02 0. -1.
         -1   -1    0    0    0  501 -0.00000000000E+00 -0.00000000000E+00 -0.29078153071E+01  0.29078190572E+01  0.46700000000E-02 0.  1.
        -11    1    1    2    0    0  0.10124369686E+02  0.22269023894E+00  0.15304423559E+02  0.18351507655E+02  0.51100000000E-03 0.  1.
         11    1    1    2    0    0 -0.10124369686E+02 -0.22269023894E+00  0.17136689003E+02  0.19905239580E+02  0.51100000000E-03 0. -1.
<mgrwt>
<rscale>  0 0.20276906E+02</rscale>
<asrwt>0</asrwt>
<pdfrwt beam="1">  1        1 0.54382970E-02 0.20276906E+02</pdfrwt>
<pdfrwt beam="2">  1       -1 0.44735651E-03 0.20276906E+02</pdfrwt>
<totfact> 0.39579968E+06</totfact>
</mgrwt>
</event>
<event>
 4    1  0.1265885E-006  0.2449917E+02  0.7818608E-02  0.1668301E+00
          1   -1    0    0  501    0  0.00000000000E+00  0.00000000000E+00  0.49412110943E+01  0.49412133011E+01  0.46700000000E-02 0.  1.
         -1   -1    0    0    0  501 -0.00000000000E+00 -0.00000000000E+00 -0.30367506398E+02  0.30367506757E+02  0.46700000000E-02 0. -1.
        -11    1    1    2    0    0 -0.85648950125E+01 -0.85845324197E+01 -0.10216595939E+02  0.15856558778E+02  0.51100000000E-03 0.  1.
         11    1    1    2    0    0  0.85648950125E+01  0.85845324197E+01 -0.15209699365E+02  0.19452161280E+02  0.51100000000E-03 0. -1.
<mgrwt>
<rscale>  0 0.24499168E+02</rscale>
<asrwt>0</asrwt>
<pdfrwt beam="1">  1        1 0.76018654E-03 0.24499168E+02</pdfrwt>
<pdfrwt beam="2">  1       -1 0.46719242E-02 0.24499168E+02</pdfrwt>
<totfact> 0.23161649E+06</totfact>
</mgrwt>
</event>
<event>
 4    1  0.9583198E-007  0.2003999E+02  0.7818608E-02  0.1744534E+00
          1   -1    0    0  501    0  0.00000000000E+00  0.00000000000E+00  0.32075691487E+02  0.32075691827E+02  0.46700000000E-02 0. -1.
         -1   -1    0    0    0  501 -0.00000000000E+00 -0.00000000000E+00 -0.31301045423E+01  0.31301080261E+01  0.46700000000E-02 0.  1.
        -11    1    1    2    0    0  0.29183206696E+01  0.95693731097E+01  0.15452245775E+02  0.18408188314E+02  0.51100000000E-03 0.  1.
         11    1    1    2    0    0 -0.29183206696E+01 -0.95693731097E+01  0.13493341170E+02  0.16797611540E+02  0.51100000000E-03 0. -1.
<mgrwt>
<rscale>  0 0.20039994E+02</rscale>
<asrwt>0</asrwt>
<pdfrwt beam="1">  1        1 0.49347222E-02 0.20039994E+02</pdfrwt>
<pdfrwt beam="2">  1       -1 0.48155483E-03 0.20039994E+02</pdfrwt>
<totfact> 0.40417208E+06</totfact>
</mgrwt>
</event>
<event>
 5    1  0.9583198E-007  0.2000038E+02  0.7818608E-02  0.1745320E+00
          1   -1    0    0  501    0  0.00000000000E+00  0.00000000000E+00  0.59294748969E+02  0.59294749153E+02  0.46700000000E-02 0. -1.
         -1   -1    0    0    0  501 -0.00000000000E+00 -0.00000000000E+00 -0.16865509782E+01  0.16865574437E+01  0.46700000000E-02 0.  1.
       1023    2    1    2    0    0  0.00000000000E+00  0.00000000000E+00  0.57608197991E+02  0.60981306597E+02  0.20000381958E+02 0.  0.
        -11    1    3    3    0    0 -0.57539449252E+01 -0.81789787762E+01  0.28851661241E+02  0.30535584694E+02  0.51100000000E-03 0.  1.
         11    1    3    3    0    0  0.57539449252E+01  0.81789787762E+01  0.28756536750E+02  0.30445721902E+02  0.51100000000E-03 0. -1.
<mgrwt>
<rscale>  0 0.20000382E+02</rscale>
<asrwt>0</asrwt>
<pdfrwt beam="1">  1        1 0.91222699E-02 0.20000382E+02</pdfrwt>
<pdfrwt beam="2">  1       -1 0.25946988E-03 0.20000382E+02</pdfrwt>
<totfact> 0.42245346E+06</totfact>
</mgrwt>
</event>
<event>
 5    1  0.9583198E-007  0.2000030E+02  0.7818608E-02  0.1745322E+00
          1   -1    0    0  501    0  0.00000000000E+00  0.00000000000E+00  0.30201840164E+01  0.30201876269E+01  0.46700000000E-02 0.  1.
         -1   -1    0    0    0  501 -0.00000000000E+00 -0.00000000000E+00 -0.33111545112E+02  0.33111545442E+02  0.46700000000E-02 0. -1.
       1023    2    1    2    0    0  0.00000000000E+00  0.00000000000E+00 -0.30091361096E+02  0.36131733069E+02  0.20000303046E+02 0.  0.
        -11    1    3    3    0    0 -0.96593591831E+01 -0.25882056693E+01 -0.14988500511E+02  0.18018245649E+02  0.51100000000E-03 0. -1.
         11    1    3    3    0    0  0.96593591831E+01  0.25882056693E+01 -0.15102860585E+02  0.18113487420E+02  0.51100000000E-03 0.  1.
<mgrwt>
<rscale>  0 0.20000303E+02</rscale>
<asrwt>0</asrwt>
<pdfrwt beam="1">  1        1 0.46464402E-03 0.20000303E+02</pdfrwt>
<pdfrwt beam="2">  1       -1 0.50940839E-02 0.20000303E+02</pdfrwt>
<totfact> 0.36221782E+06</totfact>
</mgrwt>
</event>
<event>
 5    1  0.9658142E-007  0.2000155E+02  0.7818608E-02  0.1745297E+00
          1   -1    0    0  501    0  0.00000000000E+00  0.00000000000E+00  0.40850917305E+01  0.40850943999E+01  0.46700000000E-02 0. -1.
         -1   -1    0    0    0  501 -0.00000000000E+00 -0.00000000000E+00 -0.24483037562E+02  0.24483038008E+02  0.46700000000E-02 0.  1.
       1023    2    1    2    0    0  0.00000000000E+00  0.00000000000E+00 -0.20397945832E+02  0.28568132407E+02  0.20001549817E+02 0.  0.
        -11    1    3    3    0    0 -0.38532762697E+01 -0.92279148440E+01 -0.10033955985E+02  0.14166242386E+02  0.51100000000E-03 0.  1.
         11    1    3    3    0    0  0.38532762697E+01  0.92279148440E+01 -0.10363989847E+02  0.14401890021E+02  0.51100000000E-03 0. -1.
<mgrwt>
<rscale>  0 0.20001550E+02</rscale>
<asrwt>0</asrwt>
<pdfrwt beam="1">  1        1 0.62847590E-03 0.20001550E+02</pdfrwt>
<pdfrwt beam="2">  1       -1 0.37666213E-02 0.20001550E+02</pdfrwt>
<totfact> 0.36974486E+06</totfact>
</mgrwt>
</event>
<event>
 4    1  0.1132254E-006  0.2022098E+02  0.7818608E-02  0.1740969E+00
          1   -1    0    0  501    0  0.00000000000E+00  0.00000000000E+00  0.60295849805E+01  0.60295867890E+01  0.46700000000E-02 0.  1.
         -1   -1    0    0    0  501 -0.00000000000E+00 -0.00000000000E+00 -0.16953403393E+02  0.16953404036E+02  0.46700000000E-02 0. -1.
        -11    1    1    2    0    0  0.35075806121E+01  0.93754097796E+01 -0.70775425011E+01  0.12259406119E+02  0.51100000000E-03 0. -1.
         11    1    1    2    0    0 -0.35075806121E+01 -0.93754097796E+01 -0.38462759109E+01  0.10723584705E+02  0.51100000000E-03 0.  1.
<mgrwt>
<rscale>  0 0.20220981E+02</rscale>
<asrwt>0</asrwt>
<pdfrwt beam="1">  1        1 0.92762865E-03 0.20220981E+02</pdfrwt>
<pdfrwt beam="2">  1       -1 0.26082161E-02 0.20220981E+02</pdfrwt>
<totfact> 0.36838108E+06</totfact>
</mgrwt>
</event>
<event>
 5    1  0.9583198E-007  0.2000014E+02  0.7818608E-02  0.1745325E+00
         -1   -1    0    0    0  501 -0.00000000000E+00  0.00000000000E+00  0.19309183979E+01  0.19309240452E+01  0.46700000000E-02 0. -1.
          1   -1    0    0  501    0  0.00000000000E+00 -0.00000000000E+00 -0.51789490144E+02  0.51789490355E+02  0.46700000000E-02 0.  1.
       1023    2    1    2    0    0  0.00000000000E+00  0.00000000000E+00 -0.49858571746E+02  0.53720414400E+02  0.20000143667E+02 0.  0.
        -11    1    3    3    0    0  0.95990099668E+01  0.28034316168E+01 -0.25022920912E+02  0.26947111021E+02  0.51100000000E-03 0.  1.
         11    1    3    3    0    0 -0.95990099668E+01 -0.28034316168E+01 -0.24835650834E+02  0.26773303379E+02  0.51100000000E-03 0. -1.
<mgrwt>
<rscale>  0 0.20000144E+02</rscale>
<asrwt>0</asrwt>
<pdfrwt beam="2">  1        1 0.79676133E-02 0.20000144E+02</pdfrwt>
<pdfrwt beam="1">  1       -1 0.29706486E-03 0.20000144E+02</pdfrwt>
<totfact> 0.41818569E+06</totfact>
</mgrwt>
</event>
<event>
 5    1  0.9583198E-007  0.2000187E+02  0.7818608E-02  0.1745291E+00
          1   -1    0    0  501    0  0.00000000000E+00  0.00000000000E+00  0.42250504671E+02  0.42250504929E+02  0.46700000000E-02 0.  1.
         -1   -1    0    0    0  501 -0.00000000000E+00 -0.00000000000E+00 -0.23672758991E+01  0.23672805055E+01  0.46700000000E-02 0. -1.
       1023    2    1    2    0    0  0.00000000000E+00  0.00000000000E+00  0.39883228772E+02  0.44617785434E+02  0.20001870908E+02 0.  0.
        -11    1    3    3    0    0  0.94364096767E+01 -0.33114272559E+01  0.20132616326E+02  0.22479626742E+02  0.51100000000E-03 0.  1.
         11    1    3    3    0    0 -0.94364096767E+01  0.33114272559E+01  0.19750612445E+02  0.22138158692E+02  0.51100000000E-03 0. -1.
<mgrwt>
<rscale>  0 0.20001871E+02</rscale>
<asrwt>0</asrwt>
<pdfrwt beam="1">  1        1 0.65000780E-02 0.20001871E+02</pdfrwt>
<pdfrwt beam="2">  1       -1 0.36419667E-03 0.20001871E+02</pdfrwt>
<totfact> 0.41241321E+06</totfact>
</mgrwt>
</event>
<event>
 5    1  0.9583198E-007  0.2000817E+02  0.7818608E-02  0.1745166E+00
          1   -1    0    0  501    0  0.00000000000E+00  0.00000000000E+00  0.33616898587E+01  0.33616931024E+01  0.46700000000E-02 0.  1.
         -1   -1    0    0    0  501 -0.00000000000E+00 -0.00000000000E+00 -0.29771239243E+02  0.29771239609E+02  0.46700000000E-02 0. -1.
       1023    2    1    2    0    0  0.00000000000E+00  0.00000000000E+00 -0.26409549384E+02  0.33132932712E+02  0.20008171616E+02 0.  0.
        -11    1    3    3    0    0  0.60912140957E+01 -0.79342413560E+01 -0.12934402229E+02  0.16350958270E+02  0.51100000000E-03 0. -1.
         11    1    3    3    0    0 -0.60912140957E+01  0.79342413560E+01 -0.13475147155E+02  0.16781974442E+02  0.51100000000E-03 0.  1.
<mgrwt>
<rscale>  0 0.20008172E+02</rscale>
<asrwt>0</asrwt>
<pdfrwt beam="1">  1        1 0.51718335E-03 0.20008172E+02</pdfrwt>
<pdfrwt beam="2">  1       -1 0.45801908E-02 0.20008172E+02</pdfrwt>
<totfact> 0.36473495E+06</totfact>
</mgrwt>
</event>
<event>
 5    1  0.9583198E-007  0.2000051E+02  0.7818608E-02  0.1745318E+00
          1   -1    0    0  501    0  0.00000000000E+00  0.00000000000E+00  0.50054333527E+01  0.50054355312E+01  0.46700000000E-02 0.  1.
         -1   -1    0    0    0  501 -0.00000000000E+00 -0.00000000000E+00 -0.19979303677E+02  0.19979304223E+02  0.46700000000E-02 0. -1.
       1023    2    1    2    0    0  0.00000000000E+00  0.00000000000E+00 -0.14973870324E+02  0.24984739754E+02  0.20000510696E+02 0.  0.
        -11    1    3    3    0    0 -0.65695838635E+01  0.75394505636E+01 -0.74262512804E+01  0.12456000774E+02  0.51100000000E-03 0. -1.
         11    1    3    3    0    0  0.65695838635E+01 -0.75394505636E+01 -0.75476190441E+01  0.12528738980E+02  0.51100000000E-03 0.  1.
<mgrwt>
<rscale>  0 0.20000511E+02</rscale>
<asrwt>0</asrwt>
<pdfrwt beam="1">  1        1 0.77006689E-03 0.20000511E+02</pdfrwt>
<pdfrwt beam="2">  1       -1 0.30737392E-02 0.20000511E+02</pdfrwt>
<totfact> 0.37416798E+06</totfact>
</mgrwt>
</event>
<event>
 5    1  0.9583198E-007  0.2000942E+02  0.7818608E-02  0.1745141E+00
         -1   -1    0    0    0  501 -0.00000000000E+00  0.00000000000E+00  0.14408701982E+01  0.14408777662E+01  0.46700000000E-02 0. -1.
          1   -1    0    0  501    0  0.00000000000E+00 -0.00000000000E+00 -0.69467682265E+02  0.69467682422E+02  0.46700000000E-02 0.  1.
       1023    2    1    2    0    0  0.00000000000E+00  0.00000000000E+00 -0.68026812066E+02  0.70908560188E+02  0.20009416483E+02 0.  0.
        -11    1    3    3    0    0 -0.49458458589E+01 -0.86934072264E+01 -0.33163891630E+02  0.34639290246E+02  0.51100000000E-03 0.  1.
         11    1    3    3    0    0  0.49458458589E+01  0.86934072264E+01 -0.34862920437E+02  0.36269269942E+02  0.51100000000E-03 0. -1.
<mgrwt>
<rscale>  0 0.20009416E+02</rscale>
<asrwt>0</asrwt>
<pdfrwt beam="2">  1        1 0.10687334E-01 0.20009416E+02</pdfrwt>
<pdfrwt beam="1">  1       -1 0.22167299E-03 0.20009416E+02</pdfrwt>
<totfact> 0.42760704E+06</totfact>
</mgrwt>
</event>
<event>
 5    1  0.9583198E-007  0.2000021E+02  0.7818608E-02  0.1745324E+00
          1   -1    0    0  501    0  0.00000000000E+00  0.00000000000E+00  0.38225882543E+02  0.38225882829E+02  0.46700000000E-02 0.  1.
         -1   -1    0    0    0  501 -0.00000000000E+00 -0.00000000000E+00 -0.26160815788E+01  0.26160857470E+01  0.46700000000E-02 0. -1.
       1023    2    1    2    0    0  0.00000000000E+00  0.00000000000E+00  0.35609800964E+02  0.40841968576E+02  0.20000211809E+02 0.  0.
        -11    1    3    3    0    0 -0.15269457966E+00 -0.99989304357E+01  0.17776579346E+02  0.20396291305E+02  0.51100000000E-03 0.  1.
         11    1    3    3    0    0  0.15269457966E+00  0.99989304357E+01  0.17833221618E+02  0.20445677270E+02  0.51100000000E-03 0. -1.
<mgrwt>
<rscale>  0 0.20000212E+02</rscale>
<asrwt>0</asrwt>
<pdfrwt beam="1">  1        1 0.58809053E-02 0.20000212E+02</pdfrwt>
<pdfrwt beam="2">  1       -1 0.40247444E-03 0.20000212E+02</pdfrwt>
<totfact> 0.40997735E+06</totfact>
</mgrwt>
</event>
<event>
 5    1  0.9583198E-007  0.2000108E+02  0.7818608E-02  0.1745307E+00
         -1   -1    0    0    0  501 -0.00000000000E+00  0.00000000000E+00  0.11508275621E+03  0.11508275631E+03  0.46700000000E-02 0.  1.
          1   -1    0    0  501    0  0.00000000000E+00 -0.00000000000E+00 -0.86902755677E+00  0.86904010456E+00  0.46700000000E-02 0. -1.
       1023    2    1    2    0    0  0.00000000000E+00  0.00000000000E+00  0.11421372866E+03  0.11595179641E+03  0.20001081913E+02 0.  0.
        -11    1    3    3    0    0  0.94767137700E+01 -0.31930618095E+01  0.57594372265E+02  0.58456098608E+02  0.51100000000E-03 0.  1.
         11    1    3    3    0    0 -0.94767137700E+01  0.31930618095E+01  0.56619356392E+02  0.57495697805E+02  0.51100000000E-03 0. -1.
<mgrwt>
<rscale>  0 0.20001082E+02</rscale>
<asrwt>0</asrwt>
<pdfrwt beam="2">  1        1 0.13369746E-03 0.20001082E+02</pdfrwt>
<pdfrwt beam="1">  1       -1 0.17705048E-01 0.20001082E+02</pdfrwt>
<totfact> 0.31078704E+06</totfact>
</mgrwt>
</event>
<event>
 5    1  0.1071784E-006  0.2000247E+02  0.7818608E-02  0.1745279E+00
          1   -1    0    0  501    0  0.00000000000E+00  0.00000000000E+00  0.10674407860E+03  0.10674407870E+03  0.46700000000E-02 0. -1.
         -1   -1    0    0    0  501 -0.00000000000E+00 -0.00000000000E+00 -0.93704577910E+00  0.93705741608E+00  0.46700000000E-02 0.  1.
       1023    2    1    2    0    0  0.00000000000E+00  0.00000000000E+00  0.10580703282E+03  0.10768113612E+03  0.20002471881E+02 0.  0.
        -11    1    3    3    0    0 -0.98829774312E+01  0.15256624703E+01  0.53734569698E+02  0.54657157535E+02  0.51100000000E-03 0. -1.
         11    1    3    3    0    0  0.98829774312E+01 -0.15256624703E+01  0.52072463120E+02  0.53023978581E+02  0.51100000000E-03 0.  1.
<mgrwt>
<rscale>  0 0.20002472E+02</rscale>
<asrwt>0</asrwt>
<pdfrwt beam="1">  1        1 0.16422164E-01 0.20002472E+02</pdfrwt>
<pdfrwt beam="2">  1       -1 0.14416181E-03 0.20002472E+02</pdfrwt>
<totfact> 0.44671885E+06</totfact>
</mgrwt>
</event>
<event>
 5    1  0.9583198E-007  0.2000049E+02  0.7818608E-02  0.1745318E+00
         -1   -1    0    0    0  501 -0.00000000000E+00  0.00000000000E+00  0.13488890269E+02  0.13488891077E+02  0.46700000000E-02 0.  1.
          1   -1    0    0  501    0  0.00000000000E+00 -0.00000000000E+00 -0.74138706174E+01  0.74138720883E+01  0.46700000000E-02 0. -1.
       1023    2    1    2    0    0  0.00000000000E+00  0.00000000000E+00  0.60750196512E+01  0.20902763165E+02  0.20000491099E+02 0.  0.
        -11    1    3    3    0    0  0.25357615241E+01 -0.96733982272E+01  0.30230655199E+01  0.10447183600E+02  0.51100000000E-03 0.  1.
         11    1    3    3    0    0 -0.25357615241E+01  0.96733982272E+01  0.30519541312E+01  0.10455579565E+02  0.51100000000E-03 0. -1.
<mgrwt>
<rscale>  0 0.20000491E+02</rscale>
<asrwt>0</asrwt>
<pdfrwt beam="2">  1        1 0.11405957E-02 0.20000491E+02</pdfrwt>
<pdfrwt beam="1">  1       -1 0.20752141E-02 0.20000491E+02</pdfrwt>
<totfact> 0.38140681E+06</totfact>
</mgrwt>
</event>
<event>
 5    1  0.9715406E-007  0.2000141E+02  0.7818608E-02  0.1745300E+00
         -1   -1    0    0    0  501 -0.00000000000E+00  0.00000000000E+00  0.42537427619E+01  0.42537453254E+01  0.46700000000E-02 0. -1.
          1   -1    0    0  501    0  0.00000000000E+00 -0.00000000000E+00 -0.23512005411E+02  0.23512005875E+02  0.46700000000E-02 0.  1.
       1023    2    1    2    0    0  0.00000000000E+00  0.00000000000E+00 -0.19258262649E+02  0.27765751200E+02  0.20001406437E+02 0.  0.
        -11    1    3    3    0    0  0.97360510963E+01  0.22852304885E+01 -0.96750731744E+01  0.13914740764E+02  0.51100000000E-03 0.  1.
         11    1    3    3    0    0 -0.97360510963E+01 -0.22852304885E+01 -0.95831894746E+01  0.13851010436E+02  0.51100000000E-03 0. -1.
<mgrwt>
<rscale>  0 0.20001406E+02</rscale>
<asrwt>0</asrwt>
<pdfrwt beam="2">  1        1 0.36172318E-02 0.20001406E+02</pdfrwt>
<pdfrwt beam="1">  1       -1 0.65442221E-03 0.20001406E+02</pdfrwt>
<totfact> 0.39980575E+06</totfact>
</mgrwt>
</event>
<event>
 4    1  0.9583198E-007  0.2001705E+02  0.7818608E-02  0.1744989E+00
         -1   -1    0    0    0  501 -0.00000000000E+00  0.00000000000E+00  0.10056633138E+03  0.10056633149E+03  0.46700000000E-02 0. -1.
          1   -1    0    0  501    0  0.00000000000E+00 -0.00000000000E+00 -0.99605870689E+00  0.99606965442E+00  0.46700000000E-02 0.  1.
        -11    1    1    2    0    0  0.86350329321E+01 -0.50575111909E+01  0.48931320725E+02  0.49944132401E+02  0.51100000000E-03 0. -1.
         11    1    1    2    0    0 -0.86350329321E+01  0.50575111909E+01  0.50638951946E+02  0.51618268739E+02  0.51100000000E-03 0.  1.
<mgrwt>
<rscale>  0 0.20017046E+02</rscale>
<asrwt>0</asrwt>
<pdfrwt beam="2">  1        1 0.15324060E-03 0.20017046E+02</pdfrwt>
<pdfrwt beam="1">  1       -1 0.15471749E-01 0.20017046E+02</pdfrwt>
<totfact> 0.31778067E+06</totfact>
</mgrwt>
</event>
<event>
 5    1  0.9583198E-007  0.2001048E+02  0.7818608E-02  0.1745120E+00
          1   -1    0    0  501    0  0.00000000000E+00  0.00000000000E+00  0.56291866032E+02  0.56291866226E+02  0.46700000000E-02 0.  1.
         -1   -1    0    0    0  501 -0.00000000000E+00 -0.00000000000E+00 -0.17783149956E+01  0.17783211275E+01  0.46700000000E-02 0. -1.
       1023    2    1    2    0    0  0.00000000000E+00  0.00000000000E+00  0.54513551037E+02  0.58070187353E+02  0.20010482569E+02 0.  0.
        -11    1    3    3    0    0  0.93806017870E+01 -0.34770446038E+01  0.27660181477E+02  0.29413792150E+02  0.51100000000E-03 0.  1.
         11    1    3    3    0    0 -0.93806017870E+01  0.34770446038E+01  0.26853369560E+02  0.28656395203E+02  0.51100000000E-03 0. -1.
<mgrwt>
<rscale>  0 0.20010483E+02</rscale>
<asrwt>0</asrwt>
<pdfrwt beam="1">  1        1 0.86602859E-02 0.20010483E+02</pdfrwt>
<pdfrwt beam="2">  1       -1 0.27358746E-03 0.20010483E+02</pdfrwt>
<totfact> 0.42028799E+06</totfact>
</mgrwt>
</event>
<event>
 5    1  0.1011891E-006  0.2000164E+02  0.7818608E-02  0.1745295E+00
          1   -1    0    0  501    0  0.00000000000E+00  0.00000000000E+00  0.75683999120E+02  0.75683999264E+02  0.46700000000E-02 0.  1.
         -1   -1    0    0    0  501 -0.00000000000E+00 -0.00000000000E+00 -0.13214960803E+01  0.13215043318E+01  0.46700000000E-02 0. -1.
       1023    2    1    2    0    0  0.00000000000E+00  0.00000000000E+00  0.74362503039E+02  0.77005503596E+02  0.20001643076E+02 0.  0.
        -11    1    3    3    0    0 -0.60249018802E+01 -0.79812657005E+01  0.36688421847E+02  0.38026837139E+02  0.51100000000E-03 0.  1.
         11    1    3    3    0    0  0.60249018802E+01  0.79812657005E+01  0.37674081192E+02  0.38978666457E+02  0.51100000000E-03 0. -1.
<mgrwt>
<rscale>  0 0.20001643E+02</rscale>
<asrwt>0</asrwt>
<pdfrwt beam="1">  1        1 0.11643697E-01 0.20001643E+02</pdfrwt>
<pdfrwt beam="2">  1       -1 0.20330766E-03 0.20001643E+02</pdfrwt>
<totfact> 0.43127156E+06</totfact>
</mgrwt>
</event>
<event>
 5    1  0.1003979E-006  0.2000081E+02  0.7818608E-02  0.1745312E+00
         -1   -1    0    0    0  501 -0.00000000000E+00  0.00000000000E+00  0.12981791168E+01  0.12981875166E+01  0.46700000000E-02 0.  1.
          1   -1    0    0  501    0  0.00000000000E+00 -0.00000000000E+00 -0.77036959395E+02  0.77036959536E+02  0.46700000000E-02 0. -1.
       1023    2    1    2    0    0  0.00000000000E+00  0.00000000000E+00 -0.75738780278E+02  0.78335147053E+02  0.20000810629E+02 0.  0.
        -11    1    3    3    0    0 -0.98269744602E+01  0.18542215890E+01 -0.37778254382E+02  0.39079458404E+02  0.51100000000E-03 0.  1.
         11    1    3    3    0    0  0.98269744602E+01 -0.18542215890E+01 -0.37960525896E+02  0.39255688649E+02  0.51100000000E-03 0. -1.
<mgrwt>
<rscale>  0 0.20000811E+02</rscale>
<asrwt>0</asrwt>
<pdfrwt beam="2">  1        1 0.11851837E-01 0.20000811E+02</pdfrwt>
<pdfrwt beam="1">  1       -1 0.19972058E-03 0.20000811E+02</pdfrwt>
<totfact> 0.43201838E+06</totfact>
</mgrwt>
</event>
<event>
 5    1  0.9583198E-007  0.2000852E+02  0.7818608E-02  0.1745159E+00
          1   -1    0    0  501    0  0.00000000000E+00  0.00000000000E+00  0.12797214433E+01  0.12797299642E+01  0.46700000000E-02 0.  1.
         -1   -1    0    0    0  501 -0.00000000000E+00 -0.00000000000E+00 -0.78208338412E+02  0.78208338551E+02  0.46700000000E-02 0. -1.
       1023    2    1    2    0    0  0.00000000000E+00  0.00000000000E+00 -0.76928616968E+02  0.79488068515E+02  0.20008521375E+02 0.  0.
        -11    1    3    3    0    0  0.24784136421E+01 -0.96892854635E+01 -0.37487597750E+02  0.38798772819E+02  0.51100000000E-03 0.  1.
         11    1    3    3    0    0 -0.24784136421E+01  0.96892854635E+01 -0.39441019219E+02  0.40689295696E+02  0.51100000000E-03 0. -1.
<mgrwt>
<rscale>  0 0.20008521E+02</rscale>
<asrwt>0</asrwt>
<pdfrwt beam="1">  1        1 0.19688095E-03 0.20008521E+02</pdfrwt>
<pdfrwt beam="2">  1       -1 0.12032049E-01 0.20008521E+02</pdfrwt>
<totfact> 0.33068861E+06</totfact>
</mgrwt>
</event>
<event>
 5    1  0.9583198E-007  0.2000441E+02  0.7818608E-02  0.1745240E+00
          1   -1    0    0  501    0  0.00000000000E+00  0.00000000000E+00  0.28054179090E+01  0.28054217959E+01  0.46700000000E-02 0.  1.
         -1   -1    0    0    0  501 -0.00000000000E+00 -0.00000000000E+00 -0.35661015732E+02  0.35661016038E+02  0.46700000000E-02 0. -1.
       1023    2    1    2    0    0  0.00000000000E+00  0.00000000000E+00 -0.32855597823E+02  0.38466437834E+02  0.20004412796E+02 0.  0.
        -11    1    3    3    0    0 -0.64787583913E+01 -0.76202694935E+01 -0.16497532015E+02  0.19292780523E+02  0.51100000000E-03 0.  1.
         11    1    3    3    0    0  0.64787583913E+01  0.76202694935E+01 -0.16358065808E+02  0.19173657311E+02  0.51100000000E-03 0. -1.
<mgrwt>
<rscale>  0 0.20004413E+02</rscale>
<asrwt>0</asrwt>
<pdfrwt beam="1">  1        1 0.43160310E-03 0.20004413E+02</pdfrwt>
<pdfrwt beam="2">  1       -1 0.54863101E-02 0.20004413E+02</pdfrwt>
<totfact> 0.35996626E+06</totfact>
</mgrwt>
</event>
<event>
 5    1  0.9583198E-007  0.2000044E+02  0.7818608E-02  0.1745319E+00
          1   -1    0    0  501    0  0.00000000000E+00  0.00000000000E+00  0.25279226657E+02  0.25279227088E+02  0.46700000000E-02 0.  1.
         -1   -1    0    0    0  501 -0.00000000000E+00 -0.00000000000E+00 -0.39559882169E+01  0.39559909734E+01  0.46700000000E-02 0. -1.
       1023    2    1    2    0    0  0.00000000000E+00  0.00000000000E+00  0.21323238440E+02  0.29235218062E+02  0.20000436934E+02 0.  0.
        -11    1    3    3    0    0 -0.51456951612E+00  0.99868910759E+01  0.10719978215E+02  0.14660174226E+02  0.51100000000E-03 0.  1.
         11    1    3    3    0    0  0.51456951612E+00 -0.99868910759E+01  0.10603260225E+02  0.14575043836E+02  0.51100000000E-03 0. -1.
<mgrwt>
<rscale>  0 0.20000437E+02</rscale>
<asrwt>0</asrwt>
<pdfrwt beam="1">  1        1 0.38891119E-02 0.20000437E+02</pdfrwt>
<pdfrwt beam="2">  1       -1 0.60861384E-03 0.20000437E+02</pdfrwt>
<totfact> 0.40118121E+06</totfact>
</mgrwt>
</event>
<event>
 5    1  0.9583198E-007  0.2000061E+02  0.7818608E-02  0.1745316E+00
         -1   -1    0    0    0  501 -0.00000000000E+00  0.00000000000E+00  0.12007104995E+03  0.12007105004E+03  0.46700000000E-02 0. -1.
          1   -1    0    0  501    0  0.00000000000E+00 -0.00000000000E+00 -0.83288477752E+00  0.83289786981E+00  0.46700000000E-02 0.  1.
       1023    2    1    2    0    0  0.00000000000E+00  0.00000000000E+00  0.11923816517E+03  0.12090394791E+03  0.20000614657E+02 0.  0.
        -11    1    3    3    0    0  0.91570809136E+01  0.40191216480E+01  0.59461827974E+02  0.60296885956E+02  0.51100000000E-03 0.  1.
         11    1    3    3    0    0 -0.91570809136E+01 -0.40191216480E+01  0.59776337194E+02  0.60607061951E+02  0.51100000000E-03 0. -1.
<mgrwt>
<rscale>  0 0.20000615E+02</rscale>
<asrwt>0</asrwt>
<pdfrwt beam="2">  1        1 0.12813723E-03 0.20000615E+02</pdfrwt>
<pdfrwt beam="1">  1       -1 0.18472457E-01 0.20000615E+02</pdfrwt>
<totfact> 0.30830931E+06</totfact>
</mgrwt>
</event>
<event>
 5    1  0.9784008E-007  0.2000102E+02  0.7818608E-02  0.1745308E+00
          1   -1    0    0  501    0  0.00000000000E+00  0.00000000000E+00  0.54453788401E+02  0.54453788601E+02  0.46700000000E-02 0.  1.
         -1   -1    0    0    0  501 -0.00000000000E+00 -0.00000000000E+00 -0.18366037720E+01  0.18366097093E+01  0.46700000000E-02 0. -1.
       1023    2    1    2    0    0  0.00000000000E+00  0.00000000000E+00  0.52617184629E+02  0.56290398310E+02  0.20001020566E+02 0.  0.
        -11    1    3    3    0    0  0.80706134130E+01 -0.59047039461E+01  0.26028903552E+02  0.27883761402E+02  0.51100000000E-03 0.  1.
         11    1    3    3    0    0 -0.80706134130E+01  0.59047039461E+01  0.26588281076E+02  0.28406636908E+02  0.51100000000E-03 0. -1.
<mgrwt>
<rscale>  0 0.20001021E+02</rscale>
<asrwt>0</asrwt>
<pdfrwt beam="1">  1        1 0.83775059E-02 0.20001021E+02</pdfrwt>
<pdfrwt beam="2">  1       -1 0.28255492E-03 0.20001021E+02</pdfrwt>
<totfact> 0.41968133E+06</totfact>
</mgrwt>
</event>
<event>
 5    1  0.9583198E-007  0.2000841E+02  0.7818608E-02  0.1745161E+00
          1   -1    0    0  501    0  0.00000000000E+00  0.00000000000E+00  0.53295782433E+01  0.53295802893E+01  0.46700000000E-02 0. -1.
         -1   -1    0    0    0  501 -0.00000000000E+00 -0.00000000000E+00 -0.18778979315E+02  0.18778979896E+02  0.46700000000E-02 0.  1.
       1023    2    1    2    0    0  0.00000000000E+00  0.00000000000E+00 -0.13449401072E+02  0.24108560185E+02  0.20008405359E+02 0.  0.
        -11    1    3    3    0    0 -0.98412516463E+01  0.17934800517E+01 -0.68830289245E+01  0.12142606479E+02  0.51100000000E-03 0.  1.
         11    1    3    3    0    0  0.98412516463E+01 -0.17934800517E+01 -0.65663721472E+01  0.11965953706E+02  0.51100000000E-03 0. -1.
<mgrwt>
<rscale>  0 0.20008405E+02</rscale>
<asrwt>0</asrwt>
<pdfrwt beam="1">  1        1 0.81993533E-03 0.20008405E+02</pdfrwt>
<pdfrwt beam="2">  1       -1 0.28890739E-02 0.20008405E+02</pdfrwt>
<totfact> 0.37508174E+06</totfact>
</mgrwt>
</event>
<event>
 5    1  0.9717442E-007  0.2000053E+02  0.7818608E-02  0.1745318E+00
         -1   -1    0    0    0  501 -0.00000000000E+00  0.00000000000E+00  0.13746782938E+01  0.13746862261E+01  0.46700000000E-02 0.  1.
          1   -1    0    0  501    0  0.00000000000E+00 -0.00000000000E+00 -0.72747928218E+02  0.72747928368E+02  0.46700000000E-02 0. -1.
       1023    2    1    2    0    0  0.00000000000E+00  0.00000000000E+00 -0.71373249925E+02  0.74122614594E+02  0.20000529731E+02 0.  0.
        -11    1    3    3    0    0 -0.96001923661E+01 -0.27994079861E+01 -0.35426711339E+02  0.36811034421E+02  0.51100000000E-03 0. -1.
         11    1    3    3    0    0  0.96001923661E+01  0.27994079861E+01 -0.35946538585E+02  0.37311580174E+02  0.51100000000E-03 0.  1.
<mgrwt>
<rscale>  0 0.20000530E+02</rscale>
<asrwt>0</asrwt>
<pdfrwt beam="2">  1        1 0.11191987E-01 0.20000530E+02</pdfrwt>
<pdfrwt beam="1">  1       -1 0.21148965E-03 0.20000530E+02</pdfrwt>
<totfact> 0.42977801E+06</totfact>
</mgrwt>
</event>
<event>
 5    1  0.9583198E-007  0.2000403E+02  0.7818608E-02  0.1745248E+00
          1   -1    0    0  501    0  0.00000000000E+00  0.00000000000E+00  0.88449623723E+02  0.88449623846E+02  0.46700000000E-02 0. -1.
         -1   -1    0    0    0  501 -0.00000000000E+00 -0.00000000000E+00 -0.11310376836E+01  0.11310473247E+01  0.46700000000E-02 0.  1.
       1023    2    1    2    0    0  0.00000000000E+00  0.00000000000E+00  0.87318586039E+02  0.89580671171E+02  0.20004029082E+02 0.  0.
        -11    1    3    3    0    0 -0.57317850881E+01 -0.81967636467E+01  0.43660213012E+02  0.44791232346E+02  0.51100000000E-03 0.  1.
         11    1    3    3    0    0  0.57317850881E+01  0.81967636467E+01  0.43658373027E+02  0.44789438825E+02  0.51100000000E-03 0. -1.
<mgrwt>
<rscale>  0 0.20004029E+02</rscale>
<asrwt>0</asrwt>
<pdfrwt beam="1">  1        1 0.13607641E-01 0.20004029E+02</pdfrwt>
<pdfrwt beam="2">  1       -1 0.17400648E-03 0.20004029E+02</pdfrwt>
<totfact> 0.43770539E+06</totfact>
</mgrwt>
</event>
<event>
 4    1  0.9583198E-007  0.2007075E+02  0.7818608E-02  0.1743925E+00
         -1   -1    0    0    0  501 -0.00000000000E+00  0.00000000000E+00  0.10240649581E+02  0.10240650646E+02  0.46700000000E-02 0. -1.
          1   -1    0    0  501    0  0.00000000000E+00 -0.00000000000E+00 -0.98342134752E+01  0.98342145840E+01  0.46700000000E-02 0.  1.
        -11    1    1    2    0    0  0.72137927703E+01  0.69738857709E+01  0.16453279757E-01  0.10033651372E+02  0.51100000000E-03 0.  1.
         11    1    1    2    0    0 -0.72137927703E+01 -0.69738857709E+01  0.38998282597E+00  0.10041213858E+02  0.51100000000E-03 0. -1.
<mgrwt>
<rscale>  0 0.20070750E+02</rscale>
<asrwt>0</asrwt>
<pdfrwt beam="2">  1        1 0.15129561E-02 0.20070750E+02</pdfrwt>
<pdfrwt beam="1">  1       -1 0.15754847E-02 0.20070750E+02</pdfrwt>
<totfact> 0.38290240E+06</totfact>
</mgrwt>
</event>
<event>
 5    1  0.9583198E-007  0.2000046E+02  0.7818608E-02  0.1745319E+00
          1   -1    0    0  501    0  0.00000000000E+00  0.00000000000E+00  0.19449082954E+01  0.19449139021E+01  0.46700000000E-02 0. -1.
         -1   -1    0    0    0  501 -0.00000000000E+00 -0.00000000000E+00 -0.51418575374E+02  0.51418575586E+02  0.46700000000E-02 0.  1.
       1023    2    1    2    0    0  0.00000000000E+00  0.00000000000E+00 -0.49473667078E+02  0.53363489488E+02  0.20000456898E+02 0.  0.
        -11    1    3    3    0    0  0.95852426415E+01 -0.28508410417E+01 -0.24790037725E+02  0.26731070719E+02  0.51100000000E-03 0. -1.
         11    1    3    3    0    0 -0.95852426415E+01  0.28508410417E+01 -0.24683629354E+02  0.26632418769E+02  0.51100000000E-03 0.  1.
<mgrwt>
<rscale>  0 0.20000457E+02</rscale>
<asrwt>0</asrwt>
<pdfrwt beam="1">  1        1 0.29921715E-03 0.20000457E+02</pdfrwt>
<pdfrwt beam="2">  1       -1 0.79105495E-02 0.20000457E+02</pdfrwt>
<totfact> 0.34827450E+06</totfact>
</mgrwt>
</event>
<event>
 5    1  0.9583198E-007  0.2000174E+02  0.7818608E-02  0.1745294E+00
         -1   -1    0    0    0  501 -0.00000000000E+00  0.00000000000E+00  0.86213621547E+00  0.86214886355E+00  0.46700000000E-02 0. -1.
          1   -1    0    0  501    0  0.00000000000E+00 -0.00000000000E+00 -0.11601023752E+03  0.11601023761E+03  0.46700000000E-02 0.  1.
       1023    2    1    2    0    0  0.00000000000E+00  0.00000000000E+00 -0.11514810130E+03  0.11687238648E+03  0.20001737097E+02 0.  0.
        -11    1    3    3    0    0 -0.40751182122E+01  0.91325635166E+01 -0.58065241972E+02  0.58920137732E+02  0.51100000000E-03 0. -1.
         11    1    3    3    0    0  0.40751182122E+01 -0.91325635166E+01 -0.57082859331E+02  0.57952248745E+02  0.51100000000E-03 0.  1.
<mgrwt>
<rscale>  0 0.20001737E+02</rscale>
<asrwt>0</asrwt>
<pdfrwt beam="2">  1        1 0.17847717E-01 0.20001737E+02</pdfrwt>
<pdfrwt beam="1">  1       -1 0.13263741E-03 0.20001737E+02</pdfrwt>
<totfact> 0.45108666E+06</totfact>
</mgrwt>
</event>
<event>
 5    1  0.9583198E-007  0.2000054E+02  0.7818608E-02  0.1745317E+00
         -1   -1    0    0    0  501 -0.00000000000E+00  0.00000000000E+00  0.13214381378E+01  0.13214463897E+01  0.46700000000E-02 0.  1.
          1   -1    0    0  501    0  0.00000000000E+00 -0.00000000000E+00 -0.75678970576E+02  0.75678970720E+02  0.46700000000E-02 0. -1.
       1023    2    1    2    0    0  0.00000000000E+00  0.00000000000E+00 -0.74357532438E+02  0.77000417109E+02  0.20000540112E+02 0.  0.
        -11    1    3    3    0    0  0.86346060296E+01  0.50446437205E+01 -0.37269004030E+02  0.38587349134E+02  0.51100000000E-03 0.  1.
         11    1    3    3    0    0 -0.86346060296E+01 -0.50446437205E+01 -0.37088528408E+02  0.38413067975E+02  0.51100000000E-03 0. -1.
<mgrwt>
<rscale>  0 0.20000540E+02</rscale>
<asrwt>0</asrwt>
<pdfrwt beam="2">  1        1 0.11642916E-01 0.20000540E+02</pdfrwt>
<pdfrwt beam="1">  1       -1 0.20329888E-03 0.20000540E+02</pdfrwt>
<totfact> 0.43132152E+06</totfact>
</mgrwt>
</event>
<event>
 5    1  0.9583198E-007  0.2000446E+02  0.7818608E-02  0.1745239E+00
         -1   -1    0    0    0  501 -0.00000000000E+00  0.00000000000E+00  0.12855665814E+02  0.12855666662E+02  0.46700000000E-02 0. -1.
          1   -1    0    0  501    0  0.00000000000E+00 -0.00000000000E+00 -0.77821389832E+01  0.77821403844E+01  0.46700000000E-02 0.  1.
       1023    2    1    2    0    0  0.00000000000E+00  0.00000000000E+00  0.50735268304E+01  0.20637807046E+02  0.20004459632E+02 0.  0.
        -11    1    3    3    0    0 -0.66724297581E+01  0.74512488996E+01  0.25848435744E+01  0.10330723383E+02  0.51100000000E-03 0.  1.
         11    1    3    3    0    0  0.66724297581E+01 -0.74512488996E+01  0.24886832560E+01  0.10307083664E+02  0.51100000000E-03 0. -1.
<mgrwt>
<rscale>  0 0.20004460E+02</rscale>
<asrwt>0</asrwt>
<pdfrwt beam="2">  1        1 0.11972523E-02 0.20004460E+02</pdfrwt>
<pdfrwt beam="1">  1       -1 0.19777949E-02 0.20004460E+02</pdfrwt>
<totfact> 0.38204418E+06</totfact>
</mgrwt>
</event>
<event>
 5    1  0.1001364E-006  0.2000079E+02  0.7818608E-02  0.1745312E+00
         -1   -1    0    0    0  501 -0.00000000000E+00  0.00000000000E+00  0.16343645808E+01  0.16343712528E+01  0.46700000000E-02 0. -1.
          1   -1    0    0  501    0  0.00000000000E+00 -0.00000000000E+00 -0.61190549187E+02  0.61190549366E+02  0.46700000000E-02 0.  1.
       1023    2    1    2    0    0  0.00000000000E+00  0.00000000000E+00 -0.59556184607E+02  0.62824920618E+02  0.20000788130E+02 0.  0.
        -11    1    3    3    0    0 -0.93135470891E+01  0.36422086489E+01 -0.29797447947E+02  0.31430808892E+02  0.51100000000E-03 0. -1.
         11    1    3    3    0    0  0.93135470891E+01 -0.36422086489E+01 -0.29758736660E+02  0.31394111726E+02  0.51100000000E-03 0.  1.
<mgrwt>
<rscale>  0 0.20000788E+02</rscale>
<asrwt>0</asrwt>
<pdfrwt beam="2">  1        1 0.94139294E-02 0.20000788E+02</pdfrwt>
<pdfrwt beam="1">  1       -1 0.25144128E-03 0.20000788E+02</pdfrwt>
<totfact> 0.42349293E+06</totfact>
</mgrwt>
</event>
<event>
 5    1  0.9715876E-007  0.2000205E+02  0.7818608E-02  0.1745287E+00
          1   -1    0    0  501    0  0.00000000000E+00  0.00000000000E+00  0.76042133383E+02  0.76042133527E+02  0.46700000000E-02 0.  1.
         -1   -1    0    0    0  501 -0.00000000000E+00 -0.00000000000E+00 -0.13153258862E+01  0.13153341765E+01  0.46700000000E-02 0. -1.
       1023    2    1    2    0    0  0.00000000000E+00  0.00000000000E+00  0.74726807497E+02  0.77357467703E+02  0.20002051163E+02 0.  0.
        -11    1    3    3    0    0  0.97430513108E+01 -0.22568090990E+01  0.37299121103E+02  0.38616637237E+02  0.51100000000E-03 0.  1.
         11    1    3    3    0    0 -0.97430513108E+01  0.22568090990E+01  0.37427686394E+02  0.38740830466E+02  0.51100000000E-03 0. -1.
<mgrwt>
<rscale>  0 0.20002051E+02</rscale>
<asrwt>0</asrwt>
<pdfrwt beam="1">  1        1 0.11698794E-01 0.20002051E+02</pdfrwt>
<pdfrwt beam="2">  1       -1 0.20235842E-03 0.20002051E+02</pdfrwt>
<totfact> 0.43143958E+06</totfact>
</mgrwt>
</event>
<event>
 5    1  0.9583198E-007  0.2000680E+02  0.7818608E-02  0.1745193E+00
         -1   -1    0    0    0  501 -0.00000000000E+00  0.00000000000E+00  0.91176252574E+01  0.91176264534E+01  0.46700000000E-02 0.  1.
          1   -1    0    0  501    0  0.00000000000E+00 -0.00000000000E+00 -0.10975221035E+02  0.10975222028E+02  0.46700000000E-02 0. -1.
       1023    2    1    2    0    0  0.00000000000E+00  0.00000000000E+00 -0.18575957772E+01  0.20092848481E+02  0.20006796296E+02 0.  0.
        -11    1    3    3    0    0 -0.38565742321E+01  0.92295532256E+01 -0.82758399769E+00  0.10037066956E+02  0.51100000000E-03 0.  1.
         11    1    3    3    0    0  0.38565742321E+01 -0.92295532256E+01 -0.10300117795E+01  0.10055781525E+02  0.51100000000E-03 0. -1.
<mgrwt>
<rscale>  0 0.20006796E+02</rscale>
<asrwt>0</asrwt>
<pdfrwt beam="2">  1        1 0.16884957E-02 0.20006796E+02</pdfrwt>
<pdfrwt beam="1">  1       -1 0.14027118E-02 0.20006796E+02</pdfrwt>
<totfact> 0.38737464E+06</totfact>
</mgrwt>
</event>
<event>
 5    1  0.9583198E-007  0.2000129E+02  0.7818608E-02  0.1745303E+00
         -1   -1    0    0    0  501 -0.00000000000E+00  0.00000000000E+00  0.40346755007E+02  0.40346755277E+02  0.46700000000E-02 0.  1.
          1   -1    0    0  501    0  0.00000000000E+00 -0.00000000000E+00 -0.24788303255E+01  0.24788347246E+01  0.46700000000E-02 0. -1.
       1023    2    1    2    0    0  0.00000000000E+00  0.00000000000E+00  0.37867924681E+02  0.42825590001E+02  0.20001285942E+02 0.  0.
        -11    1    3    3    0    0  0.96693454956E+01  0.25518859671E+01  0.18790405741E+02  0.21285857100E+02  0.51100000000E-03 0. -1.
         11    1    3    3    0    0 -0.96693454956E+01 -0.25518859671E+01  0.19077518940E+02  0.21539732901E+02  0.51100000000E-03 0.  1.
<mgrwt>
<rscale>  0 0.20001286E+02</rscale>
<asrwt>0</asrwt>
<pdfrwt beam="2">  1        1 0.38135889E-03 0.20001286E+02</pdfrwt>
<pdfrwt beam="1">  1       -1 0.62071931E-02 0.20001286E+02</pdfrwt>
<totfact> 0.35639300E+06</totfact>
</mgrwt>
</event>
<event>
 4    1  0.9583198E-007  0.2002472E+02  0.7818608E-02  0.1744837E+00
         -1   -1    0    0    0  501 -0.00000000000E+00  0.00000000000E+00  0.16032779755E+01  0.16032847768E+01  0.46700000000E-02 0. -1.
          1   -1    0    0  501    0  0.00000000000E+00 -0.00000000000E+00 -0.62526326480E+02  0.62526326654E+02  0.46700000000E-02 0.  1.
        -11    1    1    2    0    0 -0.64999880947E+01 -0.76053828787E+01 -0.29198204681E+02  0.30864653746E+02  0.51100000000E-03 0. -1.
         11    1    1    2    0    0  0.64999880947E+01  0.76053828787E+01 -0.31724843823E+02  0.33264957686E+02  0.51100000000E-03 0.  1.
<mgrwt>
<rscale>  0 0.20024715E+02</rscale>
<asrwt>0</asrwt>
<pdfrwt beam="2">  1        1 0.96194335E-02 0.20024715E+02</pdfrwt>
<pdfrwt beam="1">  1       -1 0.24665874E-03 0.20024715E+02</pdfrwt>
<totfact> 0.42311024E+06</totfact>
</mgrwt>
</event>
<event>
 5    1  0.9583198E-007  0.2000104E+02  0.7818608E-02  0.1745307E+00
         -1   -1    0    0    0  501 -0.00000000000E+00  0.00000000000E+00  0.10103376882E+02  0.10103377961E+02  0.46700000000E-02 0. -1.
          1   -1    0    0  501    0  0.00000000000E+00 -0.00000000000E+00 -0.98987100741E+01  0.98987111757E+01  0.46700000000E-02 0.  1.
       1023    2    1    2    0    0  0.00000000000E+00  0.00000000000E+00  0.20466680805E+00  0.20002089137E+02  0.20001042007E+02 0.  0.
        -11    1    3    3    0    0  0.30416443559E+01  0.95263593590E+01  0.18776065575E+00  0.10001918683E+02  0.51100000000E-03 0. -1.
         11    1    3    3    0    0 -0.30416443559E+01 -0.95263593590E+01  0.16906152295E-01  0.10000170454E+02  0.51100000000E-03 0.  1.
<mgrwt>
<rscale>  0 0.20001042E+02</rscale>
<asrwt>0</asrwt>
<pdfrwt beam="2">  1        1 0.15228786E-02 0.20001042E+02</pdfrwt>
<pdfrwt beam="1">  1       -1 0.15543658E-02 0.20001042E+02</pdfrwt>
<totfact> 0.38603613E+06</totfact>
</mgrwt>
</event>
<event>
 5    1  0.1021365E-006  0.2000075E+02  0.7818608E-02  0.1745313E+00
          1   -1    0    0  501    0  0.00000000000E+00  0.00000000000E+00  0.89050739398E+02  0.89050739520E+02  0.46700000000E-02 0. -1.
         -1   -1    0    0    0  501 -0.00000000000E+00 -0.00000000000E+00 -0.11230346571E+01  0.11230443669E+01  0.46700000000E-02 0.  1.
       1023    2    1    2    0    0  0.00000000000E+00  0.00000000000E+00  0.87927704741E+02  0.90173783887E+02  0.20000750975E+02 0.  0.
        -11    1    3    3    0    0 -0.92240743477E+01  0.38628689468E+01  0.43752117296E+02  0.44880430838E+02  0.51100000000E-03 0. -1.
         11    1    3    3    0    0  0.92240743477E+01 -0.38628689468E+01  0.44175587445E+02  0.45293353049E+02  0.51100000000E-03 0.  1.
<mgrwt>
<rscale>  0 0.20000751E+02</rscale>
<asrwt>0</asrwt>
<pdfrwt beam="1">  1        1 0.13700116E-01 0.20000751E+02</pdfrwt>
<pdfrwt beam="2">  1       -1 0.17277530E-03 0.20000751E+02</pdfrwt>
<totfact> 0.43816607E+06</totfact>
</mgrwt>
</event>
<event>
 5    1  0.9847392E-007  0.2000234E+02  0.7818608E-02  0.1745282E+00
         -1   -1    0    0    0  501 -0.00000000000E+00  0.00000000000E+00  0.35813027168E+01  0.35813057617E+01  0.46700000000E-02 0. -1.
          1   -1    0    0  501    0  0.00000000000E+00 -0.00000000000E+00 -0.27929311648E+02  0.27929312038E+02  0.46700000000E-02 0.  1.
       1023    2    1    2    0    0  0.00000000000E+00  0.00000000000E+00 -0.24348008931E+02  0.31510617800E+02  0.20002337244E+02 0.  0.
        -11    1    3    3    0    0 -0.27739406481E+01  0.96086545523E+01 -0.12097077821E+02  0.15695868281E+02  0.51100000000E-03 0. -1.
         11    1    3    3    0    0  0.27739406481E+01 -0.96086545523E+01 -0.12250931110E+02  0.15814749519E+02  0.51100000000E-03 0.  1.
<mgrwt>
<rscale>  0 0.20002337E+02</rscale>
<asrwt>0</asrwt>
<pdfrwt beam="2">  1        1 0.42968173E-02 0.20002337E+02</pdfrwt>
<pdfrwt beam="1">  1       -1 0.55096993E-03 0.20002337E+02</pdfrwt>
<totfact> 0.40301539E+06</totfact>
</mgrwt>
</event>
<event>
 5    1  0.9583198E-007  0.2000926E+02  0.7818608E-02  0.1745144E+00
          1   -1    0    0  501    0  0.00000000000E+00  0.00000000000E+00  0.88917192831E+02  0.88917192954E+02  0.46700000000E-02 0.  1.
         -1   -1    0    0    0  501 -0.00000000000E+00 -0.00000000000E+00 -0.11256784194E+01  0.11256881064E+01  0.46700000000E-02 0. -1.
       1023    2    1    2    0    0  0.00000000000E+00  0.00000000000E+00  0.87791514412E+02  0.90042881060E+02  0.20009258530E+02 0.  0.
        -11    1    3    3    0    0 -0.47139636929E+01 -0.88244625562E+01  0.43879308796E+02  0.45005403384E+02  0.51100000000E-03 0. -1.
         11    1    3    3    0    0  0.47139636929E+01  0.88244625562E+01  0.43912205616E+02  0.45037477676E+02  0.51100000000E-03 0.  1.
<mgrwt>
<rscale>  0 0.20009259E+02</rscale>
<asrwt>0</asrwt>
<pdfrwt beam="1">  1        1 0.13679571E-01 0.20009259E+02</pdfrwt>
<pdfrwt beam="2">  1       -1 0.17318203E-03 0.20009259E+02</pdfrwt>
<totfact> 0.43768763E+06</totfact>
</mgrwt>
</event>
<event>
 5    1  0.9995922E-007  0.2000182E+02  0.7818608E-02  0.1745292E+00
         -1   -1    0    0    0  501 -0.00000000000E+00  0.00000000000E+00  0.15910688551E+01  0.15910757086E+01  0.46700000000E-02 0. -1.
          1   -1    0    0  501    0  0.00000000000E+00 -0.00000000000E+00 -0.62862155199E+02  0.62862155372E+02  0.46700000000E-02 0.  1.
       1023    2    1    2    0    0  0.00000000000E+00  0.00000000000E+00 -0.61271086344E+02  0.64453231081E+02  0.20001824292E+02 0.  0.
        -11    1    3    3    0    0  0.36242486206E+01 -0.93202697127E+01 -0.31038505527E+02  0.32609683089E+02  0.51100000000E-03 0.  1.
         11    1    3    3    0    0 -0.36242486206E+01  0.93202697127E+01 -0.30232580817E+02  0.31843547992E+02  0.51100000000E-03 0. -1.
<mgrwt>
<rscale>  0 0.20001824E+02</rscale>
<asrwt>0</asrwt>
<pdfrwt beam="2">  1        1 0.96710994E-02 0.20001824E+02</pdfrwt>
<pdfrwt beam="1">  1       -1 0.24478041E-03 0.20001824E+02</pdfrwt>
<totfact> 0.42437025E+06</totfact>
</mgrwt>
</event>
<event>
 5    1  0.9915211E-007  0.2000071E+02  0.7818608E-02  0.1745314E+00
         -1   -1    0    0    0  501 -0.00000000000E+00  0.00000000000E+00  0.12972104922E+01  0.12972188982E+01  0.46700000000E-02 0.  1.
          1   -1    0    0  501    0  0.00000000000E+00 -0.00000000000E+00 -0.77093671821E+02  0.77093671963E+02  0.46700000000E-02 0. -1.
       1023    2    1    2    0    0  0.00000000000E+00  0.00000000000E+00 -0.75796461329E+02  0.78390890861E+02  0.20000705487E+02 0.  0.
        -11    1    3    3    0    0  0.46017203063E+01 -0.88785578603E+01 -0.37704813859E+02  0.39008429959E+02  0.51100000000E-03 0. -1.
         11    1    3    3    0    0 -0.46017203063E+01  0.88785578603E+01 -0.38091647470E+02  0.39382460902E+02  0.51100000000E-03 0.  1.
<mgrwt>
<rscale>  0 0.20000705E+02</rscale>
<asrwt>0</asrwt>
<pdfrwt beam="2">  1        1 0.11860562E-01 0.20000705E+02</pdfrwt>
<pdfrwt beam="1">  1       -1 0.19957156E-03 0.20000705E+02</pdfrwt>
<totfact> 0.43205297E+06</totfact>
</mgrwt>
</event>
<event>
 4    1  0.9583198E-007  0.2002974E+02  0.7818608E-02  0.1744737E+00
         -1   -1    0    0    0  501 -0.00000000000E+00  0.00000000000E+00  0.19218024861E+02  0.19218025429E+02  0.46700000000E-02 0.  1.
          1   -1    0    0  501    0  0.00000000000E+00 -0.00000000000E+00 -0.52189338158E+01  0.52189359052E+01  0.46700000000E-02 0. -1.
        -11    1    1    2    0    0 -0.88981197281E+01  0.45957439322E+01  0.69808413232E+01  0.12207765677E+02  0.51100000000E-03 0. -1.
         11    1    1    2    0    0  0.88981197281E+01 -0.45957439322E+01  0.70182497224E+01  0.12229195657E+02  0.51100000000E-03 0.  1.
<mgrwt>
<rscale>  0 0.20029741E+02</rscale>
<asrwt>0</asrwt>
<pdfrwt beam="2">  1        1 0.80291309E-03 0.20029741E+02</pdfrwt>
<pdfrwt beam="1">  1       -1 0.29566195E-02 0.20029741E+02</pdfrwt>
<totfact> 0.37374882E+06</totfact>
</mgrwt>
</event>
<event>
 5    1  0.9583198E-007  0.2000388E+02  0.7818608E-02  0.1745251E+00
         -1   -1    0    0    0  501 -0.00000000000E+00  0.00000000000E+00  0.39122634366E+01  0.39122662239E+01  0.46700000000E-02 0.  1.
          1   -1    0    0  501    0  0.00000000000E+00 -0.00000000000E+00 -0.25570565768E+02  0.25570566195E+02  0.46700000000E-02 0. -1.
       1023    2    1    2    0    0  0.00000000000E+00  0.00000000000E+00 -0.21658302332E+02  0.29482832419E+02  0.20003883311E+02 0.  0.
        -11    1    3    3    0    0  0.75037181498E+01 -0.66111548368E+01 -0.11065346678E+02  0.14914927144E+02  0.51100000000E-03 0.  1.
         11    1    3    3    0    0 -0.75037181498E+01  0.66111548368E+01 -0.10592955654E+02  0.14567905275E+02  0.51100000000E-03 0. -1.
<mgrwt>
<rscale>  0 0.20003883E+02</rscale>
<asrwt>0</asrwt>
<pdfrwt beam="2">  1        1 0.39339333E-02 0.20003883E+02</pdfrwt>
<pdfrwt beam="1">  1       -1 0.60188694E-03 0.20003883E+02</pdfrwt>
<totfact> 0.40124186E+06</totfact>
</mgrwt>
</event>
<event>
 5    1  0.9583198E-007  0.2000007E+02  0.7818608E-02  0.1745327E+00
          1   -1    0    0  501    0  0.00000000000E+00  0.00000000000E+00  0.40633626359E+01  0.40633653195E+01  0.46700000000E-02 0.  1.
         -1   -1    0    0    0  501 -0.00000000000E+00 -0.00000000000E+00 -0.24610324329E+02  0.24610324773E+02  0.46700000000E-02 0. -1.
       1023    2    1    2    0    0  0.00000000000E+00  0.00000000000E+00 -0.20546961694E+02  0.28673690092E+02  0.20000071716E+02 0.  0.
        -11    1    3    3    0    0 -0.81792841559E+01  0.57532214504E+01 -0.10242381459E+02  0.14314559881E+02  0.51100000000E-03 0.  1.
         11    1    3    3    0    0  0.81792841559E+01 -0.57532214504E+01 -0.10304580234E+02  0.14359130211E+02  0.51100000000E-03 0. -1.
<mgrwt>
<rscale>  0 0.20000072E+02</rscale>
<asrwt>0</asrwt>
<pdfrwt beam="1">  1        1 0.62513297E-03 0.20000072E+02</pdfrwt>
<pdfrwt beam="2">  1       -1 0.37862039E-02 0.20000072E+02</pdfrwt>
<totfact> 0.36968633E+06</totfact>
</mgrwt>
</event>
<event>
 5    1  0.9689028E-007  0.2000109E+02  0.7818608E-02  0.1745306E+00
          1   -1    0    0  501    0  0.00000000000E+00  0.00000000000E+00  0.83262751941E+01  0.83262765038E+01  0.46700000000E-02 0. -1.
         -1   -1    0    0    0  501 -0.00000000000E+00 -0.00000000000E+00 -0.12011480015E+02  0.12011480923E+02  0.46700000000E-02 0.  1.
       1023    2    1    2    0    0  0.00000000000E+00  0.00000000000E+00 -0.36852048206E+01  0.20337757426E+02  0.20001091034E+02 0.  0.
        -11    1    3    3    0    0  0.95941055896E+01  0.28209835602E+01 -0.19220199990E+01  0.10183269193E+02  0.51100000000E-03 0. -1.
         11    1    3    3    0    0 -0.95941055896E+01 -0.28209835602E+01 -0.17631848216E+01  0.10154488234E+02  0.51100000000E-03 0.  1.
<mgrwt>
<rscale>  0 0.20001091E+02</rscale>
<asrwt>0</asrwt>
<pdfrwt beam="1">  1        1 0.12809656E-02 0.20001091E+02</pdfrwt>
<pdfrwt beam="2">  1       -1 0.18479202E-02 0.20001091E+02</pdfrwt>
<totfact> 0.38329661E+06</totfact>
</mgrwt>
</event>
<event>
 5    1  0.9583198E-007  0.2001104E+02  0.7818608E-02  0.1745109E+00
          1   -1    0    0  501    0  0.00000000000E+00  0.00000000000E+00  0.47926843336E+01  0.47926866088E+01  0.46700000000E-02 0.  1.
         -1   -1    0    0    0  501 -0.00000000000E+00 -0.00000000000E+00 -0.20888170130E+02  0.20888170652E+02  0.46700000000E-02 0. -1.
       1023    2    1    2    0    0  0.00000000000E+00  0.00000000000E+00 -0.16095485797E+02  0.25680857261E+02  0.20011041118E+02 0.  0.
        -11    1    3    3    0    0 -0.79911301914E+01  0.60198119940E+01 -0.82003637872E+01  0.12936083823E+02  0.51100000000E-03 0.  1.
         11    1    3    3    0    0  0.79911301914E+01 -0.60198119940E+01 -0.78951220093E+01  0.12744773438E+02  0.51100000000E-03 0. -1.
<mgrwt>
<rscale>  0 0.20011041E+02</rscale>
<asrwt>0</asrwt>
<pdfrwt beam="1">  1        1 0.73733628E-03 0.20011041E+02</pdfrwt>
<pdfrwt beam="2">  1       -1 0.32135648E-02 0.20011041E+02</pdfrwt>
<totfact> 0.37282029E+06</totfact>
</mgrwt>
</event>
<event>
 5    1  0.9583198E-007  0.2000042E+02  0.7818608E-02  0.1745320E+00
         -1   -1    0    0    0  501 -0.00000000000E+00  0.00000000000E+00  0.29030529376E+02  0.29030529752E+02  0.46700000000E-02 0. -1.
          1   -1    0    0  501    0  0.00000000000E+00 -0.00000000000E+00 -0.34447926788E+01  0.34447958443E+01  0.46700000000E-02 0.  1.
       1023    2    1    2    0    0  0.00000000000E+00  0.00000000000E+00  0.25585736697E+02  0.32475325596E+02  0.20000421251E+02 0.  0.
        -11    1    3    3    0    0 -0.20986444498E+01  0.97774466849E+01  0.12854486629E+02  0.16286208858E+02  0.51100000000E-03 0.  1.
         11    1    3    3    0    0  0.20986444498E+01 -0.97774466849E+01  0.12731250069E+02  0.16189116739E+02  0.51100000000E-03 0. -1.
<mgrwt>
<rscale>  0 0.20000421E+02</rscale>
<asrwt>0</asrwt>
<pdfrwt beam="2">  1        1 0.52996839E-03 0.20000421E+02</pdfrwt>
<pdfrwt beam="1">  1       -1 0.44662354E-02 0.20000421E+02</pdfrwt>
<totfact> 0.36569031E+06</totfact>
</mgrwt>
</event>
<event>
 5    1  0.1005136E-006  0.2000160E+02  0.7818608E-02  0.1745296E+00
          1   -1    0    0  501    0  0.00000000000E+00  0.00000000000E+00  0.73690840183E+02  0.73690840331E+02  0.46700000000E-02 0. -1.
         -1   -1    0    0    0  501 -0.00000000000E+00 -0.00000000000E+00 -0.13572343169E+01  0.13572423512E+01  0.46700000000E-02 0.  1.
       1023    2    1    2    0    0  0.00000000000E+00  0.00000000000E+00  0.72333605867E+02  0.75048082683E+02  0.20001604353E+02 0.  0.
        -11    1    3    3    0    0  0.76072485609E+01  0.64915203187E+01  0.35876719137E+02  0.37244449828E+02  0.51100000000E-03 0.  1.
         11    1    3    3    0    0 -0.76072485609E+01 -0.64915203187E+01  0.36456886730E+02  0.37803632854E+02  0.51100000000E-03 0. -1.
<mgrwt>
<rscale>  0 0.20001604E+02</rscale>
<asrwt>0</asrwt>
<pdfrwt beam="1">  1        1 0.11337052E-01 0.20001604E+02</pdfrwt>
<pdfrwt beam="2">  1       -1 0.20880592E-03 0.20001604E+02</pdfrwt>
<totfact> 0.43022539E+06</totfact>
</mgrwt>
</event>
<event>
 5    1  0.9583198E-007  0.2000057E+02  0.7818608E-02  0.1745317E+00
         -1   -1    0    0    0  501 -0.00000000000E+00  0.00000000000E+00  0.17535349902E+02  0.17535350523E+02  0.46700000000E-02 0. -1.
          1   -1    0    0  501    0  0.00000000000E+00 -0.00000000000E+00 -0.57030905653E+01  0.57030924773E+01  0.46700000000E-02 0.  1.
       1023    2    1    2    0    0  0.00000000000E+00  0.00000000000E+00  0.11832259336E+02  0.23238443001E+02  0.20000571794E+02 0.  0.
        -11    1    3    3    0    0 -0.28343073440E+01  0.95900852346E+01  0.59763334117E+01  0.11649875288E+02  0.51100000000E-03 0. -1.
         11    1    3    3    0    0  0.28343073440E+01 -0.95900852346E+01  0.58559259245E+01  0.11588567712E+02  0.51100000000E-03 0.  1.
<mgrwt>
<rscale>  0 0.20000572E+02</rscale>
<asrwt>0</asrwt>
<pdfrwt beam="2">  1        1 0.87739875E-03 0.20000572E+02</pdfrwt>
<pdfrwt beam="1">  1       -1 0.26977463E-02 0.20000572E+02</pdfrwt>
<totfact> 0.37672530E+06</totfact>
</mgrwt>
</event>
<event>
 5    1  0.9583198E-007  0.2000019E+02  0.7818608E-02  0.1745324E+00
          1   -1    0    0  501    0  0.00000000000E+00  0.00000000000E+00  0.11376729010E+02  0.11376729969E+02  0.46700000000E-02 0. -1.
         -1   -1    0    0    0  501 -0.00000000000E+00 -0.00000000000E+00 -0.87900376562E+01  0.87900388967E+01  0.46700000000E-02 0.  1.
       1023    2    1    2    0    0  0.00000000000E+00  0.00000000000E+00  0.25866913541E+01  0.20166768865E+02  0.20000189857E+02 0.  0.
        -11    1    3    3    0    0 -0.82458232744E+01 -0.56575874999E+01  0.12940759793E+01  0.10083478105E+02  0.51100000000E-03 0.  1.
         11    1    3    3    0    0  0.82458232744E+01  0.56575874999E+01  0.12926153748E+01  0.10083290760E+02  0.51100000000E-03 0. -1.
<mgrwt>
<rscale>  0 0.20000190E+02</rscale>
<asrwt>0</asrwt>
<pdfrwt beam="1">  1        1 0.17502662E-02 0.20000190E+02</pdfrwt>
<pdfrwt beam="2">  1       -1 0.13523137E-02 0.20000190E+02</pdfrwt>
<totfact> 0.38821324E+06</totfact>
</mgrwt>
</event>
<event>
 5    1  0.9583198E-007  0.2000009E+02  0.7818608E-02  0.1745326E+00
          1   -1    0    0  501    0  0.00000000000E+00  0.00000000000E+00  0.22540100204E+02  0.22540100688E+02  0.46700000000E-02 0. -1.
         -1   -1    0    0    0  501 -0.00000000000E+00 -0.00000000000E+00 -0.44365772188E+01  0.44365796767E+01  0.46700000000E-02 0.  1.
       1023    2    1    2    0    0  0.00000000000E+00  0.00000000000E+00  0.18103522986E+02  0.26976680365E+02  0.20000093475E+02 0.  0.
        -11    1    3    3    0    0 -0.99412435241E+01 -0.10827054851E+01  0.90773722062E+01  0.13505527032E+02  0.51100000000E-03 0.  1.
         11    1    3    3    0    0  0.99412435241E+01  0.10827054851E+01  0.90261507794E+01  0.13471153333E+02  0.51100000000E-03 0. -1.
<mgrwt>
<rscale>  0 0.20000093E+02</rscale>
<asrwt>0</asrwt>
<pdfrwt beam="1">  1        1 0.34677080E-02 0.20000093E+02</pdfrwt>
<pdfrwt beam="2">  1       -1 0.68255056E-03 0.20000093E+02</pdfrwt>
<totfact> 0.39911111E+06</totfact>
</mgrwt>
</event>
<event>
 5    1  0.9583198E-007  0.2000068E+02  0.7818608E-02  0.1745315E+00
          1   -1    0    0  501    0  0.00000000000E+00  0.00000000000E+00  0.21889877186E+01  0.21889927001E+01  0.46700000000E-02 0.  1.
         -1   -1    0    0    0  501 -0.00000000000E+00 -0.00000000000E+00 -0.45686246111E+02  0.45686246350E+02  0.46700000000E-02 0. -1.
       1023    2    1    2    0    0  0.00000000000E+00  0.00000000000E+00 -0.43497258393E+02  0.47875239050E+02  0.20000675649E+02 0.  0.
        -11    1    3    3    0    0 -0.92417239808E+01 -0.38203530164E+01 -0.21636431218E+02  0.23835681560E+02  0.51100000000E-03 0. -1.
         11    1    3    3    0    0  0.92417239808E+01  0.38203530164E+01 -0.21860827174E+02  0.24039557490E+02  0.51100000000E-03 0.  1.
<mgrwt>
<rscale>  0 0.20000676E+02</rscale>
<asrwt>0</asrwt>
<pdfrwt beam="1">  1        1 0.33676778E-03 0.20000676E+02</pdfrwt>
<pdfrwt beam="2">  1       -1 0.70286530E-02 0.20000676E+02</pdfrwt>
<totfact> 0.35239235E+06</totfact>
</mgrwt>
</event>
<event>
 5    1  0.1006572E-006  0.2000171E+02  0.7818608E-02  0.1745294E+00
         -1   -1    0    0    0  501 -0.00000000000E+00  0.00000000000E+00  0.10820337936E+01  0.10820438713E+01  0.46700000000E-02 0. -1.
          1   -1    0    0  501    0  0.00000000000E+00 -0.00000000000E+00 -0.92433896033E+02  0.92433896151E+02  0.46700000000E-02 0.  1.
       1023    2    1    2    0    0  0.00000000000E+00  0.00000000000E+00 -0.91351862239E+02  0.93515940022E+02  0.20001707518E+02 0.  0.
        -11    1    3    3    0    0  0.10000658390E+02  0.40047603361E-01 -0.45900331555E+02  0.46977177535E+02  0.51100000000E-03 0. -1.
         11    1    3    3    0    0 -0.10000658390E+02 -0.40047603361E-01 -0.45451530685E+02  0.46538762488E+02  0.51100000000E-03 0.  1.
<mgrwt>
<rscale>  0 0.20001708E+02</rscale>
<asrwt>0</asrwt>
<pdfrwt beam="2">  1        1 0.14220594E-01 0.20001708E+02</pdfrwt>
<pdfrwt beam="1">  1       -1 0.16646760E-03 0.20001708E+02</pdfrwt>
<totfact> 0.43980955E+06</totfact>
</mgrwt>
</event>
<event>
 4    1  0.9583198E-007  0.2005655E+02  0.7818608E-02  0.1744206E+00
          1   -1    0    0  501    0  0.00000000000E+00  0.00000000000E+00  0.61274221819E+01  0.61274239616E+01  0.46700000000E-02 0.  1.
         -1   -1    0    0    0  501 -0.00000000000E+00 -0.00000000000E+00 -0.16412492795E+02  0.16412493460E+02  0.46700000000E-02 0. -1.
        -11    1    1    2    0    0 -0.17146844921E+01  0.98801093413E+01 -0.52526247205E+01  0.11320193029E+02  0.51100000000E-03 0. -1.
         11    1    1    2    0    0  0.17146844921E+01 -0.98801093413E+01 -0.50324458927E+01  0.11219724392E+02  0.51100000000E-03 0.  1.
<mgrwt>
<rscale>  0 0.20056550E+02</rscale>
<asrwt>0</asrwt>
<pdfrwt beam="1">  1        1 0.94268053E-03 0.20056550E+02</pdfrwt>
<pdfrwt beam="2">  1       -1 0.25249991E-02 0.20056550E+02</pdfrwt>
<totfact> 0.37564653E+06</totfact>
</mgrwt>
</event>
<event>
 5    1  0.9583198E-007  0.2000902E+02  0.7818608E-02  0.1745149E+00
          1   -1    0    0  501    0  0.00000000000E+00  0.00000000000E+00  0.19406313452E+01  0.19406369643E+01  0.46700000000E-02 0.  1.
         -1   -1    0    0    0  501 -0.00000000000E+00 -0.00000000000E+00 -0.51576040328E+02  0.51576040539E+02  0.46700000000E-02 0. -1.
       1023    2    1    2    0    0  0.00000000000E+00  0.00000000000E+00 -0.49635408982E+02  0.53516677503E+02  0.20009021619E+02 0.  0.
        -11    1    3    3    0    0  0.71920859357E+01  0.69539355010E+01 -0.25040152723E+02  0.26964654044E+02  0.51100000000E-03 0.  1.
         11    1    3    3    0    0 -0.71920859357E+01 -0.69539355010E+01 -0.24595256260E+02  0.26552023460E+02  0.51100000000E-03 0. -1.
<mgrwt>
<rscale>  0 0.20009022E+02</rscale>
<asrwt>0</asrwt>
<pdfrwt beam="1">  1        1 0.29855916E-03 0.20009022E+02</pdfrwt>
<pdfrwt beam="2">  1       -1 0.79347749E-02 0.20009022E+02</pdfrwt>
<totfact> 0.34783625E+06</totfact>
</mgrwt>
</event>
<event>
 5    1  0.9583198E-007  0.2000067E+02  0.7818608E-02  0.1745315E+00
         -1   -1    0    0    0  501 -0.00000000000E+00  0.00000000000E+00  0.57864875796E+02  0.57864875984E+02  0.46700000000E-02 0.  1.
          1   -1    0    0  501    0  0.00000000000E+00 -0.00000000000E+00 -0.17282772187E+01  0.17282835281E+01  0.46700000000E-02 0. -1.
       1023    2    1    2    0    0  0.00000000000E+00  0.00000000000E+00  0.56136598577E+02  0.59593159513E+02  0.20000674010E+02 0.  0.
        -11    1    3    3    0    0  0.73981495979E+00 -0.99726763698E+01  0.28281910960E+02  0.29997801385E+02  0.51100000000E-03 0.  1.
         11    1    3    3    0    0 -0.73981495979E+00  0.99726763698E+01  0.27854687618E+02  0.29595358128E+02  0.51100000000E-03 0. -1.
<mgrwt>
<rscale>  0 0.20000674E+02</rscale>
<asrwt>0</asrwt>
<pdfrwt beam="2">  1        1 0.26588929E-03 0.20000674E+02</pdfrwt>
<pdfrwt beam="1">  1       -1 0.89022895E-02 0.20000674E+02</pdfrwt>
<totfact> 0.34383252E+06</totfact>
</mgrwt>
</event>
<event>
 5    1  0.9583198E-007  0.2000201E+02  0.7818608E-02  0.1745288E+00
         -1   -1    0    0    0  501 -0.00000000000E+00  0.00000000000E+00  0.19505160524E+01  0.19505216430E+01  0.46700000000E-02 0. -1.
          1   -1    0    0  501    0  0.00000000000E+00 -0.00000000000E+00 -0.51278692121E+02  0.51278692334E+02  0.46700000000E-02 0.  1.
       1023    2    1    2    0    0  0.00000000000E+00  0.00000000000E+00 -0.49328176069E+02  0.53229213977E+02  0.20002006557E+02 0.  0.
        -11    1    3    3    0    0  0.27064410644E+01  0.96277951183E+01 -0.24588618664E+02  0.26544668582E+02  0.51100000000E-03 0.  1.
         11    1    3    3    0    0 -0.27064410644E+01 -0.96277951183E+01 -0.24739557405E+02  0.26684545395E+02  0.51100000000E-03 0. -1.
<mgrwt>
<rscale>  0 0.20002007E+02</rscale>
<asrwt>0</asrwt>
<pdfrwt beam="2">  1        1 0.78890290E-02 0.20002007E+02</pdfrwt>
<pdfrwt beam="1">  1       -1 0.30007988E-03 0.20002007E+02</pdfrwt>
<totfact> 0.41780223E+06</totfact>
</mgrwt>
</event>
<event>
 5    1  0.9583198E-007  0.2000055E+02  0.7818608E-02  0.1745317E+00
         -1   -1    0    0    0  501 -0.00000000000E+00  0.00000000000E+00  0.98650933111E+01  0.98650944164E+01  0.46700000000E-02 0. -1.
          1   -1    0    0  501    0  0.00000000000E+00 -0.00000000000E+00 -0.10137309139E+02  0.10137310215E+02  0.46700000000E-02 0.  1.
       1023    2    1    2    0    0  0.00000000000E+00  0.00000000000E+00 -0.27221582837E+00  0.20002404632E+02  0.20000552232E+02 0.  0.
        -11    1    3    3    0    0 -0.78415778450E+01 -0.62060422902E+01 -0.15087845998E+00  0.10001403330E+02  0.51100000000E-03 0.  1.
         11    1    3    3    0    0  0.78415778450E+01  0.62060422902E+01 -0.12133736838E+00  0.10001001301E+02  0.51100000000E-03 0. -1.
<mgrwt>
<rscale>  0 0.20000552E+02</rscale>
<asrwt>0</asrwt>
<pdfrwt beam="2">  1        1 0.15595862E-02 0.20000552E+02</pdfrwt>
<pdfrwt beam="1">  1       -1 0.15177068E-02 0.20000552E+02</pdfrwt>
<totfact> 0.38642654E+06</totfact>
</mgrwt>
</event>
<event>
 5    1  0.9583198E-007  0.2000430E+02  0.7818608E-02  0.1745243E+00
          1   -1    0    0  501    0  0.00000000000E+00  0.00000000000E+00  0.43043427665E+02  0.43043427919E+02  0.46700000000E-02 0.  1.
         -1   -1    0    0    0  501 -0.00000000000E+00 -0.00000000000E+00 -0.23242315080E+01  0.23242361996E+01  0.46700000000E-02 0. -1.
       1023    2    1    2    0    0  0.00000000000E+00  0.00000000000E+00  0.40719196157E+02  0.45367664118E+02  0.20004299834E+02 0.  0.
        -11    1    3    3    0    0 -0.88179361368E+01  0.47184831364E+01  0.20702956891E+02  0.22992009593E+02  0.51100000000E-03 0.  1.
         11    1    3    3    0    0  0.88179361368E+01 -0.47184831364E+01  0.20016239266E+02  0.22375654525E+02  0.51100000000E-03 0. -1.
<mgrwt>
<rscale>  0 0.20004300E+02</rscale>
<asrwt>0</asrwt>
<pdfrwt beam="1">  1        1 0.66220648E-02 0.20004300E+02</pdfrwt>
<pdfrwt beam="2">  1       -1 0.35757453E-03 0.20004300E+02</pdfrwt>
<totfact> 0.41278785E+06</totfact>
</mgrwt>
</event>
<event>
 5    1  0.9583198E-007  0.2000053E+02  0.7818608E-02  0.1745317E+00
          1   -1    0    0  501    0  0.00000000000E+00  0.00000000000E+00  0.16891061267E+02  0.16891061912E+02  0.46700000000E-02 0.  1.
         -1   -1    0    0    0  501 -0.00000000000E+00 -0.00000000000E+00 -0.59206051233E+01  0.59206069651E+01  0.46700000000E-02 0. -1.
       1023    2    1    2    0    0  0.00000000000E+00  0.00000000000E+00  0.10970456144E+02  0.22811668878E+02  0.20000533217E+02 0.  0.
        -11    1    3    3    0    0  0.35294997626E+01 -0.93564536427E+01  0.54067149164E+01  0.11368076345E+02  0.51100000000E-03 0.  1.
         11    1    3    3    0    0 -0.35294997626E+01  0.93564536427E+01  0.55637412272E+01  0.11443592532E+02  0.51100000000E-03 0. -1.
<mgrwt>
<rscale>  0 0.20000533E+02</rscale>
<asrwt>0</asrwt>
<pdfrwt beam="1">  1        1 0.25986250E-02 0.20000533E+02</pdfrwt>
<pdfrwt beam="2">  1       -1 0.91086253E-03 0.20000533E+02</pdfrwt>
<totfact> 0.39428217E+06</totfact>
</mgrwt>
</event>
<event>
 5    1  0.9583198E-007  0.2000287E+02  0.7818608E-02  0.1745271E+00
         -1   -1    0    0    0  501 -0.00000000000E+00  0.00000000000E+00  0.93861095185E+02  0.93861095301E+02  0.46700000000E-02 0.  1.
          1   -1    0    0  501    0  0.00000000000E+00 -0.00000000000E+00 -0.10657051448E+01  0.10657153769E+01  0.46700000000E-02 0. -1.
       1023    2    1    2    0    0  0.00000000000E+00  0.00000000000E+00  0.92795390040E+02  0.94926810678E+02  0.20002874113E+02 0.  0.
        -11    1    3    3    0    0  0.50351002051E+01  0.86413133546E+01  0.46705701381E+02  0.47764495940E+02  0.51100000000E-03 0. -1.
         11    1    3    3    0    0 -0.50351002051E+01 -0.86413133546E+01  0.46089688659E+02  0.47162314739E+02  0.51100000000E-03 0.  1.
<mgrwt>
<rscale>  0 0.20002874E+02</rscale>
<asrwt>0</asrwt>
<pdfrwt beam="2">  1        1 0.16395548E-03 0.20002874E+02</pdfrwt>
<pdfrwt beam="1">  1       -1 0.14440165E-01 0.20002874E+02</pdfrwt>
<totfact> 0.32191914E+06</totfact>
</mgrwt>
</event>
<event>
 5    1  0.9583198E-007  0.2000013E+02  0.7818608E-02  0.1745326E+00
         -1   -1    0    0    0  501 -0.00000000000E+00  0.00000000000E+00  0.85903192984E+00  0.85904462363E+00  0.46700000000E-02 0.  1.
          1   -1    0    0  501    0  0.00000000000E+00 -0.00000000000E+00 -0.11641070276E+03  0.11641070285E+03  0.46700000000E-02 0. -1.
       1023    2    1    2    0    0  0.00000000000E+00  0.00000000000E+00 -0.11555167083E+03  0.11726974747E+03  0.20000126043E+02 0.  0.
        -11    1    3    3    0    0 -0.43018506213E+00  0.99907769451E+01 -0.57634988244E+02  0.58496090069E+02  0.51100000000E-03 0. -1.
         11    1    3    3    0    0  0.43018506213E+00 -0.99907769451E+01 -0.57916682582E+02  0.58773657405E+02  0.51100000000E-03 0.  1.
<mgrwt>
<rscale>  0 0.20000126E+02</rscale>
<asrwt>0</asrwt>
<pdfrwt beam="2">  1        1 0.17909327E-01 0.20000126E+02</pdfrwt>
<pdfrwt beam="1">  1       -1 0.13215983E-03 0.20000126E+02</pdfrwt>
<totfact> 0.45135133E+06</totfact>
</mgrwt>
</event>
<event>
 5    1  0.9583198E-007  0.2000005E+02  0.7818608E-02  0.1745327E+00
          1   -1    0    0  501    0  0.00000000000E+00  0.00000000000E+00  0.10396696626E+02  0.10396697675E+02  0.46700000000E-02 0.  1.
         -1   -1    0    0    0  501 -0.00000000000E+00 -0.00000000000E+00 -0.96184835355E+01  0.96184846692E+01  0.46700000000E-02 0. -1.
       1023    2    1    2    0    0  0.00000000000E+00  0.00000000000E+00  0.77821309038E+00  0.20015182344E+02  0.20000047716E+02 0.  0.
        -11    1    3    3    0    0  0.21506749735E+01  0.97660148768E+01  0.39435320080E+00  0.10007795168E+02  0.51100000000E-03 0. -1.
         11    1    3    3    0    0 -0.21506749735E+01 -0.97660148768E+01  0.38385988957E+00  0.10007387176E+02  0.51100000000E-03 0.  1.
<mgrwt>
<rscale>  0 0.20000048E+02</rscale>
<asrwt>0</asrwt>
<pdfrwt beam="1">  1        1 0.15994920E-02 0.20000048E+02</pdfrwt>
<pdfrwt beam="2">  1       -1 0.14797669E-02 0.20000048E+02</pdfrwt>
<totfact> 0.38683860E+06</totfact>
</mgrwt>
</event>
<event>
 5    1  0.9583198E-007  0.2000456E+02  0.7818608E-02  0.1745237E+00
          1   -1    0    0  501    0  0.00000000000E+00  0.00000000000E+00  0.22285500271E+01  0.22285549201E+01  0.46700000000E-02 0. -1.
         -1   -1    0    0    0  501 -0.00000000000E+00 -0.00000000000E+00 -0.44892627513E+02  0.44892627756E+02  0.46700000000E-02 0.  1.
       1023    2    1    2    0    0  0.00000000000E+00  0.00000000000E+00 -0.42664077486E+02  0.47121182676E+02  0.20004558207E+02 0.  0.
        -11    1    3    3    0    0 -0.10000501231E+02  0.17611086018E+00 -0.21490876796E+02  0.23704405194E+02  0.51100000000E-03 0. -1.
         11    1    3    3    0    0  0.10000501231E+02 -0.17611086018E+00 -0.21173200690E+02  0.23416777482E+02  0.51100000000E-03 0.  1.
<mgrwt>
<rscale>  0 0.20004558E+02</rscale>
<asrwt>0</asrwt>
<pdfrwt beam="1">  1        1 0.34285428E-03 0.20004558E+02</pdfrwt>
<pdfrwt beam="2">  1       -1 0.69065578E-02 0.20004558E+02</pdfrwt>
<totfact> 0.35282817E+06</totfact>
</mgrwt>
</event>
<event>
 5    1  0.9583198E-007  0.2000043E+02  0.7818608E-02  0.1745319E+00
         -1   -1    0    0    0  501 -0.00000000000E+00  0.00000000000E+00  0.12481434113E+01  0.12481521478E+01  0.46700000000E-02 0. -1.
          1   -1    0    0  501    0  0.00000000000E+00 -0.00000000000E+00 -0.80122192872E+02  0.80122193008E+02  0.46700000000E-02 0.  1.
       1023    2    1    2    0    0  0.00000000000E+00  0.00000000000E+00 -0.78874049461E+02  0.81370345156E+02  0.20000434807E+02 0.  0.
        -11    1    3    3    0    0  0.91427438104E+01  0.40513351330E+01 -0.39292202854E+02  0.40544793576E+02  0.51100000000E-03 0.  1.
         11    1    3    3    0    0 -0.91427438104E+01 -0.40513351330E+01 -0.39581846606E+02  0.40825551579E+02  0.51100000000E-03 0. -1.
<mgrwt>
<rscale>  0 0.20000435E+02</rscale>
<asrwt>0</asrwt>
<pdfrwt beam="2">  1        1 0.12326488E-01 0.20000435E+02</pdfrwt>
<pdfrwt beam="1">  1       -1 0.19202281E-03 0.20000435E+02</pdfrwt>
<totfact> 0.43363629E+06</totfact>
</mgrwt>
</event>
<event>
 5    1  0.9583198E-007  0.2000044E+02  0.7818608E-02  0.1745319E+00
          1   -1    0    0  501    0  0.00000000000E+00  0.00000000000E+00  0.94769819223E+01  0.94769830729E+01  0.46700000000E-02 0. -1.
         -1   -1    0    0    0  501 -0.00000000000E+00 -0.00000000000E+00 -0.10552339454E+02  0.10552340487E+02  0.46700000000E-02 0.  1.
       1023    2    1    2    0    0  0.00000000000E+00  0.00000000000E+00 -0.10753575314E+01  0.20029323560E+02  0.20000435207E+02 0.  0.
        -11    1    3    3    0    0 -0.82085814575E+01  0.57115412979E+01 -0.49474131274E+00  0.10012356504E+02  0.51100000000E-03 0. -1.
         11    1    3    3    0    0  0.82085814575E+01 -0.57115412979E+01 -0.58061621866E+00  0.10016967056E+02  0.51100000000E-03 0.  1.
<mgrwt>
<rscale>  0 0.20000435E+02</rscale>
<asrwt>0</asrwt>
<pdfrwt beam="1">  1        1 0.14579974E-02 0.20000435E+02</pdfrwt>
<pdfrwt beam="2">  1       -1 0.16234370E-02 0.20000435E+02</pdfrwt>
<totfact> 0.38538419E+06</totfact>
</mgrwt>
</event>
<event>
 5    1  0.9583198E-007  0.2000007E+02  0.7818608E-02  0.1745327E+00
         -1   -1    0    0    0  501 -0.00000000000E+00  0.00000000000E+00  0.17694705043E+02  0.17694705659E+02  0.46700000000E-02 0.  1.
          1   -1    0    0  501    0  0.00000000000E+00 -0.00000000000E+00 -0.56514476269E+01  0.56514495564E+01  0.46700000000E-02 0. -1.
       1023    2    1    2    0    0  0.00000000000E+00  0.00000000000E+00  0.12043257416E+02  0.23346155216E+02  0.20000072854E+02 0.  0.
        -11    1    3    3    0    0 -0.77913512199E+01 -0.62685731222E+01  0.59938709495E+01  0.11658758598E+02  0.51100000000E-03 0.  1.
         11    1    3    3    0    0  0.77913512199E+01  0.62685731222E+01  0.60493864668E+01  0.11687396618E+02  0.51100000000E-03 0. -1.
<mgrwt>
<rscale>  0 0.20000073E+02</rscale>
<asrwt>0</asrwt>
<pdfrwt beam="2">  1        1 0.86945368E-03 0.20000073E+02</pdfrwt>
<pdfrwt beam="1">  1       -1 0.27222625E-02 0.20000073E+02</pdfrwt>
<totfact> 0.37657418E+06</totfact>
</mgrwt>
</event>
<event>
 5    1  0.9583198E-007  0.2000997E+02  0.7818608E-02  0.1745130E+00
          1   -1    0    0  501    0  0.00000000000E+00  0.00000000000E+00  0.34813988464E+01  0.34814019786E+01  0.46700000000E-02 0.  1.
         -1   -1    0    0    0  501 -0.00000000000E+00 -0.00000000000E+00 -0.28752713250E+02  0.28752713630E+02  0.46700000000E-02 0. -1.
       1023    2    1    2    0    0  0.00000000000E+00  0.00000000000E+00 -0.25271314404E+02  0.32234115608E+02  0.20009969449E+02 0.  0.
        -11    1    3    3    0    0  0.86677499399E+01 -0.49954851833E+01 -0.12832674225E+02  0.16271517730E+02  0.51100000000E-03 0.  1.
         11    1    3    3    0    0 -0.86677499399E+01  0.49954851833E+01 -0.12438640179E+02  0.15962597878E+02  0.51100000000E-03 0. -1.
<mgrwt>
<rscale>  0 0.20009969E+02</rscale>
<asrwt>0</asrwt>
<pdfrwt beam="1">  1        1 0.53560011E-03 0.20009969E+02</pdfrwt>
<pdfrwt beam="2">  1       -1 0.44234945E-02 0.20009969E+02</pdfrwt>
<totfact> 0.36554967E+06</totfact>
</mgrwt>
</event>
<event>
 4    1  0.9583198E-007  0.2001416E+02  0.7818608E-02  0.1745047E+00
          1   -1    0    0  501    0  0.00000000000E+00  0.00000000000E+00  0.16034990698E+02  0.16034991378E+02  0.46700000000E-02 0.  1.
         -1   -1    0    0    0  501 -0.00000000000E+00 -0.00000000000E+00 -0.62451933252E+01  0.62451950712E+01  0.46700000000E-02 0. -1.
        -11    1    1    2    0    0  0.10004278389E+02  0.11210257296E+00  0.51270542255E+01  0.11242101154E+02  0.51100000000E-03 0. -1.
         11    1    1    2    0    0 -0.10004278389E+02 -0.11210257296E+00  0.46627431475E+01  0.11038085295E+02  0.51100000000E-03 0.  1.
<mgrwt>
<rscale>  0 0.20014159E+02</rscale>
<asrwt>0</asrwt>
<pdfrwt beam="1">  1        1 0.24669218E-02 0.20014159E+02</pdfrwt>
<pdfrwt beam="2">  1       -1 0.96079916E-03 0.20014159E+02</pdfrwt>
<totfact> 0.39285962E+06</totfact>
</mgrwt>
</event>
<event>
 5    1  0.9583198E-007  0.2000003E+02  0.7818608E-02  0.1745327E+00
          1   -1    0    0  501    0  0.00000000000E+00  0.00000000000E+00  0.30454312799E+01  0.30454348605E+01  0.46700000000E-02 0.  1.
         -1   -1    0    0    0  501 -0.00000000000E+00 -0.00000000000E+00 -0.32836158754E+02  0.32836159086E+02  0.46700000000E-02 0. -1.
       1023    2    1    2    0    0  0.00000000000E+00  0.00000000000E+00 -0.29790727474E+02  0.35881593946E+02  0.20000033518E+02 0.  0.
        -11    1    3    3    0    0  0.29273395751E+01 -0.95619458642E+01 -0.14869413597E+02  0.17919251845E+02  0.51100000000E-03 0. -1.
         11    1    3    3    0    0 -0.29273395751E+01  0.95619458642E+01 -0.14921313877E+02  0.17962342101E+02  0.51100000000E-03 0.  1.
<mgrwt>
<rscale>  0 0.20000034E+02</rscale>
<asrwt>0</asrwt>
<pdfrwt beam="1">  1        1 0.46852821E-03 0.20000034E+02</pdfrwt>
<pdfrwt beam="2">  1       -1 0.50517168E-02 0.20000034E+02</pdfrwt>
<totfact> 0.36245785E+06</totfact>
</mgrwt>
</event>
<event>
 5    1  0.9895528E-007  0.2000079E+02  0.7818608E-02  0.1745312E+00
         -1   -1    0    0    0  501 -0.00000000000E+00  0.00000000000E+00  0.29982167964E+01  0.29982204334E+01  0.46700000000E-02 0.  1.
          1   -1    0    0  501    0  0.00000000000E+00 -0.00000000000E+00 -0.33355763442E+02  0.33355763769E+02  0.46700000000E-02 0. -1.
       1023    2    1    2    0    0  0.00000000000E+00  0.00000000000E+00 -0.30357546646E+02  0.36353984202E+02  0.20000788211E+02 0.  0.
        -11    1    3    3    0    0 -0.40745940244E+01  0.91324948694E+01 -0.15077523205E+02  0.18092442767E+02  0.51100000000E-03 0.  1.
         11    1    3    3    0    0  0.40745940244E+01 -0.91324948694E+01 -0.15280023441E+02  0.18261541436E+02  0.51100000000E-03 0. -1.
<mgrwt>
<rscale>  0 0.20000788E+02</rscale>
<asrwt>0</asrwt>
<pdfrwt beam="2">  1        1 0.51316560E-02 0.20000788E+02</pdfrwt>
<pdfrwt beam="1">  1       -1 0.46126445E-03 0.20000788E+02</pdfrwt>
<totfact> 0.40679648E+06</totfact>
</mgrwt>
</event>
<event>
 5    1  0.9849814E-007  0.2000068E+02  0.7818608E-02  0.1745314E+00
          1   -1    0    0  501    0  0.00000000000E+00  0.00000000000E+00  0.35491444384E+02  0.35491444691E+02  0.46700000000E-02 0.  1.
         -1   -1    0    0    0  501 -0.00000000000E+00 -0.00000000000E+00 -0.28177709767E+01  0.28177748466E+01  0.46700000000E-02 0. -1.
       1023    2    1    2    0    0  0.00000000000E+00  0.00000000000E+00  0.32673673408E+02  0.38309219538E+02  0.20000684180E+02 0.  0.
        -11    1    3    3    0    0  0.98267223397E+01  0.18550674103E+01  0.16273465803E+02  0.19100561158E+02  0.51100000000E-03 0. -1.
         11    1    3    3    0    0 -0.98267223397E+01 -0.18550674103E+01  0.16400207605E+02  0.19208658380E+02  0.51100000000E-03 0.  1.
<mgrwt>
<rscale>  0 0.20000684E+02</rscale>
<asrwt>0</asrwt>
<pdfrwt beam="1">  1        1 0.54602227E-02 0.20000684E+02</pdfrwt>
<pdfrwt beam="2">  1       -1 0.43350353E-03 0.20000684E+02</pdfrwt>
<totfact> 0.40820190E+06</totfact>
</mgrwt>
</event>
<event>
 5    1  0.9583198E-007  0.2000899E+02  0.7818608E-02  0.1745149E+00
         -1   -1    0    0    0  501 -0.00000000000E+00  0.00000000000E+00  0.63667767856E+01  0.63667784983E+01  0.46700000000E-02 0.  1.
          1   -1    0    0  501    0  0.00000000000E+00 -0.00000000000E+00 -0.15720650582E+02  0.15720651275E+02  0.46700000000E-02 0. -1.
       1023    2    1    2    0    0  0.00000000000E+00  0.00000000000E+00 -0.93538737960E+01  0.22087429774E+02  0.20008987956E+02 0.  0.
        -11    1    3    3    0    0  0.38203662907E+01  0.92446810524E+01 -0.44839223464E+01  0.10961974559E+02  0.51100000000E-03 0. -1.
         11    1    3    3    0    0 -0.38203662907E+01 -0.92446810524E+01 -0.48699514496E+01  0.11125455215E+02  0.51100000000E-03 0.  1.
<mgrwt>
<rscale>  0 0.20008988E+02</rscale>
<asrwt>0</asrwt>
<pdfrwt beam="2">  1        1 0.24185618E-02 0.20008988E+02</pdfrwt>
<pdfrwt beam="1">  1       -1 0.97950431E-03 0.20008988E+02</pdfrwt>
<totfact> 0.39277848E+06</totfact>
</mgrwt>
</event>
<event>
 5    1  0.9583198E-007  0.2000132E+02  0.7818608E-02  0.1745302E+00
         -1   -1    0    0    0  501 -0.00000000000E+00  0.00000000000E+00  0.89305564287E+02  0.89305564409E+02  0.46700000000E-02 0. -1.
          1   -1    0    0  501    0  0.00000000000E+00 -0.00000000000E+00 -0.11198937901E+01  0.11199035271E+01  0.46700000000E-02 0.  1.
       1023    2    1    2    0    0  0.00000000000E+00  0.00000000000E+00  0.88185670497E+02  0.90425467936E+02  0.20001319219E+02 0.  0.
        -11    1    3    3    0    0  0.34594449384E+01  0.93832387941E+01  0.44019543945E+02  0.45141258057E+02  0.51100000000E-03 0.  1.
         11    1    3    3    0    0 -0.34594449384E+01 -0.93832387941E+01  0.44166126552E+02  0.45284209880E+02  0.51100000000E-03 0. -1.
<mgrwt>
<rscale>  0 0.20001319E+02</rscale>
<asrwt>0</asrwt>
<pdfrwt beam="2">  1        1 0.17229209E-03 0.20001319E+02</pdfrwt>
<pdfrwt beam="1">  1       -1 0.13739320E-01 0.20001319E+02</pdfrwt>
<totfact> 0.32451591E+06</totfact>
</mgrwt>
</event>
<event>
 5    1  0.9583198E-007  0.2000060E+02  0.7818608E-02  0.1745316E+00
         -1   -1    0    0    0  501 -0.00000000000E+00  0.00000000000E+00  0.53617271057E+01  0.53617291394E+01  0.46700000000E-02 0. -1.
          1   -1    0    0  501    0  0.00000000000E+00 -0.00000000000E+00 -0.18651818902E+02  0.18651819486E+02  0.46700000000E-02 0.  1.
       1023    2    1    2    0    0  0.00000000000E+00  0.00000000000E+00 -0.13290091796E+02  0.24013548626E+02  0.20000599432E+02 0.  0.
        -11    1    3    3    0    0  0.73971166811E+01 -0.67296535255E+01 -0.66697214839E+01  0.12020430803E+02  0.51100000000E-03 0. -1.
         11    1    3    3    0    0 -0.73971166811E+01  0.67296535255E+01 -0.66203703121E+01  0.11993117822E+02  0.51100000000E-03 0.  1.
<mgrwt>
<rscale>  0 0.20000599E+02</rscale>
<asrwt>0</asrwt>
<pdfrwt beam="2">  1        1 0.28695108E-02 0.20000599E+02</pdfrwt>
<pdfrwt beam="1">  1       -1 0.82488131E-03 0.20000599E+02</pdfrwt>
<totfact> 0.39587703E+06</totfact>
</mgrwt>
</event>
<event>
 5    1  0.9583198E-007  0.2000850E+02  0.7818608E-02  0.1745159E+00
          1   -1    0    0  501    0  0.00000000000E+00  0.00000000000E+00  0.44026759900E+01  0.44026784668E+01  0.46700000000E-02 0.  1.
         -1   -1    0    0    0  501 -0.00000000000E+00 -0.00000000000E+00 -0.22732752247E+02  0.22732752727E+02  0.46700000000E-02 0. -1.
       1023    2    1    2    0    0  0.00000000000E+00  0.00000000000E+00 -0.18330076257E+02  0.27135431194E+02  0.20008496457E+02 0.  0.
        -11    1    3    3    0    0  0.24342961701E+01  0.96995536602E+01 -0.95434222520E+01  0.13823315362E+02  0.51100000000E-03 0. -1.
         11    1    3    3    0    0 -0.24342961701E+01 -0.96995536602E+01 -0.87866540052E+01  0.13312115832E+02  0.51100000000E-03 0.  1.
<mgrwt>
<rscale>  0 0.20008496E+02</rscale>
<asrwt>0</asrwt>
<pdfrwt beam="1">  1        1 0.67733501E-03 0.20008496E+02</pdfrwt>
<pdfrwt beam="2">  1       -1 0.34973467E-02 0.20008496E+02</pdfrwt>
<totfact> 0.37111902E+06</totfact>
</mgrwt>
</event>
<event>
 5    1  0.9684710E-007  0.2000055E+02  0.7818608E-02  0.1745317E+00
          1   -1    0    0  501    0  0.00000000000E+00  0.00000000000E+00  0.71209598773E+02  0.71209598926E+02  0.46700000000E-02 0. -1.
         -1   -1    0    0    0  501 -0.00000000000E+00 -0.00000000000E+00 -0.14043788100E+01  0.14043865746E+01  0.46700000000E-02 0.  1.
       1023    2    1    2    0    0  0.00000000000E+00  0.00000000000E+00  0.69805219963E+02  0.72613985501E+02  0.20000553898E+02 0.  0.
        -11    1    3    3    0    0 -0.95293972370E+01  0.30324584438E+01  0.34967847486E+02  0.36369706817E+02  0.51100000000E-03 0. -1.
         11    1    3    3    0    0  0.95293972370E+01 -0.30324584438E+01  0.34837372477E+02  0.36244278683E+02  0.51100000000E-03 0.  1.
<mgrwt>
<rscale>  0 0.20000554E+02</rscale>
<asrwt>0</asrwt>
<pdfrwt beam="1">  1        1 0.10955325E-01 0.20000554E+02</pdfrwt>
<pdfrwt beam="2">  1       -1 0.21605886E-03 0.20000554E+02</pdfrwt>
<totfact> 0.42895954E+06</totfact>
</mgrwt>
</event>
<event>
 5    1  0.9583198E-007  0.2000034E+02  0.7818608E-02  0.1745321E+00
          1   -1    0    0  501    0  0.00000000000E+00  0.00000000000E+00  0.71410762096E+01  0.71410777367E+01  0.46700000000E-02 0. -1.
         -1   -1    0    0    0  501 -0.00000000000E+00 -0.00000000000E+00 -0.14003970227E+02  0.14003971006E+02  0.46700000000E-02 0.  1.
       1023    2    1    2    0    0  0.00000000000E+00  0.00000000000E+00 -0.68628940175E+01  0.21145048742E+02  0.20000344298E+02 0.  0.
        -11    1    3    3    0    0 -0.37539106421E+01  0.92688508252E+01 -0.34329481575E+01  0.10573011588E+02  0.51100000000E-03 0.  1.
         11    1    3    3    0    0  0.37539106421E+01 -0.92688508252E+01 -0.34299458601E+01  0.10572037154E+02  0.51100000000E-03 0. -1.
<mgrwt>
<rscale>  0 0.20000344E+02</rscale>
<asrwt>0</asrwt>
<pdfrwt beam="1">  1        1 0.10986273E-02 0.20000344E+02</pdfrwt>
<pdfrwt beam="2">  1       -1 0.21544571E-02 0.20000344E+02</pdfrwt>
<totfact> 0.38077632E+06</totfact>
</mgrwt>
</event>
<event>
 5    1  0.9888726E-007  0.2000230E+02  0.7818608E-02  0.1745282E+00
         -1   -1    0    0    0  501 -0.00000000000E+00  0.00000000000E+00  0.30212805730E+01  0.30212841822E+01  0.46700000000E-02 0. -1.
          1   -1    0    0  501    0  0.00000000000E+00 -0.00000000000E+00 -0.33106132021E+02  0.33106132351E+02  0.46700000000E-02 0.  1.
       1023    2    1    2    0    0  0.00000000000E+00  0.00000000000E+00 -0.30084851448E+02  0.36127416533E+02  0.20002298335E+02 0.  0.
        -11    1    3    3    0    0  0.28513006973E+01  0.95850815705E+01 -0.15293216085E+02  0.18272552172E+02  0.51100000000E-03 0.  1.
         11    1    3    3    0    0 -0.28513006973E+01 -0.95850815705E+01 -0.14791635363E+02  0.17854864361E+02  0.51100000000E-03 0. -1.
<mgrwt>
<rscale>  0 0.20002298E+02</rscale>
<asrwt>0</asrwt>
<pdfrwt beam="2">  1        1 0.50932511E-02 0.20002298E+02</pdfrwt>
<pdfrwt beam="1">  1       -1 0.46481272E-03 0.20002298E+02</pdfrwt>
<totfact> 0.40656240E+06</totfact>
</mgrwt>
</event>
<event>
 4    1  0.1134591E-006  0.2037375E+02  0.7818608E-02  0.1737996E+00
          1   -1    0    0  501    0  0.00000000000E+00  0.00000000000E+00  0.88229065736E+01  0.88229078095E+01  0.46700000000E-02 0.  1.
         -1   -1    0    0    0  501 -0.00000000000E+00 -0.00000000000E+00 -0.11761702535E+02  0.11761703462E+02  0.46700000000E-02 0. -1.
        -11    1    1    2    0    0  0.99232028704E+01  0.17306261141E+01 -0.30041329420E+01  0.10511414603E+02  0.51100000000E-03 0. -1.
         11    1    1    2    0    0 -0.99232028704E+01 -0.17306261141E+01  0.65336980506E-01  0.10073196669E+02  0.51100000000E-03 0.  1.
<mgrwt>
<rscale>  0 0.20373750E+02</rscale>
<asrwt>0</asrwt>
<pdfrwt beam="1">  1        1 0.13573704E-02 0.20373750E+02</pdfrwt>
<pdfrwt beam="2">  1       -1 0.18094929E-02 0.20373750E+02</pdfrwt>
<totfact> 0.36840895E+06</totfact>
</mgrwt>
</event>
<event>
 4    1  0.9583198E-007  0.2001481E+02  0.7818608E-02  0.1745034E+00
          1   -1    0    0  501    0  0.00000000000E+00  0.00000000000E+00  0.15098998529E+01  0.15099070749E+01  0.46700000000E-02 0.  1.
         -1   -1    0    0    0  501 -0.00000000000E+00 -0.00000000000E+00 -0.66327487191E+02  0.66327487356E+02  0.46700000000E-02 0. -1.
        -11    1    1    2    0    0  0.95498242216E+01  0.29691203574E+01 -0.31171351756E+02  0.32736340494E+02  0.51100000000E-03 0.  1.
         11    1    1    2    0    0 -0.95498242216E+01 -0.29691203574E+01 -0.33646235582E+02  0.35101053937E+02  0.51100000000E-03 0. -1.
<mgrwt>
<rscale>  0 0.20014806E+02</rscale>
<asrwt>0</asrwt>
<pdfrwt beam="1">  1        1 0.23229290E-03 0.20014806E+02</pdfrwt>
<pdfrwt beam="2">  1       -1 0.10204227E-01 0.20014806E+02</pdfrwt>
<totfact> 0.33777011E+06</totfact>
</mgrwt>
</event>
<event>
 5    1  0.9583198E-007  0.2000031E+02  0.7818608E-02  0.1745322E+00
         -1   -1    0    0    0  501 -0.00000000000E+00  0.00000000000E+00  0.77228535806E+02  0.77228535947E+02  0.46700000000E-02 0.  1.
          1   -1    0    0  501    0  0.00000000000E+00 -0.00000000000E+00 -0.12948937155E+01  0.12949021366E+01  0.46700000000E-02 0. -1.
       1023    2    1    2    0    0  0.00000000000E+00  0.00000000000E+00  0.75933642091E+02  0.78523438084E+02  0.20000308182E+02 0.  0.
        -11    1    3    3    0    0  0.99472601858E+01 -0.10258911544E+01  0.37764951951E+02  0.39066507829E+02  0.51100000000E-03 0.  1.
         11    1    3    3    0    0 -0.99472601858E+01  0.10258911544E+01  0.38168690140E+02  0.39456930254E+02  0.51100000000E-03 0. -1.
<mgrwt>
<rscale>  0 0.20000308E+02</rscale>
<asrwt>0</asrwt>
<pdfrwt beam="2">  1        1 0.19921503E-03 0.20000308E+02</pdfrwt>
<pdfrwt beam="1">  1       -1 0.11881316E-01 0.20000308E+02</pdfrwt>
<totfact> 0.33157242E+06</totfact>
</mgrwt>
</event>
<event>
 5    1  0.9583198E-007  0.2000023E+02  0.7818608E-02  0.1745323E+00
          1   -1    0    0  501    0  0.00000000000E+00  0.00000000000E+00  0.12371931095E+01  0.12372019234E+01  0.46700000000E-02 0.  1.
         -1   -1    0    0    0  501 -0.00000000000E+00 -0.00000000000E+00 -0.80829726577E+02  0.80829726712E+02  0.46700000000E-02 0. -1.
       1023    2    1    2    0    0  0.00000000000E+00  0.00000000000E+00 -0.79592533468E+02  0.82066928635E+02  0.20000234795E+02 0.  0.
        -11    1    3    3    0    0  0.80617212480E+01 -0.59169990188E+01 -0.39841371865E+02  0.41077209486E+02  0.51100000000E-03 0.  1.
         11    1    3    3    0    0 -0.80617212480E+01  0.59169990188E+01 -0.39751161603E+02  0.40989719149E+02  0.51100000000E-03 0. -1.
<mgrwt>
<rscale>  0 0.20000235E+02</rscale>
<asrwt>0</asrwt>
<pdfrwt beam="1">  1        1 0.19033815E-03 0.20000235E+02</pdfrwt>
<pdfrwt beam="2">  1       -1 0.12435339E-01 0.20000235E+02</pdfrwt>
<totfact> 0.32943651E+06</totfact>
</mgrwt>
</event>
<event>
 5    1  0.9583198E-007  0.2000084E+02  0.7818608E-02  0.1745311E+00
          1   -1    0    0  501    0  0.00000000000E+00  0.00000000000E+00  0.94443977940E+00  0.94445132527E+00  0.46700000000E-02 0. -1.
         -1   -1    0    0    0  501 -0.00000000000E+00 -0.00000000000E+00 -0.10589105912E+03  0.10589105922E+03  0.46700000000E-02 0.  1.
       1023    2    1    2    0    0  0.00000000000E+00  0.00000000000E+00 -0.10494661934E+03  0.10683551055E+03  0.20000835060E+02 0.  0.
        -11    1    3    3    0    0  0.30938308570E+01 -0.95097558983E+01 -0.52295837279E+02  0.53243420660E+02  0.51100000000E-03 0.  1.
         11    1    3    3    0    0 -0.30938308570E+01  0.95097558983E+01 -0.52650782060E+02  0.53592089887E+02  0.51100000000E-03 0. -1.
<mgrwt>
<rscale>  0 0.20000835E+02</rscale>
<asrwt>0</asrwt>
<pdfrwt beam="1">  1        1 0.14529941E-03 0.20000835E+02</pdfrwt>
<pdfrwt beam="2">  1       -1 0.16290924E-01 0.20000835E+02</pdfrwt>
<totfact> 0.31552385E+06</totfact>
</mgrwt>
</event>
<event>
 5    1  0.9773890E-007  0.2000072E+02  0.7818608E-02  0.1745314E+00
         -1   -1    0    0    0  501 -0.00000000000E+00  0.00000000000E+00  0.69108319665E+01  0.69108335443E+01  0.46700000000E-02 0.  1.
          1   -1    0    0  501    0  0.00000000000E+00 -0.00000000000E+00 -0.14471078960E+02  0.14471079714E+02  0.46700000000E-02 0. -1.
       1023    2    1    2    0    0  0.00000000000E+00  0.00000000000E+00 -0.75602469940E+01  0.21381913258E+02  0.20000721986E+02 0.  0.
        -11    1    3    3    0    0  0.37110463294E+01 -0.92862012466E+01 -0.38257470857E+01  0.10707088282E+02  0.51100000000E-03 0. -1.
         11    1    3    3    0    0 -0.37110463294E+01  0.92862012466E+01 -0.37344999083E+01  0.10674824976E+02  0.51100000000E-03 0.  1.
<mgrwt>
<rscale>  0 0.20000722E+02</rscale>
<asrwt>0</asrwt>
<pdfrwt beam="2">  1        1 0.22263200E-02 0.20000722E+02</pdfrwt>
<pdfrwt beam="1">  1       -1 0.10632051E-02 0.20000722E+02</pdfrwt>
<totfact> 0.39186099E+06</totfact>
</mgrwt>
</event>
<event>
 4    1  0.9583198E-007  0.2026613E+02  0.7818608E-02  0.1740087E+00
          1   -1    0    0  501    0  0.00000000000E+00  0.00000000000E+00  0.11037587530E+03  0.11037587540E+03  0.46700000000E-02 0.  1.
         -1   -1    0    0    0  501 -0.00000000000E+00 -0.00000000000E+00 -0.93026056897E+00  0.93027229083E+00  0.46700000000E-02 0. -1.
        -11    1    1    2    0    0  0.80744244765E+01  0.61012469185E+01  0.51936145074E+02  0.52912991883E+02  0.51100000000E-03 0. -1.
         11    1    1    2    0    0 -0.80744244765E+01 -0.61012469185E+01  0.57509469661E+02  0.58393155811E+02  0.51100000000E-03 0.  1.
<mgrwt>
<rscale>  0 0.20266128E+02</rscale>
<asrwt>0</asrwt>
<pdfrwt beam="1">  1        1 0.16980893E-01 0.20266128E+02</pdfrwt>
<pdfrwt beam="2">  1       -1 0.14311802E-03 0.20266128E+02</pdfrwt>
<totfact> 0.43566064E+06</totfact>
</mgrwt>
</event>
<event>
 5    1  0.9583198E-007  0.2000040E+02  0.7818608E-02  0.1745320E+00
         -1   -1    0    0    0  501 -0.00000000000E+00  0.00000000000E+00  0.32884273477E+02  0.32884273808E+02  0.46700000000E-02 0.  1.
          1   -1    0    0  501    0  0.00000000000E+00 -0.00000000000E+00 -0.30410860893E+01  0.30410896750E+01  0.46700000000E-02 0. -1.
       1023    2    1    2    0    0  0.00000000000E+00  0.00000000000E+00  0.29843187388E+02  0.35925363483E+02  0.20000397695E+02 0.  0.
        -11    1    3    3    0    0 -0.53943735158E+01 -0.84203497554E+01  0.15009976692E+02  0.18036101468E+02  0.51100000000E-03 0.  1.
         11    1    3    3    0    0  0.53943735158E+01  0.84203497554E+01  0.14833210696E+02  0.17889262015E+02  0.51100000000E-03 0. -1.
<mgrwt>
<rscale>  0 0.20000398E+02</rscale>
<asrwt>0</asrwt>
<pdfrwt beam="2">  1        1 0.46785971E-03 0.20000398E+02</pdfrwt>
<pdfrwt beam="1">  1       -1 0.50591192E-02 0.20000398E+02</pdfrwt>
<totfact> 0.36240322E+06</totfact>
</mgrwt>
</event>
<event>
 5    1  0.1039591E-006  0.2000132E+02  0.7818608E-02  0.1745302E+00
          1   -1    0    0  501    0  0.00000000000E+00  0.00000000000E+00  0.10507180152E+03  0.10507180162E+03  0.46700000000E-02 0.  1.
         -1   -1    0    0    0  501 -0.00000000000E+00 -0.00000000000E+00 -0.95185037205E+00  0.95186182804E+00  0.46700000000E-02 0. -1.
       1023    2    1    2    0    0  0.00000000000E+00  0.00000000000E+00  0.10411995115E+03  0.10602366345E+03  0.20001324573E+02 0.  0.
        -11    1    3    3    0    0 -0.94338994810E+01  0.33169641396E+01  0.51466486169E+02  0.52428998745E+02  0.51100000000E-03 0. -1.
         11    1    3    3    0    0  0.94338994810E+01 -0.33169641396E+01  0.52653464978E+02  0.53594664706E+02  0.51100000000E-03 0.  1.
<mgrwt>
<rscale>  0 0.20001325E+02</rscale>
<asrwt>0</asrwt>
<pdfrwt beam="1">  1        1 0.16164899E-01 0.20001325E+02</pdfrwt>
<pdfrwt beam="2">  1       -1 0.14643936E-03 0.20001325E+02</pdfrwt>
<totfact> 0.44598086E+06</totfact>
</mgrwt>
</event>
<event>
 5    1  0.9583198E-007  0.2000531E+02  0.7818608E-02  0.1745223E+00
          1   -1    0    0  501    0  0.00000000000E+00  0.00000000000E+00  0.90479952110E+02  0.90479952231E+02  0.46700000000E-02 0. -1.
         -1   -1    0    0    0  501 -0.00000000000E+00 -0.00000000000E+00 -0.11057988318E+01  0.11058086929E+01  0.46700000000E-02 0.  1.
       1023    2    1    2    0    0  0.00000000000E+00  0.00000000000E+00  0.89374153278E+02  0.91585760924E+02  0.20005307539E+02 0.  0.
        -11    1    3    3    0    0  0.96953604940E+01  0.24597435425E+01  0.44447928931E+02  0.45559507679E+02  0.51100000000E-03 0.  1.
         11    1    3    3    0    0 -0.96953604940E+01 -0.24597435425E+01  0.44926224347E+02  0.46026253245E+02  0.51100000000E-03 0. -1.
<mgrwt>
<rscale>  0 0.20005308E+02</rscale>
<asrwt>0</asrwt>
<pdfrwt beam="1">  1        1 0.13919995E-01 0.20005308E+02</pdfrwt>
<pdfrwt beam="2">  1       -1 0.17012364E-03 0.20005308E+02</pdfrwt>
<totfact> 0.43866150E+06</totfact>
</mgrwt>
</event>
<event>
 5    1  0.9583198E-007  0.2000201E+02  0.7818608E-02  0.1745288E+00
          1   -1    0    0  501    0  0.00000000000E+00  0.00000000000E+00  0.20398924543E+01  0.20398977999E+01  0.46700000000E-02 0. -1.
         -1   -1    0    0    0  501 -0.00000000000E+00 -0.00000000000E+00 -0.49032000609E+02  0.49032000831E+02  0.46700000000E-02 0.  1.
       1023    2    1    2    0    0  0.00000000000E+00  0.00000000000E+00 -0.46992108154E+02  0.51071898631E+02  0.20002014923E+02 0.  0.
        -11    1    3    3    0    0  0.27075416646E+01 -0.96268931443E+01 -0.23779192716E+02  0.25796469913E+02  0.51100000000E-03 0. -1.
         11    1    3    3    0    0 -0.27075416646E+01  0.96268931443E+01 -0.23212915439E+02  0.25275428718E+02  0.51100000000E-03 0.  1.
<mgrwt>
<rscale>  0 0.20002015E+02</rscale>
<asrwt>0</asrwt>
<pdfrwt beam="1">  1        1 0.31383007E-03 0.20002015E+02</pdfrwt>
<pdfrwt beam="2">  1       -1 0.75433843E-02 0.20002015E+02</pdfrwt>
<totfact> 0.34991003E+06</totfact>
</mgrwt>
</event>
<event>
 5    1  0.9583198E-007  0.2000042E+02  0.7818608E-02  0.1745320E+00
          1   -1    0    0  501    0  0.00000000000E+00  0.00000000000E+00  0.37405168822E+01  0.37405197974E+01  0.46700000000E-02 0. -1.
         -1   -1    0    0    0  501 -0.00000000000E+00 -0.00000000000E+00 -0.26735382335E+02  0.26735382742E+02  0.46700000000E-02 0.  1.
       1023    2    1    2    0    0  0.00000000000E+00  0.00000000000E+00 -0.22994865452E+02  0.30475902540E+02  0.20000419957E+02 0.  0.
        -11    1    3    3    0    0 -0.65806255150E+01  0.75299045256E+01 -0.11481817491E+02  0.15226169167E+02  0.51100000000E-03 0.  1.
         11    1    3    3    0    0  0.65806255150E+01 -0.75299045256E+01 -0.11513047961E+02  0.15249733373E+02  0.51100000000E-03 0. -1.
<mgrwt>
<rscale>  0 0.20000420E+02</rscale>
<asrwt>0</asrwt>
<pdfrwt beam="1">  1        1 0.57546441E-03 0.20000420E+02</pdfrwt>
<pdfrwt beam="2">  1       -1 0.41131359E-02 0.20000420E+02</pdfrwt>
<totfact> 0.36772712E+06</totfact>
</mgrwt>
</event>
<event>
 5    1  0.9583198E-007  0.2000094E+02  0.7818608E-02  0.1745309E+00
         -1   -1    0    0    0  501 -0.00000000000E+00  0.00000000000E+00  0.10671868001E+03  0.10671868011E+03  0.46700000000E-02 0.  1.
          1   -1    0    0  501    0  0.00000000000E+00 -0.00000000000E+00 -0.93712508034E+00  0.93713671633E+00  0.46700000000E-02 0. -1.
       1023    2    1    2    0    0  0.00000000000E+00  0.00000000000E+00  0.10578155493E+03  0.10765581683E+03  0.20000938320E+02 0.  0.
        -11    1    3    3    0    0 -0.97702989541E+01 -0.21328787208E+01  0.52684417265E+02  0.53625140896E+02  0.51100000000E-03 0. -1.
         11    1    3    3    0    0  0.97702989541E+01  0.21328787208E+01  0.53097137662E+02  0.54030675930E+02  0.51100000000E-03 0.  1.
<mgrwt>
<rscale>  0 0.20000938E+02</rscale>
<asrwt>0</asrwt>
<pdfrwt beam="2">  1        1 0.14417402E-03 0.20000938E+02</pdfrwt>
<pdfrwt beam="1">  1       -1 0.16418256E-01 0.20000938E+02</pdfrwt>
<totfact> 0.31508709E+06</totfact>
</mgrwt>
</event>
<event>
 5    1  0.9597141E-007  0.2000062E+02  0.7818608E-02  0.1745316E+00
          1   -1    0    0  501    0  0.00000000000E+00  0.00000000000E+00  0.25365594607E+02  0.25365595037E+02  0.46700000000E-02 0.  1.
         -1   -1    0    0    0  501 -0.00000000000E+00 -0.00000000000E+00 -0.39425888042E+01  0.39425915700E+01  0.46700000000E-02 0. -1.
       1023    2    1    2    0    0  0.00000000000E+00  0.00000000000E+00  0.21423005803E+02  0.29308186607E+02  0.20000615604E+02 0.  0.
        -11    1    3    3    0    0 -0.54404463484E+01 -0.83907782492E+01  0.10785351725E+02  0.14708073571E+02  0.51100000000E-03 0. -1.
         11    1    3    3    0    0  0.54404463484E+01  0.83907782492E+01  0.10637654078E+02  0.14600113035E+02  0.51100000000E-03 0.  1.
<mgrwt>
<rscale>  0 0.20000616E+02</rscale>
<asrwt>0</asrwt>
<pdfrwt beam="1">  1        1 0.39023992E-02 0.20000616E+02</pdfrwt>
<pdfrwt beam="2">  1       -1 0.60655240E-03 0.20000616E+02</pdfrwt>
<totfact> 0.40123714E+06</totfact>
</mgrwt>
</event>
<event>
 5    1  0.9583198E-007  0.2000195E+02  0.7818608E-02  0.1745289E+00
          1   -1    0    0  501    0  0.00000000000E+00  0.00000000000E+00  0.22411889604E+01  0.22411938259E+01  0.46700000000E-02 0. -1.
         -1   -1    0    0    0  501 -0.00000000000E+00 -0.00000000000E+00 -0.44627836071E+02  0.44627836315E+02  0.46700000000E-02 0.  1.
       1023    2    1    2    0    0  0.00000000000E+00  0.00000000000E+00 -0.42386647110E+02  0.46869030141E+02  0.20001953232E+02 0.  0.
        -11    1    3    3    0    0 -0.92685969536E+01  0.37565539299E+01 -0.21265398037E+02  0.23499696612E+02  0.51100000000E-03 0. -1.
         11    1    3    3    0    0  0.92685969536E+01 -0.37565539299E+01 -0.21121249073E+02  0.23369333529E+02  0.51100000000E-03 0.  1.
<mgrwt>
<rscale>  0 0.20001953E+02</rscale>
<asrwt>0</asrwt>
<pdfrwt beam="1">  1        1 0.34479873E-03 0.20001953E+02</pdfrwt>
<pdfrwt beam="2">  1       -1 0.68658207E-02 0.20001953E+02</pdfrwt>
<totfact> 0.35312573E+06</totfact>
</mgrwt>
</event>
<event>
 5    1  0.1041223E-006  0.2000215E+02  0.7818608E-02  0.1745285E+00
          1   -1    0    0  501    0  0.00000000000E+00  0.00000000000E+00  0.95642329008E+02  0.95642329122E+02  0.46700000000E-02 0. -1.
         -1   -1    0    0    0  501 -0.00000000000E+00 -0.00000000000E+00 -0.10457812746E+01  0.10457917016E+01  0.46700000000E-02 0.  1.
       1023    2    1    2    0    0  0.00000000000E+00  0.00000000000E+00  0.94596547733E+02  0.96688120823E+02  0.20002146518E+02 0.  0.
        -11    1    3    3    0    0 -0.16815551078E+01 -0.98577787046E+01  0.46649064619E+02  0.47708894963E+02  0.51100000000E-03 0.  1.
         11    1    3    3    0    0  0.16815551078E+01  0.98577787046E+01  0.47947483114E+02  0.48979225860E+02  0.51100000000E-03 0. -1.
<mgrwt>
<rscale>  0 0.20002147E+02</rscale>
<asrwt>0</asrwt>
<pdfrwt beam="1">  1        1 0.14714208E-01 0.20002147E+02</pdfrwt>
<pdfrwt beam="2">  1       -1 0.16089020E-03 0.20002147E+02</pdfrwt>
<totfact> 0.44137385E+06</totfact>
</mgrwt>
</event>
<event>
 5    1  0.9583198E-007  0.2000270E+02  0.7818608E-02  0.1745274E+00
         -1   -1    0    0    0  501 -0.00000000000E+00  0.00000000000E+00  0.16236821181E+02  0.16236821853E+02  0.46700000000E-02 0.  1.
          1   -1    0    0  501    0  0.00000000000E+00 -0.00000000000E+00 -0.61605008182E+01  0.61605025882E+01  0.46700000000E-02 0. -1.
       1023    2    1    2    0    0  0.00000000000E+00  0.00000000000E+00  0.10076320363E+02  0.22397324441E+02  0.20002697570E+02 0.  0.
        -11    1    3    3    0    0  0.87236046168E+01 -0.48911544168E+01  0.49843647288E+01  0.11174460213E+02  0.51100000000E-03 0. -1.
         11    1    3    3    0    0 -0.87236046168E+01  0.48911544168E+01  0.50919556342E+01  0.11222864228E+02  0.51100000000E-03 0.  1.
<mgrwt>
<rscale>  0 0.20002698E+02</rscale>
<asrwt>0</asrwt>
<pdfrwt beam="2">  1        1 0.94776955E-03 0.20002698E+02</pdfrwt>
<pdfrwt beam="1">  1       -1 0.24979727E-02 0.20002698E+02</pdfrwt>
<totfact> 0.37806732E+06</totfact>
</mgrwt>
</event>
<event>
 5    1  0.9583198E-007  0.2000031E+02  0.7818608E-02  0.1745322E+00
         -1   -1    0    0    0  501 -0.00000000000E+00  0.00000000000E+00  0.44392225691E+01  0.44392250255E+01  0.46700000000E-02 0.  1.
          1   -1    0    0  501    0  0.00000000000E+00 -0.00000000000E+00 -0.22527163204E+02  0.22527163688E+02  0.46700000000E-02 0. -1.
       1023    2    1    2    0    0  0.00000000000E+00  0.00000000000E+00 -0.18087940635E+02  0.26966388714E+02  0.20000313094E+02 0.  0.
        -11    1    3    3    0    0 -0.25432023491E+01  0.96713001106E+01 -0.89971340526E+01  0.13451778523E+02  0.51100000000E-03 0. -1.
         11    1    3    3    0    0  0.25432023491E+01 -0.96713001106E+01 -0.90908065825E+01  0.13514610190E+02  0.51100000000E-03 0.  1.
<mgrwt>
<rscale>  0 0.20000313E+02</rscale>
<asrwt>0</asrwt>
<pdfrwt beam="2">  1        1 0.34657176E-02 0.20000313E+02</pdfrwt>
<pdfrwt beam="1">  1       -1 0.68295756E-03 0.20000313E+02</pdfrwt>
<totfact> 0.39909115E+06</totfact>
</mgrwt>
</event>
<event>
 5    1  0.9896909E-007  0.2000100E+02  0.7818608E-02  0.1745308E+00
          1   -1    0    0  501    0  0.00000000000E+00  0.00000000000E+00  0.38725027810E+02  0.38725028092E+02  0.46700000000E-02 0. -1.
         -1   -1    0    0    0  501 -0.00000000000E+00 -0.00000000000E+00 -0.25825652987E+01  0.25825695210E+01  0.46700000000E-02 0.  1.
       1023    2    1    2    0    0  0.00000000000E+00  0.00000000000E+00  0.36142462512E+02  0.41307597613E+02  0.20001000579E+02 0.  0.
        -11    1    3    3    0    0 -0.74327890539E+01  0.66905196001E+01  0.18121825763E+02  0.20698066936E+02  0.51100000000E-03 0. -1.
         11    1    3    3    0    0  0.74327890539E+01 -0.66905196001E+01  0.18020636749E+02  0.20609530677E+02  0.51100000000E-03 0.  1.
<mgrwt>
<rscale>  0 0.20001001E+02</rscale>
<asrwt>0</asrwt>
<pdfrwt beam="1">  1        1 0.59576965E-02 0.20001001E+02</pdfrwt>
<pdfrwt beam="2">  1       -1 0.39731811E-03 0.20001001E+02</pdfrwt>
<totfact> 0.41025709E+06</totfact>
</mgrwt>
</event>
<event>
 5    1  0.9583198E-007  0.2000036E+02  0.7818608E-02  0.1745321E+00
          1   -1    0    0  501    0  0.00000000000E+00  0.00000000000E+00  0.65642983632E+02  0.65642983798E+02  0.46700000000E-02 0.  1.
         -1   -1    0    0    0  501 -0.00000000000E+00 -0.00000000000E+00 -0.15234436117E+01  0.15234507694E+01  0.46700000000E-02 0. -1.
       1023    2    1    2    0    0  0.00000000000E+00  0.00000000000E+00  0.64119540021E+02  0.67166434568E+02  0.20000362999E+02 0.  0.
        -11    1    3    3    0    0  0.16041065499E+01  0.98706712709E+01  0.31999639281E+02  0.33525814286E+02  0.51100000000E-03 0.  1.
         11    1    3    3    0    0 -0.16041065499E+01 -0.98706712709E+01  0.32119900740E+02  0.33640620282E+02  0.51100000000E-03 0. -1.
<mgrwt>
<rscale>  0 0.20000363E+02</rscale>
<asrwt>0</asrwt>
<pdfrwt beam="1">  1        1 0.10098919E-01 0.20000363E+02</pdfrwt>
<pdfrwt beam="2">  1       -1 0.23437655E-03 0.20000363E+02</pdfrwt>
<totfact> 0.42596513E+06</totfact>
</mgrwt>
</event>
<event>
 5    1  0.9583198E-007  0.2000201E+02  0.7818608E-02  0.1745288E+00
         -1   -1    0    0    0  501 -0.00000000000E+00  0.00000000000E+00  0.32397494514E+01  0.32397528172E+01  0.46700000000E-02 0.  1.
          1   -1    0    0  501    0  0.00000000000E+00 -0.00000000000E+00 -0.30872756537E+02  0.30872756890E+02  0.46700000000E-02 0. -1.
       1023    2    1    2    0    0  0.00000000000E+00  0.00000000000E+00 -0.27633007086E+02  0.34112509707E+02  0.20002005848E+02 0.  0.
        -11    1    3    3    0    0 -0.54213846689E+01 -0.84037437724E+01 -0.13945692178E+02  0.17160904746E+02  0.51100000000E-03 0. -1.
         11    1    3    3    0    0  0.54213846689E+01  0.84037437724E+01 -0.13687314908E+02  0.16951604961E+02  0.51100000000E-03 0.  1.
<mgrwt>
<rscale>  0 0.20002006E+02</rscale>
<asrwt>0</asrwt>
<pdfrwt beam="2">  1        1 0.47496549E-02 0.20002006E+02</pdfrwt>
<pdfrwt beam="1">  1       -1 0.49842330E-03 0.20002006E+02</pdfrwt>
<totfact> 0.40507393E+06</totfact>
</mgrwt>
</event>
<event>
 5    1  0.9583198E-007  0.2000231E+02  0.7818608E-02  0.1745282E+00
          1   -1    0    0  501    0  0.00000000000E+00  0.00000000000E+00  0.18777080022E+01  0.18777138095E+01  0.46700000000E-02 0.  1.
         -1   -1    0    0    0  501 -0.00000000000E+00 -0.00000000000E+00 -0.53268612061E+02  0.53268612266E+02  0.46700000000E-02 0. -1.
       1023    2    1    2    0    0  0.00000000000E+00  0.00000000000E+00 -0.51390904059E+02  0.55146326075E+02  0.20002306357E+02 0.  0.
        -11    1    3    3    0    0 -0.96663956378E+01 -0.25658935562E+01 -0.25715000014E+02  0.27591379820E+02  0.51100000000E-03 0. -1.
         11    1    3    3    0    0  0.96663956378E+01  0.25658935562E+01 -0.25675904044E+02  0.27554946255E+02  0.51100000000E-03 0.  1.
<mgrwt>
<rscale>  0 0.20002306E+02</rscale>
<asrwt>0</asrwt>
<pdfrwt beam="1">  1        1 0.28887866E-03 0.20002306E+02</pdfrwt>
<pdfrwt beam="2">  1       -1 0.81951704E-02 0.20002306E+02</pdfrwt>
<totfact> 0.34691050E+06</totfact>
</mgrwt>
</event>
<event>
 5    1  0.1010304E-006  0.2000162E+02  0.7818608E-02  0.1745296E+00
          1   -1    0    0  501    0  0.00000000000E+00  0.00000000000E+00  0.18652831297E+02  0.18652831882E+02  0.46700000000E-02 0.  1.
         -1   -1    0    0    0  501 -0.00000000000E+00 -0.00000000000E+00 -0.53619848280E+01  0.53619868617E+01  0.46700000000E-02 0. -1.
       1023    2    1    2    0    0  0.00000000000E+00  0.00000000000E+00  0.13290846469E+02  0.24014818743E+02  0.20001622919E+02 0.  0.
        -11    1    3    3    0    0  0.79938432634E+01  0.60083441236E+01  0.67900016741E+01  0.12087425376E+02  0.51100000000E-03 0.  1.
         11    1    3    3    0    0 -0.79938432634E+01 -0.60083441236E+01  0.65008447949E+01  0.11927393367E+02  0.51100000000E-03 0. -1.
<mgrwt>
<rscale>  0 0.20001623E+02</rscale>
<asrwt>0</asrwt>
<pdfrwt beam="1">  1        1 0.28696665E-02 0.20001623E+02</pdfrwt>
<pdfrwt beam="2">  1       -1 0.82492095E-03 0.20001623E+02</pdfrwt>
<totfact> 0.39583245E+06</totfact>
</mgrwt>
</event>
<event>
 5    1  0.9919931E-007  0.2000222E+02  0.7818608E-02  0.1745284E+00
          1   -1    0    0  501    0  0.00000000000E+00  0.00000000000E+00  0.19537672598E+02  0.19537673156E+02  0.46700000000E-02 0. -1.
         -1   -1    0    0    0  501 -0.00000000000E+00 -0.00000000000E+00 -0.51194491812E+01  0.51194513112E+01  0.46700000000E-02 0.  1.
       1023    2    1    2    0    0  0.00000000000E+00  0.00000000000E+00  0.14418223416E+02  0.24657124467E+02  0.20002215390E+02 0.  0.
        -11    1    3    3    0    0 -0.26203050141E+01 -0.96516807539E+01  0.72520825597E+01  0.12353689386E+02  0.51100000000E-03 0.  1.
         11    1    3    3    0    0  0.26203050141E+01  0.96516807539E+01  0.71661408566E+01  0.12303435080E+02  0.51100000000E-03 0. -1.
<mgrwt>
<rscale>  0 0.20002215E+02</rscale>
<asrwt>0</asrwt>
<pdfrwt beam="1">  1        1 0.30057959E-02 0.20002215E+02</pdfrwt>
<pdfrwt beam="2">  1       -1 0.78760779E-03 0.20002215E+02</pdfrwt>
<totfact> 0.39657011E+06</totfact>
</mgrwt>
</event>
<event>
 5    1  0.9583198E-007  0.2000009E+02  0.7818608E-02  0.1745326E+00
         -1   -1    0    0    0  501 -0.00000000000E+00  0.00000000000E+00  0.52441305904E+02  0.52441306112E+02  0.46700000000E-02 0. -1.
          1   -1    0    0  501    0  0.00000000000E+00 -0.00000000000E+00 -0.19069071760E+01  0.19069128944E+01  0.46700000000E-02 0.  1.
       1023    2    1    2    0    0  0.00000000000E+00  0.00000000000E+00  0.50534398728E+02  0.54348219006E+02  0.20000086359E+02 0.  0.
        -11    1    3    3    0    0 -0.66672427532E+01  0.74531025348E+01  0.25266996594E+02  0.27173920962E+02  0.51100000000E-03 0. -1.
         11    1    3    3    0    0  0.66672427532E+01 -0.74531025348E+01  0.25267402133E+02  0.27174298043E+02  0.51100000000E-03 0.  1.
<mgrwt>
<rscale>  0 0.20000086E+02</rscale>
<asrwt>0</asrwt>
<pdfrwt beam="2">  1        1 0.29337083E-03 0.20000086E+02</pdfrwt>
<pdfrwt beam="1">  1       -1 0.80678926E-02 0.20000086E+02</pdfrwt>
<totfact> 0.34757140E+06</totfact>
</mgrwt>
</event>
<event>
 5    1  0.9583198E-007  0.2000360E+02  0.7818608E-02  0.1745256E+00
          1   -1    0    0  501    0  0.00000000000E+00  0.00000000000E+00  0.86788896092E+02  0.86788896217E+02  0.46700000000E-02 0. -1.
         -1   -1    0    0    0  501 -0.00000000000E+00 -0.00000000000E+00 -0.11526316145E+01  0.11526410750E+01  0.46700000000E-02 0.  1.
       1023    2    1    2    0    0  0.00000000000E+00  0.00000000000E+00  0.85636264477E+02  0.87941537292E+02  0.20003604369E+02 0.  0.
        -11    1    3    3    0    0  0.90817660621E+01  0.41889533920E+01  0.43263034199E+02  0.44404008082E+02  0.51100000000E-03 0. -1.
         11    1    3    3    0    0 -0.90817660621E+01 -0.41889533920E+01  0.42373230278E+02  0.43537529211E+02  0.51100000000E-03 0.  1.
<mgrwt>
<rscale>  0 0.20003604E+02</rscale>
<asrwt>0</asrwt>
<pdfrwt beam="1">  1        1 0.13352135E-01 0.20003604E+02</pdfrwt>
<pdfrwt beam="2">  1       -1 0.17732872E-03 0.20003604E+02</pdfrwt>
<totfact> 0.43688811E+06</totfact>
</mgrwt>
</event>
<event>
 5    1  0.9583198E-007  0.2000295E+02  0.7818608E-02  0.1745269E+00
          1   -1    0    0  501    0  0.00000000000E+00  0.00000000000E+00  0.76741677719E+02  0.76741677862E+02  0.46700000000E-02 0. -1.
         -1   -1    0    0    0  501 -0.00000000000E+00 -0.00000000000E+00 -0.13034533772E+01  0.13034617430E+01  0.46700000000E-02 0.  1.
       1023    2    1    2    0    0  0.00000000000E+00  0.00000000000E+00  0.75438224342E+02  0.78045139605E+02  0.20002952881E+02 0.  0.
        -11    1    3    3    0    0  0.48478013699E+01  0.87466164388E+01  0.38336681617E+02  0.39619510786E+02  0.51100000000E-03 0. -1.
         11    1    3    3    0    0 -0.48478013699E+01 -0.87466164388E+01  0.37101542726E+02  0.38425628819E+02  0.51100000000E-03 0.  1.
<mgrwt>
<rscale>  0 0.20002953E+02</rscale>
<asrwt>0</asrwt>
<pdfrwt beam="1">  1        1 0.11806412E-01 0.20002953E+02</pdfrwt>
<pdfrwt beam="2">  1       -1 0.20053196E-03 0.20002953E+02</pdfrwt>
<totfact> 0.43176204E+06</totfact>
</mgrwt>
</event>
<event>
 4    1  0.9583198E-007  0.2002129E+02  0.7818608E-02  0.1744905E+00
          1   -1    0    0  501    0  0.00000000000E+00  0.00000000000E+00  0.11375003045E+01  0.11375098908E+01  0.46700000000E-02 0. -1.
         -1   -1    0    0    0  501 -0.00000000000E+00 -0.00000000000E+00 -0.88098916727E+02  0.88098916851E+02  0.46700000000E-02 0.  1.
        -11    1    1    2    0    0 -0.76011355297E+01 -0.65141535437E+01 -0.43306947601E+02  0.44448882646E+02  0.51100000000E-03 0.  1.
         11    1    1    2    0    0  0.76011355297E+01  0.65141535437E+01 -0.43654468822E+02  0.44787544096E+02  0.51100000000E-03 0. -1.
<mgrwt>
<rscale>  0 0.20021286E+02</rscale>
<asrwt>0</asrwt>
<pdfrwt beam="1">  1        1 0.17500086E-03 0.20021286E+02</pdfrwt>
<pdfrwt beam="2">  1       -1 0.13553675E-01 0.20021286E+02</pdfrwt>
<totfact> 0.32448804E+06</totfact>
</mgrwt>
</event>
<event>
 5    1  0.9895735E-007  0.2000139E+02  0.7818608E-02  0.1745300E+00
          1   -1    0    0  501    0  0.00000000000E+00  0.00000000000E+00  0.21821211624E+02  0.21821212123E+02  0.46700000000E-02 0.  1.
         -1   -1    0    0    0  501 -0.00000000000E+00 -0.00000000000E+00 -0.45833312394E+01  0.45833336186E+01  0.46700000000E-02 0. -1.
       1023    2    1    2    0    0  0.00000000000E+00  0.00000000000E+00  0.17237880384E+02  0.26404545742E+02  0.20001387844E+02 0.  0.
        -11    1    3    3    0    0  0.36712774593E+01  0.93021232146E+01  0.85157989712E+01  0.13134938403E+02  0.51100000000E-03 0.  1.
         11    1    3    3    0    0 -0.36712774593E+01 -0.93021232146E+01  0.87220814131E+01  0.13269607339E+02  0.51100000000E-03 0. -1.
<mgrwt>
<rscale>  0 0.20001388E+02</rscale>
<asrwt>0</asrwt>
<pdfrwt beam="1">  1        1 0.33571097E-02 0.20001388E+02</pdfrwt>
<pdfrwt beam="2">  1       -1 0.70512811E-03 0.20001388E+02</pdfrwt>
<totfact> 0.39848510E+06</totfact>
</mgrwt>
</event>
<event>
 5    1  0.9583198E-007  0.2000071E+02  0.7818608E-02  0.1745314E+00
         -1   -1    0    0    0  501 -0.00000000000E+00  0.00000000000E+00  0.89029031375E+00  0.89030256186E+00  0.46700000000E-02 0.  1.
          1   -1    0    0  501    0  0.00000000000E+00 -0.00000000000E+00 -0.11233005680E+03  0.11233005690E+03  0.46700000000E-02 0. -1.
       1023    2    1    2    0    0  0.00000000000E+00  0.00000000000E+00 -0.11143976649E+03  0.11322035946E+03  0.20000706025E+02 0.  0.
        -11    1    3    3    0    0  0.95058180435E+01 -0.31058784898E+01 -0.55728363728E+02  0.56618526844E+02  0.51100000000E-03 0.  1.
         11    1    3    3    0    0 -0.95058180435E+01  0.31058784898E+01 -0.55711402757E+02  0.56601832615E+02  0.51100000000E-03 0. -1.
<mgrwt>
<rscale>  0 0.20000706E+02</rscale>
<asrwt>0</asrwt>
<pdfrwt beam="2">  1        1 0.17281537E-01 0.20000706E+02</pdfrwt>
<pdfrwt beam="1">  1       -1 0.13696878E-03 0.20000706E+02</pdfrwt>
<totfact> 0.44943135E+06</totfact>
</mgrwt>
</event>
<event>
 5    1  0.9583198E-007  0.2000848E+02  0.7818608E-02  0.1745160E+00
          1   -1    0    0  501    0  0.00000000000E+00  0.00000000000E+00  0.26014172190E+01  0.26014214107E+01  0.46700000000E-02 0. -1.
         -1   -1    0    0    0  501 -0.00000000000E+00 -0.00000000000E+00 -0.38473142090E+02  0.38473142373E+02  0.46700000000E-02 0.  1.
       1023    2    1    2    0    0  0.00000000000E+00  0.00000000000E+00 -0.35871724871E+02  0.41074563784E+02  0.20008476824E+02 0.  0.
        -11    1    3    3    0    0  0.99299153375E+01 -0.11965984042E+01 -0.17478118366E+02  0.20137519416E+02  0.51100000000E-03 0. -1.
         11    1    3    3    0    0 -0.99299153375E+01  0.11965984042E+01 -0.18393606505E+02  0.20937044368E+02  0.51100000000E-03 0.  1.
<mgrwt>
<rscale>  0 0.20008477E+02</rscale>
<asrwt>0</asrwt>
<pdfrwt beam="1">  1        1 0.40021841E-03 0.20008477E+02</pdfrwt>
<pdfrwt beam="2">  1       -1 0.59189449E-02 0.20008477E+02</pdfrwt>
<totfact> 0.35756819E+06</totfact>
</mgrwt>
</event>
<event>
 4    1  0.9583198E-007  0.2017541E+02  0.7818608E-02  0.1741862E+00
          1   -1    0    0  501    0  0.00000000000E+00  0.00000000000E+00  0.28181394309E+01  0.28181433003E+01  0.46700000000E-02 0. -1.
         -1   -1    0    0    0  501 -0.00000000000E+00 -0.00000000000E+00 -0.36109528628E+02  0.36109528930E+02  0.46700000000E-02 0.  1.
        -11    1    1    2    0    0  0.71469982612E+01 -0.71105954568E+01 -0.15972825522E+02  0.18888390808E+02  0.51100000000E-03 0. -1.
         11    1    1    2    0    0 -0.71469982612E+01  0.71105954568E+01 -0.17318563675E+02  0.20039281422E+02  0.51100000000E-03 0.  1.
<mgrwt>
<rscale>  0 0.20175408E+02</rscale>
<asrwt>0</asrwt>
<pdfrwt beam="1">  1        1 0.43356026E-03 0.20175408E+02</pdfrwt>
<pdfrwt beam="2">  1       -1 0.55553121E-02 0.20175408E+02</pdfrwt>
<totfact> 0.35293071E+06</totfact>
</mgrwt>
</event>
<event>
 5    1  0.9583198E-007  0.2000287E+02  0.7818608E-02  0.1745271E+00
         -1   -1    0    0    0  501 -0.00000000000E+00  0.00000000000E+00  0.80463628070E+01  0.80463641622E+01  0.46700000000E-02 0. -1.
          1   -1    0    0  501    0  0.00000000000E+00 -0.00000000000E+00 -0.12431538384E+02  0.12431539261E+02  0.46700000000E-02 0.  1.
       1023    2    1    2    0    0  0.00000000000E+00  0.00000000000E+00 -0.43851755770E+01  0.20477903423E+02  0.20002868889E+02 0.  0.
        -11    1    3    3    0    0  0.93898414977E+01  0.34436099928E+01 -0.22268114283E+01  0.10246280424E+02  0.51100000000E-03 0.  1.
         11    1    3    3    0    0 -0.93898414977E+01 -0.34436099928E+01 -0.21583641487E+01  0.10231622999E+02  0.51100000000E-03 0. -1.
<mgrwt>
<rscale>  0 0.20002869E+02</rscale>
<asrwt>0</asrwt>
<pdfrwt beam="2">  1        1 0.19125445E-02 0.20002869E+02</pdfrwt>
<pdfrwt beam="1">  1       -1 0.12379021E-02 0.20002869E+02</pdfrwt>
<totfact> 0.38944632E+06</totfact>
</mgrwt>
</event>
<event>
 5    1  0.9583198E-007  0.2000740E+02  0.7818608E-02  0.1745181E+00
          1   -1    0    0  501    0  0.00000000000E+00  0.00000000000E+00  0.14337929531E+01  0.14338005584E+01  0.46700000000E-02 0. -1.
         -1   -1    0    0    0  501 -0.00000000000E+00 -0.00000000000E+00 -0.69796518122E+02  0.69796518278E+02  0.46700000000E-02 0.  1.
       1023    2    1    2    0    0  0.00000000000E+00  0.00000000000E+00 -0.68362725169E+02  0.71230318837E+02  0.20007401856E+02 0.  0.
        -11    1    3    3    0    0  0.99666107264E+01  0.85713771581E+00 -0.33905187479E+02  0.35350102584E+02  0.51100000000E-03 0. -1.
         11    1    3    3    0    0 -0.99666107264E+01 -0.85713771581E+00 -0.34457537690E+02  0.35880216253E+02  0.51100000000E-03 0.  1.
<mgrwt>
<rscale>  0 0.20007402E+02</rscale>
<asrwt>0</asrwt>
<pdfrwt beam="1">  1        1 0.22058418E-03 0.20007402E+02</pdfrwt>
<pdfrwt beam="2">  1       -1 0.10737924E-01 0.20007402E+02</pdfrwt>
<totfact> 0.33585849E+06</totfact>
</mgrwt>
</event>
<event>
 5    1  0.9583198E-007  0.2000042E+02  0.7818608E-02  0.1745320E+00
          1   -1    0    0  501    0  0.00000000000E+00  0.00000000000E+00  0.30139594098E+02  0.30139594460E+02  0.46700000000E-02 0. -1.
         -1   -1    0    0    0  501 -0.00000000000E+00 -0.00000000000E+00 -0.33180312989E+01  0.33180345853E+01  0.46700000000E-02 0.  1.
       1023    2    1    2    0    0  0.00000000000E+00  0.00000000000E+00  0.26821562799E+02  0.33457629045E+02  0.20000417754E+02 0.  0.
        -11    1    3    3    0    0  0.43259126855E+00  0.99908142290E+01  0.13367378905E+02  0.16694020582E+02  0.51100000000E-03 0. -1.
         11    1    3    3    0    0 -0.43259126855E+00 -0.99908142290E+01  0.13454183895E+02  0.16763608463E+02  0.51100000000E-03 0.  1.
<mgrwt>
<rscale>  0 0.20000418E+02</rscale>
<asrwt>0</asrwt>
<pdfrwt beam="1">  1        1 0.46368610E-02 0.20000418E+02</pdfrwt>
<pdfrwt beam="2">  1       -1 0.51046662E-03 0.20000418E+02</pdfrwt>
<totfact> 0.40464403E+06</totfact>
</mgrwt>
</event>
<event>
 5    1  0.9583198E-007  0.2000122E+02  0.7818608E-02  0.1745304E+00
          1   -1    0    0  501    0  0.00000000000E+00  0.00000000000E+00  0.15150084051E+01  0.15150156027E+01  0.46700000000E-02 0.  1.
         -1   -1    0    0    0  501 -0.00000000000E+00 -0.00000000000E+00 -0.66014091029E+02  0.66014091195E+02  0.46700000000E-02 0. -1.
       1023    2    1    2    0    0  0.00000000000E+00  0.00000000000E+00 -0.64499082624E+02  0.67529106797E+02  0.20001215100E+02 0.  0.
        -11    1    3    3    0    0 -0.99587941742E+01 -0.91227989172E+00 -0.32087091297E+02  0.33609392499E+02  0.51100000000E-03 0.  1.
         11    1    3    3    0    0  0.99587941742E+01  0.91227989172E+00 -0.32411991327E+02  0.33919714298E+02  0.51100000000E-03 0. -1.
<mgrwt>
<rscale>  0 0.20001215E+02</rscale>
<asrwt>0</asrwt>
<pdfrwt beam="1">  1        1 0.23307883E-03 0.20001215E+02</pdfrwt>
<pdfrwt beam="2">  1       -1 0.10156012E-01 0.20001215E+02</pdfrwt>
<totfact> 0.33847410E+06</totfact>
</mgrwt>
</event>
<event>
 5    1  0.9583198E-007  0.2000257E+02  0.7818608E-02  0.1745277E+00
          1   -1    0    0  501    0  0.00000000000E+00  0.00000000000E+00  0.27279980986E+01  0.27280020958E+01  0.46700000000E-02 0. -1.
         -1   -1    0    0    0  501 -0.00000000000E+00 -0.00000000000E+00 -0.36666320342E+02  0.36666320639E+02  0.46700000000E-02 0.  1.
       1023    2    1    2    0    0  0.00000000000E+00  0.00000000000E+00 -0.33938322243E+02  0.39394322735E+02  0.20002573511E+02 0.  0.
        -11    1    3    3    0    0 -0.56897675775E+01  0.82237625745E+01 -0.16676972638E+02  0.19445440149E+02  0.51100000000E-03 0. -1.
         11    1    3    3    0    0  0.56897675775E+01 -0.82237625745E+01 -0.17261349605E+02  0.19948882586E+02  0.51100000000E-03 0.  1.
<mgrwt>
<rscale>  0 0.20002574E+02</rscale>
<asrwt>0</asrwt>
<pdfrwt beam="1">  1        1 0.41969237E-03 0.20002574E+02</pdfrwt>
<pdfrwt beam="2">  1       -1 0.56409723E-02 0.20002574E+02</pdfrwt>
<totfact> 0.35923136E+06</totfact>
</mgrwt>
</event>
<event>
 4    1  0.9583198E-007  0.2026567E+02  0.7818608E-02  0.1740096E+00
          1   -1    0    0  501    0  0.00000000000E+00  0.00000000000E+00  0.56918522966E+02  0.56918523157E+02  0.46700000000E-02 0. -1.
         -1   -1    0    0    0  501 -0.00000000000E+00 -0.00000000000E+00 -0.18038804596E+01  0.18038865046E+01  0.46700000000E-02 0.  1.
        -11    1    1    2    0    0  0.38082013863E+01 -0.93869706792E+01  0.26866870952E+02  0.28713174177E+02  0.51100000000E-03 0. -1.
         11    1    1    2    0    0 -0.38082013863E+01  0.93869706792E+01  0.28247771554E+02  0.30009235485E+02  0.51100000000E-03 0.  1.
<mgrwt>
<rscale>  0 0.20265675E+02</rscale>
<asrwt>0</asrwt>
<pdfrwt beam="1">  1        1 0.87566956E-02 0.20265675E+02</pdfrwt>
<pdfrwt beam="2">  1       -1 0.27752057E-03 0.20265675E+02</pdfrwt>
<totfact> 0.40896249E+06</totfact>
</mgrwt>
</event>
<event>
 5    1  0.9583198E-007  0.2000030E+02  0.7818608E-02  0.1745322E+00
         -1   -1    0    0    0  501 -0.00000000000E+00  0.00000000000E+00  0.17622587402E+01  0.17622649279E+01  0.46700000000E-02 0.  1.
          1   -1    0    0  501    0  0.00000000000E+00 -0.00000000000E+00 -0.56746975472E+02  0.56746975664E+02  0.46700000000E-02 0. -1.
       1023    2    1    2    0    0  0.00000000000E+00  0.00000000000E+00 -0.54984716732E+02  0.58509240592E+02  0.20000304012E+02 0.  0.
        -11    1    3    3    0    0  0.66968214470E+01 -0.74265997514E+01 -0.27389405133E+02  0.29157868837E+02  0.51100000000E-03 0. -1.
         11    1    3    3    0    0 -0.66968214470E+01  0.74265997514E+01 -0.27595311599E+02  0.29351371755E+02  0.51100000000E-03 0.  1.
<mgrwt>
<rscale>  0 0.20000304E+02</rscale>
<asrwt>0</asrwt>
<pdfrwt beam="2">  1        1 0.87303030E-02 0.20000304E+02</pdfrwt>
<pdfrwt beam="1">  1       -1 0.27111726E-03 0.20000304E+02</pdfrwt>
<totfact> 0.42102104E+06</totfact>
</mgrwt>
</event>
<event>
 5    1  0.1044108E-006  0.2000621E+02  0.7818608E-02  0.1745205E+00
          1   -1    0    0  501    0  0.00000000000E+00  0.00000000000E+00  0.19103392405E+02  0.19103392976E+02  0.46700000000E-02 0. -1.
         -1   -1    0    0    0  501 -0.00000000000E+00 -0.00000000000E+00 -0.52379218495E+01  0.52379239313E+01  0.46700000000E-02 0.  1.
       1023    2    1    2    0    0  0.00000000000E+00  0.00000000000E+00  0.13865470556E+02  0.24341316907E+02  0.20006209912E+02 0.  0.
        -11    1    3    3    0    0 -0.99998261984E+01 -0.25370795638E+00  0.68902943988E+01  0.12146482984E+02  0.51100000000E-03 0.  1.
         11    1    3    3    0    0  0.99998261984E+01  0.25370795638E+00  0.69751761569E+01  0.12194833923E+02  0.51100000000E-03 0. -1.
<mgrwt>
<rscale>  0 0.20006210E+02</rscale>
<asrwt>0</asrwt>
<pdfrwt beam="1">  1        1 0.29389836E-02 0.20006210E+02</pdfrwt>
<pdfrwt beam="2">  1       -1 0.80583435E-03 0.20006210E+02</pdfrwt>
<totfact> 0.39602072E+06</totfact>
</mgrwt>
</event>
<event>
 5    1  0.9723377E-007  0.2000056E+02  0.7818608E-02  0.1745317E+00
          1   -1    0    0  501    0  0.00000000000E+00  0.00000000000E+00  0.47968285807E+02  0.47968286035E+02  0.46700000000E-02 0.  1.
         -1   -1    0    0    0  501 -0.00000000000E+00 -0.00000000000E+00 -0.20848253157E+01  0.20848305461E+01  0.46700000000E-02 0. -1.
       1023    2    1    2    0    0  0.00000000000E+00  0.00000000000E+00  0.45883460492E+02  0.50053116581E+02  0.20000563311E+02 0.  0.
        -11    1    3    3    0    0 -0.71086018695E+01 -0.70336792898E+01  0.22872374736E+02  0.24962980415E+02  0.51100000000E-03 0.  1.
         11    1    3    3    0    0  0.71086018695E+01  0.70336792898E+01  0.23011085756E+02  0.25090136166E+02  0.51100000000E-03 0. -1.
<mgrwt>
<rscale>  0 0.20000563E+02</rscale>
<asrwt>0</asrwt>
<pdfrwt beam="1">  1        1 0.73797357E-02 0.20000563E+02</pdfrwt>
<pdfrwt beam="2">  1       -1 0.32074282E-03 0.20000563E+02</pdfrwt>
<totfact> 0.41592433E+06</totfact>
</mgrwt>
</event>
<event>
 5    1  0.9583198E-007  0.2000524E+02  0.7818608E-02  0.1745224E+00
          1   -1    0    0  501    0  0.00000000000E+00  0.00000000000E+00  0.18462804652E+02  0.18462805242E+02  0.46700000000E-02 0.  1.
         -1   -1    0    0    0  501 -0.00000000000E+00 -0.00000000000E+00 -0.54191317139E+01  0.54191337261E+01  0.46700000000E-02 0. -1.
       1023    2    1    2    0    0  0.00000000000E+00  0.00000000000E+00  0.13043672938E+02  0.23881938968E+02  0.20005239443E+02 0.  0.
        -11    1    3    3    0    0  0.99958714237E+01  0.35843035284E+00  0.64257149941E+01  0.11888470519E+02  0.51100000000E-03 0. -1.
         11    1    3    3    0    0 -0.99958714237E+01 -0.35843035284E+00  0.66179579435E+01  0.11993468449E+02  0.51100000000E-03 0.  1.
<mgrwt>
<rscale>  0 0.20005239E+02</rscale>
<asrwt>0</asrwt>
<pdfrwt beam="1">  1        1 0.28404318E-02 0.20005239E+02</pdfrwt>
<pdfrwt beam="2">  1       -1 0.83371275E-03 0.20005239E+02</pdfrwt>
<totfact> 0.39550458E+06</totfact>
</mgrwt>
</event>
<event>
 5    1  0.9583198E-007  0.2000057E+02  0.7818608E-02  0.1745317E+00
         -1   -1    0    0    0  501 -0.00000000000E+00  0.00000000000E+00  0.30500524532E+02  0.30500524890E+02  0.46700000000E-02 0.  1.
          1   -1    0    0  501    0  0.00000000000E+00 -0.00000000000E+00 -0.32788171048E+01  0.32788204305E+01  0.46700000000E-02 0. -1.
       1023    2    1    2    0    0  0.00000000000E+00  0.00000000000E+00  0.27221707428E+02  0.33779345320E+02  0.20000570367E+02 0.  0.
        -11    1    3    3    0    0 -0.80227091055E+01 -0.59699932987E+01  0.13556858170E+02  0.16846159357E+02  0.51100000000E-03 0.  1.
         11    1    3    3    0    0  0.80227091055E+01  0.59699932987E+01  0.13664849257E+02  0.16933185963E+02  0.51100000000E-03 0. -1.
<mgrwt>
<rscale>  0 0.20000570E+02</rscale>
<asrwt>0</asrwt>
<pdfrwt beam="2">  1        1 0.50443366E-03 0.20000570E+02</pdfrwt>
<pdfrwt beam="1">  1       -1 0.46923889E-02 0.20000570E+02</pdfrwt>
<totfact> 0.36441147E+06</totfact>
</mgrwt>
</event>
<event>
 5    1  0.9583198E-007  0.2000012E+02  0.7818608E-02  0.1745326E+00
         -1   -1    0    0    0  501 -0.00000000000E+00  0.00000000000E+00  0.88523122981E+01  0.88523135299E+01  0.46700000000E-02 0.  1.
          1   -1    0    0  501    0  0.00000000000E+00 -0.00000000000E+00 -0.11296615619E+02  0.11296616584E+02  0.46700000000E-02 0. -1.
       1023    2    1    2    0    0  0.00000000000E+00  0.00000000000E+00 -0.24443033206E+01  0.20148930114E+02  0.20000119150E+02 0.  0.
        -11    1    3    3    0    0 -0.56374704876E+01 -0.82594807165E+01 -0.12555044377E+01  0.10078511143E+02  0.51100000000E-03 0. -1.
         11    1    3    3    0    0  0.56374704876E+01  0.82594807165E+01 -0.11887988829E+01  0.10070418971E+02  0.51100000000E-03 0.  1.
<mgrwt>
<rscale>  0 0.20000119E+02</rscale>
<asrwt>0</asrwt>
<pdfrwt beam="2">  1        1 0.17379410E-02 0.20000119E+02</pdfrwt>
<pdfrwt beam="1">  1       -1 0.13618944E-02 0.20000119E+02</pdfrwt>
<totfact> 0.38810850E+06</totfact>
</mgrwt>
</event>
<event>
 5    1  0.9583198E-007  0.2000057E+02  0.7818608E-02  0.1745317E+00
          1   -1    0    0  501    0  0.00000000000E+00  0.00000000000E+00  0.13507116993E+01  0.13507197724E+01  0.46700000000E-02 0.  1.
         -1   -1    0    0    0  501 -0.00000000000E+00 -0.00000000000E+00 -0.74039056848E+02  0.74039056995E+02  0.46700000000E-02 0. -1.
       1023    2    1    2    0    0  0.00000000000E+00  0.00000000000E+00 -0.72688345148E+02  0.75389776767E+02  0.20000573008E+02 0.  0.
        -11    1    3    3    0    0  0.67039261998E+01  0.74204492026E+01 -0.36321233366E+02  0.37672771153E+02  0.51100000000E-03 0. -1.
         11    1    3    3    0    0 -0.67039261998E+01 -0.74204492026E+01 -0.36367111782E+02  0.37717005614E+02  0.51100000000E-03 0.  1.
<mgrwt>
<rscale>  0 0.20000573E+02</rscale>
<asrwt>0</asrwt>
<pdfrwt beam="1">  1        1 0.20780249E-03 0.20000573E+02</pdfrwt>
<pdfrwt beam="2">  1       -1 0.11390622E-01 0.20000573E+02</pdfrwt>
<totfact> 0.33349176E+06</totfact>
</mgrwt>
</event>
<event>
 5    1  0.9697362E-007  0.2000125E+02  0.7818608E-02  0.1745303E+00
          1   -1    0    0  501    0  0.00000000000E+00  0.00000000000E+00  0.80559385263E+01  0.80559398799E+01  0.46700000000E-02 0.  1.
         -1   -1    0    0    0  501 -0.00000000000E+00 -0.00000000000E+00 -0.12414757926E+02  0.12414758805E+02  0.46700000000E-02 0. -1.
       1023    2    1    2    0    0  0.00000000000E+00  0.00000000000E+00 -0.43588194002E+01  0.20470698685E+02  0.20001254912E+02 0.  0.
        -11    1    3    3    0    0  0.62523293467E+00  0.99809185432E+01 -0.22345069260E+01  0.10247081177E+02  0.51100000000E-03 0. -1.
         11    1    3    3    0    0 -0.62523293467E+00 -0.99809185432E+01 -0.21243124742E+01  0.10223617507E+02  0.51100000000E-03 0.  1.
<mgrwt>
<rscale>  0 0.20001255E+02</rscale>
<asrwt>0</asrwt>
<pdfrwt beam="1">  1        1 0.12393753E-02 0.20001255E+02</pdfrwt>
<pdfrwt beam="2">  1       -1 0.19099629E-02 0.20001255E+02</pdfrwt>
<totfact> 0.38275237E+06</totfact>
</mgrwt>
</event>
<event>
 5    1  0.9795676E-007  0.2000069E+02  0.7818608E-02  0.1745314E+00
          1   -1    0    0  501    0  0.00000000000E+00  0.00000000000E+00  0.22391695309E+02  0.22391695796E+02  0.46700000000E-02 0.  1.
         -1   -1    0    0    0  501 -0.00000000000E+00 -0.00000000000E+00 -0.44662458170E+01  0.44662482585E+01  0.46700000000E-02 0. -1.
       1023    2    1    2    0    0  0.00000000000E+00  0.00000000000E+00  0.17925449492E+02  0.26857944054E+02  0.20000685472E+02 0.  0.
        -11    1    3    3    0    0 -0.41041554133E+01 -0.91193444288E+01  0.89867503554E+01  0.13445007128E+02  0.51100000000E-03 0.  1.
         11    1    3    3    0    0  0.41041554133E+01  0.91193444288E+01  0.89386991362E+01  0.13412936926E+02  0.51100000000E-03 0. -1.
<mgrwt>
<rscale>  0 0.20000685E+02</rscale>
<asrwt>0</asrwt>
<pdfrwt beam="1">  1        1 0.34448763E-02 0.20000685E+02</pdfrwt>
<pdfrwt beam="2">  1       -1 0.68711498E-03 0.20000685E+02</pdfrwt>
<totfact> 0.39896815E+06</totfact>
</mgrwt>
</event>
<event>
 5    1  0.9583198E-007  0.2000038E+02  0.7818608E-02  0.1745321E+00
          1   -1    0    0  501    0  0.00000000000E+00  0.00000000000E+00  0.40370453822E+02  0.40370454092E+02  0.46700000000E-02 0. -1.
         -1   -1    0    0    0  501 -0.00000000000E+00 -0.00000000000E+00 -0.24771509130E+01  0.24771553150E+01  0.46700000000E-02 0.  1.
       1023    2    1    2    0    0  0.00000000000E+00  0.00000000000E+00  0.37893302909E+02  0.42847609407E+02  0.20000380660E+02 0.  0.
        -11    1    3    3    0    0  0.18019892282E+01  0.98363456277E+01  0.18830373732E+02  0.21320971732E+02  0.51100000000E-03 0. -1.
         11    1    3    3    0    0 -0.18019892282E+01 -0.98363456277E+01  0.19062929177E+02  0.21526637674E+02  0.51100000000E-03 0.  1.
<mgrwt>
<rscale>  0 0.20000381E+02</rscale>
<asrwt>0</asrwt>
<pdfrwt beam="1">  1        1 0.62108389E-02 0.20000381E+02</pdfrwt>
<pdfrwt beam="2">  1       -1 0.38110053E-03 0.20000381E+02</pdfrwt>
<totfact> 0.41131765E+06</totfact>
</mgrwt>
</event>
<event>
 5    1  0.9863042E-007  0.2000062E+02  0.7818608E-02  0.1745316E+00
         -1   -1    0    0    0  501 -0.00000000000E+00  0.00000000000E+00  0.10569965165E+01  0.10570068329E+01  0.46700000000E-02 0.  1.
          1   -1    0    0  501    0  0.00000000000E+00 -0.00000000000E+00 -0.94613055713E+02  0.94613055828E+02  0.46700000000E-02 0. -1.
       1023    2    1    2    0    0  0.00000000000E+00  0.00000000000E+00 -0.93556059197E+02  0.95670062661E+02  0.20000616920E+02 0.  0.
        -11    1    3    3    0    0  0.43410144801E+01  0.90087555303E+01 -0.46472264426E+02  0.47536022594E+02  0.51100000000E-03 0. -1.
         11    1    3    3    0    0 -0.43410144801E+01 -0.90087555303E+01 -0.47083794771E+02  0.48134040067E+02  0.51100000000E-03 0.  1.
<mgrwt>
<rscale>  0 0.20000617E+02</rscale>
<asrwt>0</asrwt>
<pdfrwt beam="2">  1        1 0.14555849E-01 0.20000617E+02</pdfrwt>
<pdfrwt beam="1">  1       -1 0.16261573E-03 0.20000617E+02</pdfrwt>
<totfact> 0.44094136E+06</totfact>
</mgrwt>
</event>
<event>
 5    1  0.9583198E-007  0.2000032E+02  0.7818608E-02  0.1745322E+00
          1   -1    0    0  501    0  0.00000000000E+00  0.00000000000E+00  0.53862116355E+02  0.53862116557E+02  0.46700000000E-02 0. -1.
         -1   -1    0    0    0  501 -0.00000000000E+00 -0.00000000000E+00 -0.18566490818E+01  0.18566549550E+01  0.46700000000E-02 0.  1.
       1023    2    1    2    0    0  0.00000000000E+00  0.00000000000E+00  0.52005467273E+02  0.55718771512E+02  0.20000321811E+02 0.  0.
        -11    1    3    3    0    0 -0.71539351284E+01  0.69873327044E+01  0.26114577224E+02  0.27963775675E+02  0.51100000000E-03 0.  1.
         11    1    3    3    0    0  0.71539351284E+01 -0.69873327044E+01  0.25890890049E+02  0.27754995837E+02  0.51100000000E-03 0. -1.
<mgrwt>
<rscale>  0 0.20000322E+02</rscale>
<asrwt>0</asrwt>
<pdfrwt beam="1">  1        1 0.82864801E-02 0.20000322E+02</pdfrwt>
<pdfrwt beam="2">  1       -1 0.28563878E-03 0.20000322E+02</pdfrwt>
<totfact> 0.41937446E+06</totfact>
</mgrwt>
</event>
<event>
 5    1  0.9915166E-007  0.2000120E+02  0.7818608E-02  0.1745304E+00
         -1   -1    0    0    0  501 -0.00000000000E+00  0.00000000000E+00  0.34111133247E+01  0.34111165214E+01  0.46700000000E-02 0. -1.
          1   -1    0    0  501    0  0.00000000000E+00 -0.00000000000E+00 -0.29319444756E+02  0.29319445128E+02  0.46700000000E-02 0.  1.
       1023    2    1    2    0    0  0.00000000000E+00  0.00000000000E+00 -0.25908331432E+02  0.32730561650E+02  0.20001200672E+02 0.  0.
        -11    1    3    3    0    0 -0.17305185249E+01 -0.98495016672E+01 -0.12842823958E+02  0.16277146707E+02  0.51100000000E-03 0. -1.
         11    1    3    3    0    0  0.17305185249E+01  0.98495016672E+01 -0.13065507474E+02  0.16453414942E+02  0.51100000000E-03 0.  1.
<mgrwt>
<rscale>  0 0.20001201E+02</rscale>
<asrwt>0</asrwt>
<pdfrwt beam="2">  1        1 0.45106839E-02 0.20001201E+02</pdfrwt>
<pdfrwt beam="1">  1       -1 0.52478696E-03 0.20001201E+02</pdfrwt>
<totfact> 0.40404188E+06</totfact>
</mgrwt>
</event>
<event>
 5    1  0.9583198E-007  0.2000506E+02  0.7818608E-02  0.1745228E+00
         -1   -1    0    0    0  501 -0.00000000000E+00  0.00000000000E+00  0.75383215665E+01  0.75383230131E+01  0.46700000000E-02 0.  1.
          1   -1    0    0  501    0  0.00000000000E+00 -0.00000000000E+00 -0.13272256899E+02  0.13272257721E+02  0.46700000000E-02 0. -1.
       1023    2    1    2    0    0  0.00000000000E+00  0.00000000000E+00 -0.57339353326E+01  0.20810580734E+02  0.20005055763E+02 0.  0.
        -11    1    3    3    0    0  0.77842713631E+01 -0.62803460933E+01 -0.27486511682E+01  0.10372690645E+02  0.51100000000E-03 0.  1.
         11    1    3    3    0    0 -0.77842713631E+01  0.62803460933E+01 -0.29852841644E+01  0.10437890089E+02  0.51100000000E-03 0. -1.
<mgrwt>
<rscale>  0 0.20005056E+02</rscale>
<asrwt>0</asrwt>
<pdfrwt beam="2">  1        1 0.20418858E-02 0.20005056E+02</pdfrwt>
<pdfrwt beam="1">  1       -1 0.11597420E-02 0.20005056E+02</pdfrwt>
<totfact> 0.39034706E+06</totfact>
</mgrwt>
</event>
<event>
 5    1  0.9583198E-007  0.2000037E+02  0.7818608E-02  0.1745321E+00
          1   -1    0    0  501    0  0.00000000000E+00  0.00000000000E+00  0.13677031805E+02  0.13677032602E+02  0.46700000000E-02 0. -1.
         -1   -1    0    0    0  501 -0.00000000000E+00 -0.00000000000E+00 -0.73117983521E+01  0.73117998435E+01  0.46700000000E-02 0.  1.
       1023    2    1    2    0    0  0.00000000000E+00  0.00000000000E+00  0.63652334524E+01  0.20988832445E+02  0.20000372259E+02 0.  0.
        -11    1    3    3    0    0  0.73928846830E+01  0.67341613903E+01  0.31752857542E+01  0.10492192976E+02  0.51100000000E-03 0.  1.
         11    1    3    3    0    0 -0.73928846830E+01 -0.67341613903E+01  0.31899476983E+01  0.10496639469E+02  0.51100000000E-03 0. -1.
<mgrwt>
<rscale>  0 0.20000372E+02</rscale>
<asrwt>0</asrwt>
<pdfrwt beam="1">  1        1 0.21041589E-02 0.20000372E+02</pdfrwt>
<pdfrwt beam="2">  1       -1 0.11248922E-02 0.20000372E+02</pdfrwt>
<totfact> 0.39101155E+06</totfact>
</mgrwt>
</event>
<event>
 5    1  0.9583198E-007  0.2000816E+02  0.7818608E-02  0.1745166E+00
         -1   -1    0    0    0  501 -0.00000000000E+00  0.00000000000E+00  0.23466587656E+02  0.23466588121E+02  0.46700000000E-02 0.  1.
          1   -1    0    0  501    0  0.00000000000E+00 -0.00000000000E+00 -0.42648528840E+01  0.42648554409E+01  0.46700000000E-02 0. -1.
       1023    2    1    2    0    0  0.00000000000E+00  0.00000000000E+00  0.19201734772E+02  0.27731443562E+02  0.20008156931E+02 0.  0.
        -11    1    3    3    0    0 -0.82585656314E+01 -0.56396521191E+01  0.99727807576E+01  0.14123241080E+02  0.51100000000E-03 0.  1.
         11    1    3    3    0    0  0.82585656314E+01  0.56396521191E+01  0.92289540145E+01  0.13608202481E+02  0.51100000000E-03 0. -1.
<mgrwt>
<rscale>  0 0.20008157E+02</rscale>
<asrwt>0</asrwt>
<pdfrwt beam="2">  1        1 0.65613144E-03 0.20008157E+02</pdfrwt>
<pdfrwt beam="1">  1       -1 0.36102445E-02 0.20008157E+02</pdfrwt>
<totfact> 0.37043212E+06</totfact>
</mgrwt>
</event>
<event>
 4    1  0.9583198E-007  0.2006621E+02  0.7818608E-02  0.1744015E+00
          1   -1    0    0  501    0  0.00000000000E+00  0.00000000000E+00  0.81691414342E+02  0.81691414476E+02  0.46700000000E-02 0.  1.
         -1   -1    0    0    0  501 -0.00000000000E+00 -0.00000000000E+00 -0.12322330057E+01  0.12322418550E+01  0.46700000000E-02 0. -1.
        -11    1    1    2    0    0  0.69652856089E+01  0.72099350101E+01  0.41907522406E+02  0.43089892097E+02  0.51100000000E-03 0.  1.
         11    1    1    2    0    0 -0.69652856089E+01 -0.72099350101E+01  0.38551658931E+02  0.39833764234E+02  0.51100000000E-03 0. -1.
<mgrwt>
<rscale>  0 0.20066213E+02</rscale>
<asrwt>0</asrwt>
<pdfrwt beam="1">  1        1 0.12567912E-01 0.20066213E+02</pdfrwt>
<pdfrwt beam="2">  1       -1 0.18957497E-03 0.20066213E+02</pdfrwt>
<totfact> 0.43130049E+06</totfact>
</mgrwt>
</event>
<event>
 5    1  0.1028005E-006  0.2000166E+02  0.7818608E-02  0.1745295E+00
          1   -1    0    0  501    0  0.00000000000E+00  0.00000000000E+00  0.89891088769E+02  0.89891088891E+02  0.46700000000E-02 0. -1.
         -1   -1    0    0    0  501 -0.00000000000E+00 -0.00000000000E+00 -0.11126367439E+01  0.11126465444E+01  0.46700000000E-02 0.  1.
       1023    2    1    2    0    0  0.00000000000E+00  0.00000000000E+00  0.88778452026E+02  0.91003735435E+02  0.20001657909E+02 0.  0.
        -11    1    3    3    0    0 -0.92976447073E+01 -0.36827944933E+01  0.44780803928E+02  0.45883870511E+02  0.51100000000E-03 0. -1.
         11    1    3    3    0    0  0.92976447073E+01  0.36827944933E+01  0.43997648097E+02  0.45119864924E+02  0.51100000000E-03 0.  1.
<mgrwt>
<rscale>  0 0.20001658E+02</rscale>
<asrwt>0</asrwt>
<pdfrwt beam="1">  1        1 0.13829405E-01 0.20001658E+02</pdfrwt>
<pdfrwt beam="2">  1       -1 0.17117558E-03 0.20001658E+02</pdfrwt>
<totfact> 0.43854366E+06</totfact>
</mgrwt>
</event>
<event>
 5    1  0.9583198E-007  0.2000011E+02  0.7818608E-02  0.1745326E+00
          1   -1    0    0  501    0  0.00000000000E+00  0.00000000000E+00  0.48573742542E+01  0.48573764991E+01  0.46700000000E-02 0.  1.
         -1   -1    0    0    0  501 -0.00000000000E+00 -0.00000000000E+00 -0.20587466897E+02  0.20587467427E+02  0.46700000000E-02 0. -1.
       1023    2    1    2    0    0  0.00000000000E+00  0.00000000000E+00 -0.15730092643E+02  0.25444843926E+02  0.20000106696E+02 0.  0.
        -11    1    3    3    0    0  0.54488297234E+00 -0.99851768539E+01 -0.78908839202E+01  0.12738394858E+02  0.51100000000E-03 0.  1.
         11    1    3    3    0    0 -0.54488297234E+00  0.99851768539E+01 -0.78392087230E+01  0.12706449068E+02  0.51100000000E-03 0. -1.
<mgrwt>
<rscale>  0 0.20000107E+02</rscale>
<asrwt>0</asrwt>
<pdfrwt beam="1">  1        1 0.74728857E-03 0.20000107E+02</pdfrwt>
<pdfrwt beam="2">  1       -1 0.31673028E-02 0.20000107E+02</pdfrwt>
<totfact> 0.37356951E+06</totfact>
</mgrwt>
</event>
<event>
 5    1  0.9583198E-007  0.2000319E+02  0.7818608E-02  0.1745265E+00
         -1   -1    0    0    0  501 -0.00000000000E+00  0.00000000000E+00  0.20963847609E+02  0.20963848130E+02  0.46700000000E-02 0.  1.
          1   -1    0    0  501    0  0.00000000000E+00 -0.00000000000E+00 -0.47716369694E+01  0.47716392547E+01  0.46700000000E-02 0. -1.
       1023    2    1    2    0    0  0.00000000000E+00  0.00000000000E+00  0.16192210640E+02  0.25735487384E+02  0.20003190383E+02 0.  0.
        -11    1    3    3    0    0  0.81145026120E+01 -0.58464161088E+01  0.81971821468E+01  0.12931339040E+02  0.51100000000E-03 0. -1.
         11    1    3    3    0    0 -0.81145026120E+01  0.58464161088E+01  0.79950284932E+01  0.12804148344E+02  0.51100000000E-03 0.  1.
<mgrwt>
<rscale>  0 0.20003190E+02</rscale>
<asrwt>0</asrwt>
<pdfrwt beam="2">  1        1 0.73409820E-03 0.20003190E+02</pdfrwt>
<pdfrwt beam="1">  1       -1 0.32252076E-02 0.20003190E+02</pdfrwt>
<totfact> 0.37306650E+06</totfact>
</mgrwt>
</event>
<event>
 5    1  0.1049063E-006  0.2000199E+02  0.7818608E-02  0.1745289E+00
         -1   -1    0    0    0  501 -0.00000000000E+00  0.00000000000E+00  0.89344981149E+00  0.89346201629E+00  0.46700000000E-02 0.  1.
          1   -1    0    0  501    0  0.00000000000E+00 -0.00000000000E+00 -0.11194720744E+03  0.11194720753E+03  0.46700000000E-02 0. -1.
       1023    2    1    2    0    0  0.00000000000E+00  0.00000000000E+00 -0.11105375762E+03  0.11284066955E+03  0.20001990448E+02 0.  0.
        -11    1    3    3    0    0  0.69202527012E+01 -0.72198379020E+01 -0.55172388115E+02  0.56071457689E+02  0.51100000000E-03 0.  1.
         11    1    3    3    0    0 -0.69202527012E+01  0.72198379020E+01 -0.55881369509E+02  0.56769211860E+02  0.51100000000E-03 0. -1.
<mgrwt>
<rscale>  0 0.20001990E+02</rscale>
<asrwt>0</asrwt>
<pdfrwt beam="2">  1        1 0.17222637E-01 0.20001990E+02</pdfrwt>
<pdfrwt beam="1">  1       -1 0.13745485E-03 0.20001990E+02</pdfrwt>
<totfact> 0.44918921E+06</totfact>
</mgrwt>
</event>
<event>
 4    1  0.9583198E-007  0.2001382E+02  0.7818608E-02  0.1745053E+00
         -1   -1    0    0    0  501 -0.00000000000E+00  0.00000000000E+00  0.38534885400E+02  0.38534885683E+02  0.46700000000E-02 0. -1.
          1   -1    0    0  501    0  0.00000000000E+00 -0.00000000000E+00 -0.25986357051E+01  0.25986399013E+01  0.46700000000E-02 0.  1.
        -11    1    1    2    0    0 -0.19347216211E+01 -0.98174205862E+01  0.18205382238E+02  0.20774042394E+02  0.51100000000E-03 0. -1.
         11    1    1    2    0    0  0.19347216211E+01  0.98174205862E+01  0.17730867457E+02  0.20359483190E+02  0.51100000000E-03 0.  1.
<mgrwt>
<rscale>  0 0.20013817E+02</rscale>
<asrwt>0</asrwt>
<pdfrwt beam="2">  1        1 0.39979047E-03 0.20013817E+02</pdfrwt>
<pdfrwt beam="1">  1       -1 0.59284439E-02 0.20013817E+02</pdfrwt>
<totfact> 0.35730996E+06</totfact>
</mgrwt>
</event>
<event>
 5    1  0.9583198E-007  0.2000143E+02  0.7818608E-02  0.1745300E+00
          1   -1    0    0  501    0  0.00000000000E+00  0.00000000000E+00  0.94842675393E+00  0.94843825127E+00  0.46700000000E-02 0. -1.
         -1   -1    0    0    0  501 -0.00000000000E+00 -0.00000000000E+00 -0.10545221274E+03  0.10545221284E+03  0.46700000000E-02 0.  1.
       1023    2    1    2    0    0  0.00000000000E+00  0.00000000000E+00 -0.10450378599E+03  0.10640065110E+03  0.20001431648E+02 0.  0.
        -11    1    3    3    0    0  0.75858631851E+01  0.65166366746E+01 -0.52514821341E+02  0.53458566522E+02  0.51100000000E-03 0.  1.
         11    1    3    3    0    0 -0.75858631851E+01 -0.65166366746E+01 -0.51988964646E+02  0.52942084574E+02  0.51100000000E-03 0. -1.
<mgrwt>
<rscale>  0 0.20001432E+02</rscale>
<asrwt>0</asrwt>
<pdfrwt beam="1">  1        1 0.14591278E-03 0.20001432E+02</pdfrwt>
<pdfrwt beam="2">  1       -1 0.16223409E-01 0.20001432E+02</pdfrwt>
<totfact> 0.31573353E+06</totfact>
</mgrwt>
</event>
<event>
 5    1  0.9583198E-007  0.2000671E+02  0.7818608E-02  0.1745195E+00
          1   -1    0    0  501    0  0.00000000000E+00  0.00000000000E+00  0.39833135193E+02  0.39833135467E+02  0.46700000000E-02 0. -1.
         -1   -1    0    0    0  501 -0.00000000000E+00 -0.00000000000E+00 -0.25121547338E+01  0.25121590745E+01  0.46700000000E-02 0.  1.
       1023    2    1    2    0    0  0.00000000000E+00  0.00000000000E+00  0.37320980459E+02  0.42345294541E+02  0.20006708559E+02 0.  0.
        -11    1    3    3    0    0 -0.47173949586E+01 -0.88200071107E+01  0.18965420674E+02  0.21441397394E+02  0.51100000000E-03 0.  1.
         11    1    3    3    0    0  0.47173949586E+01  0.88200071107E+01  0.18355559786E+02  0.20903897147E+02  0.51100000000E-03 0. -1.
<mgrwt>
<rscale>  0 0.20006709E+02</rscale>
<asrwt>0</asrwt>
<pdfrwt beam="1">  1        1 0.61281747E-02 0.20006709E+02</pdfrwt>
<pdfrwt beam="2">  1       -1 0.38648572E-03 0.20006709E+02</pdfrwt>
<totfact> 0.41069254E+06</totfact>
</mgrwt>
</event>
<event>
 5    1  0.9583198E-007  0.2000020E+02  0.7818608E-02  0.1745324E+00
          1   -1    0    0  501    0  0.00000000000E+00  0.00000000000E+00  0.71613025596E+02  0.71613025748E+02  0.46700000000E-02 0. -1.
         -1   -1    0    0    0  501 -0.00000000000E+00 -0.00000000000E+00 -0.13964171998E+01  0.13964250086E+01  0.46700000000E-02 0.  1.
       1023    2    1    2    0    0  0.00000000000E+00  0.00000000000E+00  0.70216608396E+02  0.73009450757E+02  0.20000195128E+02 0.  0.
        -11    1    3    3    0    0  0.95779710340E+01  0.28747823984E+01  0.35133611392E+02  0.36529064492E+02  0.51100000000E-03 0. -1.
         11    1    3    3    0    0 -0.95779710340E+01 -0.28747823984E+01  0.35082997004E+02  0.36480386265E+02  0.51100000000E-03 0.  1.
<mgrwt>
<rscale>  0 0.20000195E+02</rscale>
<asrwt>0</asrwt>
<pdfrwt beam="1">  1        1 0.11017391E-01 0.20000195E+02</pdfrwt>
<pdfrwt beam="2">  1       -1 0.21483400E-03 0.20000195E+02</pdfrwt>
<totfact> 0.42919152E+06</totfact>
</mgrwt>
</event>
<event>
 4    1  0.9583198E-007  0.2001289E+02  0.7818608E-02  0.1745072E+00
         -1   -1    0    0    0  501 -0.00000000000E+00  0.00000000000E+00  0.33492022389E+01  0.33492054948E+01  0.46700000000E-02 0. -1.
          1   -1    0    0  501    0  0.00000000000E+00 -0.00000000000E+00 -0.29896346498E+02  0.29896346863E+02  0.46700000000E-02 0.  1.
        -11    1    1    2    0    0  0.79898959818E+01 -0.60237433678E+01 -0.13155537686E+02  0.16528523650E+02  0.51100000000E-03 0.  1.
         11    1    1    2    0    0 -0.79898959818E+01  0.60237433678E+01 -0.13391606573E+02  0.16717028708E+02  0.51100000000E-03 0. -1.
<mgrwt>
<rscale>  0 0.20012893E+02</rscale>
<asrwt>0</asrwt>
<pdfrwt beam="2">  1        1 0.45994380E-02 0.20012893E+02</pdfrwt>
<pdfrwt beam="1">  1       -1 0.51526218E-03 0.20012893E+02</pdfrwt>
<totfact> 0.40391365E+06</totfact>
</mgrwt>
</event>
<event>
 5    1  0.9672668E-007  0.2000098E+02  0.7818608E-02  0.1745309E+00
         -1   -1    0    0    0  501 -0.00000000000E+00  0.00000000000E+00  0.17994238886E+02  0.17994239492E+02  0.46700000000E-02 0. -1.
          1   -1    0    0  501    0  0.00000000000E+00 -0.00000000000E+00 -0.55578784173E+01  0.55578803793E+01  0.46700000000E-02 0.  1.
       1023    2    1    2    0    0  0.00000000000E+00  0.00000000000E+00  0.12436360469E+02  0.23552119871E+02  0.20000982194E+02 0.  0.
        -11    1    3    3    0    0  0.78339530358E+01 -0.62153551268E+01  0.63258624969E+01  0.11832920016E+02  0.51100000000E-03 0.  1.
         11    1    3    3    0    0 -0.78339530358E+01  0.62153551268E+01  0.61104979719E+01  0.11719199855E+02  0.51100000000E-03 0. -1.
<mgrwt>
<rscale>  0 0.20000982E+02</rscale>
<asrwt>0</asrwt>
<pdfrwt beam="2">  1        1 0.85505841E-03 0.20000982E+02</pdfrwt>
<pdfrwt beam="1">  1       -1 0.27683447E-02 0.20000982E+02</pdfrwt>
<totfact> 0.37621584E+06</totfact>
</mgrwt>
</event>
<event>
 5    1  0.9583198E-007  0.2000116E+02  0.7818608E-02  0.1745305E+00
         -1   -1    0    0    0  501 -0.00000000000E+00  0.00000000000E+00  0.77675482471E+02  0.77675482611E+02  0.46700000000E-02 0. -1.
          1   -1    0    0  501    0  0.00000000000E+00 -0.00000000000E+00 -0.12875526149E+01  0.12875610840E+01  0.46700000000E-02 0.  1.
       1023    2    1    2    0    0  0.00000000000E+00  0.00000000000E+00  0.76387929856E+02  0.78963043695E+02  0.20001161014E+02 0.  0.
        -11    1    3    3    0    0  0.65709501309E+01 -0.75388047530E+01  0.38294423324E+02  0.39578704131E+02  0.51100000000E-03 0. -1.
         11    1    3    3    0    0 -0.65709501309E+01  0.75388047530E+01  0.38093506532E+02  0.39384339564E+02  0.51100000000E-03 0.  1.
<mgrwt>
<rscale>  0 0.20001161E+02</rscale>
<asrwt>0</asrwt>
<pdfrwt beam="2">  1        1 0.19808561E-03 0.20001161E+02</pdfrwt>
<pdfrwt beam="1">  1       -1 0.11950079E-01 0.20001161E+02</pdfrwt>
<totfact> 0.33127377E+06</totfact>
</mgrwt>
</event>
<event>
 5    1  0.9583198E-007  0.2000068E+02  0.7818608E-02  0.1745315E+00
          1   -1    0    0  501    0  0.00000000000E+00  0.00000000000E+00  0.20456325817E+02  0.20456326350E+02  0.46700000000E-02 0. -1.
         -1   -1    0    0    0  501 -0.00000000000E+00 -0.00000000000E+00 -0.48887944435E+01  0.48887966740E+01  0.46700000000E-02 0.  1.
       1023    2    1    2    0    0  0.00000000000E+00  0.00000000000E+00  0.15567531373E+02  0.25345123024E+02  0.20000680689E+02 0.  0.
        -11    1    3    3    0    0  0.94432895449E+01 -0.32907885415E+01  0.77300009850E+01  0.12639538051E+02  0.51100000000E-03 0.  1.
         11    1    3    3    0    0 -0.94432895449E+01  0.32907885415E+01  0.78375303880E+01  0.12705584973E+02  0.51100000000E-03 0. -1.
<mgrwt>
<rscale>  0 0.20000681E+02</rscale>
<asrwt>0</asrwt>
<pdfrwt beam="1">  1        1 0.31471273E-02 0.20000681E+02</pdfrwt>
<pdfrwt beam="2">  1       -1 0.75212242E-03 0.20000681E+02</pdfrwt>
<totfact> 0.39740868E+06</totfact>
</mgrwt>
</event>
<event>
 5    1  0.1005600E-006  0.2000205E+02  0.7818608E-02  0.1745287E+00
         -1   -1    0    0    0  501 -0.00000000000E+00  0.00000000000E+00  0.11500047530E+01  0.11500142351E+01  0.46700000000E-02 0.  1.
          1   -1    0    0  501    0  0.00000000000E+00 -0.00000000000E+00 -0.86973634038E+02  0.86973634164E+02  0.46700000000E-02 0. -1.
       1023    2    1    2    0    0  0.00000000000E+00  0.00000000000E+00 -0.85823629285E+02  0.88123648399E+02  0.20002051480E+02 0.  0.
        -11    1    3    3    0    0 -0.16890599063E+01 -0.98566820461E+01 -0.43422029207E+02  0.44558722211E+02  0.51100000000E-03 0.  1.
         11    1    3    3    0    0  0.16890599063E+01  0.98566820461E+01 -0.42401600078E+02  0.43564926188E+02  0.51100000000E-03 0. -1.
<mgrwt>
<rscale>  0 0.20002051E+02</rscale>
<asrwt>0</asrwt>
<pdfrwt beam="2">  1        1 0.13380555E-01 0.20002051E+02</pdfrwt>
<pdfrwt beam="1">  1       -1 0.17692462E-03 0.20002051E+02</pdfrwt>
<totfact> 0.43705648E+06</totfact>
</mgrwt>
</event>
<event>
 5    1  0.9583198E-007  0.2000035E+02  0.7818608E-02  0.1745321E+00
          1   -1    0    0  501    0  0.00000000000E+00  0.00000000000E+00  0.13559715371E+01  0.13559795789E+01  0.46700000000E-02 0. -1.
         -1   -1    0    0    0  501 -0.00000000000E+00 -0.00000000000E+00 -0.73750220976E+02  0.73750221124E+02  0.46700000000E-02 0.  1.
       1023    2    1    2    0    0  0.00000000000E+00  0.00000000000E+00 -0.72394249439E+02  0.75106200703E+02  0.20000350801E+02 0.  0.
        -11    1    3    3    0    0  0.27709994737E+01  0.96084832106E+01 -0.36024216618E+02  0.37386435654E+02  0.51100000000E-03 0. -1.
         11    1    3    3    0    0 -0.27709994737E+01 -0.96084832106E+01 -0.36370032821E+02  0.37719765049E+02  0.51100000000E-03 0.  1.
<mgrwt>
<rscale>  0 0.20000351E+02</rscale>
<asrwt>0</asrwt>
<pdfrwt beam="1">  1        1 0.20861169E-03 0.20000351E+02</pdfrwt>
<pdfrwt beam="2">  1       -1 0.11346185E-01 0.20000351E+02</pdfrwt>
<totfact> 0.33367626E+06</totfact>
</mgrwt>
</event>
<event>
 5    1  0.9683714E-007  0.2000160E+02  0.7818608E-02  0.1745296E+00
          1   -1    0    0  501    0  0.00000000000E+00  0.00000000000E+00  0.11840203727E+02  0.11840204648E+02  0.46700000000E-02 0. -1.
         -1   -1    0    0    0  501 -0.00000000000E+00 -0.00000000000E+00 -0.84471461573E+01  0.84471474482E+01  0.46700000000E-02 0.  1.
       1023    2    1    2    0    0  0.00000000000E+00  0.00000000000E+00  0.33930575700E+01  0.20287352096E+02  0.20001595322E+02 0.  0.
        -11    1    3    3    0    0 -0.96410956108E+01 -0.26568494933E+01  0.16155141000E+01  0.10130126350E+02  0.51100000000E-03 0.  1.
         11    1    3    3    0    0  0.96410956108E+01  0.26568494933E+01  0.17775434700E+01  0.10157225746E+02  0.51100000000E-03 0. -1.
<mgrwt>
<rscale>  0 0.20001595E+02</rscale>
<asrwt>0</asrwt>
<pdfrwt beam="1">  1        1 0.18215700E-02 0.20001595E+02</pdfrwt>
<pdfrwt beam="2">  1       -1 0.12995611E-02 0.20001595E+02</pdfrwt>
<totfact> 0.38876020E+06</totfact>
</mgrwt>
</event>
<event>
 5    1  0.9583198E-007  0.2000099E+02  0.7818608E-02  0.1745308E+00
         -1   -1    0    0    0  501 -0.00000000000E+00  0.00000000000E+00  0.59453825323E+02  0.59453825507E+02  0.46700000000E-02 0. -1.
          1   -1    0    0  501    0  0.00000000000E+00 -0.00000000000E+00 -0.16821410114E+01  0.16821474939E+01  0.46700000000E-02 0.  1.
       1023    2    1    2    0    0  0.00000000000E+00  0.00000000000E+00  0.57771684312E+02  0.61135973000E+02  0.20000992138E+02 0.  0.
        -11    1    3    3    0    0  0.90570076526E+01  0.42402784320E+01  0.28812701846E+02  0.30498871073E+02  0.51100000000E-03 0.  1.
         11    1    3    3    0    0 -0.90570076526E+01 -0.42402784320E+01  0.28958982466E+02  0.30637101928E+02  0.51100000000E-03 0. -1.
<mgrwt>
<rscale>  0 0.20000992E+02</rscale>
<asrwt>0</asrwt>
<pdfrwt beam="2">  1        1 0.25879145E-03 0.20000992E+02</pdfrwt>
<pdfrwt beam="1">  1       -1 0.91467426E-02 0.20000992E+02</pdfrwt>
<totfact> 0.34275744E+06</totfact>
</mgrwt>
</event>
<event>
 5    1  0.9583198E-007  0.2000012E+02  0.7818608E-02  0.1745326E+00
         -1   -1    0    0    0  501 -0.00000000000E+00  0.00000000000E+00  0.10235822085E+02  0.10235823150E+02  0.46700000000E-02 0. -1.
          1   -1    0    0  501    0  0.00000000000E+00 -0.00000000000E+00 -0.97697270381E+01  0.97697281543E+01  0.46700000000E-02 0.  1.
       1023    2    1    2    0    0  0.00000000000E+00  0.00000000000E+00  0.46609504683E+00  0.20005551305E+02  0.20000120960E+02 0.  0.
        -11    1    3    3    0    0 -0.48921398655E+01 -0.87216827771E+01  0.21239214746E+00  0.10002294417E+02  0.51100000000E-03 0. -1.
         11    1    3    3    0    0  0.48921398655E+01  0.87216827771E+01  0.25370289937E+00  0.10003256887E+02  0.51100000000E-03 0.  1.
<mgrwt>
<rscale>  0 0.20000121E+02</rscale>
<asrwt>0</asrwt>
<pdfrwt beam="2">  1        1 0.15030351E-02 0.20000121E+02</pdfrwt>
<pdfrwt beam="1">  1       -1 0.15747420E-02 0.20000121E+02</pdfrwt>
<totfact> 0.38587260E+06</totfact>
</mgrwt>
</event>
<event>
 4    1  0.9583198E-007  0.2018759E+02  0.7818608E-02  0.1741623E+00
         -1   -1    0    0    0  501 -0.00000000000E+00  0.00000000000E+00  0.10117969017E+02  0.10117970095E+02  0.46700000000E-02 0.  1.
          1   -1    0    0  501    0  0.00000000000E+00 -0.00000000000E+00 -0.10069673107E+02  0.10069674190E+02  0.46700000000E-02 0. -1.
        -11    1    1    2    0    0 -0.39813942136E+00 -0.10085894340E+02 -0.55576957454E-02  0.10093751076E+02  0.51100000000E-03 0.  1.
         11    1    1    2    0    0  0.39813942136E+00  0.10085894340E+02  0.53853605484E-01  0.10093893209E+02  0.51100000000E-03 0. -1.
<mgrwt>
<rscale>  0 0.20187587E+02</rscale>
<asrwt>0</asrwt>
<pdfrwt beam="2">  1        1 0.15491807E-02 0.20187587E+02</pdfrwt>
<pdfrwt beam="1">  1       -1 0.15566108E-02 0.20187587E+02</pdfrwt>
<totfact> 0.37825544E+06</totfact>
</mgrwt>
</event>
<event>
 5    1  0.9583198E-007  0.2000028E+02  0.7818608E-02  0.1745322E+00
          1   -1    0    0  501    0  0.00000000000E+00  0.00000000000E+00  0.51885296608E+01  0.51885317624E+01  0.46700000000E-02 0. -1.
         -1   -1    0    0    0  501 -0.00000000000E+00 -0.00000000000E+00 -0.19273823756E+02  0.19273824322E+02  0.46700000000E-02 0.  1.
       1023    2    1    2    0    0  0.00000000000E+00  0.00000000000E+00 -0.14085294095E+02  0.24462356084E+02  0.20000283884E+02 0.  0.
        -11    1    3    3    0    0 -0.49826497481E+01 -0.86703675960E+01 -0.70087992668E+01  0.12211688671E+02  0.51100000000E-03 0.  1.
         11    1    3    3    0    0  0.49826497481E+01  0.86703675960E+01 -0.70764948283E+01  0.12250667414E+02  0.51100000000E-03 0. -1.
<mgrwt>
<rscale>  0 0.20000284E+02</rscale>
<asrwt>0</asrwt>
<pdfrwt beam="1">  1        1 0.79823555E-03 0.20000284E+02</pdfrwt>
<pdfrwt beam="2">  1       -1 0.29652038E-02 0.20000284E+02</pdfrwt>
<totfact> 0.37490156E+06</totfact>
</mgrwt>
</event>
<event>
 5    1  0.9611438E-007  0.2000112E+02  0.7818608E-02  0.1745306E+00
         -1   -1    0    0    0  501 -0.00000000000E+00  0.00000000000E+00  0.36196680367E+02  0.36196680668E+02  0.46700000000E-02 0.  1.
          1   -1    0    0  501    0  0.00000000000E+00 -0.00000000000E+00 -0.27629925248E+01  0.27629964714E+01  0.46700000000E-02 0. -1.
       1023    2    1    2    0    0  0.00000000000E+00  0.00000000000E+00  0.33433687842E+02  0.38959677140E+02  0.20001123971E+02 0.  0.
        -11    1    3    3    0    0  0.47596881758E+00 -0.99887556197E+01  0.16527442619E+02  0.19317301699E+02  0.51100000000E-03 0.  1.
         11    1    3    3    0    0 -0.47596881758E+00  0.99887556197E+01  0.16906245223E+02  0.19642375441E+02  0.51100000000E-03 0. -1.
<mgrwt>
<rscale>  0 0.20001124E+02</rscale>
<asrwt>0</asrwt>
<pdfrwt beam="2">  1        1 0.42507612E-03 0.20001124E+02</pdfrwt>
<pdfrwt beam="1">  1       -1 0.55687201E-02 0.20001124E+02</pdfrwt>
<totfact> 0.35966496E+06</totfact>
</mgrwt>
</event>
<event>
 5    1  0.9583198E-007  0.2000037E+02  0.7818608E-02  0.1745321E+00
          1   -1    0    0  501    0  0.00000000000E+00  0.00000000000E+00  0.43833418482E+02  0.43833418731E+02  0.46700000000E-02 0.  1.
         -1   -1    0    0    0  501 -0.00000000000E+00 -0.00000000000E+00 -0.22814454602E+01  0.22814502398E+01  0.46700000000E-02 0. -1.
       1023    2    1    2    0    0  0.00000000000E+00  0.00000000000E+00  0.41551973022E+02  0.46114868971E+02  0.20000366951E+02 0.  0.
        -11    1    3    3    0    0  0.11506226054E+01  0.99337123437E+01  0.20699655066E+02  0.22988655755E+02  0.51100000000E-03 0.  1.
         11    1    3    3    0    0 -0.11506226054E+01 -0.99337123437E+01  0.20852317956E+02  0.23126213216E+02  0.51100000000E-03 0. -1.
<mgrwt>
<rscale>  0 0.20000367E+02</rscale>
<asrwt>0</asrwt>
<pdfrwt beam="1">  1        1 0.67436032E-02 0.20000367E+02</pdfrwt>
<pdfrwt beam="2">  1       -1 0.35099200E-03 0.20000367E+02</pdfrwt>
<totfact> 0.41345042E+06</totfact>
</mgrwt>
</event>
<event>
 5    1  0.9583198E-007  0.2000028E+02  0.7818608E-02  0.1745322E+00
          1   -1    0    0  501    0  0.00000000000E+00  0.00000000000E+00  0.24933813018E+01  0.24933856752E+01  0.46700000000E-02 0.  1.
         -1   -1    0    0    0  501 -0.00000000000E+00 -0.00000000000E+00 -0.40107270276E+02  0.40107270548E+02  0.46700000000E-02 0. -1.
       1023    2    1    2    0    0  0.00000000000E+00  0.00000000000E+00 -0.37613888974E+02  0.42600656223E+02  0.20000281670E+02 0.  0.
        -11    1    3    3    0    0 -0.81969538150E+01 -0.57281562451E+01 -0.18873985240E+02  0.21359521177E+02  0.51100000000E-03 0. -1.
         11    1    3    3    0    0  0.81969538150E+01  0.57281562451E+01 -0.18739903734E+02  0.21241135046E+02  0.51100000000E-03 0.  1.
<mgrwt>
<rscale>  0 0.20000282E+02</rscale>
<asrwt>0</asrwt>
<pdfrwt beam="1">  1        1 0.38359751E-03 0.20000282E+02</pdfrwt>
<pdfrwt beam="2">  1       -1 0.61703491E-02 0.20000282E+02</pdfrwt>
<totfact> 0.35661744E+06</totfact>
</mgrwt>
</event>
<event>
 5    1  0.9583198E-007  0.2000623E+02  0.7818608E-02  0.1745204E+00
          1   -1    0    0  501    0  0.00000000000E+00  0.00000000000E+00  0.63900069127E+02  0.63900069297E+02  0.46700000000E-02 0. -1.
         -1   -1    0    0    0  501 -0.00000000000E+00 -0.00000000000E+00 -0.15659155313E+01  0.15659224949E+01  0.46700000000E-02 0.  1.
       1023    2    1    2    0    0  0.00000000000E+00  0.00000000000E+00  0.62334153596E+02  0.65465991792E+02  0.20006233451E+02 0.  0.
        -11    1    3    3    0    0  0.95285600190E+01 -0.30361354784E+01  0.30429765435E+02  0.32030956892E+02  0.51100000000E-03 0.  1.
         11    1    3    3    0    0 -0.95285600190E+01  0.30361354784E+01  0.31904388160E+02  0.33435034901E+02  0.51100000000E-03 0. -1.
<mgrwt>
<rscale>  0 0.20006233E+02</rscale>
<asrwt>0</asrwt>
<pdfrwt beam="1">  1        1 0.98307799E-02 0.20006233E+02</pdfrwt>
<pdfrwt beam="2">  1       -1 0.24091064E-03 0.20006233E+02</pdfrwt>
<totfact> 0.42473429E+06</totfact>
</mgrwt>
</event>
<event>
 5    1  0.9723858E-007  0.2000223E+02  0.7818608E-02  0.1745284E+00
          1   -1    0    0  501    0  0.00000000000E+00  0.00000000000E+00  0.35321376355E+02  0.35321376664E+02  0.46700000000E-02 0.  1.
         -1   -1    0    0    0  501 -0.00000000000E+00 -0.00000000000E+00 -0.28317763459E+01  0.28317801966E+01  0.46700000000E-02 0. -1.
       1023    2    1    2    0    0  0.00000000000E+00  0.00000000000E+00  0.32489600009E+02  0.38153156860E+02  0.20002231617E+02 0.  0.
        -11    1    3    3    0    0  0.25407889029E+01 -0.96729885791E+01  0.16243040259E+02  0.19075079906E+02  0.51100000000E-03 0.  1.
         11    1    3    3    0    0 -0.25407889029E+01  0.96729885791E+01  0.16246559750E+02  0.19078076955E+02  0.51100000000E-03 0. -1.
<mgrwt>
<rscale>  0 0.20002232E+02</rscale>
<asrwt>0</asrwt>
<pdfrwt beam="1">  1        1 0.54340582E-02 0.20002232E+02</pdfrwt>
<pdfrwt beam="2">  1       -1 0.43565822E-03 0.20002232E+02</pdfrwt>
<totfact> 0.40802100E+06</totfact>
</mgrwt>
</event>
<event>
 5    1  0.9583198E-007  0.2000222E+02  0.7818608E-02  0.1745284E+00
         -1   -1    0    0    0  501 -0.00000000000E+00  0.00000000000E+00  0.11101299751E+02  0.11101300733E+02  0.46700000000E-02 0. -1.
          1   -1    0    0  501    0  0.00000000000E+00 -0.00000000000E+00 -0.90099524137E+01  0.90099536240E+01  0.46700000000E-02 0.  1.
       1023    2    1    2    0    0  0.00000000000E+00  0.00000000000E+00  0.20913473374E+01  0.20111254357E+02  0.20002220330E+02 0.  0.
        -11    1    3    3    0    0  0.91402406376E+01  0.40578544944E+01  0.11559174432E+01  0.10067091308E+02  0.51100000000E-03 0.  1.
         11    1    3    3    0    0 -0.91402406376E+01 -0.40578544944E+01  0.93542989429E+00  0.10044163049E+02  0.51100000000E-03 0. -1.
<mgrwt>
<rscale>  0 0.20002220E+02</rscale>
<asrwt>0</asrwt>
<pdfrwt beam="2">  1        1 0.13861467E-02 0.20002220E+02</pdfrwt>
<pdfrwt beam="1">  1       -1 0.17078924E-02 0.20002220E+02</pdfrwt>
<totfact> 0.38451109E+06</totfact>
</mgrwt>
</event>
<event>
 5    1  0.1027554E-006  0.2000109E+02  0.7818608E-02  0.1745306E+00
          1   -1    0    0  501    0  0.00000000000E+00  0.00000000000E+00  0.91821253055E+02  0.91821253173E+02  0.46700000000E-02 0.  1.
         -1   -1    0    0    0  501 -0.00000000000E+00 -0.00000000000E+00 -0.10891864620E+01  0.10891964735E+01  0.46700000000E-02 0. -1.
       1023    2    1    2    0    0  0.00000000000E+00  0.00000000000E+00  0.90732066593E+02  0.92910449647E+02  0.20001093606E+02 0.  0.
        -11    1    3    3    0    0  0.17908579075E+01 -0.98385538268E+01  0.45744063677E+02  0.46824391885E+02  0.51100000000E-03 0.  1.
         11    1    3    3    0    0 -0.17908579075E+01  0.98385538268E+01  0.44988002916E+02  0.46086057762E+02  0.51100000000E-03 0. -1.
<mgrwt>
<rscale>  0 0.20001094E+02</rscale>
<asrwt>0</asrwt>
<pdfrwt beam="1">  1        1 0.14126348E-01 0.20001094E+02</pdfrwt>
<pdfrwt beam="2">  1       -1 0.16756792E-03 0.20001094E+02</pdfrwt>
<totfact> 0.43953473E+06</totfact>
</mgrwt>
</event>
<event>
 5    1  0.9583198E-007  0.2000923E+02  0.7818608E-02  0.1745145E+00
         -1   -1    0    0    0  501 -0.00000000000E+00  0.00000000000E+00  0.13566978068E+02  0.13566978872E+02  0.46700000000E-02 0.  1.
          1   -1    0    0  501    0  0.00000000000E+00 -0.00000000000E+00 -0.73776445524E+01  0.73776460305E+01  0.46700000000E-02 0. -1.
       1023    2    1    2    0    0  0.00000000000E+00  0.00000000000E+00  0.61893335153E+01  0.20944624902E+02  0.20009234441E+02 0.  0.
        -11    1    3    3    0    0  0.41355248803E+01 -0.91077164588E+01  0.33021773511E+01  0.10533633782E+02  0.51100000000E-03 0.  1.
         11    1    3    3    0    0 -0.41355248803E+01  0.91077164588E+01  0.28871561643E+01  0.10410991120E+02  0.51100000000E-03 0. -1.
<mgrwt>
<rscale>  0 0.20009234E+02</rscale>
<asrwt>0</asrwt>
<pdfrwt beam="2">  1        1 0.11350224E-02 0.20009234E+02</pdfrwt>
<pdfrwt beam="1">  1       -1 0.20872276E-02 0.20009234E+02</pdfrwt>
<totfact> 0.38094418E+06</totfact>
</mgrwt>
</event>
<event>
 5    1  0.9583198E-007  0.2000036E+02  0.7818608E-02  0.1745321E+00
         -1   -1    0    0    0  501 -0.00000000000E+00  0.00000000000E+00  0.22595280577E+01  0.22595328836E+01  0.46700000000E-02 0. -1.
          1   -1    0    0  501    0  0.00000000000E+00 -0.00000000000E+00 -0.44258588860E+02  0.44258589106E+02  0.46700000000E-02 0.  1.
       1023    2    1    2    0    0  0.00000000000E+00  0.00000000000E+00 -0.41999060802E+02  0.46518121990E+02  0.20000364127E+02 0.  0.
        -11    1    3    3    0    0  0.23841431332E+01  0.97118134763E+01 -0.21030870110E+02  0.23287356169E+02  0.51100000000E-03 0.  1.
         11    1    3    3    0    0 -0.23841431332E+01 -0.97118134763E+01 -0.20968190692E+02  0.23230765821E+02  0.51100000000E-03 0. -1.
<mgrwt>
<rscale>  0 0.20000364E+02</rscale>
<asrwt>0</asrwt>
<pdfrwt beam="2">  1        1 0.68090134E-02 0.20000364E+02</pdfrwt>
<pdfrwt beam="1">  1       -1 0.34762012E-03 0.20000364E+02</pdfrwt>
<totfact> 0.41370885E+06</totfact>
</mgrwt>
</event>
<event>
 5    1  0.9583198E-007  0.2000008E+02  0.7818608E-02  0.1745326E+00
          1   -1    0    0  501    0  0.00000000000E+00  0.00000000000E+00  0.36464103147E+02  0.36464103446E+02  0.46700000000E-02 0. -1.
         -1   -1    0    0    0  501 -0.00000000000E+00 -0.00000000000E+00 -0.27424429219E+01  0.27424468981E+01  0.46700000000E-02 0.  1.
       1023    2    1    2    0    0  0.00000000000E+00  0.00000000000E+00  0.33721660225E+02  0.39206550344E+02  0.20000080538E+02 0.  0.
        -11    1    3    3    0    0 -0.33844250054E+01  0.94099115251E+01  0.16848810202E+02  0.19592936814E+02  0.51100000000E-03 0.  1.
         11    1    3    3    0    0  0.33844250054E+01 -0.94099115251E+01  0.16872850023E+02  0.19613613529E+02  0.51100000000E-03 0. -1.
<mgrwt>
<rscale>  0 0.20000081E+02</rscale>
<asrwt>0</asrwt>
<pdfrwt beam="1">  1        1 0.56098622E-02 0.20000081E+02</pdfrwt>
<pdfrwt beam="2">  1       -1 0.42191464E-03 0.20000081E+02</pdfrwt>
<totfact> 0.40885811E+06</totfact>
</mgrwt>
</event>
<event>
 5    1  0.9583198E-007  0.2000702E+02  0.7818608E-02  0.1745189E+00
          1   -1    0    0  501    0  0.00000000000E+00  0.00000000000E+00  0.76033635178E+01  0.76033649520E+01  0.46700000000E-02 0. -1.
         -1   -1    0    0    0  501 -0.00000000000E+00 -0.00000000000E+00 -0.13161305688E+02  0.13161306516E+02  0.46700000000E-02 0.  1.
       1023    2    1    2    0    0  0.00000000000E+00  0.00000000000E+00 -0.55579421701E+01  0.20764671468E+02  0.20007020268E+02 0.  0.
        -11    1    3    3    0    0 -0.40394981502E+00 -0.99947207035E+01 -0.26624827949E+01  0.10351156085E+02  0.51100000000E-03 0. -1.
         11    1    3    3    0    0  0.40394981502E+00  0.99947207035E+01 -0.28954593752E+01  0.10413515384E+02  0.51100000000E-03 0.  1.
<mgrwt>
<rscale>  0 0.20007020E+02</rscale>
<asrwt>0</asrwt>
<pdfrwt beam="1">  1        1 0.11697484E-02 0.20007020E+02</pdfrwt>
<pdfrwt beam="2">  1       -1 0.20248164E-02 0.20007020E+02</pdfrwt>
<totfact> 0.38154663E+06</totfact>
</mgrwt>
</event>
<event>
 5    1  0.9852386E-007  0.2000100E+02  0.7818608E-02  0.1745308E+00
         -1   -1    0    0    0  501 -0.00000000000E+00  0.00000000000E+00  0.78730098746E+01  0.78730112596E+01  0.46700000000E-02 0.  1.
          1   -1    0    0  501    0  0.00000000000E+00 -0.00000000000E+00 -0.12702894109E+02  0.12702894967E+02  0.46700000000E-02 0. -1.
       1023    2    1    2    0    0  0.00000000000E+00  0.00000000000E+00 -0.48298842340E+01  0.20575906227E+02  0.20001003358E+02 0.  0.
        -11    1    3    3    0    0 -0.98517754518E+01 -0.17154626078E+01 -0.25164810496E+01  0.10311787849E+02  0.51100000000E-03 0.  1.
         11    1    3    3    0    0  0.98517754518E+01  0.17154626078E+01 -0.23134031844E+01  0.10264118377E+02  0.51100000000E-03 0. -1.
<mgrwt>
<rscale>  0 0.20001003E+02</rscale>
<asrwt>0</asrwt>
<pdfrwt beam="2">  1        1 0.19542916E-02 0.20001003E+02</pdfrwt>
<pdfrwt beam="1">  1       -1 0.12112325E-02 0.20001003E+02</pdfrwt>
<totfact> 0.38985721E+06</totfact>
</mgrwt>
</event>
<event>
 5    1  0.9583198E-007  0.2000661E+02  0.7818608E-02  0.1745197E+00
         -1   -1    0    0    0  501 -0.00000000000E+00  0.00000000000E+00  0.20507460384E+02  0.20507460916E+02  0.46700000000E-02 0. -1.
          1   -1    0    0  501    0  0.00000000000E+00 -0.00000000000E+00 -0.48794939161E+01  0.48794961509E+01  0.46700000000E-02 0.  1.
       1023    2    1    2    0    0  0.00000000000E+00  0.00000000000E+00  0.15627966468E+02  0.25386957067E+02  0.20006605239E+02 0.  0.
        -11    1    3    3    0    0  0.87374897174E+01  0.48697891133E+01  0.77041606585E+01  0.12625872813E+02  0.51100000000E-03 0. -1.
         11    1    3    3    0    0 -0.87374897174E+01 -0.48697891133E+01  0.79238058094E+01  0.12761084254E+02  0.51100000000E-03 0.  1.
<mgrwt>
<rscale>  0 0.20006605E+02</rscale>
<asrwt>0</asrwt>
<pdfrwt beam="2">  1        1 0.75069158E-03 0.20006605E+02</pdfrwt>
<pdfrwt beam="1">  1       -1 0.31549941E-02 0.20006605E+02</pdfrwt>
<totfact> 0.37338329E+06</totfact>
</mgrwt>
</event>
<event>
 5    1  0.9583198E-007  0.2000395E+02  0.7818608E-02  0.1745249E+00
         -1   -1    0    0    0  501 -0.00000000000E+00  0.00000000000E+00  0.29937494122E+02  0.29937494486E+02  0.46700000000E-02 0. -1.
          1   -1    0    0  501    0  0.00000000000E+00 -0.00000000000E+00 -0.33416114209E+01  0.33416146841E+01  0.46700000000E-02 0.  1.
       1023    2    1    2    0    0  0.00000000000E+00  0.00000000000E+00  0.26595882701E+02  0.33279109171E+02  0.20003952873E+02 0.  0.
        -11    1    3    3    0    0  0.47020761511E+01 -0.88268519192E+01  0.13512912790E+02  0.16811354713E+02  0.51100000000E-03 0. -1.
         11    1    3    3    0    0 -0.47020761511E+01  0.88268519192E+01  0.13082969911E+02  0.16467754458E+02  0.51100000000E-03 0.  1.
<mgrwt>
<rscale>  0 0.20003953E+02</rscale>
<asrwt>0</asrwt>
<pdfrwt beam="2">  1        1 0.51409435E-03 0.20003953E+02</pdfrwt>
<pdfrwt beam="1">  1       -1 0.46057685E-02 0.20003953E+02</pdfrwt>
<totfact> 0.36476043E+06</totfact>
</mgrwt>
</event>
<event>
 5    1  0.9796783E-007  0.2000208E+02  0.7818608E-02  0.1745287E+00
         -1   -1    0    0    0  501 -0.00000000000E+00  0.00000000000E+00  0.31777494740E+01  0.31777529055E+01  0.46700000000E-02 0.  1.
          1   -1    0    0  501    0  0.00000000000E+00 -0.00000000000E+00 -0.31475335164E+02  0.31475335511E+02  0.46700000000E-02 0. -1.
       1023    2    1    2    0    0  0.00000000000E+00  0.00000000000E+00 -0.28297585690E+02  0.34653088416E+02  0.20002079414E+02 0.  0.
        -11    1    3    3    0    0  0.62082570048E+01  0.78403007408E+01 -0.14303984400E+02  0.17453273066E+02  0.51100000000E-03 0. -1.
         11    1    3    3    0    0 -0.62082570048E+01 -0.78403007408E+01 -0.13993601290E+02  0.17199815350E+02  0.51100000000E-03 0.  1.
<mgrwt>
<rscale>  0 0.20002079E+02</rscale>
<asrwt>0</asrwt>
<pdfrwt beam="2">  1        1 0.48423593E-02 0.20002079E+02</pdfrwt>
<pdfrwt beam="1">  1       -1 0.48888485E-03 0.20002079E+02</pdfrwt>
<totfact> 0.40547956E+06</totfact>
</mgrwt>
</event>
<event>
 4    1  0.9583198E-007  0.2001844E+02  0.7818608E-02  0.1744962E+00
         -1   -1    0    0    0  501 -0.00000000000E+00  0.00000000000E+00  0.68960352862E+01  0.68960368675E+01  0.46700000000E-02 0. -1.
          1   -1    0    0  501    0  0.00000000000E+00 -0.00000000000E+00 -0.14527830437E+02  0.14527831188E+02  0.46700000000E-02 0.  1.
        -11    1    1    2    0    0  0.85961726206E+01 -0.51273184221E+01 -0.37841840295E+01  0.10700636755E+02  0.51100000000E-03 0.  1.
         11    1    1    2    0    0 -0.85961726206E+01  0.51273184221E+01 -0.38476111217E+01  0.10723231301E+02  0.51100000000E-03 0. -1.
<mgrwt>
<rscale>  0 0.20018437E+02</rscale>
<asrwt>0</asrwt>
<pdfrwt beam="2">  1        1 0.22350510E-02 0.20018437E+02</pdfrwt>
<pdfrwt beam="1">  1       -1 0.10609287E-02 0.20018437E+02</pdfrwt>
<totfact> 0.39114061E+06</totfact>
</mgrwt>
</event>
<event>
 4    1  0.9583198E-007  0.2007578E+02  0.7818608E-02  0.1743825E+00
          1   -1    0    0  501    0  0.00000000000E+00  0.00000000000E+00  0.24399341911E+02  0.24399342358E+02  0.46700000000E-02 0. -1.
         -1   -1    0    0    0  501 -0.00000000000E+00 -0.00000000000E+00 -0.41295850770E+01  0.41295877176E+01  0.46700000000E-02 0.  1.
        -11    1    1    2    0    0  0.87228573869E+01 -0.49615841506E+01  0.10464012364E+02  0.14498314154E+02  0.51100000000E-03 0. -1.
         11    1    1    2    0    0 -0.87228573869E+01  0.49615841506E+01  0.98057444693E+01  0.14030615921E+02  0.51100000000E-03 0.  1.
<mgrwt>
<rscale>  0 0.20075777E+02</rscale>
<asrwt>0</asrwt>
<pdfrwt beam="1">  1        1 0.37537452E-02 0.20075777E+02</pdfrwt>
<pdfrwt beam="2">  1       -1 0.63532101E-03 0.20075777E+02</pdfrwt>
<totfact> 0.39716691E+06</totfact>
</mgrwt>
</event>
<event>
 5    1  0.9583198E-007  0.2000047E+02  0.7818608E-02  0.1745319E+00
         -1   -1    0    0    0  501 -0.00000000000E+00  0.00000000000E+00  0.60329282364E+01  0.60329300439E+01  0.46700000000E-02 0.  1.
          1   -1    0    0  501    0  0.00000000000E+00 -0.00000000000E+00 -0.16576471188E+02  0.16576471845E+02  0.46700000000E-02 0. -1.
       1023    2    1    2    0    0  0.00000000000E+00  0.00000000000E+00 -0.10543542951E+02  0.22609401889E+02  0.20000468890E+02 0.  0.
        -11    1    3    3    0    0 -0.61001727827E+01 -0.79239823552E+01 -0.53345528513E+01  0.11333978063E+02  0.51100000000E-03 0. -1.
         11    1    3    3    0    0  0.61001727827E+01  0.79239823552E+01 -0.52089900998E+01  0.11275423826E+02  0.51100000000E-03 0.  1.
<mgrwt>
<rscale>  0 0.20000469E+02</rscale>
<asrwt>0</asrwt>
<pdfrwt beam="2">  1        1 0.25502265E-02 0.20000469E+02</pdfrwt>
<pdfrwt beam="1">  1       -1 0.92814300E-03 0.20000469E+02</pdfrwt>
<totfact> 0.39398725E+06</totfact>
</mgrwt>
</event>
<event>
 5    1  0.9583198E-007  0.2000123E+02  0.7818608E-02  0.1745304E+00
          1   -1    0    0  501    0  0.00000000000E+00  0.00000000000E+00  0.25122252335E+01  0.25122295741E+01  0.46700000000E-02 0.  1.
         -1   -1    0    0    0  501 -0.00000000000E+00 -0.00000000000E+00 -0.39810205447E+02  0.39810205721E+02  0.46700000000E-02 0. -1.
       1023    2    1    2    0    0  0.00000000000E+00  0.00000000000E+00 -0.37297980213E+02  0.42322435295E+02  0.20001229994E+02 0.  0.
        -11    1    3    3    0    0 -0.52859951389E+01  0.84894352506E+01 -0.18663118055E+02  0.21173668347E+02  0.51100000000E-03 0.  1.
         11    1    3    3    0    0  0.52859951389E+01 -0.84894352506E+01 -0.18634862158E+02  0.21148766948E+02  0.51100000000E-03 0. -1.
<mgrwt>
<rscale>  0 0.20001230E+02</rscale>
<asrwt>0</asrwt>
<pdfrwt beam="1">  1        1 0.38649657E-03 0.20001230E+02</pdfrwt>
<pdfrwt beam="2">  1       -1 0.61246469E-02 0.20001230E+02</pdfrwt>
<totfact> 0.35681033E+06</totfact>
</mgrwt>
</event>
<event>
 5    1  0.9583198E-007  0.2000016E+02  0.7818608E-02  0.1745325E+00
          1   -1    0    0  501    0  0.00000000000E+00  0.00000000000E+00  0.64880792892E+02  0.64880793060E+02  0.46700000000E-02 0.  1.
         -1   -1    0    0    0  501 -0.00000000000E+00 -0.00000000000E+00 -0.15413091988E+01  0.15413162736E+01  0.46700000000E-02 0. -1.
       1023    2    1    2    0    0  0.00000000000E+00  0.00000000000E+00  0.63339483693E+02  0.66422109334E+02  0.20000160345E+02 0.  0.
        -11    1    3    3    0    0  0.99804737437E+01 -0.62572400061E+00  0.31620873574E+02  0.33164454352E+02  0.51100000000E-03 0.  1.
         11    1    3    3    0    0 -0.99804737437E+01  0.62572400061E+00  0.31718610119E+02  0.33257654981E+02  0.51100000000E-03 0. -1.
<mgrwt>
<rscale>  0 0.20000160E+02</rscale>
<asrwt>0</asrwt>
<pdfrwt beam="1">  1        1 0.99816613E-02 0.20000160E+02</pdfrwt>
<pdfrwt beam="2">  1       -1 0.23712504E-03 0.20000160E+02</pdfrwt>
<totfact> 0.42555816E+06</totfact>
</mgrwt>
</event>
<event>
 4    1  0.9583198E-007  0.2003912E+02  0.7818608E-02  0.1744551E+00
          1   -1    0    0  501    0  0.00000000000E+00  0.00000000000E+00  0.65553989865E+01  0.65554006500E+01  0.46700000000E-02 0.  1.
         -1   -1    0    0    0  501 -0.00000000000E+00 -0.00000000000E+00 -0.15314335894E+02  0.15314336606E+02  0.46700000000E-02 0. -1.
        -11    1    1    2    0    0  0.37968951016E+01  0.92701566392E+01 -0.41628654866E+01  0.10848118079E+02  0.51100000000E-03 0. -1.
         11    1    1    2    0    0 -0.37968951016E+01 -0.92701566392E+01 -0.45960714212E+01  0.11021619178E+02  0.51100000000E-03 0.  1.
<mgrwt>
<rscale>  0 0.20039123E+02</rscale>
<asrwt>0</asrwt>
<pdfrwt beam="1">  1        1 0.10085231E-02 0.20039123E+02</pdfrwt>
<pdfrwt beam="2">  1       -1 0.23560518E-02 0.20039123E+02</pdfrwt>
<totfact> 0.37760907E+06</totfact>
</mgrwt>
</event>
<event>
 5    1  0.9601006E-007  0.2000092E+02  0.7818608E-02  0.1745310E+00
         -1   -1    0    0    0  501 -0.00000000000E+00  0.00000000000E+00  0.18432442045E+02  0.18432442637E+02  0.46700000000E-02 0.  1.
          1   -1    0    0  501    0  0.00000000000E+00 -0.00000000000E+00 -0.54257148834E+01  0.54257168932E+01  0.46700000000E-02 0. -1.
       1023    2    1    2    0    0  0.00000000000E+00  0.00000000000E+00  0.13006727162E+02  0.23858159530E+02  0.20000920596E+02 0.  0.
        -11    1    3    3    0    0  0.29380813688E+01  0.95586856358E+01  0.66127729702E+01  0.11988726364E+02  0.51100000000E-03 0.  1.
         11    1    3    3    0    0 -0.29380813688E+01 -0.95586856358E+01  0.63939541914E+01  0.11869433166E+02  0.51100000000E-03 0. -1.
<mgrwt>
<rscale>  0 0.20000921E+02</rscale>
<asrwt>0</asrwt>
<pdfrwt beam="2">  1        1 0.83472556E-03 0.20000921E+02</pdfrwt>
<pdfrwt beam="1">  1       -1 0.28357605E-02 0.20000921E+02</pdfrwt>
<totfact> 0.37575381E+06</totfact>
</mgrwt>
</event>
<event>
 5    1  0.9583198E-007  0.2000019E+02  0.7818608E-02  0.1745324E+00
         -1   -1    0    0    0  501 -0.00000000000E+00  0.00000000000E+00  0.62683054848E+01  0.62683072244E+01  0.46700000000E-02 0. -1.
          1   -1    0    0  501    0  0.00000000000E+00 -0.00000000000E+00 -0.15953580796E+02  0.15953581479E+02  0.46700000000E-02 0.  1.
       1023    2    1    2    0    0  0.00000000000E+00  0.00000000000E+00 -0.96852753107E+01  0.22221888703E+02  0.20000194492E+02 0.  0.
        -11    1    3    3    0    0 -0.68636331530E+01  0.72727064154E+01 -0.48593409569E+01  0.11118224384E+02  0.51100000000E-03 0.  1.
         11    1    3    3    0    0  0.68636331530E+01 -0.72727064154E+01 -0.48259343538E+01  0.11103664319E+02  0.51100000000E-03 0. -1.
<mgrwt>
<rscale>  0 0.20000194E+02</rscale>
<asrwt>0</asrwt>
<pdfrwt beam="2">  1        1 0.24543972E-02 0.20000194E+02</pdfrwt>
<pdfrwt beam="1">  1       -1 0.96435488E-03 0.20000194E+02</pdfrwt>
<totfact> 0.39339701E+06</totfact>
</mgrwt>
</event>
<event>
 5    1  0.9583198E-007  0.2000651E+02  0.7818608E-02  0.1745199E+00
          1   -1    0    0  501    0  0.00000000000E+00  0.00000000000E+00  0.37849523757E+02  0.37849524046E+02  0.46700000000E-02 0.  1.
         -1   -1    0    0    0  501 -0.00000000000E+00 -0.00000000000E+00 -0.26437592988E+01  0.26437634234E+01  0.46700000000E-02 0. -1.
       1023    2    1    2    0    0  0.00000000000E+00  0.00000000000E+00  0.35205764459E+02  0.40493287469E+02  0.20006510913E+02 0.  0.
        -11    1    3    3    0    0  0.88348699468E+01  0.46893649113E+01  0.17316292631E+02  0.19997476365E+02  0.51100000000E-03 0.  1.
         11    1    3    3    0    0 -0.88348699468E+01 -0.46893649113E+01  0.17889471828E+02  0.20495811104E+02  0.51100000000E-03 0. -1.
<mgrwt>
<rscale>  0 0.20006511E+02</rscale>
<asrwt>0</asrwt>
<pdfrwt beam="1">  1        1 0.58230035E-02 0.20006511E+02</pdfrwt>
<pdfrwt beam="2">  1       -1 0.40673258E-03 0.20006511E+02</pdfrwt>
<totfact> 0.40945095E+06</totfact>
</mgrwt>
</event>
<event>
 4    1  0.9583198E-007  0.2003286E+02  0.7818608E-02  0.1744675E+00
          1   -1    0    0  501    0  0.00000000000E+00  0.00000000000E+00  0.10163429690E+02  0.10163430763E+02  0.46700000000E-02 0.  1.
         -1   -1    0    0    0  501 -0.00000000000E+00 -0.00000000000E+00 -0.98715578184E+01  0.98715589230E+01  0.46700000000E-02 0. -1.
        -11    1    1    2    0    0  0.34893815303E+01 -0.93851280963E+01  0.41520886372E+00  0.10021417640E+02  0.51100000000E-03 0. -1.
         11    1    1    2    0    0 -0.34893815303E+01  0.93851280963E+01 -0.12333699209E+00  0.10013572046E+02  0.51100000000E-03 0.  1.
<mgrwt>
<rscale>  0 0.20032864E+02</rscale>
<asrwt>0</asrwt>
<pdfrwt beam="1">  1        1 0.15636047E-02 0.20032864E+02</pdfrwt>
<pdfrwt beam="2">  1       -1 0.15187014E-02 0.20032864E+02</pdfrwt>
<totfact> 0.38505569E+06</totfact>
</mgrwt>
</event>
<event>
 5    1  0.9583198E-007  0.2000027E+02  0.7818608E-02  0.1745323E+00
          1   -1    0    0  501    0  0.00000000000E+00  0.00000000000E+00  0.11675061690E+03  0.11675061700E+03  0.46700000000E-02 0. -1.
         -1   -1    0    0    0  501 -0.00000000000E+00 -0.00000000000E+00 -0.85654352035E+00  0.85655625101E+00  0.46700000000E-02 0.  1.
       1023    2    1    2    0    0  0.00000000000E+00  0.00000000000E+00  0.11589407338E+03  0.11760717325E+03  0.20000273849E+02 0.  0.
        -11    1    3    3    0    0 -0.96782001974E+01 -0.25168032493E+01  0.57772541115E+02  0.58631632801E+02  0.51100000000E-03 0.  1.
         11    1    3    3    0    0  0.96782001974E+01  0.25168032493E+01  0.58121532268E+02  0.58975540447E+02  0.51100000000E-03 0. -1.
<mgrwt>
<rscale>  0 0.20000274E+02</rscale>
<asrwt>0</asrwt>
<pdfrwt beam="1">  1        1 0.17961626E-01 0.20000274E+02</pdfrwt>
<pdfrwt beam="2">  1       -1 0.13177697E-03 0.20000274E+02</pdfrwt>
<totfact> 0.45150054E+06</totfact>
</mgrwt>
</event>
<event>
 5    1  0.9583198E-007  0.2000049E+02  0.7818608E-02  0.1745318E+00
          1   -1    0    0  501    0  0.00000000000E+00  0.00000000000E+00  0.16030411662E+02  0.16030412342E+02  0.46700000000E-02 0. -1.
         -1   -1    0    0    0  501 -0.00000000000E+00 -0.00000000000E+00 -0.62384450420E+01  0.62384467899E+01  0.46700000000E-02 0.  1.
       1023    2    1    2    0    0  0.00000000000E+00  0.00000000000E+00  0.97919666200E+01  0.22268859132E+02  0.20000486913E+02 0.  0.
        -11    1    3    3    0    0  0.99658714003E+01  0.82840740239E+00  0.48913473356E+01  0.11132391055E+02  0.51100000000E-03 0.  1.
         11    1    3    3    0    0 -0.99658714003E+01 -0.82840740239E+00  0.49006192843E+01  0.11136468077E+02  0.51100000000E-03 0. -1.
<mgrwt>
<rscale>  0 0.20000487E+02</rscale>
<asrwt>0</asrwt>
<pdfrwt beam="1">  1        1 0.24662173E-02 0.20000487E+02</pdfrwt>
<pdfrwt beam="2">  1       -1 0.95976097E-03 0.20000487E+02</pdfrwt>
<totfact> 0.39345935E+06</totfact>
</mgrwt>
</event>
<event>
 5    1  0.1209406E-006  0.2000073E+02  0.7818608E-02  0.1745314E+00
         -1   -1    0    0    0  501 -0.00000000000E+00  0.00000000000E+00  0.19820631279E+01  0.19820686295E+01  0.46700000000E-02 0.  1.
          1   -1    0    0  501    0  0.00000000000E+00 -0.00000000000E+00 -0.50456085067E+02  0.50456085283E+02  0.46700000000E-02 0. -1.
       1023    2    1    2    0    0  0.00000000000E+00  0.00000000000E+00 -0.48474021939E+02  0.52438153913E+02  0.20000729557E+02 0.  0.
        -11    1    3    3    0    0 -0.99998718262E+01  0.76478467491E-01 -0.24070986985E+02  0.26065603775E+02  0.51100000000E-03 0.  1.
         11    1    3    3    0    0  0.99998718262E+01 -0.76478467491E-01 -0.24403034955E+02  0.26372550138E+02  0.51100000000E-03 0. -1.
<mgrwt>
<rscale>  0 0.20000730E+02</rscale>
<asrwt>0</asrwt>
<pdfrwt beam="2">  1        1 0.77624741E-02 0.20000730E+02</pdfrwt>
<pdfrwt beam="1">  1       -1 0.30493327E-03 0.20000730E+02</pdfrwt>
<totfact> 0.41738152E+06</totfact>
</mgrwt>
</event>
<event>
 5    1  0.9583198E-007  0.2000024E+02  0.7818608E-02  0.1745323E+00
          1   -1    0    0  501    0  0.00000000000E+00  0.00000000000E+00  0.16799456013E+01  0.16799520923E+01  0.46700000000E-02 0.  1.
         -1   -1    0    0    0  501 -0.00000000000E+00 -0.00000000000E+00 -0.59527037499E+02  0.59527037682E+02  0.46700000000E-02 0. -1.
       1023    2    1    2    0    0  0.00000000000E+00  0.00000000000E+00 -0.57847091898E+02  0.61206989774E+02  0.20000238904E+02 0.  0.
        -11    1    3    3    0    0  0.42861271739E+01  0.90350119095E+01 -0.28899363458E+02  0.30580639871E+02  0.51100000000E-03 0. -1.
         11    1    3    3    0    0 -0.42861271739E+01 -0.90350119095E+01 -0.28947728440E+02  0.30626349904E+02  0.51100000000E-03 0.  1.
<mgrwt>
<rscale>  0 0.20000239E+02</rscale>
<asrwt>0</asrwt>
<pdfrwt beam="1">  1        1 0.25845373E-03 0.20000239E+02</pdfrwt>
<pdfrwt beam="2">  1       -1 0.91580046E-02 0.20000239E+02</pdfrwt>
<totfact> 0.34273708E+06</totfact>
</mgrwt>
</event>
<event>
 5    1  0.9730352E-007  0.2000091E+02  0.7818608E-02  0.1745310E+00
         -1   -1    0    0    0  501 -0.00000000000E+00  0.00000000000E+00  0.30459189474E+02  0.30459189832E+02  0.46700000000E-02 0. -1.
          1   -1    0    0  501    0  0.00000000000E+00 -0.00000000000E+00 -0.32833784929E+01  0.32833818140E+01  0.46700000000E-02 0.  1.
       1023    2    1    2    0    0  0.00000000000E+00  0.00000000000E+00  0.27175810981E+02  0.33742571646E+02  0.20000910949E+02 0.  0.
        -11    1    3    3    0    0 -0.11289064875E+01  0.99363523869E+01  0.13486952334E+02  0.16789979516E+02  0.51100000000E-03 0.  1.
         11    1    3    3    0    0  0.11289064875E+01 -0.99363523869E+01  0.13688858646E+02  0.16952592130E+02  0.51100000000E-03 0. -1.
<mgrwt>
<rscale>  0 0.20000911E+02</rscale>
<asrwt>0</asrwt>
<pdfrwt beam="2">  1        1 0.50513547E-03 0.20000911E+02</pdfrwt>
<pdfrwt beam="1">  1       -1 0.46860291E-02 0.20000911E+02</pdfrwt>
<totfact> 0.36443328E+06</totfact>
</mgrwt>
</event>
<event>
 5    1  0.9583198E-007  0.2000029E+02  0.7818608E-02  0.1745322E+00
          1   -1    0    0  501    0  0.00000000000E+00  0.00000000000E+00  0.22422689240E+02  0.22422689726E+02  0.46700000000E-02 0.  1.
         -1   -1    0    0    0  501 -0.00000000000E+00 -0.00000000000E+00 -0.44598978200E+01  0.44599002650E+01  0.46700000000E-02 0. -1.
       1023    2    1    2    0    0  0.00000000000E+00  0.00000000000E+00  0.17962791420E+02  0.26882589991E+02  0.20000294224E+02 0.  0.
        -11    1    3    3    0    0 -0.21540789273E+01  0.97653918309E+01  0.89775086448E+01  0.13438697681E+02  0.51100000000E-03 0.  1.
         11    1    3    3    0    0  0.21540789273E+01 -0.97653918309E+01  0.89852827752E+01  0.13443892310E+02  0.51100000000E-03 0. -1.
<mgrwt>
<rscale>  0 0.20000294E+02</rscale>
<asrwt>0</asrwt>
<pdfrwt beam="1">  1        1 0.34496447E-02 0.20000294E+02</pdfrwt>
<pdfrwt beam="2">  1       -1 0.68613835E-03 0.20000294E+02</pdfrwt>
<totfact> 0.39901000E+06</totfact>
</mgrwt>
</event>
<event>
 5    1  0.9583198E-007  0.2000509E+02  0.7818608E-02  0.1745227E+00
         -1   -1    0    0    0  501 -0.00000000000E+00  0.00000000000E+00  0.95415846162E+00  0.95416988990E+00  0.46700000000E-02 0. -1.
          1   -1    0    0  501    0  0.00000000000E+00 -0.00000000000E+00 -0.10485709597E+03  0.10485709608E+03  0.46700000000E-02 0.  1.
       1023    2    1    2    0    0  0.00000000000E+00  0.00000000000E+00 -0.10390293751E+03  0.10581126597E+03  0.20005088903E+02 0.  0.
        -11    1    3    3    0    0  0.84112837785E+01  0.54100913311E+01 -0.51003647031E+02  0.51974905423E+02  0.51100000000E-03 0. -1.
         11    1    3    3    0    0 -0.84112837785E+01 -0.54100913311E+01 -0.52899290480E+02  0.53836360543E+02  0.51100000000E-03 0.  1.
<mgrwt>
<rscale>  0 0.20005089E+02</rscale>
<asrwt>0</asrwt>
<pdfrwt beam="2">  1        1 0.16131853E-01 0.20005089E+02</pdfrwt>
<pdfrwt beam="1">  1       -1 0.14679458E-03 0.20005089E+02</pdfrwt>
<totfact> 0.44569355E+06</totfact>
</mgrwt>
</event>
<event>
 5    1  0.9583198E-007  0.2000221E+02  0.7818608E-02  0.1745284E+00
         -1   -1    0    0    0  501 -0.00000000000E+00  0.00000000000E+00  0.16603563110E+02  0.16603563767E+02  0.46700000000E-02 0. -1.
          1   -1    0    0  501    0  0.00000000000E+00 -0.00000000000E+00 -0.60241354326E+01  0.60241372427E+01  0.46700000000E-02 0.  1.
       1023    2    1    2    0    0  0.00000000000E+00  0.00000000000E+00  0.10579427678E+02  0.22627701010E+02  0.20002213952E+02 0.  0.
        -11    1    3    3    0    0 -0.75886608020E+01 -0.65139787686E+01  0.53456891706E+01  0.11340021390E+02  0.51100000000E-03 0.  1.
         11    1    3    3    0    0  0.75886608020E+01  0.65139787686E+01  0.52337385069E+01  0.11287679619E+02  0.51100000000E-03 0. -1.
<mgrwt>
<rscale>  0 0.20002214E+02</rscale>
<asrwt>0</asrwt>
<pdfrwt beam="2">  1        1 0.92679026E-03 0.20002214E+02</pdfrwt>
<pdfrwt beam="1">  1       -1 0.25543945E-02 0.20002214E+02</pdfrwt>
<totfact> 0.37767768E+06</totfact>
</mgrwt>
</event>
<event>
 5    1  0.9583198E-007  0.2000878E+02  0.7818608E-02  0.1745153E+00
          1   -1    0    0  501    0  0.00000000000E+00  0.00000000000E+00  0.28201899552E+02  0.28201899939E+02  0.46700000000E-02 0.  1.
         -1   -1    0    0    0  501 -0.00000000000E+00 -0.00000000000E+00 -0.35489731823E+01  0.35489762548E+01  0.46700000000E-02 0. -1.
       1023    2    1    2    0    0  0.00000000000E+00  0.00000000000E+00  0.24652926370E+02  0.31750876194E+02  0.20008782084E+02 0.  0.
        -11    1    3    3    0    0  0.33258071985E+01  0.94352573018E+01  0.12409919629E+02  0.15940237744E+02  0.51100000000E-03 0.  1.
         11    1    3    3    0    0 -0.33258071985E+01 -0.94352573018E+01  0.12243006741E+02  0.15810638450E+02  0.51100000000E-03 0. -1.
<mgrwt>
<rscale>  0 0.20008782E+02</rscale>
<asrwt>0</asrwt>
<pdfrwt beam="1">  1        1 0.43387541E-02 0.20008782E+02</pdfrwt>
<pdfrwt beam="2">  1       -1 0.54599613E-03 0.20008782E+02</pdfrwt>
<totfact> 0.40291798E+06</totfact>
</mgrwt>
</event>
<event>
 5    1  0.9583198E-007  0.2000014E+02  0.7818608E-02  0.1745325E+00
          1   -1    0    0  501    0  0.00000000000E+00  0.00000000000E+00  0.44146721400E+01  0.44146746100E+01  0.46700000000E-02 0.  1.
         -1   -1    0    0    0  501 -0.00000000000E+00 -0.00000000000E+00 -0.22652055804E+02  0.22652056285E+02  0.46700000000E-02 0. -1.
       1023    2    1    2    0    0  0.00000000000E+00  0.00000000000E+00 -0.18237383664E+02  0.27066730895E+02  0.20000143961E+02 0.  0.
        -11    1    3    3    0    0  0.69463494333E+01 -0.71936795637E+01 -0.91530151177E+01  0.13556492250E+02  0.51100000000E-03 0. -1.
         11    1    3    3    0    0 -0.69463494333E+01  0.71936795637E+01 -0.90843685464E+01  0.13510238646E+02  0.51100000000E-03 0.  1.
<mgrwt>
<rscale>  0 0.20000144E+02</rscale>
<asrwt>0</asrwt>
<pdfrwt beam="1">  1        1 0.67918056E-03 0.20000144E+02</pdfrwt>
<pdfrwt beam="2">  1       -1 0.34849318E-02 0.20000144E+02</pdfrwt>
<totfact> 0.37153754E+06</totfact>
</mgrwt>
</event>
<event>
 5    1  0.9583198E-007  0.2000549E+02  0.7818608E-02  0.1745219E+00
         -1   -1    0    0    0  501 -0.00000000000E+00  0.00000000000E+00  0.41344844873E+02  0.41344845137E+02  0.46700000000E-02 0.  1.
          1   -1    0    0  501    0  0.00000000000E+00 -0.00000000000E+00 -0.24200068962E+01  0.24200114022E+01  0.46700000000E-02 0. -1.
       1023    2    1    2    0    0  0.00000000000E+00  0.00000000000E+00  0.38924837977E+02  0.43764856539E+02  0.20005490655E+02 0.  0.
        -11    1    3    3    0    0  0.59608849280E+01  0.80308052789E+01  0.19834519359E+02  0.22213377524E+02  0.51100000000E-03 0. -1.
         11    1    3    3    0    0 -0.59608849280E+01 -0.80308052789E+01  0.19090318618E+02  0.21551479016E+02  0.51100000000E-03 0.  1.
<mgrwt>
<rscale>  0 0.20005491E+02</rscale>
<asrwt>0</asrwt>
<pdfrwt beam="2">  1        1 0.37230916E-03 0.20005491E+02</pdfrwt>
<pdfrwt beam="1">  1       -1 0.63607451E-02 0.20005491E+02</pdfrwt>
<totfact> 0.35546179E+06</totfact>
</mgrwt>
</event>
<event>
 5    1  0.9583198E-007  0.2000540E+02  0.7818608E-02  0.1745221E+00
          1   -1    0    0  501    0  0.00000000000E+00  0.00000000000E+00  0.29575633892E+02  0.29575634261E+02  0.46700000000E-02 0. -1.
         -1   -1    0    0    0  501 -0.00000000000E+00 -0.00000000000E+00 -0.33829870677E+01  0.33829902910E+01  0.46700000000E-02 0.  1.
       1023    2    1    2    0    0  0.00000000000E+00  0.00000000000E+00  0.26192646824E+02  0.32958624552E+02  0.20005403887E+02 0.  0.
        -11    1    3    3    0    0  0.95328757062E+01  0.30268584766E+01  0.13307654456E+02  0.16647259800E+02  0.51100000000E-03 0. -1.
         11    1    3    3    0    0 -0.95328757062E+01 -0.30268584766E+01  0.12884992368E+02  0.16311364751E+02  0.51100000000E-03 0.  1.
<mgrwt>
<rscale>  0 0.20005404E+02</rscale>
<asrwt>0</asrwt>
<pdfrwt beam="1">  1        1 0.45500977E-02 0.20005404E+02</pdfrwt>
<pdfrwt beam="2">  1       -1 0.52045984E-03 0.20005404E+02</pdfrwt>
<totfact> 0.40402991E+06</totfact>
</mgrwt>
</event>
<event>
 5    1  0.9807265E-007  0.2000117E+02  0.7818608E-02  0.1745305E+00
          1   -1    0    0  501    0  0.00000000000E+00  0.00000000000E+00  0.30617181362E+02  0.30617181718E+02  0.46700000000E-02 0.  1.
         -1   -1    0    0    0  501 -0.00000000000E+00 -0.00000000000E+00 -0.32665215486E+01  0.32665248868E+01  0.46700000000E-02 0. -1.
       1023    2    1    2    0    0  0.00000000000E+00  0.00000000000E+00  0.27350659813E+02  0.33883706605E+02  0.20001174492E+02 0.  0.
        -11    1    3    3    0    0 -0.90058495361E+01 -0.43479745059E+01  0.13608917597E+02  0.16888245812E+02  0.51100000000E-03 0.  1.
         11    1    3    3    0    0  0.90058495361E+01  0.43479745059E+01  0.13741742216E+02  0.16995460793E+02  0.51100000000E-03 0. -1.
<mgrwt>
<rscale>  0 0.20001174E+02</rscale>
<asrwt>0</asrwt>
<pdfrwt beam="1">  1        1 0.47103361E-02 0.20001174E+02</pdfrwt>
<pdfrwt beam="2">  1       -1 0.50254204E-03 0.20001174E+02</pdfrwt>
<totfact> 0.40493716E+06</totfact>
</mgrwt>
</event>
<event>
 5    1  0.9583198E-007  0.2000009E+02  0.7818608E-02  0.1745326E+00
         -1   -1    0    0    0  501 -0.00000000000E+00  0.00000000000E+00  0.17802751206E+02  0.17802751819E+02  0.46700000000E-02 0. -1.
          1   -1    0    0  501    0  0.00000000000E+00 -0.00000000000E+00 -0.56171569821E+01  0.56171589234E+01  0.46700000000E-02 0.  1.
       1023    2    1    2    0    0  0.00000000000E+00  0.00000000000E+00  0.12185594224E+02  0.23419910742E+02  0.20000087814E+02 0.  0.
        -11    1    3    3    0    0 -0.96969698772E+01 -0.24431821114E+01  0.61193518108E+01  0.11723772024E+02  0.51100000000E-03 0. -1.
         11    1    3    3    0    0  0.96969698772E+01  0.24431821114E+01  0.60662424133E+01  0.11696138718E+02  0.51100000000E-03 0.  1.
<mgrwt>
<rscale>  0 0.20000088E+02</rscale>
<asrwt>0</asrwt>
<pdfrwt beam="2">  1        1 0.86417821E-03 0.20000088E+02</pdfrwt>
<pdfrwt beam="1">  1       -1 0.27388850E-02 0.20000088E+02</pdfrwt>
<totfact> 0.37645755E+06</totfact>
</mgrwt>
</event>
<event>
 5    1  0.9583198E-007  0.2000047E+02  0.7818608E-02  0.1745319E+00
          1   -1    0    0  501    0  0.00000000000E+00  0.00000000000E+00  0.12594586518E+01  0.12594673098E+01  0.46700000000E-02 0. -1.
         -1   -1    0    0    0  501 -0.00000000000E+00 -0.00000000000E+00 -0.79402609018E+02  0.79402609155E+02  0.46700000000E-02 0.  1.
       1023    2    1    2    0    0  0.00000000000E+00  0.00000000000E+00 -0.78143150366E+02  0.80662076465E+02  0.20000465758E+02 0.  0.
        -11    1    3    3    0    0  0.99479430170E+01  0.10212738471E+01 -0.39109155723E+02  0.40367445202E+02  0.51100000000E-03 0.  1.
         11    1    3    3    0    0 -0.99479430170E+01 -0.10212738471E+01 -0.39033994643E+02  0.40294631263E+02  0.51100000000E-03 0. -1.
<mgrwt>
<rscale>  0 0.20000466E+02</rscale>
<asrwt>0</asrwt>
<pdfrwt beam="1">  1        1 0.19376361E-03 0.20000466E+02</pdfrwt>
<pdfrwt beam="2">  1       -1 0.12215783E-01 0.20000466E+02</pdfrwt>
<totfact> 0.33027078E+06</totfact>
</mgrwt>
</event>
<event>
 5    1  0.9675806E-007  0.2000097E+02  0.7818608E-02  0.1745309E+00
         -1   -1    0    0    0  501 -0.00000000000E+00  0.00000000000E+00  0.48936612788E+01  0.48936635071E+01  0.46700000000E-02 0.  1.
          1   -1    0    0  501    0  0.00000000000E+00 -0.00000000000E+00 -0.20436582309E+02  0.20436582842E+02  0.46700000000E-02 0. -1.
       1023    2    1    2    0    0  0.00000000000E+00  0.00000000000E+00 -0.15542921030E+02  0.25330246350E+02  0.20000974626E+02 0.  0.
        -11    1    3    3    0    0  0.87270433817E+01  0.48832253225E+01 -0.78356696546E+01  0.12704522617E+02  0.51100000000E-03 0. -1.
         11    1    3    3    0    0 -0.87270433817E+01 -0.48832253225E+01 -0.77072513754E+01  0.12625723732E+02  0.51100000000E-03 0.  1.
<mgrwt>
<rscale>  0 0.20000975E+02</rscale>
<asrwt>0</asrwt>
<pdfrwt beam="2">  1        1 0.31440897E-02 0.20000975E+02</pdfrwt>
<pdfrwt beam="1">  1       -1 0.75287119E-03 0.20000975E+02</pdfrwt>
<totfact> 0.39737925E+06</totfact>
</mgrwt>
</event>
<event>
 5    1  0.9583198E-007  0.2000050E+02  0.7818608E-02  0.1745318E+00
         -1   -1    0    0    0  501 -0.00000000000E+00  0.00000000000E+00  0.13339817710E+02  0.13339818527E+02  0.46700000000E-02 0. -1.
          1   -1    0    0  501    0  0.00000000000E+00 -0.00000000000E+00 -0.74967257436E+01  0.74967271982E+01  0.46700000000E-02 0.  1.
       1023    2    1    2    0    0  0.00000000000E+00  0.00000000000E+00  0.58430919664E+01  0.20836545726E+02  0.20000497845E+02 0.  0.
        -11    1    3    3    0    0 -0.74584537875E+01 -0.66612361330E+01  0.28526094965E+01  0.10398941337E+02  0.51100000000E-03 0.  1.
         11    1    3    3    0    0  0.74584537875E+01  0.66612361330E+01  0.29904824698E+01  0.10437604389E+02  0.51100000000E-03 0. -1.
<mgrwt>
<rscale>  0 0.20000498E+02</rscale>
<asrwt>0</asrwt>
<pdfrwt beam="2">  1        1 0.11533426E-02 0.20000498E+02</pdfrwt>
<pdfrwt beam="1">  1       -1 0.20522798E-02 0.20000498E+02</pdfrwt>
<totfact> 0.38159360E+06</totfact>
</mgrwt>
</event>
<event>
 5    1  0.9583198E-007  0.2000419E+02  0.7818608E-02  0.1745245E+00
         -1   -1    0    0    0  501 -0.00000000000E+00  0.00000000000E+00  0.28461412303E+01  0.28461450616E+01  0.46700000000E-02 0. -1.
          1   -1    0    0  501    0  0.00000000000E+00 -0.00000000000E+00 -0.35149978089E+02  0.35149978399E+02  0.46700000000E-02 0.  1.
       1023    2    1    2    0    0  0.00000000000E+00  0.00000000000E+00 -0.32303836859E+02  0.37996123461E+02  0.20004187618E+02 0.  0.
        -11    1    3    3    0    0 -0.74605786262E+01  0.66619471803E+01 -0.16132304610E+02  0.18981386302E+02  0.51100000000E-03 0. -1.
         11    1    3    3    0    0  0.74605786262E+01 -0.66619471803E+01 -0.16171532249E+02  0.19014737158E+02  0.51100000000E-03 0.  1.
<mgrwt>
<rscale>  0 0.20004188E+02</rscale>
<asrwt>0</asrwt>
<pdfrwt beam="2">  1        1 0.54076889E-02 0.20004188E+02</pdfrwt>
<pdfrwt beam="1">  1       -1 0.43786823E-03 0.20004188E+02</pdfrwt>
<totfact> 0.40782053E+06</totfact>
</mgrwt>
</event>
<event>
 5    1  0.9583198E-007  0.2000374E+02  0.7818608E-02  0.1745254E+00
         -1   -1    0    0    0  501 -0.00000000000E+00  0.00000000000E+00  0.41623034216E+01  0.41623060414E+01  0.46700000000E-02 0. -1.
          1   -1    0    0  501    0  0.00000000000E+00 -0.00000000000E+00 -0.24034133804E+02  0.24034134258E+02  0.46700000000E-02 0.  1.
       1023    2    1    2    0    0  0.00000000000E+00  0.00000000000E+00 -0.19871830382E+02  0.28196440299E+02  0.20003739720E+02 0.  0.
        -11    1    3    3    0    0  0.92730773227E+01  0.37479707684E+01 -0.99533233277E+01  0.14110488774E+02  0.51100000000E-03 0. -1.
         11    1    3    3    0    0 -0.92730773227E+01 -0.37479707684E+01 -0.99185070547E+01  0.14085951525E+02  0.51100000000E-03 0.  1.
<mgrwt>
<rscale>  0 0.20003740E+02</rscale>
<asrwt>0</asrwt>
<pdfrwt beam="2">  1        1 0.36975592E-02 0.20003740E+02</pdfrwt>
<pdfrwt beam="1">  1       -1 0.64035462E-03 0.20003740E+02</pdfrwt>
<totfact> 0.40009970E+06</totfact>
</mgrwt>
</event>
<event>
 5    1  0.9583198E-007  0.2000082E+02  0.7818608E-02  0.1745312E+00
         -1   -1    0    0    0  501 -0.00000000000E+00  0.00000000000E+00  0.17383263618E+02  0.17383264245E+02  0.46700000000E-02 0.  1.
          1   -1    0    0  501    0  0.00000000000E+00 -0.00000000000E+00 -0.57531272419E+01  0.57531291373E+01  0.46700000000E-02 0. -1.
       1023    2    1    2    0    0  0.00000000000E+00  0.00000000000E+00  0.11630136376E+02  0.23136393382E+02  0.20000815649E+02 0.  0.
        -11    1    3    3    0    0  0.16999906054E+01  0.98545558106E+01  0.59040578457E+01  0.11612929759E+02  0.51100000000E-03 0.  1.
         11    1    3    3    0    0 -0.16999906054E+01 -0.98545558106E+01  0.57260785302E+01  0.11523463623E+02  0.51100000000E-03 0. -1.
<mgrwt>
<rscale>  0 0.20000816E+02</rscale>
<asrwt>0</asrwt>
<pdfrwt beam="2">  1        1 0.88509671E-03 0.20000816E+02</pdfrwt>
<pdfrwt beam="1">  1       -1 0.26743484E-02 0.20000816E+02</pdfrwt>
<totfact> 0.37687985E+06</totfact>
</mgrwt>
</event>
<event>
 4    1  0.9583198E-007  0.2008900E+02  0.7818608E-02  0.1743564E+00
          1   -1    0    0  501    0  0.00000000000E+00  0.00000000000E+00  0.88124708247E+00  0.88125945626E+00  0.46700000000E-02 0. -1.
         -1   -1    0    0    0  501 -0.00000000000E+00 -0.00000000000E+00 -0.11448692599E+03  0.11448692609E+03  0.46700000000E-02 0.  1.
        -11    1    1    2    0    0  0.74370166673E+01 -0.67239234397E+01 -0.60303744194E+02  0.61131513374E+02  0.51100000000E-03 0.  1.
         11    1    1    2    0    0 -0.74370166673E+01  0.67239234397E+01 -0.53301934717E+02  0.54236672171E+02  0.51100000000E-03 0. -1.
<mgrwt>
<rscale>  0 0.20089001E+02</rscale>
<asrwt>0</asrwt>
<pdfrwt beam="1">  1        1 0.13557752E-03 0.20089001E+02</pdfrwt>
<pdfrwt beam="2">  1       -1 0.17613362E-01 0.20089001E+02</pdfrwt>
<totfact> 0.30811520E+06</totfact>
</mgrwt>
</event>
<event>
 5    1  0.9583198E-007  0.2000703E+02  0.7818608E-02  0.1745188E+00
          1   -1    0    0  501    0  0.00000000000E+00  0.00000000000E+00  0.10424841641E+01  0.10424946241E+01  0.46700000000E-02 0. -1.
         -1   -1    0    0    0  501 -0.00000000000E+00 -0.00000000000E+00 -0.95991666917E+02  0.95991667031E+02  0.46700000000E-02 0.  1.
       1023    2    1    2    0    0  0.00000000000E+00  0.00000000000E+00 -0.94949182753E+02  0.97034161655E+02  0.20007029329E+02 0.  0.
        -11    1    3    3    0    0 -0.46482352723E+01  0.88555359060E+01 -0.46460742773E+02  0.47525016850E+02  0.51100000000E-03 0.  1.
         11    1    3    3    0    0  0.46482352723E+01 -0.88555359060E+01 -0.48488439980E+02  0.49509144805E+02  0.51100000000E-03 0. -1.
<mgrwt>
<rscale>  0 0.20007029E+02</rscale>
<asrwt>0</asrwt>
<pdfrwt beam="1">  1        1 0.16038307E-03 0.20007029E+02</pdfrwt>
<pdfrwt beam="2">  1       -1 0.14767943E-01 0.20007029E+02</pdfrwt>
<totfact> 0.32060300E+06</totfact>
</mgrwt>
</event>
<event>
 5    1  0.9583198E-007  0.2000063E+02  0.7818608E-02  0.1745316E+00
          1   -1    0    0  501    0  0.00000000000E+00  0.00000000000E+00  0.97899629437E+00  0.97900743270E+00  0.46700000000E-02 0.  1.
         -1   -1    0    0    0  501 -0.00000000000E+00 -0.00000000000E+00 -0.10215130213E+03  0.10215130224E+03  0.46700000000E-02 0. -1.
       1023    2    1    2    0    0  0.00000000000E+00  0.00000000000E+00 -0.10117230584E+03  0.10313030967E+03  0.20000632601E+02 0.  0.
        -11    1    3    3    0    0  0.59754678199E+01 -0.80186075074E+01 -0.50353041070E+02  0.51336468785E+02  0.51100000000E-03 0. -1.
         11    1    3    3    0    0 -0.59754678199E+01  0.80186075074E+01 -0.50819264770E+02  0.51793840889E+02  0.51100000000E-03 0.  1.
<mgrwt>
<rscale>  0 0.20000633E+02</rscale>
<asrwt>0</asrwt>
<pdfrwt beam="1">  1        1 0.15061576E-03 0.20000633E+02</pdfrwt>
<pdfrwt beam="2">  1       -1 0.15715577E-01 0.20000633E+02</pdfrwt>
<totfact> 0.31750621E+06</totfact>
</mgrwt>
</event>
<event>
 5    1  0.9583198E-007  0.2000152E+02  0.7818608E-02  0.1745298E+00
          1   -1    0    0  501    0  0.00000000000E+00  0.00000000000E+00  0.25696318628E+01  0.25696361064E+01  0.46700000000E-02 0.  1.
         -1   -1    0    0    0  501 -0.00000000000E+00 -0.00000000000E+00 -0.38921964476E+02  0.38921964756E+02  0.46700000000E-02 0. -1.
       1023    2    1    2    0    0  0.00000000000E+00  0.00000000000E+00 -0.36352332613E+02  0.41491600863E+02  0.20001521335E+02 0.  0.
        -11    1    3    3    0    0 -0.48503450313E+01  0.87455030220E+01 -0.18330618670E+02  0.20881121884E+02  0.51100000000E-03 0.  1.
         11    1    3    3    0    0  0.48503450313E+01 -0.87455030220E+01 -0.18021713943E+02  0.20610478979E+02  0.51100000000E-03 0. -1.
<mgrwt>
<rscale>  0 0.20001521E+02</rscale>
<asrwt>0</asrwt>
<pdfrwt beam="1">  1        1 0.39532836E-03 0.20001521E+02</pdfrwt>
<pdfrwt beam="2">  1       -1 0.59879944E-02 0.20001521E+02</pdfrwt>
<totfact> 0.35749019E+06</totfact>
</mgrwt>
</event>
<event>
 5    1  0.9583198E-007  0.2000007E+02  0.7818608E-02  0.1745327E+00
         -1   -1    0    0    0  501 -0.00000000000E+00  0.00000000000E+00  0.19687838819E+01  0.19687894205E+01  0.46700000000E-02 0. -1.
          1   -1    0    0  501    0  0.00000000000E+00 -0.00000000000E+00 -0.50793062353E+02  0.50793062567E+02  0.46700000000E-02 0.  1.
       1023    2    1    2    0    0  0.00000000000E+00  0.00000000000E+00 -0.48824278471E+02  0.52761851988E+02  0.20000071425E+02 0.  0.
        -11    1    3    3    0    0  0.53701151246E+01  0.84357871921E+01 -0.24389756784E+02  0.26360213927E+02  0.51100000000E-03 0. -1.
         11    1    3    3    0    0 -0.53701151246E+01 -0.84357871921E+01 -0.24434521686E+02  0.26401638061E+02  0.51100000000E-03 0.  1.
<mgrwt>
<rscale>  0 0.20000071E+02</rscale>
<asrwt>0</asrwt>
<pdfrwt beam="2">  1        1 0.78143168E-02 0.20000071E+02</pdfrwt>
<pdfrwt beam="1">  1       -1 0.30289031E-03 0.20000071E+02</pdfrwt>
<totfact> 0.41760893E+06</totfact>
</mgrwt>
</event>
<event>
 5    1  0.9583198E-007  0.2000022E+02  0.7818608E-02  0.1745324E+00
         -1   -1    0    0    0  501 -0.00000000000E+00  0.00000000000E+00  0.95008779636E+02  0.95008779751E+02  0.46700000000E-02 0.  1.
          1   -1    0    0  501    0  0.00000000000E+00 -0.00000000000E+00 -0.10525522984E+01  0.10525626584E+01  0.46700000000E-02 0. -1.
       1023    2    1    2    0    0  0.00000000000E+00  0.00000000000E+00  0.93956227338E+02  0.96061342409E+02  0.20000221247E+02 0.  0.
        -11    1    3    3    0    0 -0.94637642502E+01  0.32308232382E+01  0.46814554165E+02  0.47870695990E+02  0.51100000000E-03 0.  1.
         11    1    3    3    0    0  0.94637642502E+01 -0.32308232382E+01  0.47141673173E+02  0.48190646420E+02  0.51100000000E-03 0. -1.
<mgrwt>
<rscale>  0 0.20000221E+02</rscale>
<asrwt>0</asrwt>
<pdfrwt beam="2">  1        1 0.16193193E-03 0.20000221E+02</pdfrwt>
<pdfrwt beam="1">  1       -1 0.14616736E-01 0.20000221E+02</pdfrwt>
<totfact> 0.32138072E+06</totfact>
</mgrwt>
</event>
<event>
 5    1  0.9795391E-007  0.2000073E+02  0.7818608E-02  0.1745314E+00
          1   -1    0    0  501    0  0.00000000000E+00  0.00000000000E+00  0.20290921413E+02  0.20290921950E+02  0.46700000000E-02 0.  1.
         -1   -1    0    0    0  501 -0.00000000000E+00 -0.00000000000E+00 -0.49286694629E+01  0.49286716754E+01  0.46700000000E-02 0. -1.
       1023    2    1    2    0    0  0.00000000000E+00  0.00000000000E+00  0.15362251950E+02  0.25219593626E+02  0.20000727928E+02 0.  0.
        -11    1    3    3    0    0 -0.67809925681E+01 -0.73500062924E+01  0.77481627178E+01  0.12650631544E+02  0.51100000000E-03 0.  1.
         11    1    3    3    0    0  0.67809925681E+01  0.73500062924E+01  0.76140892322E+01  0.12568962081E+02  0.51100000000E-03 0. -1.
<mgrwt>
<rscale>  0 0.20000728E+02</rscale>
<asrwt>0</asrwt>
<pdfrwt beam="1">  1        1 0.31216804E-02 0.20000728E+02</pdfrwt>
<pdfrwt beam="2">  1       -1 0.75825706E-03 0.20000728E+02</pdfrwt>
<totfact> 0.39726944E+06</totfact>
</mgrwt>
</event>
<event>
 5    1  0.9583198E-007  0.2000148E+02  0.7818608E-02  0.1745299E+00
         -1   -1    0    0    0  501 -0.00000000000E+00  0.00000000000E+00  0.14995316353E+02  0.14995317080E+02  0.46700000000E-02 0. -1.
          1   -1    0    0  501    0  0.00000000000E+00 -0.00000000000E+00 -0.66697325094E+01  0.66697341444E+01  0.46700000000E-02 0.  1.
       1023    2    1    2    0    0  0.00000000000E+00  0.00000000000E+00  0.83255838432E+01  0.21665051224E+02  0.20001477401E+02 0.  0.
        -11    1    3    3    0    0 -0.87342421407E+00 -0.99625148948E+01  0.41781640120E+01  0.10838432897E+02  0.51100000000E-03 0.  1.
         11    1    3    3    0    0  0.87342421407E+00  0.99625148948E+01  0.41474198312E+01  0.10826618327E+02  0.51100000000E-03 0. -1.
<mgrwt>
<rscale>  0 0.20001477E+02</rscale>
<asrwt>0</asrwt>
<pdfrwt beam="2">  1        1 0.10261129E-02 0.20001477E+02</pdfrwt>
<pdfrwt beam="1">  1       -1 0.23069719E-02 0.20001477E+02</pdfrwt>
<totfact> 0.37954250E+06</totfact>
</mgrwt>
</event>
<event>
 5    1  0.9583198E-007  0.2000034E+02  0.7818608E-02  0.1745321E+00
          1   -1    0    0  501    0  0.00000000000E+00  0.00000000000E+00  0.13650788823E+01  0.13650868704E+01  0.46700000000E-02 0. -1.
         -1   -1    0    0    0  501 -0.00000000000E+00 -0.00000000000E+00 -0.73258119736E+02  0.73258119885E+02  0.46700000000E-02 0.  1.
       1023    2    1    2    0    0  0.00000000000E+00  0.00000000000E+00 -0.71893040854E+02  0.74623206755E+02  0.20000341578E+02 0.  0.
        -11    1    3    3    0    0  0.76798211754E+01 -0.64049697289E+01 -0.35988241261E+02  0.37351797813E+02  0.51100000000E-03 0.  1.
         11    1    3    3    0    0 -0.76798211754E+01  0.64049697289E+01 -0.35904799593E+02  0.37271408943E+02  0.51100000000E-03 0. -1.
<mgrwt>
<rscale>  0 0.20000342E+02</rscale>
<asrwt>0</asrwt>
<pdfrwt beam="1">  1        1 0.21001282E-03 0.20000342E+02</pdfrwt>
<pdfrwt beam="2">  1       -1 0.11270478E-01 0.20000342E+02</pdfrwt>
<totfact> 0.33397774E+06</totfact>
</mgrwt>
</event>
<event>
 5    1  0.9583198E-007  0.2000250E+02  0.7818608E-02  0.1745278E+00
          1   -1    0    0  501    0  0.00000000000E+00  0.00000000000E+00  0.12889896045E+02  0.12889896891E+02  0.46700000000E-02 0. -1.
         -1   -1    0    0    0  501 -0.00000000000E+00 -0.00000000000E+00 -0.77599491171E+01  0.77599505223E+01  0.46700000000E-02 0.  1.
       1023    2    1    2    0    0  0.00000000000E+00  0.00000000000E+00  0.51299469275E+01  0.20649847413E+02  0.20002495912E+02 0.  0.
        -11    1    3    3    0    0 -0.18125603374E+01  0.98355856538E+01  0.25948992362E+01  0.10332358029E+02  0.51100000000E-03 0. -1.
         11    1    3    3    0    0  0.18125603374E+01 -0.98355856538E+01  0.25350476913E+01  0.10317489384E+02  0.51100000000E-03 0.  1.
<mgrwt>
<rscale>  0 0.20002496E+02</rscale>
<asrwt>0</asrwt>
<pdfrwt beam="1">  1        1 0.19830611E-02 0.20002496E+02</pdfrwt>
<pdfrwt beam="2">  1       -1 0.11938385E-02 0.20002496E+02</pdfrwt>
<totfact> 0.39001428E+06</totfact>
</mgrwt>
</event>
<event>
 5    1  0.9583198E-007  0.2000064E+02  0.7818608E-02  0.1745315E+00
         -1   -1    0    0    0  501 -0.00000000000E+00  0.00000000000E+00  0.58806715574E+02  0.58806715759E+02  0.46700000000E-02 0. -1.
          1   -1    0    0  501    0  0.00000000000E+00 -0.00000000000E+00 -0.17005908502E+01  0.17005972623E+01  0.46700000000E-02 0.  1.
       1023    2    1    2    0    0  0.00000000000E+00  0.00000000000E+00  0.57106124724E+02  0.60507313022E+02  0.20000636193E+02 0.  0.
        -11    1    3    3    0    0 -0.99706263957E+01  0.76738274283E+00  0.28359474017E+02  0.30070949998E+02  0.51100000000E-03 0. -1.
         11    1    3    3    0    0  0.99706263957E+01 -0.76738274283E+00  0.28746650707E+02  0.30436363024E+02  0.51100000000E-03 0.  1.
<mgrwt>
<rscale>  0 0.20000636E+02</rscale>
<asrwt>0</asrwt>
<pdfrwt beam="2">  1        1 0.26162995E-03 0.20000636E+02</pdfrwt>
<pdfrwt beam="1">  1       -1 0.90471847E-02 0.20000636E+02</pdfrwt>
<totfact> 0.34320244E+06</totfact>
</mgrwt>
</event>
<event>
 5    1  0.9583198E-007  0.2000147E+02  0.7818608E-02  0.1745299E+00
         -1   -1    0    0    0  501 -0.00000000000E+00  0.00000000000E+00  0.16234518779E+02  0.16234519451E+02  0.46700000000E-02 0. -1.
          1   -1    0    0  501    0  0.00000000000E+00 -0.00000000000E+00 -0.61606153045E+01  0.61606170745E+01  0.46700000000E-02 0.  1.
       1023    2    1    2    0    0  0.00000000000E+00  0.00000000000E+00  0.10073903474E+02  0.22395136525E+02  0.20001465166E+02 0.  0.
        -11    1    3    3    0    0  0.86783382749E+01  0.49697688415E+01  0.50928725023E+01  0.11222722849E+02  0.51100000000E-03 0.  1.
         11    1    3    3    0    0 -0.86783382749E+01 -0.49697688415E+01  0.49810309722E+01  0.11172413677E+02  0.51100000000E-03 0. -1.
<mgrwt>
<rscale>  0 0.20001465E+02</rscale>
<asrwt>0</asrwt>
<pdfrwt beam="2">  1        1 0.94778716E-03 0.20001465E+02</pdfrwt>
<pdfrwt beam="1">  1       -1 0.24976184E-02 0.20001465E+02</pdfrwt>
<totfact> 0.37812104E+06</totfact>
</mgrwt>
</event>
<event>
 5    1  0.9635204E-007  0.2000155E+02  0.7818608E-02  0.1745297E+00
         -1   -1    0    0    0  501 -0.00000000000E+00  0.00000000000E+00  0.89962271700E+01  0.89962283821E+01  0.46700000000E-02 0. -1.
          1   -1    0    0  501    0  0.00000000000E+00 -0.00000000000E+00 -0.11117488318E+02  0.11117489299E+02  0.46700000000E-02 0.  1.
       1023    2    1    2    0    0  0.00000000000E+00  0.00000000000E+00 -0.21212611479E+01  0.20113717681E+02  0.20001547192E+02 0.  0.
        -11    1    3    3    0    0 -0.67326920181E+01 -0.73946822621E+01 -0.98948998693E+00  0.10049356112E+02  0.51100000000E-03 0.  1.
         11    1    3    3    0    0  0.67326920181E+01  0.73946822621E+01 -0.11317711610E+01  0.10064361569E+02  0.51100000000E-03 0. -1.
<mgrwt>
<rscale>  0 0.20001547E+02</rscale>
<asrwt>0</asrwt>
<pdfrwt beam="2">  1        1 0.17103830E-02 0.20001547E+02</pdfrwt>
<pdfrwt beam="1">  1       -1 0.13840351E-02 0.20001547E+02</pdfrwt>
<totfact> 0.38780177E+06</totfact>
</mgrwt>
</event>
<event>
 5    1  0.9583198E-007  0.2000650E+02  0.7818608E-02  0.1745199E+00
         -1   -1    0    0    0  501 -0.00000000000E+00  0.00000000000E+00  0.14094044656E+02  0.14094045429E+02  0.46700000000E-02 0.  1.
          1   -1    0    0  501    0  0.00000000000E+00 -0.00000000000E+00 -0.70998078971E+01  0.70998094330E+01  0.46700000000E-02 0. -1.
       1023    2    1    2    0    0  0.00000000000E+00  0.00000000000E+00  0.69942367585E+01  0.21193854862E+02  0.20006502345E+02 0.  0.
        -11    1    3    3    0    0 -0.99344513772E+01 -0.11647718772E+01  0.36269309973E+01  0.10639767216E+02  0.51100000000E-03 0.  1.
         11    1    3    3    0    0  0.99344513772E+01  0.11647718772E+01  0.33673057612E+01  0.10554087646E+02  0.51100000000E-03 0. -1.
<mgrwt>
<rscale>  0 0.20006502E+02</rscale>
<asrwt>0</asrwt>
<pdfrwt beam="2">  1        1 0.10922783E-02 0.20006502E+02</pdfrwt>
<pdfrwt beam="1">  1       -1 0.21683147E-02 0.20006502E+02</pdfrwt>
<totfact> 0.38040959E+06</totfact>
</mgrwt>
</event>
<event>
 5    1  0.1002563E-006  0.2000204E+02  0.7818608E-02  0.1745287E+00
         -1   -1    0    0    0  501 -0.00000000000E+00  0.00000000000E+00  0.43261209643E+01  0.43261234849E+01  0.46700000000E-02 0. -1.
          1   -1    0    0  501    0  0.00000000000E+00 -0.00000000000E+00 -0.23120111060E+02  0.23120111532E+02  0.46700000000E-02 0.  1.
       1023    2    1    2    0    0  0.00000000000E+00  0.00000000000E+00 -0.18793990096E+02  0.27446235016E+02  0.20002043717E+02 0.  0.
        -11    1    3    3    0    0  0.20093377687E+01 -0.97966017077E+01 -0.92625875861E+01  0.13631081114E+02  0.51100000000E-03 0.  1.
         11    1    3    3    0    0 -0.20093377687E+01  0.97966017077E+01 -0.95314025095E+01  0.13815153902E+02  0.51100000000E-03 0. -1.
<mgrwt>
<rscale>  0 0.20002044E+02</rscale>
<asrwt>0</asrwt>
<pdfrwt beam="2">  1        1 0.35569403E-02 0.20002044E+02</pdfrwt>
<pdfrwt beam="1">  1       -1 0.66555731E-03 0.20002044E+02</pdfrwt>
<totfact> 0.39947541E+06</totfact>
</mgrwt>
</event>
<event>
 5    1  0.9860905E-007  0.2000235E+02  0.7818608E-02  0.1745281E+00
          1   -1    0    0  501    0  0.00000000000E+00  0.00000000000E+00  0.15811286141E+02  0.15811286830E+02  0.46700000000E-02 0. -1.
         -1   -1    0    0    0  501 -0.00000000000E+00 -0.00000000000E+00 -0.63260820678E+01  0.63260837915E+01  0.46700000000E-02 0.  1.
       1023    2    1    2    0    0  0.00000000000E+00  0.00000000000E+00  0.94852040730E+01  0.22137370622E+02  0.20002351905E+02 0.  0.
        -11    1    3    3    0    0  0.69646041326E+01  0.71764490915E+01  0.48842813580E+01  0.11129390681E+02  0.51100000000E-03 0.  1.
         11    1    3    3    0    0 -0.69646041326E+01 -0.71764490915E+01  0.46009227150E+01  0.11007979941E+02  0.51100000000E-03 0. -1.
<mgrwt>
<rscale>  0 0.20002352E+02</rscale>
<asrwt>0</asrwt>
<pdfrwt beam="1">  1        1 0.24325057E-02 0.20002352E+02</pdfrwt>
<pdfrwt beam="2">  1       -1 0.97324360E-03 0.20002352E+02</pdfrwt>
<totfact> 0.39316144E+06</totfact>
</mgrwt>
</event>
<event>
 5    1  0.9583198E-007  0.2000050E+02  0.7818608E-02  0.1745318E+00
          1   -1    0    0  501    0  0.00000000000E+00  0.00000000000E+00  0.25898038506E+02  0.25898038927E+02  0.46700000000E-02 0.  1.
         -1   -1    0    0    0  501 -0.00000000000E+00 -0.00000000000E+00 -0.38614881429E+01  0.38614909668E+01  0.46700000000E-02 0. -1.
       1023    2    1    2    0    0  0.00000000000E+00  0.00000000000E+00  0.22036550363E+02  0.29759529894E+02  0.20000501684E+02 0.  0.
        -11    1    3    3    0    0  0.99985027018E+01 -0.18255762500E+00  0.10958145577E+02  0.14835239746E+02  0.51100000000E-03 0. -1.
         11    1    3    3    0    0 -0.99985027018E+01  0.18255762500E+00  0.11078404787E+02  0.14924290149E+02  0.51100000000E-03 0.  1.
<mgrwt>
<rscale>  0 0.20000502E+02</rscale>
<asrwt>0</asrwt>
<pdfrwt beam="1">  1        1 0.39843138E-02 0.20000502E+02</pdfrwt>
<pdfrwt beam="2">  1       -1 0.59407536E-03 0.20000502E+02</pdfrwt>
<totfact> 0.40163432E+06</totfact>
</mgrwt>
</event>
<event>
 5    1  0.9583198E-007  0.2000061E+02  0.7818608E-02  0.1745316E+00
         -1   -1    0    0    0  501 -0.00000000000E+00  0.00000000000E+00  0.34408525605E+02  0.34408525922E+02  0.46700000000E-02 0. -1.
          1   -1    0    0  501    0  0.00000000000E+00 -0.00000000000E+00 -0.29064312561E+01  0.29064350079E+01  0.46700000000E-02 0.  1.
       1023    2    1    2    0    0  0.00000000000E+00  0.00000000000E+00  0.31502094349E+02  0.37314960930E+02  0.20000609011E+02 0.  0.
        -11    1    3    3    0    0 -0.78894650010E+01 -0.61450705856E+01  0.15707714836E+02  0.18620898371E+02  0.51100000000E-03 0. -1.
         11    1    3    3    0    0  0.78894650010E+01  0.61450705856E+01  0.15794379513E+02  0.18694062559E+02  0.51100000000E-03 0.  1.
<mgrwt>
<rscale>  0 0.20000609E+02</rscale>
<asrwt>0</asrwt>
<pdfrwt beam="2">  1        1 0.44714361E-03 0.20000609E+02</pdfrwt>
<pdfrwt beam="1">  1       -1 0.52936193E-02 0.20000609E+02</pdfrwt>
<totfact> 0.36113557E+06</totfact>
</mgrwt>
</event>
<event>
 5    1  0.9583198E-007  0.2000033E+02  0.7818608E-02  0.1745321E+00
          1   -1    0    0  501    0  0.00000000000E+00  0.00000000000E+00  0.25373519100E+02  0.25373519530E+02  0.46700000000E-02 0.  1.
         -1   -1    0    0    0  501 -0.00000000000E+00 -0.00000000000E+00 -0.39412462481E+01  0.39412490149E+01  0.46700000000E-02 0. -1.
       1023    2    1    2    0    0  0.00000000000E+00  0.00000000000E+00  0.21432272852E+02  0.29314768545E+02  0.20000333378E+02 0.  0.
        -11    1    3    3    0    0 -0.65267715660E+01 -0.75764111683E+01  0.10790589526E+02  0.14711817558E+02  0.51100000000E-03 0. -1.
         11    1    3    3    0    0  0.65267715660E+01  0.75764111683E+01  0.10641683326E+02  0.14602950987E+02  0.51100000000E-03 0.  1.
<mgrwt>
<rscale>  0 0.20000333E+02</rscale>
<asrwt>0</asrwt>
<pdfrwt beam="1">  1        1 0.39036186E-02 0.20000333E+02</pdfrwt>
<pdfrwt beam="2">  1       -1 0.60634582E-03 0.20000333E+02</pdfrwt>
<totfact> 0.40125567E+06</totfact>
</mgrwt>
</event>
<event>
 4    1  0.1048972E-006  0.2034468E+02  0.7818608E-02  0.1738559E+00
          1   -1    0    0  501    0  0.00000000000E+00  0.00000000000E+00  0.24736943081E+01  0.24736987163E+01  0.46700000000E-02 0.  1.
         -1   -1    0    0    0  501 -0.00000000000E+00 -0.00000000000E+00 -0.41830703162E+02  0.41830703422E+02  0.46700000000E-02 0. -1.
        -11    1    1    2    0    0  0.34846077872E+01  0.95071178318E+01 -0.21799595322E+02  0.24036433541E+02  0.51100000000E-03 0. -1.
         11    1    1    2    0    0 -0.34846077872E+01 -0.95071178318E+01 -0.17557413531E+02  0.20267968598E+02  0.51100000000E-03 0.  1.
<mgrwt>
<rscale>  0 0.20344678E+02</rscale>
<asrwt>0</asrwt>
<pdfrwt beam="1">  1        1 0.38056875E-03 0.20344678E+02</pdfrwt>
<pdfrwt beam="2">  1       -1 0.64354926E-02 0.20344678E+02</pdfrwt>
<totfact> 0.34217870E+06</totfact>
</mgrwt>
</event>
<event>
 5    1  0.9702363E-007  0.2000094E+02  0.7818608E-02  0.1745309E+00
         -1   -1    0    0    0  501 -0.00000000000E+00  0.00000000000E+00  0.14136669993E+02  0.14136670764E+02  0.46700000000E-02 0. -1.
          1   -1    0    0  501    0  0.00000000000E+00 -0.00000000000E+00 -0.70744672840E+01  0.70744688253E+01  0.46700000000E-02 0.  1.
       1023    2    1    2    0    0  0.00000000000E+00  0.00000000000E+00  0.70622027091E+01  0.21211139590E+02  0.20000943368E+02 0.  0.
        -11    1    3    3    0    0  0.50233284966E+01  0.86471008483E+01  0.34706303994E+01  0.10585436122E+02  0.51100000000E-03 0. -1.
         11    1    3    3    0    0 -0.50233284966E+01 -0.86471008483E+01  0.35915723097E+01  0.10625703468E+02  0.51100000000E-03 0.  1.
<mgrwt>
<rscale>  0 0.20000943E+02</rscale>
<asrwt>0</asrwt>
<pdfrwt beam="2">  1        1 0.10883798E-02 0.20000943E+02</pdfrwt>
<pdfrwt beam="1">  1       -1 0.21748725E-02 0.20000943E+02</pdfrwt>
<totfact> 0.38058965E+06</totfact>
</mgrwt>
</event>
<event>
 5    1  0.9583198E-007  0.2000355E+02  0.7818608E-02  0.1745258E+00
          1   -1    0    0  501    0  0.00000000000E+00  0.00000000000E+00  0.12160445863E+02  0.12160446760E+02  0.46700000000E-02 0. -1.
         -1   -1    0    0    0  501 -0.00000000000E+00 -0.00000000000E+00 -0.82262992785E+01  0.82263006041E+01  0.46700000000E-02 0.  1.
       1023    2    1    2    0    0  0.00000000000E+00  0.00000000000E+00  0.39341465844E+01  0.20386747364E+02  0.20003548653E+02 0.  0.
        -11    1    3    3    0    0 -0.95486841979E+01  0.29745633959E+01  0.20694572515E+01  0.10213131297E+02  0.51100000000E-03 0.  1.
         11    1    3    3    0    0  0.95486841979E+01 -0.29745633959E+01  0.18646893328E+01  0.10173616067E+02  0.51100000000E-03 0. -1.
<mgrwt>
<rscale>  0 0.20003549E+02</rscale>
<asrwt>0</asrwt>
<pdfrwt beam="1">  1        1 0.18708380E-02 0.20003549E+02</pdfrwt>
<pdfrwt beam="2">  1       -1 0.12655847E-02 0.20003549E+02</pdfrwt>
<totfact> 0.38908078E+06</totfact>
</mgrwt>
</event>
<event>
 5    1  0.9583198E-007  0.2000018E+02  0.7818608E-02  0.1745324E+00
          1   -1    0    0  501    0  0.00000000000E+00  0.00000000000E+00  0.11080709852E+02  0.11080710836E+02  0.46700000000E-02 0.  1.
         -1   -1    0    0    0  501 -0.00000000000E+00 -0.00000000000E+00 -0.90248572240E+01  0.90248584323E+01  0.46700000000E-02 0. -1.
       1023    2    1    2    0    0  0.00000000000E+00  0.00000000000E+00  0.20558526277E+01  0.20105569268E+02  0.20000184638E+02 0.  0.
        -11    1    3    3    0    0 -0.48213594610E-01  0.99999062430E+01  0.10654958266E+01  0.10056626225E+02  0.51100000000E-03 0. -1.
         11    1    3    3    0    0  0.48213594610E-01 -0.99999062430E+01  0.99035680106E+00  0.10048943043E+02  0.51100000000E-03 0.  1.
<mgrwt>
<rscale>  0 0.20000185E+02</rscale>
<asrwt>0</asrwt>
<pdfrwt beam="1">  1        1 0.17047248E-02 0.20000185E+02</pdfrwt>
<pdfrwt beam="2">  1       -1 0.13884397E-02 0.20000185E+02</pdfrwt>
<totfact> 0.38781082E+06</totfact>
</mgrwt>
</event>
<event>
 5    1  0.9583198E-007  0.2000645E+02  0.7818608E-02  0.1745200E+00
          1   -1    0    0  501    0  0.00000000000E+00  0.00000000000E+00  0.55662911180E+02  0.55662911376E+02  0.46700000000E-02 0. -1.
         -1   -1    0    0    0  501 -0.00000000000E+00 -0.00000000000E+00 -0.17976836624E+01  0.17976897283E+01  0.46700000000E-02 0.  1.
       1023    2    1    2    0    0  0.00000000000E+00  0.00000000000E+00  0.53865227518E+02  0.57460601105E+02  0.20006447554E+02 0.  0.
        -11    1    3    3    0    0 -0.89903800490E+01  0.43836395956E+01  0.26513875702E+02  0.28337763400E+02  0.51100000000E-03 0. -1.
         11    1    3    3    0    0  0.89903800490E+01 -0.43836395956E+01  0.27351351816E+02  0.29122837704E+02  0.51100000000E-03 0.  1.
<mgrwt>
<rscale>  0 0.20006448E+02</rscale>
<asrwt>0</asrwt>
<pdfrwt beam="1">  1        1 0.85635248E-02 0.20006448E+02</pdfrwt>
<pdfrwt beam="2">  1       -1 0.27656721E-03 0.20006448E+02</pdfrwt>
<totfact> 0.42011876E+06</totfact>
</mgrwt>
</event>
<event>
 5    1  0.9583198E-007  0.2000199E+02  0.7818608E-02  0.1745289E+00
          1   -1    0    0  501    0  0.00000000000E+00  0.00000000000E+00  0.43782902149E+02  0.43782902398E+02  0.46700000000E-02 0.  1.
         -1   -1    0    0    0  501 -0.00000000000E+00 -0.00000000000E+00 -0.22844485691E+01  0.22844533424E+01  0.46700000000E-02 0. -1.
       1023    2    1    2    0    0  0.00000000000E+00  0.00000000000E+00  0.41498453580E+02  0.46067355740E+02  0.20001990286E+02 0.  0.
        -11    1    3    3    0    0 -0.31969370150E+01  0.94758332020E+01  0.20956284424E+02  0.23220199789E+02  0.51100000000E-03 0. -1.
         11    1    3    3    0    0  0.31969370150E+01 -0.94758332020E+01  0.20542169156E+02  0.22847155951E+02  0.51100000000E-03 0.  1.
<mgrwt>
<rscale>  0 0.20001990E+02</rscale>
<asrwt>0</asrwt>
<pdfrwt beam="1">  1        1 0.67358310E-02 0.20001990E+02</pdfrwt>
<pdfrwt beam="2">  1       -1 0.35145404E-03 0.20001990E+02</pdfrwt>
<totfact> 0.41334502E+06</totfact>
</mgrwt>
</event>
<event>
 5    1  0.9583198E-007  0.2000061E+02  0.7818608E-02  0.1745316E+00
          1   -1    0    0  501    0  0.00000000000E+00  0.00000000000E+00  0.24715697654E+02  0.24715698095E+02  0.46700000000E-02 0.  1.
         -1   -1    0    0    0  501 -0.00000000000E+00 -0.00000000000E+00 -0.40462586303E+01  0.40462613253E+01  0.46700000000E-02 0. -1.
       1023    2    1    2    0    0  0.00000000000E+00  0.00000000000E+00  0.20669439023E+02  0.28761959420E+02  0.20000614994E+02 0.  0.
        -11    1    3    3    0    0  0.35171463396E+01 -0.93613836509E+01  0.10308693448E+02  0.14362276390E+02  0.51100000000E-03 0. -1.
         11    1    3    3    0    0 -0.35171463396E+01  0.93613836509E+01  0.10360745576E+02  0.14399683031E+02  0.51100000000E-03 0.  1.
<mgrwt>
<rscale>  0 0.20000615E+02</rscale>
<asrwt>0</asrwt>
<pdfrwt beam="1">  1        1 0.38024153E-02 0.20000615E+02</pdfrwt>
<pdfrwt beam="2">  1       -1 0.62250157E-03 0.20000615E+02</pdfrwt>
<totfact> 0.40075344E+06</totfact>
</mgrwt>
</event>
<event>
 5    1  0.9583198E-007  0.2000046E+02  0.7818608E-02  0.1745319E+00
         -1   -1    0    0    0  501 -0.00000000000E+00  0.00000000000E+00  0.83630793395E+00  0.83632097265E+00  0.46700000000E-02 0.  1.
          1   -1    0    0  501    0  0.00000000000E+00 -0.00000000000E+00 -0.11957777679E+03  0.11957777688E+03  0.46700000000E-02 0. -1.
       1023    2    1    2    0    0  0.00000000000E+00  0.00000000000E+00 -0.11874146886E+03  0.12041409786E+03  0.20000463391E+02 0.  0.
        -11    1    3    3    0    0 -0.96027058337E+01 -0.27914384651E+01 -0.59230096050E+02  0.60068364106E+02  0.51100000000E-03 0. -1.
         11    1    3    3    0    0  0.96027058337E+01  0.27914384651E+01 -0.59511372809E+02  0.60345733751E+02  0.51100000000E-03 0.  1.
<mgrwt>
<rscale>  0 0.20000463E+02</rscale>
<asrwt>0</asrwt>
<pdfrwt beam="2">  1        1 0.18396568E-01 0.20000463E+02</pdfrwt>
<pdfrwt beam="1">  1       -1 0.12866386E-03 0.20000463E+02</pdfrwt>
<totfact> 0.45278726E+06</totfact>
</mgrwt>
</event>
<event>
 5    1  0.9868607E-007  0.2000103E+02  0.7818608E-02  0.1745308E+00
         -1   -1    0    0    0  501 -0.00000000000E+00  0.00000000000E+00  0.65768030460E+01  0.65768047040E+01  0.46700000000E-02 0.  1.
          1   -1    0    0  501    0  0.00000000000E+00 -0.00000000000E+00 -0.15206515825E+02  0.15206516542E+02  0.46700000000E-02 0. -1.
       1023    2    1    2    0    0  0.00000000000E+00  0.00000000000E+00 -0.86297127789E+01  0.21783321246E+02  0.20001028520E+02 0.  0.
        -11    1    3    3    0    0  0.92970371659E+01 -0.36830945893E+01 -0.42048649774E+01  0.10848086262E+02  0.51100000000E-03 0. -1.
         11    1    3    3    0    0 -0.92970371659E+01  0.36830945893E+01 -0.44248478015E+01  0.10935234984E+02  0.51100000000E-03 0.  1.
<mgrwt>
<rscale>  0 0.20001029E+02</rscale>
<asrwt>0</asrwt>
<pdfrwt beam="2">  1        1 0.23394641E-02 0.20001029E+02</pdfrwt>
<pdfrwt beam="1">  1       -1 0.10118160E-02 0.20001029E+02</pdfrwt>
<totfact> 0.39261288E+06</totfact>
</mgrwt>
</event>
<event>
 5    1  0.9873753E-007  0.2000099E+02  0.7818608E-02  0.1745308E+00
         -1   -1    0    0    0  501 -0.00000000000E+00  0.00000000000E+00  0.50922158954E+01  0.50922180367E+01  0.46700000000E-02 0. -1.
          1   -1    0    0  501    0  0.00000000000E+00 -0.00000000000E+00 -0.19639762520E+02  0.19639763075E+02  0.46700000000E-02 0.  1.
       1023    2    1    2    0    0  0.00000000000E+00  0.00000000000E+00 -0.14547546624E+02  0.24731981112E+02  0.20000994398E+02 0.  0.
        -11    1    3    3    0    0  0.99835442289E+01  0.58164630361E+00 -0.72467902315E+01  0.12350118895E+02  0.51100000000E-03 0.  1.
         11    1    3    3    0    0 -0.99835442289E+01 -0.58164630361E+00 -0.73007563929E+01  0.12381862217E+02  0.51100000000E-03 0. -1.
<mgrwt>
<rscale>  0 0.20000994E+02</rscale>
<asrwt>0</asrwt>
<pdfrwt beam="2">  1        1 0.30215021E-02 0.20000994E+02</pdfrwt>
<pdfrwt beam="1">  1       -1 0.78341804E-03 0.20000994E+02</pdfrwt>
<totfact> 0.39671109E+06</totfact>
</mgrwt>
</event>
<event>
 4    1  0.9583198E-007  0.2010731E+02  0.7818608E-02  0.1743202E+00
         -1   -1    0    0    0  501 -0.00000000000E+00  0.00000000000E+00  0.57183510183E+01  0.57183529252E+01  0.46700000000E-02 0.  1.
          1   -1    0    0  501    0  0.00000000000E+00 -0.00000000000E+00 -0.17675720521E+02  0.17675721138E+02  0.46700000000E-02 0. -1.
        -11    1    1    2    0    0 -0.66298096936E+01  0.75521370144E+01 -0.63215676745E+01  0.11872294141E+02  0.51100000000E-03 0.  1.
         11    1    1    2    0    0  0.66298096936E+01 -0.75521370144E+01 -0.56358018281E+01  0.11521779922E+02  0.51100000000E-03 0. -1.
<mgrwt>
<rscale>  0 0.20107312E+02</rscale>
<asrwt>0</asrwt>
<pdfrwt beam="2">  1        1 0.27193418E-02 0.20107312E+02</pdfrwt>
<pdfrwt beam="1">  1       -1 0.87974651E-03 0.20107312E+02</pdfrwt>
<totfact> 0.39031011E+06</totfact>
</mgrwt>
</event>
<event>
 5    1  0.9583198E-007  0.2000946E+02  0.7818608E-02  0.1745140E+00
         -1   -1    0    0    0  501 -0.00000000000E+00  0.00000000000E+00  0.23000875941E+01  0.23000923350E+01  0.46700000000E-02 0.  1.
          1   -1    0    0  501    0  0.00000000000E+00 -0.00000000000E+00 -0.43517704438E+02  0.43517704688E+02  0.46700000000E-02 0. -1.
       1023    2    1    2    0    0  0.00000000000E+00  0.00000000000E+00 -0.41217616844E+02  0.45817797023E+02  0.20009462407E+02 0.  0.
        -11    1    3    3    0    0  0.27406809937E+01  0.96212551800E+01 -0.20887023604E+02  0.23159180445E+02  0.51100000000E-03 0.  1.
         11    1    3    3    0    0 -0.27406809937E+01 -0.96212551800E+01 -0.20330593239E+02  0.22658616579E+02  0.51100000000E-03 0. -1.
<mgrwt>
<rscale>  0 0.20009462E+02</rscale>
<asrwt>0</asrwt>
<pdfrwt beam="2">  1        1 0.66950312E-02 0.20009462E+02</pdfrwt>
<pdfrwt beam="1">  1       -1 0.35386005E-03 0.20009462E+02</pdfrwt>
<totfact> 0.41284021E+06</totfact>
</mgrwt>
</event>
<event>
 5    1  0.9583198E-007  0.2000040E+02  0.7818608E-02  0.1745320E+00
         -1   -1    0    0    0  501 -0.00000000000E+00  0.00000000000E+00  0.71715426018E+02  0.71715426170E+02  0.46700000000E-02 0.  1.
          1   -1    0    0  501    0  0.00000000000E+00 -0.00000000000E+00 -0.13944514213E+01  0.13944592412E+01  0.46700000000E-02 0. -1.
       1023    2    1    2    0    0  0.00000000000E+00  0.00000000000E+00  0.70320974596E+02  0.73109885411E+02  0.20000396912E+02 0.  0.
        -11    1    3    3    0    0  0.87391334841E+01  0.48611801181E+01  0.35083575511E+02  0.36480964860E+02  0.51100000000E-03 0. -1.
         11    1    3    3    0    0 -0.87391334841E+01 -0.48611801181E+01  0.35237399085E+02  0.36628920551E+02  0.51100000000E-03 0.  1.
<mgrwt>
<rscale>  0 0.20000397E+02</rscale>
<asrwt>0</asrwt>
<pdfrwt beam="2">  1        1 0.21453152E-03 0.20000397E+02</pdfrwt>
<pdfrwt beam="1">  1       -1 0.11033147E-01 0.20000397E+02</pdfrwt>
<totfact> 0.33492515E+06</totfact>
</mgrwt>
</event>
<event>
 5    1  0.9583198E-007  0.2000085E+02  0.7818608E-02  0.1745311E+00
          1   -1    0    0  501    0  0.00000000000E+00  0.00000000000E+00  0.57320759632E+01  0.57320778655E+01  0.46700000000E-02 0. -1.
         -1   -1    0    0    0  501 -0.00000000000E+00 -0.00000000000E+00 -0.17447166012E+02  0.17447166637E+02  0.46700000000E-02 0.  1.
       1023    2    1    2    0    0  0.00000000000E+00  0.00000000000E+00 -0.11715090049E+02  0.23179244503E+02  0.20000851003E+02 0.  0.
        -11    1    3    3    0    0 -0.54468800517E+01  0.83868892531E+01 -0.58461716760E+01  0.11583874014E+02  0.51100000000E-03 0.  1.
         11    1    3    3    0    0  0.54468800517E+01 -0.83868892531E+01 -0.58689183728E+01  0.11595370489E+02  0.51100000000E-03 0. -1.
<mgrwt>
<rscale>  0 0.20000851E+02</rscale>
<asrwt>0</asrwt>
<pdfrwt beam="1">  1        1 0.88185804E-03 0.20000851E+02</pdfrwt>
<pdfrwt beam="2">  1       -1 0.26841796E-02 0.20000851E+02</pdfrwt>
<totfact> 0.37680912E+06</totfact>
</mgrwt>
</event>
<event>
 5    1  0.9583198E-007  0.2000798E+02  0.7818608E-02  0.1745170E+00
         -1   -1    0    0    0  501 -0.00000000000E+00  0.00000000000E+00  0.40764679231E+02  0.40764679498E+02  0.46700000000E-02 0. -1.
          1   -1    0    0  501    0  0.00000000000E+00 -0.00000000000E+00 -0.24550585950E+01  0.24550630366E+01  0.46700000000E-02 0.  1.
       1023    2    1    2    0    0  0.00000000000E+00  0.00000000000E+00  0.38309620636E+02  0.43219742535E+02  0.20007976198E+02 0.  0.
        -11    1    3    3    0    0  0.97922313905E+01  0.20446364120E+01  0.19385892867E+02  0.21814700918E+02  0.51100000000E-03 0. -1.
         11    1    3    3    0    0 -0.97922313905E+01 -0.20446364120E+01  0.18923727769E+02  0.21405041617E+02  0.51100000000E-03 0.  1.
<mgrwt>
<rscale>  0 0.20007976E+02</rscale>
<asrwt>0</asrwt>
<pdfrwt beam="2">  1        1 0.37770174E-03 0.20007976E+02</pdfrwt>
<pdfrwt beam="1">  1       -1 0.62714886E-02 0.20007976E+02</pdfrwt>
<totfact> 0.35580924E+06</totfact>
</mgrwt>
</event>
<event>
 5    1  0.9583198E-007  0.2000177E+02  0.7818608E-02  0.1745293E+00
          1   -1    0    0  501    0  0.00000000000E+00  0.00000000000E+00  0.23744848216E+01  0.23744894139E+01  0.46700000000E-02 0.  1.
         -1   -1    0    0    0  501 -0.00000000000E+00 -0.00000000000E+00 -0.42121787788E+02  0.42121788047E+02  0.46700000000E-02 0. -1.
       1023    2    1    2    0    0  0.00000000000E+00  0.00000000000E+00 -0.39747302967E+02  0.44496277461E+02  0.20001765291E+02 0.  0.
        -11    1    3    3    0    0  0.99492746366E+01 -0.10134874183E+01 -0.19763968855E+02  0.22150162250E+02  0.51100000000E-03 0. -1.
         11    1    3    3    0    0 -0.99492746366E+01  0.10134874183E+01 -0.19983334111E+02  0.22346115211E+02  0.51100000000E-03 0.  1.
<mgrwt>
<rscale>  0 0.20001765E+02</rscale>
<asrwt>0</asrwt>
<pdfrwt beam="1">  1        1 0.36530576E-03 0.20001765E+02</pdfrwt>
<pdfrwt beam="2">  1       -1 0.64802749E-02 0.20001765E+02</pdfrwt>
<totfact> 0.35501531E+06</totfact>
</mgrwt>
</event>
<event>
 5    1  0.9583198E-007  0.2000035E+02  0.7818608E-02  0.1745321E+00
         -1   -1    0    0    0  501 -0.00000000000E+00  0.00000000000E+00  0.11089899720E+01  0.11089998047E+01  0.46700000000E-02 0.  1.
          1   -1    0    0  501    0  0.00000000000E+00 -0.00000000000E+00 -0.90174902814E+02  0.90174902935E+02  0.46700000000E-02 0. -1.
       1023    2    1    2    0    0  0.00000000000E+00  0.00000000000E+00 -0.89065912842E+02  0.91283902740E+02  0.20000351722E+02 0.  0.
        -11    1    3    3    0    0 -0.96693396862E+01  0.25506164633E+01 -0.44723487073E+02  0.45827852563E+02  0.51100000000E-03 0. -1.
         11    1    3    3    0    0  0.96693396862E+01 -0.25506164633E+01 -0.44342425769E+02  0.45456050176E+02  0.51100000000E-03 0.  1.
<mgrwt>
<rscale>  0 0.20000352E+02</rscale>
<asrwt>0</asrwt>
<pdfrwt beam="2">  1        1 0.13873057E-01 0.20000352E+02</pdfrwt>
<pdfrwt beam="1">  1       -1 0.17061468E-03 0.20000352E+02</pdfrwt>
<totfact> 0.43874898E+06</totfact>
</mgrwt>
</event>
<event>
 5    1  0.9583198E-007  0.2001138E+02  0.7818608E-02  0.1745102E+00
          1   -1    0    0  501    0  0.00000000000E+00  0.00000000000E+00  0.33230028911E+01  0.33230061726E+01  0.46700000000E-02 0. -1.
         -1   -1    0    0    0  501 -0.00000000000E+00 -0.00000000000E+00 -0.30127504654E+02  0.30127505016E+02  0.46700000000E-02 0.  1.
       1023    2    1    2    0    0  0.00000000000E+00  0.00000000000E+00 -0.26804501763E+02  0.33450511189E+02  0.20011381362E+02 0.  0.
        -11    1    3    3    0    0 -0.11133466328E-01 -0.10005631631E+02 -0.13456607814E+02  0.16768812791E+02  0.51100000000E-03 0.  1.
         11    1    3    3    0    0  0.11133466328E-01  0.10005631631E+02 -0.13347893949E+02  0.16681698398E+02  0.51100000000E-03 0. -1.
<mgrwt>
<rscale>  0 0.20011381E+02</rscale>
<asrwt>0</asrwt>
<pdfrwt beam="1">  1        1 0.51123151E-03 0.20011381E+02</pdfrwt>
<pdfrwt beam="2">  1       -1 0.46350008E-02 0.20011381E+02</pdfrwt>
<totfact> 0.36429890E+06</totfact>
</mgrwt>
</event>
<event>
 5    1  0.9583198E-007  0.2000046E+02  0.7818608E-02  0.1745319E+00
          1   -1    0    0  501    0  0.00000000000E+00  0.00000000000E+00  0.27285727259E+01  0.27285767223E+01  0.46700000000E-02 0.  1.
         -1   -1    0    0    0  501 -0.00000000000E+00 -0.00000000000E+00 -0.36650838329E+02  0.36650838627E+02  0.46700000000E-02 0. -1.
       1023    2    1    2    0    0  0.00000000000E+00  0.00000000000E+00 -0.33922265603E+02  0.39379415349E+02  0.20000456234E+02 0.  0.
        -11    1    3    3    0    0  0.92986095437E+00 -0.99569030294E+01 -0.16957838240E+02  0.19686869669E+02  0.51100000000E-03 0. -1.
         11    1    3    3    0    0 -0.92986095437E+00  0.99569030294E+01 -0.16964427363E+02  0.19692545680E+02  0.51100000000E-03 0.  1.
<mgrwt>
<rscale>  0 0.20000456E+02</rscale>
<asrwt>0</asrwt>
<pdfrwt beam="1">  1        1 0.41978077E-03 0.20000456E+02</pdfrwt>
<pdfrwt beam="2">  1       -1 0.56385905E-02 0.20000456E+02</pdfrwt>
<totfact> 0.35932739E+06</totfact>
</mgrwt>
</event>
<event>
 5    1  0.9583198E-007  0.2000042E+02  0.7818608E-02  0.1745320E+00
          1   -1    0    0  501    0  0.00000000000E+00  0.00000000000E+00  0.24759634587E+01  0.24759678628E+01  0.46700000000E-02 0. -1.
         -1   -1    0    0    0  501 -0.00000000000E+00 -0.00000000000E+00 -0.40389961366E+02  0.40389961636E+02  0.46700000000E-02 0.  1.
       1023    2    1    2    0    0  0.00000000000E+00  0.00000000000E+00 -0.37913997907E+02  0.42865929498E+02  0.20000416858E+02 0.  0.
        -11    1    3    3    0    0  0.91180927135E+01  0.41066472337E+01 -0.18960122217E+02  0.21435727209E+02  0.51100000000E-03 0.  1.
         11    1    3    3    0    0 -0.91180927135E+01 -0.41066472337E+01 -0.18953875690E+02  0.21430202289E+02  0.51100000000E-03 0. -1.
<mgrwt>
<rscale>  0 0.20000417E+02</rscale>
<asrwt>0</asrwt>
<pdfrwt beam="1">  1        1 0.38091784E-03 0.20000417E+02</pdfrwt>
<pdfrwt beam="2">  1       -1 0.62138401E-02 0.20000417E+02</pdfrwt>
<totfact> 0.35639371E+06</totfact>
</mgrwt>
</event>
<event>
 5    1  0.9583198E-007  0.2000043E+02  0.7818608E-02  0.1745320E+00
          1   -1    0    0  501    0  0.00000000000E+00  0.00000000000E+00  0.30195876028E+02  0.30195876389E+02  0.46700000000E-02 0.  1.
         -1   -1    0    0    0  501 -0.00000000000E+00 -0.00000000000E+00 -0.33118505331E+01  0.33118538256E+01  0.46700000000E-02 0. -1.
       1023    2    1    2    0    0  0.00000000000E+00  0.00000000000E+00  0.26884025495E+02  0.33507730215E+02  0.20000428929E+02 0.  0.
        -11    1    3    3    0    0  0.65165639915E+01  0.75854219276E+01  0.13454661114E+02  0.16764013184E+02  0.51100000000E-03 0.  1.
         11    1    3    3    0    0 -0.65165639915E+01 -0.75854219276E+01  0.13429364380E+02  0.16743717031E+02  0.51100000000E-03 0. -1.
<mgrwt>
<rscale>  0 0.20000429E+02</rscale>
<asrwt>0</asrwt>
<pdfrwt beam="1">  1        1 0.46455195E-02 0.20000429E+02</pdfrwt>
<pdfrwt beam="2">  1       -1 0.50951577E-03 0.20000429E+02</pdfrwt>
<totfact> 0.40468220E+06</totfact>
</mgrwt>
</event>
<event>
 4    1  0.9583198E-007  0.2047354E+02  0.7818608E-02  0.1736072E+00
          1   -1    0    0  501    0  0.00000000000E+00  0.00000000000E+00  0.35239658694E+02  0.35239659004E+02  0.46700000000E-02 0. -1.
         -1   -1    0    0    0  501 -0.00000000000E+00 -0.00000000000E+00 -0.29736776580E+01  0.29736813250E+01  0.46700000000E-02 0.  1.
        -11    1    1    2    0    0  0.70078314494E+01  0.74340216762E+01  0.14927586753E+02  0.18088870237E+02  0.51100000000E-03 0. -1.
         11    1    1    2    0    0 -0.70078314494E+01 -0.74340216762E+01  0.17338394283E+02  0.20124470092E+02  0.51100000000E-03 0.  1.
<mgrwt>
<rscale>  0 0.20473540E+02</rscale>
<asrwt>0</asrwt>
<pdfrwt beam="1">  1        1 0.54214862E-02 0.20473540E+02</pdfrwt>
<pdfrwt beam="2">  1       -1 0.45748918E-03 0.20473540E+02</pdfrwt>
<totfact> 0.38726495E+06</totfact>
</mgrwt>
</event>
<event>
 5    1  0.9583198E-007  0.2000766E+02  0.7818608E-02  0.1745176E+00
          1   -1    0    0  501    0  0.00000000000E+00  0.00000000000E+00  0.56258255442E+01  0.56258274825E+01  0.46700000000E-02 0. -1.
         -1   -1    0    0    0  501 -0.00000000000E+00 -0.00000000000E+00 -0.17788783020E+02  0.17788783633E+02  0.46700000000E-02 0.  1.
       1023    2    1    2    0    0  0.00000000000E+00  0.00000000000E+00 -0.12162957476E+02  0.23414611115E+02  0.20007660511E+02 0.  0.
        -11    1    3    3    0    0  0.91215542977E+01 -0.41076180393E+01 -0.60386272409E+01  0.11685045912E+02  0.51100000000E-03 0.  1.
         11    1    3    3    0    0 -0.91215542977E+01  0.41076180393E+01 -0.61243302347E+01  0.11729565203E+02  0.51100000000E-03 0. -1.
<mgrwt>
<rscale>  0 0.20007661E+02</rscale>
<asrwt>0</asrwt>
<pdfrwt beam="1">  1        1 0.86551182E-03 0.20007661E+02</pdfrwt>
<pdfrwt beam="2">  1       -1 0.27367360E-02 0.20007661E+02</pdfrwt>
<totfact> 0.37615967E+06</totfact>
</mgrwt>
</event>
<event>
 5    1  0.9628464E-007  0.2000243E+02  0.7818608E-02  0.1745280E+00
          1   -1    0    0  501    0  0.00000000000E+00  0.00000000000E+00  0.64180763296E+02  0.64180763466E+02  0.46700000000E-02 0. -1.
         -1   -1    0    0    0  501 -0.00000000000E+00 -0.00000000000E+00 -0.15584744869E+01  0.15584814837E+01  0.46700000000E-02 0.  1.
       1023    2    1    2    0    0  0.00000000000E+00  0.00000000000E+00  0.62622288809E+02  0.65739244950E+02  0.20002431624E+02 0.  0.
        -11    1    3    3    0    0  0.86782121127E+01  0.49711782781E+01  0.31250676382E+02  0.32812021479E+02  0.51100000000E-03 0. -1.
         11    1    3    3    0    0 -0.86782121127E+01 -0.49711782781E+01  0.31371612428E+02  0.32927223471E+02  0.51100000000E-03 0.  1.
<mgrwt>
<rscale>  0 0.20002432E+02</rscale>
<asrwt>0</asrwt>
<pdfrwt beam="1">  1        1 0.98739653E-02 0.20002432E+02</pdfrwt>
<pdfrwt beam="2">  1       -1 0.23976583E-03 0.20002432E+02</pdfrwt>
<totfact> 0.42506743E+06</totfact>
</mgrwt>
</event>
<event>
 5    1  0.1007422E-006  0.2000086E+02  0.7818608E-02  0.1745311E+00
          1   -1    0    0  501    0  0.00000000000E+00  0.00000000000E+00  0.93050233164E+02  0.93050233281E+02  0.46700000000E-02 0. -1.
         -1   -1    0    0    0  501 -0.00000000000E+00 -0.00000000000E+00 -0.10747750584E+01  0.10747852042E+01  0.46700000000E-02 0.  1.
       1023    2    1    2    0    0  0.00000000000E+00  0.00000000000E+00  0.91975458106E+02  0.94125018485E+02  0.20000855260E+02 0.  0.
        -11    1    3    3    0    0  0.35851504750E+01 -0.93356289710E+01  0.45819339937E+02  0.46897965678E+02  0.51100000000E-03 0. -1.
         11    1    3    3    0    0 -0.35851504750E+01  0.93356289710E+01  0.46156118168E+02  0.47227052807E+02  0.51100000000E-03 0.  1.
<mgrwt>
<rscale>  0 0.20000855E+02</rscale>
<asrwt>0</asrwt>
<pdfrwt beam="1">  1        1 0.14315421E-01 0.20000855E+02</pdfrwt>
<pdfrwt beam="2">  1       -1 0.16535080E-03 0.20000855E+02</pdfrwt>
<totfact> 0.44015684E+06</totfact>
</mgrwt>
</event>
<event>
 5    1  0.9583198E-007  0.2000049E+02  0.7818608E-02  0.1745318E+00
          1   -1    0    0  501    0  0.00000000000E+00  0.00000000000E+00  0.11603741439E+01  0.11603835412E+01  0.46700000000E-02 0.  1.
         -1   -1    0    0    0  501 -0.00000000000E+00 -0.00000000000E+00 -0.86182953386E+02  0.86182953512E+02  0.46700000000E-02 0. -1.
       1023    2    1    2    0    0  0.00000000000E+00  0.00000000000E+00 -0.85022579242E+02  0.87343337054E+02  0.20000488662E+02 0.  0.
        -11    1    3    3    0    0 -0.69378281735E+01 -0.72020722987E+01 -0.42337633575E+02  0.43502626612E+02  0.51100000000E-03 0. -1.
         11    1    3    3    0    0  0.69378281735E+01  0.72020722987E+01 -0.42684945667E+02  0.43840710442E+02  0.51100000000E-03 0.  1.
<mgrwt>
<rscale>  0 0.20000489E+02</rscale>
<asrwt>0</asrwt>
<pdfrwt beam="1">  1        1 0.17851990E-03 0.20000489E+02</pdfrwt>
<pdfrwt beam="2">  1       -1 0.13258912E-01 0.20000489E+02</pdfrwt>
<totfact> 0.32632042E+06</totfact>
</mgrwt>
</event>
<event>
 5    1  0.1044492E-006  0.2000128E+02  0.7818608E-02  0.1745303E+00
          1   -1    0    0  501    0  0.00000000000E+00  0.00000000000E+00  0.80781484080E+02  0.80781484215E+02  0.46700000000E-02 0.  1.
         -1   -1    0    0    0  501 -0.00000000000E+00 -0.00000000000E+00 -0.12380610834E+01  0.12380698911E+01  0.46700000000E-02 0. -1.
       1023    2    1    2    0    0  0.00000000000E+00  0.00000000000E+00  0.79543422997E+02  0.82019554106E+02  0.20001277803E+02 0.  0.
        -11    1    3    3    0    0 -0.85323853310E+01 -0.52152355693E+01  0.39313298151E+02  0.40565202986E+02  0.51100000000E-03 0. -1.
         11    1    3    3    0    0  0.85323853310E+01  0.52152355693E+01  0.40230124845E+02  0.41454351120E+02  0.51100000000E-03 0.  1.
<mgrwt>
<rscale>  0 0.20001278E+02</rscale>
<asrwt>0</asrwt>
<pdfrwt beam="1">  1        1 0.12427928E-01 0.20001278E+02</pdfrwt>
<pdfrwt beam="2">  1       -1 0.19047152E-03 0.20001278E+02</pdfrwt>
<totfact> 0.43393556E+06</totfact>
</mgrwt>
</event>
<event>
 5    1  0.9583198E-007  0.2000635E+02  0.7818608E-02  0.1745202E+00
          1   -1    0    0  501    0  0.00000000000E+00  0.00000000000E+00  0.85421856857E+00  0.85423133389E+00  0.46700000000E-02 0. -1.
         -1   -1    0    0    0  501 -0.00000000000E+00 -0.00000000000E+00 -0.11713957064E+03  0.11713957074E+03  0.46700000000E-02 0.  1.
       1023    2    1    2    0    0  0.00000000000E+00  0.00000000000E+00 -0.11628535207E+03  0.11799380207E+03  0.20006354487E+02 0.  0.
        -11    1    3    3    0    0  0.97927050092E+01  0.20343386658E+01 -0.59128679043E+02  0.59968627555E+02  0.51100000000E-03 0.  1.
         11    1    3    3    0    0 -0.97927050092E+01 -0.20343386658E+01 -0.57156673031E+02  0.58025174515E+02  0.51100000000E-03 0. -1.
<mgrwt>
<rscale>  0 0.20006354E+02</rscale>
<asrwt>0</asrwt>
<pdfrwt beam="1">  1        1 0.13141932E-03 0.20006354E+02</pdfrwt>
<pdfrwt beam="2">  1       -1 0.18021461E-01 0.20006354E+02</pdfrwt>
<totfact> 0.30957438E+06</totfact>
</mgrwt>
</event>
<event>
 5    1  0.9583198E-007  0.2000016E+02  0.7818608E-02  0.1745325E+00
          1   -1    0    0  501    0  0.00000000000E+00  0.00000000000E+00  0.17301073324E+01  0.17301136351E+01  0.46700000000E-02 0.  1.
         -1   -1    0    0    0  501 -0.00000000000E+00 -0.00000000000E+00 -0.57800680645E+02  0.57800680834E+02  0.46700000000E-02 0. -1.
       1023    2    1    2    0    0  0.00000000000E+00  0.00000000000E+00 -0.56070573313E+02  0.59530794469E+02  0.20000157461E+02 0.  0.
        -11    1    3    3    0    0  0.99896896544E+01 -0.45456192043E+00 -0.28131664552E+02  0.29856173175E+02  0.51100000000E-03 0.  1.
         11    1    3    3    0    0 -0.99896896544E+01  0.45456192043E+00 -0.27938908761E+02  0.29674621294E+02  0.51100000000E-03 0. -1.
<mgrwt>
<rscale>  0 0.20000157E+02</rscale>
<asrwt>0</asrwt>
<pdfrwt beam="1">  1        1 0.26617090E-03 0.20000157E+02</pdfrwt>
<pdfrwt beam="2">  1       -1 0.88924114E-02 0.20000157E+02</pdfrwt>
<totfact> 0.34389521E+06</totfact>
</mgrwt>
</event>
<event>
 5    1  0.9583198E-007  0.2000500E+02  0.7818608E-02  0.1745229E+00
          1   -1    0    0  501    0  0.00000000000E+00  0.00000000000E+00  0.13465389694E+02  0.13465390504E+02  0.46700000000E-02 0. -1.
         -1   -1    0    0    0  501 -0.00000000000E+00 -0.00000000000E+00 -0.74301606100E+01  0.74301620775E+01  0.46700000000E-02 0.  1.
       1023    2    1    2    0    0  0.00000000000E+00  0.00000000000E+00  0.60352290842E+01  0.20895552581E+02  0.20005002564E+02 0.  0.
        -11    1    3    3    0    0 -0.99547903255E+01 -0.97062089113E+00  0.29127651962E+01  0.10417492822E+02  0.51100000000E-03 0.  1.
         11    1    3    3    0    0  0.99547903255E+01  0.97062089113E+00  0.31224638880E+01  0.10478059760E+02  0.51100000000E-03 0. -1.
<mgrwt>
<rscale>  0 0.20005003E+02</rscale>
<asrwt>0</asrwt>
<pdfrwt beam="1">  1        1 0.20715986E-02 0.20005003E+02</pdfrwt>
<pdfrwt beam="2">  1       -1 0.11431018E-02 0.20005003E+02</pdfrwt>
<totfact> 0.39056961E+06</totfact>
</mgrwt>
</event>
<event>
 5    1  0.9583198E-007  0.2000072E+02  0.7818608E-02  0.1745314E+00
         -1   -1    0    0    0  501 -0.00000000000E+00  0.00000000000E+00  0.31402533374E+02  0.31402533721E+02  0.46700000000E-02 0.  1.
          1   -1    0    0  501    0  0.00000000000E+00 -0.00000000000E+00 -0.31846850103E+01  0.31846884344E+01  0.46700000000E-02 0. -1.
       1023    2    1    2    0    0  0.00000000000E+00  0.00000000000E+00  0.28217848363E+02  0.34587222155E+02  0.20000724241E+02 0.  0.
        -11    1    3    3    0    0 -0.73907684358E+01 -0.67366634822E+01  0.14167550629E+02  0.17341441233E+02  0.51100000000E-03 0. -1.
         11    1    3    3    0    0  0.73907684358E+01  0.67366634822E+01  0.14050297735E+02  0.17245780923E+02  0.51100000000E-03 0.  1.
<mgrwt>
<rscale>  0 0.20000724E+02</rscale>
<asrwt>0</asrwt>
<pdfrwt beam="2">  1        1 0.48995185E-03 0.20000724E+02</pdfrwt>
<pdfrwt beam="1">  1       -1 0.48311591E-02 0.20000724E+02</pdfrwt>
<totfact> 0.36363594E+06</totfact>
</mgrwt>
</event>
<event>
 5    1  0.9583198E-007  0.2000289E+02  0.7818608E-02  0.1745271E+00
         -1   -1    0    0    0  501 -0.00000000000E+00  0.00000000000E+00  0.20059621636E+01  0.20059675996E+01  0.46700000000E-02 0. -1.
          1   -1    0    0  501    0  0.00000000000E+00 -0.00000000000E+00 -0.49865747446E+02  0.49865747665E+02  0.46700000000E-02 0.  1.
       1023    2    1    2    0    0  0.00000000000E+00  0.00000000000E+00 -0.47859785283E+02  0.51871715265E+02  0.20002894720E+02 0.  0.
        -11    1    3    3    0    0  0.62988944579E+01 -0.77676769508E+01 -0.24258652334E+02  0.26239189963E+02  0.51100000000E-03 0.  1.
         11    1    3    3    0    0 -0.62988944579E+01  0.77676769508E+01 -0.23601132949E+02  0.25632525301E+02  0.51100000000E-03 0. -1.
<mgrwt>
<rscale>  0 0.20002895E+02</rscale>
<asrwt>0</asrwt>
<pdfrwt beam="2">  1        1 0.76716530E-02 0.20002895E+02</pdfrwt>
<pdfrwt beam="1">  1       -1 0.30861004E-03 0.20002895E+02</pdfrwt>
<totfact> 0.41693544E+06</totfact>
</mgrwt>
</event>
<event>
 5    1  0.9583198E-007  0.2000282E+02  0.7818608E-02  0.1745272E+00
         -1   -1    0    0    0  501 -0.00000000000E+00  0.00000000000E+00  0.17108805368E+01  0.17108869103E+01  0.46700000000E-02 0.  1.
          1   -1    0    0  501    0  0.00000000000E+00 -0.00000000000E+00 -0.58465779633E+02  0.58465779819E+02  0.46700000000E-02 0. -1.
       1023    2    1    2    0    0  0.00000000000E+00  0.00000000000E+00 -0.56754899096E+02  0.60176666730E+02  0.20002815984E+02 0.  0.
        -11    1    3    3    0    0  0.93096345263E+01 -0.36540129646E+01 -0.28630152423E+02  0.30326667040E+02  0.51100000000E-03 0.  1.
         11    1    3    3    0    0 -0.93096345263E+01  0.36540129646E+01 -0.28124746673E+02  0.29849999689E+02  0.51100000000E-03 0. -1.
<mgrwt>
<rscale>  0 0.20002816E+02</rscale>
<asrwt>0</asrwt>
<pdfrwt beam="2">  1        1 0.89947343E-02 0.20002816E+02</pdfrwt>
<pdfrwt beam="1">  1       -1 0.26321294E-03 0.20002816E+02</pdfrwt>
<totfact> 0.42187383E+06</totfact>
</mgrwt>
</event>
<event>
 5    1  0.9583198E-007  0.2000049E+02  0.7818608E-02  0.1745318E+00
          1   -1    0    0  501    0  0.00000000000E+00  0.00000000000E+00  0.28640120259E+02  0.28640120640E+02  0.46700000000E-02 0.  1.
         -1   -1    0    0    0  501 -0.00000000000E+00 -0.00000000000E+00 -0.34917760028E+01  0.34917791257E+01  0.46700000000E-02 0. -1.
       1023    2    1    2    0    0  0.00000000000E+00  0.00000000000E+00  0.25148344257E+02  0.32131899766E+02  0.20000494087E+02 0.  0.
        -11    1    3    3    0    0 -0.93060093201E+01 -0.36607471138E+01  0.12647120514E+02  0.16123043647E+02  0.51100000000E-03 0. -1.
         11    1    3    3    0    0  0.93060093201E+01  0.36607471138E+01  0.12501223743E+02  0.16008856119E+02  0.51100000000E-03 0.  1.
<mgrwt>
<rscale>  0 0.20000494E+02</rscale>
<asrwt>0</asrwt>
<pdfrwt beam="1">  1        1 0.44061728E-02 0.20000494E+02</pdfrwt>
<pdfrwt beam="2">  1       -1 0.53719656E-03 0.20000494E+02</pdfrwt>
<totfact> 0.40359952E+06</totfact>
</mgrwt>
</event>
<event>
 5    1  0.9856274E-007  0.2000111E+02  0.7818608E-02  0.1745306E+00
          1   -1    0    0  501    0  0.00000000000E+00  0.00000000000E+00  0.32873716135E+02  0.32873716467E+02  0.46700000000E-02 0.  1.
         -1   -1    0    0    0  501 -0.00000000000E+00 -0.00000000000E+00 -0.30422792377E+01  0.30422828220E+01  0.46700000000E-02 0. -1.
       1023    2    1    2    0    0  0.00000000000E+00  0.00000000000E+00  0.29831436898E+02  0.35915999289E+02  0.20001109408E+02 0.  0.
        -11    1    3    3    0    0 -0.30743806424E+01  0.95161395077E+01  0.14828360588E+02  0.17885441159E+02  0.51100000000E-03 0. -1.
         11    1    3    3    0    0  0.30743806424E+01 -0.95161395077E+01  0.15003076309E+02  0.18030558130E+02  0.51100000000E-03 0.  1.
<mgrwt>
<rscale>  0 0.20001109E+02</rscale>
<asrwt>0</asrwt>
<pdfrwt beam="1">  1        1 0.50574951E-02 0.20001109E+02</pdfrwt>
<pdfrwt beam="2">  1       -1 0.46804326E-03 0.20001109E+02</pdfrwt>
<totfact> 0.40646176E+06</totfact>
</mgrwt>
</event>
<event>
 5    1  0.9583198E-007  0.2000044E+02  0.7818608E-02  0.1745319E+00
          1   -1    0    0  501    0  0.00000000000E+00  0.00000000000E+00  0.28548713671E+02  0.28548714053E+02  0.46700000000E-02 0.  1.
         -1   -1    0    0    0  501 -0.00000000000E+00 -0.00000000000E+00 -0.35029367800E+01  0.35029398929E+01  0.46700000000E-02 0. -1.
       1023    2    1    2    0    0  0.00000000000E+00  0.00000000000E+00  0.25045776891E+02  0.32051653946E+02  0.20000439510E+02 0.  0.
        -11    1    3    3    0    0  0.77895412514E+01 -0.62711584127E+01  0.12528915127E+02  0.16030536337E+02  0.51100000000E-03 0. -1.
         11    1    3    3    0    0 -0.77895412514E+01  0.62711584127E+01  0.12516861764E+02  0.16021117609E+02  0.51100000000E-03 0.  1.
<mgrwt>
<rscale>  0 0.20000440E+02</rscale>
<asrwt>0</asrwt>
<pdfrwt beam="1">  1        1 0.43921098E-02 0.20000440E+02</pdfrwt>
<pdfrwt beam="2">  1       -1 0.53891365E-03 0.20000440E+02</pdfrwt>
<totfact> 0.40353782E+06</totfact>
</mgrwt>
</event>
<event>
 4    1  0.9583198E-007  0.2001595E+02  0.7818608E-02  0.1745011E+00
          1   -1    0    0  501    0  0.00000000000E+00  0.00000000000E+00  0.51352457618E+01  0.51352478853E+01  0.46700000000E-02 0.  1.
         -1   -1    0    0    0  501 -0.00000000000E+00 -0.00000000000E+00 -0.19504329879E+02  0.19504330438E+02  0.46700000000E-02 0. -1.
        -11    1    1    2    0    0 -0.73805415288E+00 -0.99767111163E+01 -0.68362078984E+01  0.12116650829E+02  0.51100000000E-03 0.  1.
         11    1    1    2    0    0  0.73805415288E+00  0.99767111163E+01 -0.75328762187E+01  0.12522927494E+02  0.51100000000E-03 0. -1.
<mgrwt>
<rscale>  0 0.20015950E+02</rscale>
<asrwt>0</asrwt>
<pdfrwt beam="1">  1        1 0.79003803E-03 0.20015950E+02</pdfrwt>
<pdfrwt beam="2">  1       -1 0.30006663E-02 0.20015950E+02</pdfrwt>
<totfact> 0.37401960E+06</totfact>
</mgrwt>
</event>
<event>
 5    1  0.9589255E-007  0.2000072E+02  0.7818608E-02  0.1745314E+00
         -1   -1    0    0    0  501 -0.00000000000E+00  0.00000000000E+00  0.67351155964E+01  0.67351172154E+01  0.46700000000E-02 0.  1.
          1   -1    0    0  501    0  0.00000000000E+00 -0.00000000000E+00 -0.14848619450E+02  0.14848620184E+02  0.46700000000E-02 0. -1.
       1023    2    1    2    0    0  0.00000000000E+00  0.00000000000E+00 -0.81135038538E+01  0.21583737400E+02  0.20000719371E+02 0.  0.
        -11    1    3    3    0    0  0.98265972046E+01  0.18548850684E+01 -0.39837011626E+01  0.10764408319E+02  0.51100000000E-03 0. -1.
         11    1    3    3    0    0 -0.98265972046E+01 -0.18548850684E+01 -0.41298026912E+01  0.10819329081E+02  0.51100000000E-03 0.  1.
<mgrwt>
<rscale>  0 0.20000719E+02</rscale>
<asrwt>0</asrwt>
<pdfrwt beam="2">  1        1 0.22844032E-02 0.20000719E+02</pdfrwt>
<pdfrwt beam="1">  1       -1 0.10361718E-02 0.20000719E+02</pdfrwt>
<totfact> 0.39225800E+06</totfact>
</mgrwt>
</event>
<event>
 5    1  0.1094953E-006  0.2000115E+02  0.7818608E-02  0.1745305E+00
          1   -1    0    0  501    0  0.00000000000E+00  0.00000000000E+00  0.10817069684E+03  0.10817069694E+03  0.46700000000E-02 0. -1.
         -1   -1    0    0    0  501 -0.00000000000E+00 -0.00000000000E+00 -0.92456526090E+00  0.92457705497E+00  0.46700000000E-02 0.  1.
       1023    2    1    2    0    0  0.00000000000E+00  0.00000000000E+00  0.10724613158E+03  0.10909527399E+03  0.20001151705E+02 0.  0.
        -11    1    3    3    0    0  0.96365867566E+01  0.26717918173E+01  0.54147410817E+02  0.55063094485E+02  0.51100000000E-03 0.  1.
         11    1    3    3    0    0 -0.96365867566E+01 -0.26717918173E+01  0.53098720760E+02  0.54032179509E+02  0.51100000000E-03 0. -1.
<mgrwt>
<rscale>  0 0.20001152E+02</rscale>
<asrwt>0</asrwt>
<pdfrwt beam="1">  1        1 0.16641649E-01 0.20001152E+02</pdfrwt>
<pdfrwt beam="2">  1       -1 0.14224170E-03 0.20001152E+02</pdfrwt>
<totfact> 0.44745853E+06</totfact>
</mgrwt>
</event>
<event>
 4    1  0.9583198E-007  0.2001975E+02  0.7818608E-02  0.1744936E+00
         -1   -1    0    0    0  501 -0.00000000000E+00  0.00000000000E+00  0.76590329440E+02  0.76590329583E+02  0.46700000000E-02 0. -1.
          1   -1    0    0  501    0  0.00000000000E+00 -0.00000000000E+00 -0.13082228287E+01  0.13082311640E+01  0.46700000000E-02 0.  1.
        -11    1    1    2    0    0 -0.66294287688E+01 -0.74871525680E+01  0.39340562992E+02  0.40591706988E+02  0.51100000000E-03 0. -1.
         11    1    1    2    0    0  0.66294287688E+01  0.74871525680E+01  0.35941543620E+02  0.37306853759E+02  0.51100000000E-03 0.  1.
<mgrwt>
<rscale>  0 0.20019745E+02</rscale>
<asrwt>0</asrwt>
<pdfrwt beam="2">  1        1 0.20126580E-03 0.20019745E+02</pdfrwt>
<pdfrwt beam="1">  1       -1 0.11783123E-01 0.20019745E+02</pdfrwt>
<totfact> 0.33124918E+06</totfact>
</mgrwt>
</event>
<event>
 5    1  0.9785837E-007  0.2000098E+02  0.7818608E-02  0.1745309E+00
          1   -1    0    0  501    0  0.00000000000E+00  0.00000000000E+00  0.10168941211E+02  0.10168942283E+02  0.46700000000E-02 0.  1.
         -1   -1    0    0    0  501 -0.00000000000E+00 -0.00000000000E+00 -0.98348279638E+01  0.98348290725E+01  0.46700000000E-02 0. -1.
       1023    2    1    2    0    0  0.00000000000E+00  0.00000000000E+00  0.33411324696E+00  0.20003771356E+02  0.20000980896E+02 0.  0.
        -11    1    3    3    0    0 -0.88302117062E+00 -0.99614158303E+01  0.18370839182E+00  0.10002163804E+02  0.51100000000E-03 0.  1.
         11    1    3    3    0    0  0.88302117062E+00  0.99614158303E+01  0.15040485514E+00  0.10001607551E+02  0.51100000000E-03 0. -1.
<mgrwt>
<rscale>  0 0.20000981E+02</rscale>
<asrwt>0</asrwt>
<pdfrwt beam="1">  1        1 0.15644527E-02 0.20000981E+02</pdfrwt>
<pdfrwt beam="2">  1       -1 0.15130506E-02 0.20000981E+02</pdfrwt>
<totfact> 0.38645595E+06</totfact>
</mgrwt>
</event>
<event>
 5    1  0.9583198E-007  0.2000776E+02  0.7818608E-02  0.1745174E+00
          1   -1    0    0  501    0  0.00000000000E+00  0.00000000000E+00  0.52165048542E+02  0.52165048751E+02  0.46700000000E-02 0. -1.
         -1   -1    0    0    0  501 -0.00000000000E+00 -0.00000000000E+00 -0.19184772099E+01  0.19184828938E+01  0.46700000000E-02 0.  1.
       1023    2    1    2    0    0  0.00000000000E+00  0.00000000000E+00  0.50246571332E+02  0.54083531645E+02  0.20007760108E+02 0.  0.
        -11    1    3    3    0    0 -0.21846117882E+01  0.97597452758E+01  0.25742410275E+02  0.27616966588E+02  0.51100000000E-03 0. -1.
         11    1    3    3    0    0  0.21846117882E+01 -0.97597452758E+01  0.24504161057E+02  0.26466565057E+02  0.51100000000E-03 0.  1.
<mgrwt>
<rscale>  0 0.20007760E+02</rscale>
<asrwt>0</asrwt>
<pdfrwt beam="1">  1        1 0.80253923E-02 0.20007760E+02</pdfrwt>
<pdfrwt beam="2">  1       -1 0.29515080E-03 0.20007760E+02</pdfrwt>
<totfact> 0.41804981E+06</totfact>
</mgrwt>
</event>
<event>
 5    1  0.9779729E-007  0.2000097E+02  0.7818608E-02  0.1745309E+00
          1   -1    0    0  501    0  0.00000000000E+00  0.00000000000E+00  0.16965722067E+02  0.16965722710E+02  0.46700000000E-02 0.  1.
         -1   -1    0    0    0  501 -0.00000000000E+00 -0.00000000000E+00 -0.58948053371E+01  0.58948071870E+01  0.46700000000E-02 0. -1.
       1023    2    1    2    0    0  0.00000000000E+00  0.00000000000E+00  0.11070916730E+02  0.22860529897E+02  0.20000965725E+02 0.  0.
        -11    1    3    3    0    0  0.99499979486E+01 -0.10018501635E+01  0.54678944177E+01  0.11397545023E+02  0.51100000000E-03 0. -1.
         11    1    3    3    0    0 -0.99499979486E+01  0.10018501635E+01  0.56030223126E+01  0.11462984874E+02  0.51100000000E-03 0.  1.
<mgrwt>
<rscale>  0 0.20000966E+02</rscale>
<asrwt>0</asrwt>
<pdfrwt beam="1">  1        1 0.26101112E-02 0.20000966E+02</pdfrwt>
<pdfrwt beam="2">  1       -1 0.90689334E-03 0.20000966E+02</pdfrwt>
<totfact> 0.39433308E+06</totfact>
</mgrwt>
</event>
<event>
 5    1  0.9583198E-007  0.2000041E+02  0.7818608E-02  0.1745320E+00
         -1   -1    0    0    0  501 -0.00000000000E+00  0.00000000000E+00  0.16835931206E+01  0.16835995975E+01  0.46700000000E-02 0.  1.
          1   -1    0    0  501    0  0.00000000000E+00 -0.00000000000E+00 -0.59399113058E+02  0.59399113241E+02  0.46700000000E-02 0. -1.
       1023    2    1    2    0    0  0.00000000000E+00  0.00000000000E+00 -0.57715519937E+02  0.61082712839E+02  0.20000414149E+02 0.  0.
        -11    1    3    3    0    0 -0.24996653133E+01 -0.96827536921E+01 -0.28827909499E+02  0.30513151461E+02  0.51100000000E-03 0. -1.
         11    1    3    3    0    0  0.24996653133E+01  0.96827536921E+01 -0.28887610439E+02  0.30569561378E+02  0.51100000000E-03 0.  1.
<mgrwt>
<rscale>  0 0.20000414E+02</rscale>
<asrwt>0</asrwt>
<pdfrwt beam="2">  1        1 0.91383240E-02 0.20000414E+02</pdfrwt>
<pdfrwt beam="1">  1       -1 0.25901488E-03 0.20000414E+02</pdfrwt>
<totfact> 0.42251045E+06</totfact>
</mgrwt>
</event>
<event>
 5    1  0.9583198E-007  0.2000012E+02  0.7818608E-02  0.1745326E+00
          1   -1    0    0  501    0  0.00000000000E+00  0.00000000000E+00  0.32090908027E+01  0.32090942007E+01  0.46700000000E-02 0. -1.
         -1   -1    0    0    0  501 -0.00000000000E+00 -0.00000000000E+00 -0.31161832629E+02  0.31161832979E+02  0.46700000000E-02 0.  1.
       1023    2    1    2    0    0  0.00000000000E+00  0.00000000000E+00 -0.27952741826E+02  0.34370927180E+02  0.20000121489E+02 0.  0.
        -11    1    3    3    0    0 -0.70053625115E+01  0.71362377940E+01 -0.13950830821E+02  0.17164692675E+02  0.51100000000E-03 0. -1.
         11    1    3    3    0    0  0.70053625115E+01 -0.71362377940E+01 -0.14001911005E+02  0.17206234505E+02  0.51100000000E-03 0.  1.
<mgrwt>
<rscale>  0 0.20000121E+02</rscale>
<asrwt>0</asrwt>
<pdfrwt beam="1">  1        1 0.49370659E-03 0.20000121E+02</pdfrwt>
<pdfrwt beam="2">  1       -1 0.47941282E-02 0.20000121E+02</pdfrwt>
<totfact> 0.36386453E+06</totfact>
</mgrwt>
</event>
<event>
 5    1  0.9686511E-007  0.2000181E+02  0.7818608E-02  0.1745292E+00
          1   -1    0    0  501    0  0.00000000000E+00  0.00000000000E+00  0.13805370154E+02  0.13805370943E+02  0.46700000000E-02 0.  1.
         -1   -1    0    0    0  501 -0.00000000000E+00 -0.00000000000E+00 -0.72448701458E+01  0.72448716509E+01  0.46700000000E-02 0. -1.
       1023    2    1    2    0    0  0.00000000000E+00  0.00000000000E+00  0.65605000078E+01  0.21050242594E+02  0.20001813741E+02 0.  0.
        -11    1    3    3    0    0 -0.63041779732E+01 -0.77629807574E+01  0.33936369194E+01  0.10560459363E+02  0.51100000000E-03 0.  1.
         11    1    3    3    0    0  0.63041779732E+01  0.77629807574E+01  0.31668630883E+01  0.10489783231E+02  0.51100000000E-03 0. -1.
<mgrwt>
<rscale>  0 0.20001814E+02</rscale>
<asrwt>0</asrwt>
<pdfrwt beam="1">  1        1 0.21239033E-02 0.20001814E+02</pdfrwt>
<pdfrwt beam="2">  1       -1 0.11145956E-02 0.20001814E+02</pdfrwt>
<totfact> 0.39109078E+06</totfact>
</mgrwt>
</event>
<event>
 5    1  0.9583198E-007  0.2000115E+02  0.7818608E-02  0.1745305E+00
         -1   -1    0    0    0  501 -0.00000000000E+00  0.00000000000E+00  0.11182253630E+03  0.11182253640E+03  0.46700000000E-02 0. -1.
          1   -1    0    0  501    0  0.00000000000E+00 -0.00000000000E+00 -0.89437093851E+00  0.89438313074E+00  0.46700000000E-02 0.  1.
       1023    2    1    2    0    0  0.00000000000E+00  0.00000000000E+00  0.11092816536E+03  0.11271691953E+03  0.20001151904E+02 0.  0.
        -11    1    3    3    0    0  0.53561566131E+01 -0.84452021397E+01  0.55694124071E+02  0.56584850527E+02  0.51100000000E-03 0. -1.
         11    1    3    3    0    0 -0.53561566131E+01  0.84452021397E+01  0.55234041292E+02  0.56132069003E+02  0.51100000000E-03 0.  1.
<mgrwt>
<rscale>  0 0.20001152E+02</rscale>
<asrwt>0</asrwt>
<pdfrwt beam="2">  1        1 0.13759645E-03 0.20001152E+02</pdfrwt>
<pdfrwt beam="1">  1       -1 0.17203471E-01 0.20001152E+02</pdfrwt>
<totfact> 0.31244134E+06</totfact>
</mgrwt>
</event>
<event>
 5    1  0.9796828E-007  0.2000100E+02  0.7818608E-02  0.1745308E+00
         -1   -1    0    0    0  501 -0.00000000000E+00  0.00000000000E+00  0.31380047169E+01  0.31380081919E+01  0.46700000000E-02 0. -1.
          1   -1    0    0  501    0  0.00000000000E+00 -0.00000000000E+00 -0.31870548342E+02  0.31870548684E+02  0.46700000000E-02 0.  1.
       1023    2    1    2    0    0  0.00000000000E+00  0.00000000000E+00 -0.28732543625E+02  0.35008556876E+02  0.20000999759E+02 0.  0.
        -11    1    3    3    0    0 -0.60185009937E+01  0.79866242489E+01 -0.14433528612E+02  0.17559478055E+02  0.51100000000E-03 0.  1.
         11    1    3    3    0    0  0.60185009937E+01 -0.79866242489E+01 -0.14299015013E+02  0.17449078821E+02  0.51100000000E-03 0. -1.
<mgrwt>
<rscale>  0 0.20001000E+02</rscale>
<asrwt>0</asrwt>
<pdfrwt beam="2">  1        1 0.49031614E-02 0.20001000E+02</pdfrwt>
<pdfrwt beam="1">  1       -1 0.48277027E-03 0.20001000E+02</pdfrwt>
<totfact> 0.40579510E+06</totfact>
</mgrwt>
</event>
<event>
 5    1  0.9583198E-007  0.2000939E+02  0.7818608E-02  0.1745141E+00
         -1   -1    0    0    0  501 -0.00000000000E+00  0.00000000000E+00  0.51286267937E+02  0.51286268149E+02  0.46700000000E-02 0. -1.
          1   -1    0    0  501    0  0.00000000000E+00 -0.00000000000E+00 -0.19516682008E+01  0.19516737880E+01  0.46700000000E-02 0.  1.
       1023    2    1    2    0    0  0.00000000000E+00  0.00000000000E+00  0.49334599736E+02  0.53237941937E+02  0.20009391061E+02 0.  0.
        -11    1    3    3    0    0 -0.34118475542E+01 -0.94037276186E+01  0.25071994247E+02  0.26993993640E+02  0.51100000000E-03 0. -1.
         11    1    3    3    0    0  0.34118475542E+01  0.94037276186E+01  0.24262605489E+02  0.26243948297E+02  0.51100000000E-03 0.  1.
<mgrwt>
<rscale>  0 0.20009391E+02</rscale>
<asrwt>0</asrwt>
<pdfrwt beam="2">  1        1 0.30025705E-03 0.20009391E+02</pdfrwt>
<pdfrwt beam="1">  1       -1 0.78901966E-02 0.20009391E+02</pdfrwt>
<totfact> 0.34802589E+06</totfact>
</mgrwt>
</event>
<event>
 5    1  0.9583198E-007  0.2000322E+02  0.7818608E-02  0.1745264E+00
          1   -1    0    0  501    0  0.00000000000E+00  0.00000000000E+00  0.32430713170E+02  0.32430713506E+02  0.46700000000E-02 0. -1.
         -1   -1    0    0    0  501 -0.00000000000E+00 -0.00000000000E+00 -0.30844868184E+01  0.30844903537E+01  0.46700000000E-02 0.  1.
       1023    2    1    2    0    0  0.00000000000E+00  0.00000000000E+00  0.29346226352E+02  0.35515203860E+02  0.20003217344E+02 0.  0.
        -11    1    3    3    0    0 -0.98981616427E+01  0.14323691578E+01  0.14820493194E+02  0.17879382094E+02  0.51100000000E-03 0. -1.
         11    1    3    3    0    0  0.98981616427E+01 -0.14323691578E+01  0.14525733158E+02  0.17635821766E+02  0.51100000000E-03 0.  1.
<mgrwt>
<rscale>  0 0.20003217E+02</rscale>
<asrwt>0</asrwt>
<pdfrwt beam="1">  1        1 0.49893410E-02 0.20003217E+02</pdfrwt>
<pdfrwt beam="2">  1       -1 0.47453671E-03 0.20003217E+02</pdfrwt>
<totfact> 0.40607058E+06</totfact>
</mgrwt>
</event>
<event>
 5    1  0.9583198E-007  0.2000006E+02  0.7818608E-02  0.1745327E+00
         -1   -1    0    0    0  501 -0.00000000000E+00  0.00000000000E+00  0.31267648849E+01  0.31267683724E+01  0.46700000000E-02 0.  1.
          1   -1    0    0  501    0  0.00000000000E+00 -0.00000000000E+00 -0.31982103142E+02  0.31982103483E+02  0.46700000000E-02 0. -1.
       1023    2    1    2    0    0  0.00000000000E+00  0.00000000000E+00 -0.28855338257E+02  0.35108871855E+02  0.20000058426E+02 0.  0.
        -11    1    3    3    0    0  0.99996552472E+01  0.83451427565E-01 -0.14467498295E+02  0.17587170789E+02  0.51100000000E-03 0. -1.
         11    1    3    3    0    0 -0.99996552472E+01 -0.83451427565E-01 -0.14387839962E+02  0.17521701066E+02  0.51100000000E-03 0.  1.
<mgrwt>
<rscale>  0 0.20000058E+02</rscale>
<asrwt>0</asrwt>
<pdfrwt beam="2">  1        1 0.49203236E-02 0.20000058E+02</pdfrwt>
<pdfrwt beam="1">  1       -1 0.48104107E-03 0.20000058E+02</pdfrwt>
<totfact> 0.40591279E+06</totfact>
</mgrwt>
</event>
<event>
 5    1  0.9583198E-007  0.2000696E+02  0.7818608E-02  0.1745190E+00
          1   -1    0    0  501    0  0.00000000000E+00  0.00000000000E+00  0.22947538041E+01  0.22947585560E+01  0.46700000000E-02 0. -1.
         -1   -1    0    0    0  501 -0.00000000000E+00 -0.00000000000E+00 -0.43607924541E+02  0.43607924791E+02  0.46700000000E-02 0.  1.
       1023    2    1    2    0    0  0.00000000000E+00  0.00000000000E+00 -0.41313170737E+02  0.45902683347E+02  0.20006955343E+02 0.  0.
        -11    1    3    3    0    0  0.98426097517E+01  0.17867839307E+01 -0.20653569185E+02  0.22948627058E+02  0.51100000000E-03 0.  1.
         11    1    3    3    0    0 -0.98426097517E+01 -0.17867839307E+01 -0.20659601553E+02  0.22954056289E+02  0.51100000000E-03 0. -1.
<mgrwt>
<rscale>  0 0.20006955E+02</rscale>
<asrwt>0</asrwt>
<pdfrwt beam="1">  1        1 0.35303946E-03 0.20006955E+02</pdfrwt>
<pdfrwt beam="2">  1       -1 0.67089112E-02 0.20006955E+02</pdfrwt>
<totfact> 0.35369228E+06</totfact>
</mgrwt>
</event>
<event>
 5    1  0.1014782E-006  0.2000116E+02  0.7818608E-02  0.1745305E+00
          1   -1    0    0  501    0  0.00000000000E+00  0.00000000000E+00  0.54797951037E+02  0.54797951236E+02  0.46700000000E-02 0.  1.
         -1   -1    0    0    0  501 -0.00000000000E+00 -0.00000000000E+00 -0.18250934002E+01  0.18250993750E+01  0.46700000000E-02 0. -1.
       1023    2    1    2    0    0  0.00000000000E+00  0.00000000000E+00  0.52972857637E+02  0.56623050611E+02  0.20001155324E+02 0.  0.
        -11    1    3    3    0    0  0.10729928304E+01 -0.99426014655E+01  0.26287940454E+02  0.28125832452E+02  0.51100000000E-03 0.  1.
         11    1    3    3    0    0 -0.10729928304E+01  0.99426014655E+01  0.26684917182E+02  0.28497218159E+02  0.51100000000E-03 0. -1.
<mgrwt>
<rscale>  0 0.20001155E+02</rscale>
<asrwt>0</asrwt>
<pdfrwt beam="1">  1        1 0.84304543E-02 0.20001155E+02</pdfrwt>
<pdfrwt beam="2">  1       -1 0.28078408E-03 0.20001155E+02</pdfrwt>
<totfact> 0.41987202E+06</totfact>
</mgrwt>
</event>
<event>
 5    1  0.1037683E-006  0.2000130E+02  0.7818608E-02  0.1745302E+00
          1   -1    0    0  501    0  0.00000000000E+00  0.00000000000E+00  0.93793313066E+02  0.93793313183E+02  0.46700000000E-02 0. -1.
         -1   -1    0    0    0  501 -0.00000000000E+00 -0.00000000000E+00 -0.10663069758E+01  0.10663172022E+01  0.46700000000E-02 0.  1.
       1023    2    1    2    0    0  0.00000000000E+00  0.00000000000E+00  0.92727006091E+02  0.94859630385E+02  0.20001295414E+02 0.  0.
        -11    1    3    3    0    0 -0.73851909580E+01  0.67423869197E+01  0.45841217775E+02  0.46919271885E+02  0.51100000000E-03 0.  1.
         11    1    3    3    0    0  0.73851909580E+01 -0.67423869197E+01  0.46885788315E+02  0.47940358500E+02  0.51100000000E-03 0. -1.
<mgrwt>
<rscale>  0 0.20001295E+02</rscale>
<asrwt>0</asrwt>
<pdfrwt beam="1">  1        1 0.14429733E-01 0.20001295E+02</pdfrwt>
<pdfrwt beam="2">  1       -1 0.16404812E-03 0.20001295E+02</pdfrwt>
<totfact> 0.44050340E+06</totfact>
</mgrwt>
</event>
<event>
 5    1  0.1007576E-006  0.2000077E+02  0.7818608E-02  0.1745313E+00
          1   -1    0    0  501    0  0.00000000000E+00  0.00000000000E+00  0.67123699214E+02  0.67123699377E+02  0.46700000000E-02 0. -1.
         -1   -1    0    0    0  501 -0.00000000000E+00 -0.00000000000E+00 -0.14898973364E+01  0.14899046553E+01  0.46700000000E-02 0.  1.
       1023    2    1    2    0    0  0.00000000000E+00  0.00000000000E+00  0.65633801878E+02  0.68613604032E+02  0.20000767718E+02 0.  0.
        -11    1    3    3    0    0 -0.91781856294E+01 -0.39701085612E+01  0.33100282420E+02  0.34577876597E+02  0.51100000000E-03 0. -1.
         11    1    3    3    0    0  0.91781856294E+01  0.39701085612E+01  0.32533519458E+02  0.34035727435E+02  0.51100000000E-03 0.  1.
<mgrwt>
<rscale>  0 0.20000768E+02</rscale>
<asrwt>0</asrwt>
<pdfrwt beam="1">  1        1 0.10326723E-01 0.20000768E+02</pdfrwt>
<pdfrwt beam="2">  1       -1 0.22921557E-03 0.20000768E+02</pdfrwt>
<totfact> 0.42675147E+06</totfact>
</mgrwt>
</event>
<event>
 5    1  0.1019665E-006  0.2000165E+02  0.7818608E-02  0.1745295E+00
         -1   -1    0    0    0  501 -0.00000000000E+00  0.00000000000E+00  0.10257414717E+01  0.10257521024E+01  0.46700000000E-02 0.  1.
          1   -1    0    0  501    0  0.00000000000E+00 -0.00000000000E+00 -0.97506043141E+02  0.97506043253E+02  0.46700000000E-02 0. -1.
       1023    2    1    2    0    0  0.00000000000E+00  0.00000000000E+00 -0.96480301669E+02  0.98531795355E+02  0.20001652075E+02 0.  0.
        -11    1    3    3    0    0  0.29586626610E+01 -0.95526721276E+01 -0.47765300272E+02  0.48800933801E+02  0.51100000000E-03 0. -1.
         11    1    3    3    0    0 -0.29586626610E+01  0.95526721276E+01 -0.48715001398E+02  0.49730861554E+02  0.51100000000E-03 0.  1.
<mgrwt>
<rscale>  0 0.20001652E+02</rscale>
<asrwt>0</asrwt>
<pdfrwt beam="2">  1        1 0.15000923E-01 0.20001652E+02</pdfrwt>
<pdfrwt beam="1">  1       -1 0.15780728E-03 0.20001652E+02</pdfrwt>
<totfact> 0.44231158E+06</totfact>
</mgrwt>
</event>
<event>
 5    1  0.9583198E-007  0.2001059E+02  0.7818608E-02  0.1745118E+00
          1   -1    0    0  501    0  0.00000000000E+00  0.00000000000E+00  0.11921045344E+01  0.11921136815E+01  0.46700000000E-02 0.  1.
         -1   -1    0    0    0  501 -0.00000000000E+00 -0.00000000000E+00 -0.83973779514E+02  0.83973779644E+02  0.46700000000E-02 0. -1.
       1023    2    1    2    0    0  0.00000000000E+00  0.00000000000E+00 -0.82781674980E+02  0.85165893326E+02  0.20010589034E+02 0.  0.
        -11    1    3    3    0    0  0.90856098615E+01  0.41869601756E+01 -0.40691808905E+02  0.41903487376E+02  0.51100000000E-03 0. -1.
         11    1    3    3    0    0 -0.90856098615E+01 -0.41869601756E+01 -0.42089866075E+02  0.43262405950E+02  0.51100000000E-03 0.  1.
<mgrwt>
<rscale>  0 0.20010589E+02</rscale>
<asrwt>0</asrwt>
<pdfrwt beam="1">  1        1 0.18340148E-03 0.20010589E+02</pdfrwt>
<pdfrwt beam="2">  1       -1 0.12919039E-01 0.20010589E+02</pdfrwt>
<totfact> 0.32723037E+06</totfact>
</mgrwt>
</event>
<event>
 5    1  0.9700886E-007  0.2000071E+02  0.7818608E-02  0.1745314E+00
         -1   -1    0    0    0  501 -0.00000000000E+00  0.00000000000E+00  0.47477169653E+01  0.47477192620E+01  0.46700000000E-02 0.  1.
          1   -1    0    0  501    0  0.00000000000E+00 -0.00000000000E+00 -0.21064246525E+02  0.21064247042E+02  0.46700000000E-02 0. -1.
       1023    2    1    2    0    0  0.00000000000E+00  0.00000000000E+00 -0.16316529560E+02  0.25811966304E+02  0.20000711678E+02 0.  0.
        -11    1    3    3    0    0 -0.28563955762E+01 -0.95837068004E+01 -0.81920399057E+01  0.12927333437E+02  0.51100000000E-03 0.  1.
         11    1    3    3    0    0  0.28563955762E+01  0.95837068004E+01 -0.81244896538E+01  0.12884632867E+02  0.51100000000E-03 0. -1.
<mgrwt>
<rscale>  0 0.20000712E+02</rscale>
<asrwt>0</asrwt>
<pdfrwt beam="2">  1        1 0.32406535E-02 0.20000712E+02</pdfrwt>
<pdfrwt beam="1">  1       -1 0.73041822E-03 0.20000712E+02</pdfrwt>
<totfact> 0.39790582E+06</totfact>
</mgrwt>
</event>
<event>
 5    1  0.9660234E-007  0.2000050E+02  0.7818608E-02  0.1745318E+00
         -1   -1    0    0    0  501 -0.00000000000E+00  0.00000000000E+00  0.17122499430E+01  0.17122563115E+01  0.46700000000E-02 0.  1.
          1   -1    0    0  501    0  0.00000000000E+00 -0.00000000000E+00 -0.58405509924E+02  0.58405510111E+02  0.46700000000E-02 0. -1.
       1023    2    1    2    0    0  0.00000000000E+00  0.00000000000E+00 -0.56693259981E+02  0.60117766422E+02  0.20000502802E+02 0.  0.
        -11    1    3    3    0    0 -0.11288559635E+01  0.99363169042E+01 -0.28400265965E+02  0.30109463903E+02  0.51100000000E-03 0.  1.
         11    1    3    3    0    0  0.11288559635E+01 -0.99363169042E+01 -0.28292994016E+02  0.30008302519E+02  0.51100000000E-03 0. -1.
<mgrwt>
<rscale>  0 0.20000503E+02</rscale>
<asrwt>0</asrwt>
<pdfrwt beam="2">  1        1 0.89854620E-02 0.20000503E+02</pdfrwt>
<pdfrwt beam="1">  1       -1 0.26342362E-03 0.20000503E+02</pdfrwt>
<totfact> 0.42194817E+06</totfact>
</mgrwt>
</event>
<event>
 5    1  0.9583198E-007  0.2000450E+02  0.7818608E-02  0.1745239E+00
          1   -1    0    0  501    0  0.00000000000E+00  0.00000000000E+00  0.12992677084E+02  0.12992677923E+02  0.46700000000E-02 0.  1.
         -1   -1    0    0    0  501 -0.00000000000E+00 -0.00000000000E+00 -0.77001024080E+01  0.77001038242E+01  0.46700000000E-02 0. -1.
       1023    2    1    2    0    0  0.00000000000E+00  0.00000000000E+00  0.52925746760E+01  0.20692781747E+02  0.20004496238E+02 0.  0.
        -11    1    3    3    0    0 -0.53348206147E+01 -0.84607363470E+01  0.26210204791E+01  0.10339928391E+02  0.51100000000E-03 0. -1.
         11    1    3    3    0    0  0.53348206147E+01  0.84607363470E+01  0.26715541968E+01  0.10352853356E+02  0.51100000000E-03 0.  1.
<mgrwt>
<rscale>  0 0.20004496E+02</rscale>
<asrwt>0</asrwt>
<pdfrwt beam="1">  1        1 0.19988736E-02 0.20004496E+02</pdfrwt>
<pdfrwt beam="2">  1       -1 0.11846313E-02 0.20004496E+02</pdfrwt>
<totfact> 0.39004738E+06</totfact>
</mgrwt>
</event>
<event>
 4    1  0.9583198E-007  0.2002424E+02  0.7818608E-02  0.1744846E+00
         -1   -1    0    0    0  501 -0.00000000000E+00  0.00000000000E+00  0.53462378762E+01  0.53462399159E+01  0.46700000000E-02 0.  1.
          1   -1    0    0  501    0  0.00000000000E+00 -0.00000000000E+00 -0.18750109059E+02  0.18750109640E+02  0.46700000000E-02 0. -1.
        -11    1    1    2    0    0  0.49526298017E+01 -0.87012702868E+01 -0.67547738166E+01  0.12077566648E+02  0.51100000000E-03 0. -1.
         11    1    1    2    0    0 -0.49526298017E+01  0.87012702868E+01 -0.66490973658E+01  0.12018782908E+02  0.51100000000E-03 0.  1.
<mgrwt>
<rscale>  0 0.20024243E+02</rscale>
<asrwt>0</asrwt>
<pdfrwt beam="2">  1        1 0.28846323E-02 0.20024243E+02</pdfrwt>
<pdfrwt beam="1">  1       -1 0.82249834E-03 0.20024243E+02</pdfrwt>
<totfact> 0.39491454E+06</totfact>
</mgrwt>
</event>
<event>
 5    1  0.9663019E-007  0.2000136E+02  0.7818608E-02  0.1745301E+00
          1   -1    0    0  501    0  0.00000000000E+00  0.00000000000E+00  0.10945086146E+02  0.10945087143E+02  0.46700000000E-02 0.  1.
         -1   -1    0    0    0  501 -0.00000000000E+00 -0.00000000000E+00 -0.91377650858E+01  0.91377662791E+01  0.46700000000E-02 0. -1.
       1023    2    1    2    0    0  0.00000000000E+00  0.00000000000E+00  0.18073210606E+01  0.20082853422E+02  0.20001364757E+02 0.  0.
        -11    1    3    3    0    0 -0.98822298215E+01  0.15346527970E+01  0.90840442194E+00  0.10041853629E+02  0.51100000000E-03 0. -1.
         11    1    3    3    0    0  0.98822298215E+01 -0.15346527970E+01  0.89891663868E+00  0.10040999793E+02  0.51100000000E-03 0.  1.
<mgrwt>
<rscale>  0 0.20001365E+02</rscale>
<asrwt>0</asrwt>
<pdfrwt beam="1">  1        1 0.16838596E-02 0.20001365E+02</pdfrwt>
<pdfrwt beam="2">  1       -1 0.14058102E-02 0.20001365E+02</pdfrwt>
<totfact> 0.38757051E+06</totfact>
</mgrwt>
</event>
<event>
 5    1  0.9583198E-007  0.2000009E+02  0.7818608E-02  0.1745326E+00
         -1   -1    0    0    0  501 -0.00000000000E+00  0.00000000000E+00  0.13596166866E+02  0.13596167669E+02  0.46700000000E-02 0. -1.
          1   -1    0    0  501    0  0.00000000000E+00 -0.00000000000E+00 -0.73550802289E+01  0.73550817115E+01  0.46700000000E-02 0.  1.
       1023    2    1    2    0    0  0.00000000000E+00  0.00000000000E+00  0.62410866376E+01  0.20951249380E+02  0.20000092204E+02 0.  0.
        -11    1    3    3    0    0  0.47137516974E+01 -0.88193772032E+01  0.31129557175E+01  0.10473364449E+02  0.51100000000E-03 0. -1.
         11    1    3    3    0    0 -0.47137516974E+01  0.88193772032E+01  0.31281309201E+01  0.10477884931E+02  0.51100000000E-03 0.  1.
<mgrwt>
<rscale>  0 0.20000092E+02</rscale>
<asrwt>0</asrwt>
<pdfrwt beam="2">  1        1 0.11315510E-02 0.20000092E+02</pdfrwt>
<pdfrwt beam="1">  1       -1 0.20917181E-02 0.20000092E+02</pdfrwt>
<totfact> 0.38128967E+06</totfact>
</mgrwt>
</event>
<event>
 4    1  0.1000221E-006  0.2018028E+02  0.7818608E-02  0.1741767E+00
          1   -1    0    0  501    0  0.00000000000E+00  0.00000000000E+00  0.35414865596E+02  0.35414865904E+02  0.46700000000E-02 0. -1.
         -1   -1    0    0    0  501 -0.00000000000E+00 -0.00000000000E+00 -0.28748041359E+01  0.28748079290E+01  0.46700000000E-02 0.  1.
        -11    1    1    2    0    0  0.96850394331E+01  0.26218947928E+01  0.18292819845E+02  0.20863882171E+02  0.51100000000E-03 0. -1.
         11    1    1    2    0    0 -0.96850394331E+01 -0.26218947928E+01  0.14247241615E+02  0.17425791661E+02  0.51100000000E-03 0.  1.
<mgrwt>
<rscale>  0 0.20180276E+02</rscale>
<asrwt>0</asrwt>
<pdfrwt beam="1">  1        1 0.54484411E-02 0.20180276E+02</pdfrwt>
<pdfrwt beam="2">  1       -1 0.44227788E-03 0.20180276E+02</pdfrwt>
<totfact> 0.40009144E+06</totfact>
</mgrwt>
</event>
<event>
 5    1  0.1003209E-006  0.2000095E+02  0.7818608E-02  0.1745309E+00
         -1   -1    0    0    0  501 -0.00000000000E+00  0.00000000000E+00  0.18165421037E+01  0.18165481065E+01  0.46700000000E-02 0. -1.
          1   -1    0    0  501    0  0.00000000000E+00 -0.00000000000E+00 -0.55054784724E+02  0.55054784922E+02  0.46700000000E-02 0.  1.
       1023    2    1    2    0    0  0.00000000000E+00  0.00000000000E+00 -0.53238242620E+02  0.56871333029E+02  0.20000951056E+02 0.  0.
        -11    1    3    3    0    0  0.61376395576E+01 -0.78952511386E+01 -0.26796708234E+02  0.28601908718E+02  0.51100000000E-03 0.  1.
         11    1    3    3    0    0 -0.61376395576E+01  0.78952511386E+01 -0.26441534386E+02  0.28269424310E+02  0.51100000000E-03 0. -1.
<mgrwt>
<rscale>  0 0.20000951E+02</rscale>
<asrwt>0</asrwt>
<pdfrwt beam="2">  1        1 0.84699661E-02 0.20000951E+02</pdfrwt>
<pdfrwt beam="1">  1       -1 0.27946854E-03 0.20000951E+02</pdfrwt>
<totfact> 0.42002830E+06</totfact>
</mgrwt>
</event>
<event>
 5    1  0.9583198E-007  0.2000113E+02  0.7818608E-02  0.1745306E+00
         -1   -1    0    0    0  501 -0.00000000000E+00  0.00000000000E+00  0.37783395643E+02  0.37783395932E+02  0.46700000000E-02 0.  1.
          1   -1    0    0  501    0  0.00000000000E+00 -0.00000000000E+00 -0.26469627452E+01  0.26469668648E+01  0.46700000000E-02 0. -1.
       1023    2    1    2    0    0  0.00000000000E+00  0.00000000000E+00  0.35136432898E+02  0.40430362796E+02  0.20001132944E+02 0.  0.
        -11    1    3    3    0    0 -0.57901639198E+01 -0.81537596721E+01  0.17647400146E+02  0.20283996825E+02  0.51100000000E-03 0.  1.
         11    1    3    3    0    0  0.57901639198E+01  0.81537596721E+01  0.17489032752E+02  0.20146365972E+02  0.51100000000E-03 0. -1.
<mgrwt>
<rscale>  0 0.20001133E+02</rscale>
<asrwt>0</asrwt>
<pdfrwt beam="2">  1        1 0.40722540E-03 0.20001133E+02</pdfrwt>
<pdfrwt beam="1">  1       -1 0.58128300E-02 0.20001133E+02</pdfrwt>
<totfact> 0.35840035E+06</totfact>
</mgrwt>
</event>
<event>
 5    1  0.9583198E-007  0.2000532E+02  0.7818608E-02  0.1745222E+00
          1   -1    0    0  501    0  0.00000000000E+00  0.00000000000E+00  0.10456433528E+03  0.10456433539E+03  0.46700000000E-02 0. -1.
         -1   -1    0    0    0  501 -0.00000000000E+00 -0.00000000000E+00 -0.95685162740E+00  0.95686302351E+00  0.46700000000E-02 0.  1.
       1023    2    1    2    0    0  0.00000000000E+00  0.00000000000E+00  0.10360748366E+03  0.10552119841E+03  0.20005315409E+02 0.  0.
        -11    1    3    3    0    0  0.40665862428E+01  0.91362733833E+01  0.52917005713E+02  0.53853673123E+02  0.51100000000E-03 0.  1.
         11    1    3    3    0    0 -0.40665862428E+01 -0.91362733833E+01  0.50690477945E+02  0.51667525290E+02  0.51100000000E-03 0. -1.
<mgrwt>
<rscale>  0 0.20005315E+02</rscale>
<asrwt>0</asrwt>
<pdfrwt beam="1">  1        1 0.16086825E-01 0.20005315E+02</pdfrwt>
<pdfrwt beam="2">  1       -1 0.14720880E-03 0.20005315E+02</pdfrwt>
<totfact> 0.44554292E+06</totfact>
</mgrwt>
</event>
<event>
 5    1  0.9816433E-007  0.2000074E+02  0.7818608E-02  0.1745313E+00
         -1   -1    0    0    0  501 -0.00000000000E+00  0.00000000000E+00  0.14596742637E+02  0.14596743384E+02  0.46700000000E-02 0. -1.
          1   -1    0    0  501    0  0.00000000000E+00 -0.00000000000E+00 -0.68513512924E+01  0.68513528840E+01  0.46700000000E-02 0.  1.
       1023    2    1    2    0    0  0.00000000000E+00  0.00000000000E+00  0.77453913449E+01  0.21448096268E+02  0.20000743647E+02 0.  0.
        -11    1    3    3    0    0 -0.12608769279E+01  0.99205282360E+01  0.39019703115E+01  0.10734619867E+02  0.51100000000E-03 0. -1.
         11    1    3    3    0    0  0.12608769279E+01 -0.99205282360E+01  0.38434210334E+01  0.10713476402E+02  0.51100000000E-03 0.  1.
<mgrwt>
<rscale>  0 0.20000744E+02</rscale>
<asrwt>0</asrwt>
<pdfrwt beam="2">  1        1 0.10540542E-02 0.20000744E+02</pdfrwt>
<pdfrwt beam="1">  1       -1 0.22456529E-02 0.20000744E+02</pdfrwt>
<totfact> 0.38004440E+06</totfact>
</mgrwt>
</event>
<event>
 5    1  0.9583198E-007  0.2000069E+02  0.7818608E-02  0.1745314E+00
         -1   -1    0    0    0  501 -0.00000000000E+00  0.00000000000E+00  0.12801088808E+02  0.12801089660E+02  0.46700000000E-02 0. -1.
          1   -1    0    0  501    0  0.00000000000E+00 -0.00000000000E+00 -0.78123689286E+01  0.78123703244E+01  0.46700000000E-02 0.  1.
       1023    2    1    2    0    0  0.00000000000E+00  0.00000000000E+00  0.49887198798E+01  0.20613459985E+02  0.20000685151E+02 0.  0.
        -11    1    3    3    0    0  0.99201508090E+01 -0.12627049653E+01  0.24375769249E+01  0.10292987779E+02  0.51100000000E-03 0. -1.
         11    1    3    3    0    0 -0.99201508090E+01  0.12627049653E+01  0.25511429550E+01  0.10320472205E+02  0.51100000000E-03 0.  1.
<mgrwt>
<rscale>  0 0.20000685E+02</rscale>
<asrwt>0</asrwt>
<pdfrwt beam="2">  1        1 0.12019031E-02 0.20000685E+02</pdfrwt>
<pdfrwt beam="1">  1       -1 0.19693984E-02 0.20000685E+02</pdfrwt>
<totfact> 0.38227252E+06</totfact>
</mgrwt>
</event>
<event>
 5    1  0.9657599E-007  0.2000143E+02  0.7818608E-02  0.1745300E+00
          1   -1    0    0  501    0  0.00000000000E+00  0.00000000000E+00  0.14219105150E+02  0.14219105917E+02  0.46700000000E-02 0. -1.
         -1   -1    0    0    0  501 -0.00000000000E+00 -0.00000000000E+00 -0.70337985758E+01  0.70338001260E+01  0.46700000000E-02 0.  1.
       1023    2    1    2    0    0  0.00000000000E+00  0.00000000000E+00  0.71853065746E+01  0.21252906043E+02  0.20001434566E+02 0.  0.
        -11    1    3    3    0    0  0.94230272375E+01 -0.33492617531E+01  0.35311590108E+01  0.10605662678E+02  0.51100000000E-03 0. -1.
         11    1    3    3    0    0 -0.94230272375E+01  0.33492617531E+01  0.36541475638E+01  0.10647243366E+02  0.51100000000E-03 0.  1.
<mgrwt>
<rscale>  0 0.20001435E+02</rscale>
<asrwt>0</asrwt>
<pdfrwt beam="1">  1        1 0.21875548E-02 0.20001435E+02</pdfrwt>
<pdfrwt beam="2">  1       -1 0.10821230E-02 0.20001435E+02</pdfrwt>
<totfact> 0.39155973E+06</totfact>
</mgrwt>
</event>
<event>
 5    1  0.9583198E-007  0.2000799E+02  0.7818608E-02  0.1745169E+00
          1   -1    0    0  501    0  0.00000000000E+00  0.00000000000E+00  0.21965728373E+02  0.21965728869E+02  0.46700000000E-02 0.  1.
         -1   -1    0    0    0  501 -0.00000000000E+00 -0.00000000000E+00 -0.45561845699E+01  0.45561869632E+01  0.46700000000E-02 0. -1.
       1023    2    1    2    0    0  0.00000000000E+00  0.00000000000E+00  0.17409543803E+02  0.26521915833E+02  0.20007993503E+02 0.  0.
        -11    1    3    3    0    0  0.94661367723E+01 -0.32283929269E+01  0.90002407011E+01  0.13454909856E+02  0.51100000000E-03 0. -1.
         11    1    3    3    0    0 -0.94661367723E+01  0.32283929269E+01  0.84093031020E+01  0.13067005977E+02  0.51100000000E-03 0.  1.
<mgrwt>
<rscale>  0 0.20007994E+02</rscale>
<asrwt>0</asrwt>
<pdfrwt beam="1">  1        1 0.33793431E-02 0.20007994E+02</pdfrwt>
<pdfrwt beam="2">  1       -1 0.70095169E-03 0.20007994E+02</pdfrwt>
<totfact> 0.39830535E+06</totfact>
</mgrwt>
</event>
<event>
 5    1  0.9583198E-007  0.2000048E+02  0.7818608E-02  0.1745319E+00
         -1   -1    0    0    0  501 -0.00000000000E+00  0.00000000000E+00  0.65552068555E+02  0.65552068722E+02  0.46700000000E-02 0.  1.
          1   -1    0    0  501    0  0.00000000000E+00 -0.00000000000E+00 -0.15255738923E+01  0.15255810401E+01  0.46700000000E-02 0. -1.
       1023    2    1    2    0    0  0.00000000000E+00  0.00000000000E+00  0.64026494663E+02  0.67077649762E+02  0.20000476963E+02 0.  0.
        -11    1    3    3    0    0 -0.89502685065E+01  0.44602552615E+01  0.32214086219E+02  0.33730528228E+02  0.51100000000E-03 0.  1.
         11    1    3    3    0    0  0.89502685065E+01 -0.44602552615E+01  0.31812408444E+02  0.33347121534E+02  0.51100000000E-03 0. -1.
<mgrwt>
<rscale>  0 0.20000477E+02</rscale>
<asrwt>0</asrwt>
<pdfrwt beam="2">  1        1 0.23470425E-03 0.20000477E+02</pdfrwt>
<pdfrwt beam="1">  1       -1 0.10084934E-01 0.20000477E+02</pdfrwt>
<totfact> 0.33879690E+06</totfact>
</mgrwt>
</event>
<event>
 5    1  0.9583198E-007  0.2000043E+02  0.7818608E-02  0.1745320E+00
         -1   -1    0    0    0  501 -0.00000000000E+00  0.00000000000E+00  0.10363652889E+02  0.10363653941E+02  0.46700000000E-02 0.  1.
          1   -1    0    0  501    0  0.00000000000E+00 -0.00000000000E+00 -0.96495171754E+01  0.96495183054E+01  0.46700000000E-02 0. -1.
       1023    2    1    2    0    0  0.00000000000E+00  0.00000000000E+00  0.71413571316E+00  0.20013172246E+02  0.20000426834E+02 0.  0.
        -11    1    3    3    0    0 -0.99748879440E+01 -0.71075905376E+00  0.33058979032E+00  0.10005641299E+02  0.51100000000E-03 0.  1.
         11    1    3    3    0    0  0.99748879440E+01  0.71075905376E+00  0.38354592284E+00  0.10007530947E+02  0.51100000000E-03 0. -1.
<mgrwt>
<rscale>  0 0.20000427E+02</rscale>
<asrwt>0</asrwt>
<pdfrwt beam="2">  1        1 0.14845413E-02 0.20000427E+02</pdfrwt>
<pdfrwt beam="1">  1       -1 0.15944083E-02 0.20000427E+02</pdfrwt>
<totfact> 0.38566639E+06</totfact>
</mgrwt>
</event>
<event>
 5    1  0.9583198E-007  0.2000556E+02  0.7818608E-02  0.1745218E+00
          1   -1    0    0  501    0  0.00000000000E+00  0.00000000000E+00  0.12124971687E+02  0.12124972586E+02  0.46700000000E-02 0. -1.
         -1   -1    0    0    0  501 -0.00000000000E+00 -0.00000000000E+00 -0.82520223074E+01  0.82520236288E+01  0.46700000000E-02 0.  1.
       1023    2    1    2    0    0  0.00000000000E+00  0.00000000000E+00  0.38729493791E+01  0.20376996215E+02  0.20005555174E+02 0.  0.
        -11    1    3    3    0    0 -0.39249008234E+01 -0.91984177955E+01  0.17332130762E+01  0.10149865233E+02  0.51100000000E-03 0.  1.
         11    1    3    3    0    0  0.39249008234E+01  0.91984177955E+01  0.21397363029E+01  0.10227130982E+02  0.51100000000E-03 0. -1.
<mgrwt>
<rscale>  0 0.20005555E+02</rscale>
<asrwt>0</asrwt>
<pdfrwt beam="1">  1        1 0.18653804E-02 0.20005555E+02</pdfrwt>
<pdfrwt beam="2">  1       -1 0.12695421E-02 0.20005555E+02</pdfrwt>
<totfact> 0.38894821E+06</totfact>
</mgrwt>
</event>
<event>
 4    1  0.9583198E-007  0.2001627E+02  0.7818608E-02  0.1745005E+00
         -1   -1    0    0    0  501 -0.00000000000E+00  0.00000000000E+00  0.56292785658E+01  0.56292805029E+01  0.46700000000E-02 0. -1.
          1   -1    0    0  501    0  0.00000000000E+00 -0.00000000000E+00 -0.17793179833E+02  0.17793180446E+02  0.46700000000E-02 0.  1.
        -11    1    1    2    0    0 -0.38032984065E+00  0.10000610294E+02 -0.59917759075E+01  0.11664400363E+02  0.51100000000E-03 0.  1.
         11    1    1    2    0    0  0.38032984065E+00 -0.10000610294E+02 -0.61721253595E+01  0.11758060586E+02  0.51100000000E-03 0. -1.
<mgrwt>
<rscale>  0 0.20016273E+02</rscale>
<asrwt>0</asrwt>
<pdfrwt beam="2">  1        1 0.27374125E-02 0.20016273E+02</pdfrwt>
<pdfrwt beam="1">  1       -1 0.86604306E-03 0.20016273E+02</pdfrwt>
<totfact> 0.39441702E+06</totfact>
</mgrwt>
</event>
<event>
 5    1  0.9583198E-007  0.2000027E+02  0.7818608E-02  0.1745323E+00
          1   -1    0    0  501    0  0.00000000000E+00  0.00000000000E+00  0.23893856789E+02  0.23893857245E+02  0.46700000000E-02 0.  1.
         -1   -1    0    0    0  501 -0.00000000000E+00 -0.00000000000E+00 -0.41852881567E+01  0.41852907622E+01  0.46700000000E-02 0. -1.
       1023    2    1    2    0    0  0.00000000000E+00  0.00000000000E+00  0.19708568632E+02  0.28079148008E+02  0.20000271881E+02 0.  0.
        -11    1    3    3    0    0 -0.92075702541E+01 -0.39016114891E+01  0.98939034364E+01  0.14067382403E+02  0.51100000000E-03 0.  1.
         11    1    3    3    0    0  0.92075702541E+01  0.39016114891E+01  0.98146651959E+01  0.14011765605E+02  0.51100000000E-03 0. -1.
<mgrwt>
<rscale>  0 0.20000272E+02</rscale>
<asrwt>0</asrwt>
<pdfrwt beam="1">  1        1 0.36759782E-02 0.20000272E+02</pdfrwt>
<pdfrwt beam="2">  1       -1 0.64389072E-03 0.20000272E+02</pdfrwt>
<totfact> 0.40014836E+06</totfact>
</mgrwt>
</event>
<event>
 5    1  0.9583198E-007  0.2000222E+02  0.7818608E-02  0.1745284E+00
          1   -1    0    0  501    0  0.00000000000E+00  0.00000000000E+00  0.11852171345E+03  0.11852171354E+03  0.46700000000E-02 0. -1.
         -1   -1    0    0    0  501 -0.00000000000E+00 -0.00000000000E+00 -0.84390814264E+00  0.84392106391E+00  0.46700000000E-02 0.  1.
       1023    2    1    2    0    0  0.00000000000E+00  0.00000000000E+00  0.11767780530E+03  0.11936563460E+03  0.20002221449E+02 0.  0.
        -11    1    3    3    0    0 -0.98521372818E+01  0.17194756304E+01  0.59028556541E+02  0.59869789485E+02  0.51100000000E-03 0. -1.
         11    1    3    3    0    0  0.98521372818E+01 -0.17194756304E+01  0.58649248762E+02  0.59495845116E+02  0.51100000000E-03 0.  1.
<mgrwt>
<rscale>  0 0.20002221E+02</rscale>
<asrwt>0</asrwt>
<pdfrwt beam="1">  1        1 0.18234108E-01 0.20002221E+02</pdfrwt>
<pdfrwt beam="2">  1       -1 0.12983304E-03 0.20002221E+02</pdfrwt>
<totfact> 0.45221678E+06</totfact>
</mgrwt>
</event>
<event>
 5    1  0.9583198E-007  0.2000408E+02  0.7818608E-02  0.1745247E+00
          1   -1    0    0  501    0  0.00000000000E+00  0.00000000000E+00  0.14698533864E+01  0.14698608051E+01  0.46700000000E-02 0. -1.
         -1   -1    0    0    0  501 -0.00000000000E+00 -0.00000000000E+00 -0.68061602051E+02  0.68061602211E+02  0.46700000000E-02 0.  1.
       1023    2    1    2    0    0  0.00000000000E+00  0.00000000000E+00 -0.66591748664E+02  0.69531463016E+02  0.20004083558E+02 0.  0.
        -11    1    3    3    0    0 -0.97628053171E+01  0.21651025263E+01 -0.33997989074E+02  0.35438161605E+02  0.51100000000E-03 0.  1.
         11    1    3    3    0    0  0.97628053171E+01 -0.21651025263E+01 -0.32593759591E+02  0.34093301411E+02  0.51100000000E-03 0. -1.
<mgrwt>
<rscale>  0 0.20004084E+02</rscale>
<asrwt>0</asrwt>
<pdfrwt beam="1">  1        1 0.22613193E-03 0.20004084E+02</pdfrwt>
<pdfrwt beam="2">  1       -1 0.10471014E-01 0.20004084E+02</pdfrwt>
<totfact> 0.33706890E+06</totfact>
</mgrwt>
</event>
<event>
 5    1  0.9583198E-007  0.2001021E+02  0.7818608E-02  0.1745125E+00
          1   -1    0    0  501    0  0.00000000000E+00  0.00000000000E+00  0.91233340094E+00  0.91234535313E+00  0.46700000000E-02 0. -1.
         -1   -1    0    0    0  501 -0.00000000000E+00 -0.00000000000E+00 -0.10972028538E+03  0.10972028548E+03  0.46700000000E-02 0.  1.
       1023    2    1    2    0    0  0.00000000000E+00  0.00000000000E+00 -0.10880795198E+03  0.11063263083E+03  0.20010212169E+02 0.  0.
        -11    1    3    3    0    0 -0.69962412281E+01  0.71481941753E+01 -0.55736363897E+02  0.56626728071E+02  0.51100000000E-03 0.  1.
         11    1    3    3    0    0  0.69962412281E+01 -0.71481941753E+01 -0.53071588081E+02  0.54005902761E+02  0.51100000000E-03 0. -1.
<mgrwt>
<rscale>  0 0.20010212E+02</rscale>
<asrwt>0</asrwt>
<pdfrwt beam="1">  1        1 0.14036000E-03 0.20010212E+02</pdfrwt>
<pdfrwt beam="2">  1       -1 0.16880034E-01 0.20010212E+02</pdfrwt>
<totfact> 0.31321069E+06</totfact>
</mgrwt>
</event>
<event>
 5    1  0.9861050E-007  0.2000105E+02  0.7818608E-02  0.1745307E+00
         -1   -1    0    0    0  501 -0.00000000000E+00  0.00000000000E+00  0.32475959361E+01  0.32475992938E+01  0.46700000000E-02 0.  1.
          1   -1    0    0  501    0  0.00000000000E+00 -0.00000000000E+00 -0.30795232124E+02  0.30795232479E+02  0.46700000000E-02 0. -1.
       1023    2    1    2    0    0  0.00000000000E+00  0.00000000000E+00 -0.27547636188E+02  0.34042831772E+02  0.20001053360E+02 0.  0.
        -11    1    3    3    0    0  0.66325771998E+01  0.74844636450E+01 -0.13854683509E+02  0.17086852599E+02  0.51100000000E-03 0.  1.
         11    1    3    3    0    0 -0.66325771998E+01 -0.74844636450E+01 -0.13692952680E+02  0.16955979173E+02  0.51100000000E-03 0. -1.
<mgrwt>
<rscale>  0 0.20001053E+02</rscale>
<asrwt>0</asrwt>
<pdfrwt beam="2">  1        1 0.47377281E-02 0.20001053E+02</pdfrwt>
<pdfrwt beam="1">  1       -1 0.49963045E-03 0.20001053E+02</pdfrwt>
<totfact> 0.40506416E+06</totfact>
</mgrwt>
</event>
<event>
 4    1  0.9583198E-007  0.2002234E+02  0.7818608E-02  0.1744884E+00
         -1   -1    0    0    0  501 -0.00000000000E+00  0.00000000000E+00  0.29417387403E+02  0.29417387774E+02  0.46700000000E-02 0. -1.
          1   -1    0    0  501    0  0.00000000000E+00 -0.00000000000E+00 -0.34069455890E+01  0.34069487896E+01  0.46700000000E-02 0.  1.
        -11    1    1    2    0    0 -0.74558342491E+01  0.66699472980E+01  0.13631275938E+02  0.16908262633E+02  0.51100000000E-03 0. -1.
         11    1    1    2    0    0  0.74558342491E+01 -0.66699472980E+01  0.12379165876E+02  0.15916073930E+02  0.51100000000E-03 0.  1.
<mgrwt>
<rscale>  0 0.20022337E+02</rscale>
<asrwt>0</asrwt>
<pdfrwt beam="2">  1        1 0.52414574E-03 0.20022337E+02</pdfrwt>
<pdfrwt beam="1">  1       -1 0.45257523E-02 0.20022337E+02</pdfrwt>
<totfact> 0.36447388E+06</totfact>
</mgrwt>
</event>
<event>
 5    1  0.9583198E-007  0.2000055E+02  0.7818608E-02  0.1745317E+00
         -1   -1    0    0    0  501 -0.00000000000E+00  0.00000000000E+00  0.41820184885E+02  0.41820185146E+02  0.46700000000E-02 0. -1.
          1   -1    0    0  501    0  0.00000000000E+00 -0.00000000000E+00 -0.23913187808E+01  0.23913233408E+01  0.46700000000E-02 0.  1.
       1023    2    1    2    0    0  0.00000000000E+00  0.00000000000E+00  0.39428866104E+02  0.44211508487E+02  0.20000550002E+02 0.  0.
        -11    1    3    3    0    0  0.74215418354E+01 -0.67026530012E+01  0.19771195001E+02  0.22156375889E+02  0.51100000000E-03 0.  1.
         11    1    3    3    0    0 -0.74215418354E+01  0.67026530012E+01  0.19657671103E+02  0.22055132598E+02  0.51100000000E-03 0. -1.
<mgrwt>
<rscale>  0 0.20000550E+02</rscale>
<asrwt>0</asrwt>
<pdfrwt beam="2">  1        1 0.36789565E-03 0.20000550E+02</pdfrwt>
<pdfrwt beam="1">  1       -1 0.64338736E-02 0.20000550E+02</pdfrwt>
<totfact> 0.35529214E+06</totfact>
</mgrwt>
</event>
<event>
 5    1  0.9583198E-007  0.2000022E+02  0.7818608E-02  0.1745324E+00
          1   -1    0    0  501    0  0.00000000000E+00  0.00000000000E+00  0.10330271043E+03  0.10330271053E+03  0.46700000000E-02 0. -1.
         -1   -1    0    0    0  501 -0.00000000000E+00 -0.00000000000E+00 -0.96804478172E+00  0.96805604606E+00  0.46700000000E-02 0.  1.
       1023    2    1    2    0    0  0.00000000000E+00  0.00000000000E+00  0.10233466564E+03  0.10427076658E+03  0.20000224253E+02 0.  0.
        -11    1    3    3    0    0 -0.78780015232E+01  0.61593379186E+01  0.50940640327E+02  0.51912900022E+02  0.51100000000E-03 0. -1.
         11    1    3    3    0    0  0.78780015232E+01 -0.61593379186E+01  0.51394025318E+02  0.52357866555E+02  0.51100000000E-03 0.  1.
<mgrwt>
<rscale>  0 0.20000224E+02</rscale>
<asrwt>0</asrwt>
<pdfrwt beam="1">  1        1 0.15892731E-01 0.20000224E+02</pdfrwt>
<pdfrwt beam="2">  1       -1 0.14893079E-03 0.20000224E+02</pdfrwt>
<totfact> 0.44518960E+06</totfact>
</mgrwt>
</event>
<event>
 5    1  0.9785177E-007  0.2000059E+02  0.7818608E-02  0.1745316E+00
          1   -1    0    0  501    0  0.00000000000E+00  0.00000000000E+00  0.18024310773E+02  0.18024311378E+02  0.46700000000E-02 0.  1.
         -1   -1    0    0    0  501 -0.00000000000E+00 -0.00000000000E+00 -0.55483889998E+01  0.55483909651E+01  0.46700000000E-02 0. -1.
       1023    2    1    2    0    0  0.00000000000E+00  0.00000000000E+00  0.12475921773E+02  0.23572702343E+02  0.20000591783E+02 0.  0.
        -11    1    3    3    0    0  0.14926783417E+01  0.98879943620E+01  0.63245420375E+01  0.11832174499E+02  0.51100000000E-03 0.  1.
         11    1    3    3    0    0 -0.14926783417E+01 -0.98879943620E+01  0.61513797354E+01  0.11740527844E+02  0.51100000000E-03 0. -1.
<mgrwt>
<rscale>  0 0.20000592E+02</rscale>
<asrwt>0</asrwt>
<pdfrwt beam="1">  1        1 0.27729711E-02 0.20000592E+02</pdfrwt>
<pdfrwt beam="2">  1       -1 0.85359851E-03 0.20000592E+02</pdfrwt>
<totfact> 0.39532034E+06</totfact>
</mgrwt>
</event>
<event>
 5    1  0.9961076E-007  0.2000100E+02  0.7818608E-02  0.1745308E+00
          1   -1    0    0  501    0  0.00000000000E+00  0.00000000000E+00  0.51839194494E+02  0.51839194704E+02  0.46700000000E-02 0. -1.
         -1   -1    0    0    0  501 -0.00000000000E+00 -0.00000000000E+00 -0.19292328314E+01  0.19292384836E+01  0.46700000000E-02 0.  1.
       1023    2    1    2    0    0  0.00000000000E+00  0.00000000000E+00  0.49909961662E+02  0.53768433188E+02  0.20001003333E+02 0.  0.
        -11    1    3    3    0    0  0.80301883489E+01  0.59602066266E+01  0.25076560663E+02  0.26997071747E+02  0.51100000000E-03 0. -1.
         11    1    3    3    0    0 -0.80301883489E+01 -0.59602066266E+01  0.24833400999E+02  0.26771361441E+02  0.51100000000E-03 0.  1.
<mgrwt>
<rscale>  0 0.20001003E+02</rscale>
<asrwt>0</asrwt>
<pdfrwt beam="1">  1        1 0.79752604E-02 0.20001003E+02</pdfrwt>
<pdfrwt beam="2">  1       -1 0.29680553E-03 0.20001003E+02</pdfrwt>
<totfact> 0.41817462E+06</totfact>
</mgrwt>
</event>
<event>
 5    1  0.1022448E-006  0.2000163E+02  0.7818608E-02  0.1745296E+00
         -1   -1    0    0    0  501 -0.00000000000E+00  0.00000000000E+00  0.94749475601E+00  0.94750626466E+00  0.46700000000E-02 0.  1.
          1   -1    0    0  501    0  0.00000000000E+00 -0.00000000000E+00 -0.10555802202E+03  0.10555802212E+03  0.46700000000E-02 0. -1.
       1023    2    1    2    0    0  0.00000000000E+00  0.00000000000E+00 -0.10461052726E+03  0.10650552839E+03  0.20001629002E+02 0.  0.
        -11    1    3    3    0    0  0.10000215855E+02  0.10698117333E+00 -0.52427655675E+02  0.53372978575E+02  0.51100000000E-03 0.  1.
         11    1    3    3    0    0 -0.10000215855E+02 -0.10698117333E+00 -0.52182871588E+02  0.53132549813E+02  0.51100000000E-03 0. -1.
<mgrwt>
<rscale>  0 0.20001629E+02</rscale>
<asrwt>0</asrwt>
<pdfrwt beam="2">  1        1 0.16239687E-01 0.20001629E+02</pdfrwt>
<pdfrwt beam="1">  1       -1 0.14576940E-03 0.20001629E+02</pdfrwt>
<totfact> 0.44619726E+06</totfact>
</mgrwt>
</event>
<event>
 5    1  0.9583198E-007  0.2000060E+02  0.7818608E-02  0.1745316E+00
          1   -1    0    0  501    0  0.00000000000E+00  0.00000000000E+00  0.43395215961E+02  0.43395216212E+02  0.46700000000E-02 0. -1.
         -1   -1    0    0    0  501 -0.00000000000E+00 -0.00000000000E+00 -0.23045376127E+01  0.23045423445E+01  0.46700000000E-02 0.  1.
       1023    2    1    2    0    0  0.00000000000E+00  0.00000000000E+00  0.41090678348E+02  0.45699758557E+02  0.20000602117E+02 0.  0.
        -11    1    3    3    0    0 -0.51309305106E+01 -0.85836758944E+01  0.20565932773E+02  0.22868395896E+02  0.51100000000E-03 0. -1.
         11    1    3    3    0    0  0.51309305106E+01  0.85836758944E+01  0.20524745575E+02  0.22831362661E+02  0.51100000000E-03 0.  1.
<mgrwt>
<rscale>  0 0.20000602E+02</rscale>
<asrwt>0</asrwt>
<pdfrwt beam="1">  1        1 0.66761875E-02 0.20000602E+02</pdfrwt>
<pdfrwt beam="2">  1       -1 0.35454463E-03 0.20000602E+02</pdfrwt>
<totfact> 0.41317262E+06</totfact>
</mgrwt>
</event>
<event>
 5    1  0.9583198E-007  0.2000033E+02  0.7818608E-02  0.1745321E+00
          1   -1    0    0  501    0  0.00000000000E+00  0.00000000000E+00  0.11205638335E+01  0.11205735647E+01  0.46700000000E-02 0. -1.
         -1   -1    0    0    0  501 -0.00000000000E+00 -0.00000000000E+00 -0.89243349093E+02  0.89243349215E+02  0.46700000000E-02 0.  1.
       1023    2    1    2    0    0  0.00000000000E+00  0.00000000000E+00 -0.88122785260E+02  0.90363922780E+02  0.20000331454E+02 0.  0.
        -11    1    3    3    0    0  0.95207384305E+01 -0.30590884652E+01 -0.44191700296E+02  0.45309037265E+02  0.51100000000E-03 0.  1.
         11    1    3    3    0    0 -0.95207384305E+01  0.30590884652E+01 -0.43931084963E+02  0.45054885516E+02  0.51100000000E-03 0. -1.
<mgrwt>
<rscale>  0 0.20000331E+02</rscale>
<asrwt>0</asrwt>
<pdfrwt beam="1">  1        1 0.17239526E-03 0.20000331E+02</pdfrwt>
<pdfrwt beam="2">  1       -1 0.13729741E-01 0.20000331E+02</pdfrwt>
<totfact> 0.32458617E+06</totfact>
</mgrwt>
</event>
<event>
 5    1  0.9735855E-007  0.2000069E+02  0.7818608E-02  0.1745314E+00
         -1   -1    0    0    0  501 -0.00000000000E+00  0.00000000000E+00  0.26093042398E+01  0.26093084188E+01  0.46700000000E-02 0. -1.
          1   -1    0    0  501    0  0.00000000000E+00 -0.00000000000E+00 -0.38327017600E+02  0.38327017884E+02  0.46700000000E-02 0.  1.
       1023    2    1    2    0    0  0.00000000000E+00  0.00000000000E+00 -0.35717713360E+02  0.40936326303E+02  0.20000694076E+02 0.  0.
        -11    1    3    3    0    0  0.19909071701E+01  0.97999842870E+01 -0.17980586163E+02  0.20574374412E+02  0.51100000000E-03 0. -1.
         11    1    3    3    0    0 -0.19909071701E+01 -0.97999842870E+01 -0.17737127197E+02  0.20361951892E+02  0.51100000000E-03 0.  1.
<mgrwt>
<rscale>  0 0.20000694E+02</rscale>
<asrwt>0</asrwt>
<pdfrwt beam="2">  1        1 0.58964642E-02 0.20000694E+02</pdfrwt>
<pdfrwt beam="1">  1       -1 0.40143179E-03 0.20000694E+02</pdfrwt>
<totfact> 0.41001940E+06</totfact>
</mgrwt>
</event>
<event>
 5    1  0.9583198E-007  0.2000032E+02  0.7818608E-02  0.1745322E+00
         -1   -1    0    0    0  501 -0.00000000000E+00  0.00000000000E+00  0.39620774533E+02  0.39620774808E+02  0.46700000000E-02 0.  1.
          1   -1    0    0  501    0  0.00000000000E+00 -0.00000000000E+00 -0.25240064591E+01  0.25240107794E+01  0.46700000000E-02 0. -1.
       1023    2    1    2    0    0  0.00000000000E+00  0.00000000000E+00  0.37096768073E+02  0.42144785587E+02  0.20000318765E+02 0.  0.
        -11    1    3    3    0    0  0.54020158477E+01 -0.84154906572E+01  0.18612617298E+02  0.21128932324E+02  0.51100000000E-03 0.  1.
         11    1    3    3    0    0 -0.54020158477E+01  0.84154906572E+01  0.18484150775E+02  0.21015853263E+02  0.51100000000E-03 0. -1.
<mgrwt>
<rscale>  0 0.20000319E+02</rscale>
<asrwt>0</asrwt>
<pdfrwt beam="2">  1        1 0.38830903E-03 0.20000319E+02</pdfrwt>
<pdfrwt beam="1">  1       -1 0.60955042E-02 0.20000319E+02</pdfrwt>
<totfact> 0.35699304E+06</totfact>
</mgrwt>
</event>
<event>
 5    1  0.9583198E-007  0.2000198E+02  0.7818608E-02  0.1745289E+00
          1   -1    0    0  501    0  0.00000000000E+00  0.00000000000E+00  0.40500097814E+02  0.40500098084E+02  0.46700000000E-02 0. -1.
         -1   -1    0    0    0  501 -0.00000000000E+00 -0.00000000000E+00 -0.24696167895E+01  0.24696212049E+01  0.46700000000E-02 0.  1.
       1023    2    1    2    0    0  0.00000000000E+00  0.00000000000E+00  0.38030481025E+02  0.42969719288E+02  0.20001982121E+02 0.  0.
        -11    1    3    3    0    0  0.99993693102E+01 -0.14679127753E+00  0.18791081349E+02  0.21286466894E+02  0.51100000000E-03 0.  1.
         11    1    3    3    0    0 -0.99993693102E+01  0.14679127753E+00  0.19239399676E+02  0.21683252395E+02  0.51100000000E-03 0. -1.
<mgrwt>
<rscale>  0 0.20001982E+02</rscale>
<asrwt>0</asrwt>
<pdfrwt beam="1">  1        1 0.62307842E-02 0.20001982E+02</pdfrwt>
<pdfrwt beam="2">  1       -1 0.37994143E-03 0.20001982E+02</pdfrwt>
<totfact> 0.41132508E+06</totfact>
</mgrwt>
</event>
<event>
 5    1  0.1009547E-006  0.2000229E+02  0.7818608E-02  0.1745282E+00
         -1   -1    0    0    0  501 -0.00000000000E+00  0.00000000000E+00  0.35670048705E+01  0.35670079275E+01  0.46700000000E-02 0.  1.
          1   -1    0    0  501    0  0.00000000000E+00 -0.00000000000E+00 -0.28041137644E+02  0.28041138033E+02  0.46700000000E-02 0. -1.
       1023    2    1    2    0    0  0.00000000000E+00  0.00000000000E+00 -0.24474132774E+02  0.31608145961E+02  0.20002292770E+02 0.  0.
        -11    1    3    3    0    0 -0.18612003284E+01  0.98263649304E+01 -0.12296495114E+02  0.15850088541E+02  0.51100000000E-03 0.  1.
         11    1    3    3    0    0  0.18612003284E+01 -0.98263649304E+01 -0.12177637660E+02  0.15758057420E+02  0.51100000000E-03 0. -1.
<mgrwt>
<rscale>  0 0.20002293E+02</rscale>
<asrwt>0</asrwt>
<pdfrwt beam="2">  1        1 0.43140213E-02 0.20002293E+02</pdfrwt>
<pdfrwt beam="1">  1       -1 0.54877026E-03 0.20002293E+02</pdfrwt>
<totfact> 0.40309656E+06</totfact>
</mgrwt>
</event>
<event>
 5    1  0.9583198E-007  0.2000159E+02  0.7818608E-02  0.1745297E+00
          1   -1    0    0  501    0  0.00000000000E+00  0.00000000000E+00  0.17083941900E+01  0.17084005728E+01  0.46700000000E-02 0.  1.
         -1   -1    0    0    0  501 -0.00000000000E+00 -0.00000000000E+00 -0.58543678198E+02  0.58543678384E+02  0.46700000000E-02 0. -1.
       1023    2    1    2    0    0  0.00000000000E+00  0.00000000000E+00 -0.56835284008E+02  0.60252078957E+02  0.20001587696E+02 0.  0.
        -11    1    3    3    0    0 -0.96939260396E+01  0.24557319486E+01 -0.28073442349E+02  0.29801358812E+02  0.51100000000E-03 0. -1.
         11    1    3    3    0    0  0.96939260396E+01 -0.24557319486E+01 -0.28761841659E+02  0.30450720145E+02  0.51100000000E-03 0.  1.
<mgrwt>
<rscale>  0 0.20001588E+02</rscale>
<asrwt>0</asrwt>
<pdfrwt beam="1">  1        1 0.26283043E-03 0.20001588E+02</pdfrwt>
<pdfrwt beam="2">  1       -1 0.90067187E-02 0.20001588E+02</pdfrwt>
<totfact> 0.34334253E+06</totfact>
</mgrwt>
</event>
<event>
 5    1  0.9583198E-007  0.2000312E+02  0.7818608E-02  0.1745266E+00
         -1   -1    0    0    0  501 -0.00000000000E+00  0.00000000000E+00  0.84386969041E+00  0.84388261227E+00  0.46700000000E-02 0. -1.
          1   -1    0    0  501    0  0.00000000000E+00 -0.00000000000E+00 -0.11853775209E+03  0.11853775218E+03  0.46700000000E-02 0.  1.
       1023    2    1    2    0    0  0.00000000000E+00  0.00000000000E+00 -0.11769388240E+03  0.11938163479E+03  0.20003119053E+02 0.  0.
        -11    1    3    3    0    0 -0.38519630480E+00  0.99925978052E+01 -0.59894442909E+02  0.60723510099E+02  0.51100000000E-03 0.  1.
         11    1    3    3    0    0  0.38519630480E+00 -0.99925978052E+01 -0.57799439490E+02  0.58658124694E+02  0.51100000000E-03 0. -1.
<mgrwt>
<rscale>  0 0.20003119E+02</rscale>
<asrwt>0</asrwt>
<pdfrwt beam="2">  1        1 0.18236565E-01 0.20003119E+02</pdfrwt>
<pdfrwt beam="1">  1       -1 0.12982720E-03 0.20003119E+02</pdfrwt>
<totfact> 0.45217940E+06</totfact>
</mgrwt>
</event>
<event>
 5    1  0.1005312E-006  0.2000095E+02  0.7818608E-02  0.1745309E+00
         -1   -1    0    0    0  501 -0.00000000000E+00  0.00000000000E+00  0.60733227712E+01  0.60733245666E+01  0.46700000000E-02 0.  1.
          1   -1    0    0  501    0  0.00000000000E+00 -0.00000000000E+00 -0.16467010588E+02  0.16467011251E+02  0.46700000000E-02 0. -1.
       1023    2    1    2    0    0  0.00000000000E+00  0.00000000000E+00 -0.10393687817E+02  0.22540335817E+02  0.20000949785E+02 0.  0.
        -11    1    3    3    0    0 -0.71699972693E+01  0.69713881680E+01 -0.51747603989E+01  0.11259984870E+02  0.51100000000E-03 0. -1.
         11    1    3    3    0    0  0.71699972693E+01 -0.69713881680E+01 -0.52189274184E+01  0.11280350947E+02  0.51100000000E-03 0.  1.
<mgrwt>
<rscale>  0 0.20000950E+02</rscale>
<asrwt>0</asrwt>
<pdfrwt beam="2">  1        1 0.25333864E-02 0.20000950E+02</pdfrwt>
<pdfrwt beam="1">  1       -1 0.93435754E-03 0.20000950E+02</pdfrwt>
<totfact> 0.39386137E+06</totfact>
</mgrwt>
</event>
<event>
 5    1  0.9583198E-007  0.2000049E+02  0.7818608E-02  0.1745318E+00
         -1   -1    0    0    0  501 -0.00000000000E+00  0.00000000000E+00  0.98996252411E+01  0.98996263426E+01  0.46700000000E-02 0.  1.
          1   -1    0    0  501    0  0.00000000000E+00 -0.00000000000E+00 -0.10101889754E+02  0.10101890833E+02  0.46700000000E-02 0. -1.
       1023    2    1    2    0    0  0.00000000000E+00  0.00000000000E+00 -0.20226451272E+00  0.20001517176E+02  0.20000494454E+02 0.  0.
        -11    1    3    3    0    0 -0.54564794372E+01  0.83803762938E+01 -0.68424855299E-01  0.10000427836E+02  0.51100000000E-03 0. -1.
         11    1    3    3    0    0  0.54564794372E+01 -0.83803762938E+01 -0.13383965742E+00  0.10001089340E+02  0.51100000000E-03 0.  1.
<mgrwt>
<rscale>  0 0.20000494E+02</rscale>
<asrwt>0</asrwt>
<pdfrwt beam="2">  1        1 0.15541371E-02 0.20000494E+02</pdfrwt>
<pdfrwt beam="1">  1       -1 0.15230194E-02 0.20000494E+02</pdfrwt>
<totfact> 0.38637494E+06</totfact>
</mgrwt>
</event>
<event>
 5    1  0.9889498E-007  0.2000151E+02  0.7818608E-02  0.1745298E+00
          1   -1    0    0  501    0  0.00000000000E+00  0.00000000000E+00  0.92116242375E+02  0.92116242493E+02  0.46700000000E-02 0. -1.
         -1   -1    0    0    0  501 -0.00000000000E+00 -0.00000000000E+00 -0.10857434891E+01  0.10857535323E+01  0.46700000000E-02 0.  1.
       1023    2    1    2    0    0  0.00000000000E+00  0.00000000000E+00  0.91030498886E+02  0.93201996026E+02  0.20001508337E+02 0.  0.
        -11    1    3    3    0    0  0.94968485160E+01 -0.31339802349E+01  0.45775521655E+02  0.46855206188E+02  0.51100000000E-03 0.  1.
         11    1    3    3    0    0 -0.94968485160E+01  0.31339802349E+01  0.45254977231E+02  0.46346789838E+02  0.51100000000E-03 0. -1.
<mgrwt>
<rscale>  0 0.20001508E+02</rscale>
<asrwt>0</asrwt>
<pdfrwt beam="1">  1        1 0.14171724E-01 0.20001508E+02</pdfrwt>
<pdfrwt beam="2">  1       -1 0.16703832E-03 0.20001508E+02</pdfrwt>
<totfact> 0.43966134E+06</totfact>
</mgrwt>
</event>
<event>
 5    1  0.9583198E-007  0.2000084E+02  0.7818608E-02  0.1745311E+00
         -1   -1    0    0    0  501 -0.00000000000E+00  0.00000000000E+00  0.40722310066E+02  0.40722310334E+02  0.46700000000E-02 0.  1.
          1   -1    0    0  501    0  0.00000000000E+00 -0.00000000000E+00 -0.24558590145E+01  0.24558634547E+01  0.46700000000E-02 0. -1.
       1023    2    1    2    0    0  0.00000000000E+00  0.00000000000E+00  0.38266451052E+02  0.43178173789E+02  0.20000835373E+02 0.  0.
        -11    1    3    3    0    0  0.75093419562E+01  0.66040976758E+01  0.18996163160E+02  0.21467616025E+02  0.51100000000E-03 0.  1.
         11    1    3    3    0    0 -0.75093419562E+01 -0.66040976758E+01  0.19270287891E+02  0.21710557764E+02  0.51100000000E-03 0. -1.
<mgrwt>
<rscale>  0 0.20000835E+02</rscale>
<asrwt>0</asrwt>
<pdfrwt beam="2">  1        1 0.37782481E-03 0.20000835E+02</pdfrwt>
<pdfrwt beam="1">  1       -1 0.62649715E-02 0.20000835E+02</pdfrwt>
<totfact> 0.35612126E+06</totfact>
</mgrwt>
</event>
<event>
 5    1  0.9583198E-007  0.2000355E+02  0.7818608E-02  0.1745257E+00
          1   -1    0    0  501    0  0.00000000000E+00  0.00000000000E+00  0.11679031422E+03  0.11679031431E+03  0.46700000000E-02 0.  1.
         -1   -1    0    0    0  501 -0.00000000000E+00 -0.00000000000E+00 -0.85653332359E+00  0.85654605440E+00  0.46700000000E-02 0. -1.
       1023    2    1    2    0    0  0.00000000000E+00  0.00000000000E+00  0.11593378090E+03  0.11764686037E+03  0.20003554721E+02 0.  0.
        -11    1    3    3    0    0 -0.81482910645E+01 -0.57997673705E+01  0.58319830998E+02  0.59171231496E+02  0.51100000000E-03 0.  1.
         11    1    3    3    0    0  0.81482910645E+01  0.57997673705E+01  0.57613949899E+02  0.58475628873E+02  0.51100000000E-03 0. -1.
<mgrwt>
<rscale>  0 0.20003555E+02</rscale>
<asrwt>0</asrwt>
<pdfrwt beam="1">  1        1 0.17967740E-01 0.20003555E+02</pdfrwt>
<pdfrwt beam="2">  1       -1 0.13177536E-03 0.20003555E+02</pdfrwt>
<totfact> 0.45135573E+06</totfact>
</mgrwt>
</event>
<event>
 5    1  0.9583198E-007  0.2000285E+02  0.7818608E-02  0.1745271E+00
         -1   -1    0    0    0  501 -0.00000000000E+00  0.00000000000E+00  0.74790759561E+01  0.74790774140E+01  0.46700000000E-02 0. -1.
          1   -1    0    0  501    0  0.00000000000E+00 -0.00000000000E+00 -0.13374446887E+02  0.13374447702E+02  0.46700000000E-02 0.  1.
       1023    2    1    2    0    0  0.00000000000E+00  0.00000000000E+00 -0.58953709310E+01  0.20853525116E+02  0.20002852581E+02 0.  0.
        -11    1    3    3    0    0 -0.70767471915E+00 -0.99763247698E+01 -0.29207373833E+01  0.10419144233E+02  0.51100000000E-03 0. -1.
         11    1    3    3    0    0  0.70767471915E+00  0.99763247698E+01 -0.29746335477E+01  0.10434380884E+02  0.51100000000E-03 0.  1.
<mgrwt>
<rscale>  0 0.20002853E+02</rscale>
<asrwt>0</asrwt>
<pdfrwt beam="2">  1        1 0.20576074E-02 0.20002853E+02</pdfrwt>
<pdfrwt beam="1">  1       -1 0.11506272E-02 0.20002853E+02</pdfrwt>
<totfact> 0.39056091E+06</totfact>
</mgrwt>
</event>
<event>
 5    1  0.9583198E-007  0.2000051E+02  0.7818608E-02  0.1745318E+00
         -1   -1    0    0    0  501 -0.00000000000E+00  0.00000000000E+00  0.44656428778E+01  0.44656453196E+01  0.46700000000E-02 0.  1.
          1   -1    0    0  501    0  0.00000000000E+00 -0.00000000000E+00 -0.22394333437E+02  0.22394333924E+02  0.46700000000E-02 0. -1.
       1023    2    1    2    0    0  0.00000000000E+00  0.00000000000E+00 -0.17928690559E+02  0.26859979243E+02  0.20000513488E+02 0.  0.
        -11    1    3    3    0    0 -0.10000226545E+02 -0.38753079348E-03 -0.89973391770E+01  0.13452012624E+02  0.51100000000E-03 0.  1.
         11    1    3    3    0    0  0.10000226545E+02  0.38753079348E-03 -0.89313513819E+01  0.13407966619E+02  0.51100000000E-03 0. -1.
<mgrwt>
<rscale>  0 0.20000513E+02</rscale>
<asrwt>0</asrwt>
<pdfrwt beam="2">  1        1 0.34452822E-02 0.20000513E+02</pdfrwt>
<pdfrwt beam="1">  1       -1 0.68702222E-03 0.20000513E+02</pdfrwt>
<totfact> 0.39897791E+06</totfact>
</mgrwt>
</event>
<event>
 5    1  0.1179751E-006  0.2000165E+02  0.7818608E-02  0.1745295E+00
          1   -1    0    0  501    0  0.00000000000E+00  0.00000000000E+00  0.11464371660E+02  0.11464372611E+02  0.46700000000E-02 0.  1.
         -1   -1    0    0    0  501 -0.00000000000E+00 -0.00000000000E+00 -0.87241172205E+01  0.87241184704E+01  0.46700000000E-02 0. -1.
       1023    2    1    2    0    0  0.00000000000E+00  0.00000000000E+00  0.27402544390E+01  0.20188491081E+02  0.20001654375E+02 0.  0.
        -11    1    3    3    0    0 -0.99843085624E+01 -0.57155490044E+00  0.13108272424E+01  0.10086196547E+02  0.51100000000E-03 0.  1.
         11    1    3    3    0    0  0.99843085624E+01  0.57155490044E+00  0.14294271966E+01  0.10102294534E+02  0.51100000000E-03 0. -1.
<mgrwt>
<rscale>  0 0.20001654E+02</rscale>
<asrwt>0</asrwt>
<pdfrwt beam="1">  1        1 0.17637497E-02 0.20001654E+02</pdfrwt>
<pdfrwt beam="2">  1       -1 0.13421721E-02 0.20001654E+02</pdfrwt>
<totfact> 0.38826604E+06</totfact>
</mgrwt>
</event>
<event>
 4    1  0.9583198E-007  0.2002507E+02  0.7818608E-02  0.1744830E+00
          1   -1    0    0  501    0  0.00000000000E+00  0.00000000000E+00  0.34800171361E+01  0.34800202696E+01  0.46700000000E-02 0. -1.
         -1   -1    0    0    0  501 -0.00000000000E+00 -0.00000000000E+00 -0.28807571823E+02  0.28807572201E+02  0.46700000000E-02 0.  1.
        -11    1    1    2    0    0 -0.99946800112E+01 -0.59717647657E+00 -0.12622614569E+02  0.16111506667E+02  0.51100000000E-03 0.  1.
         11    1    1    2    0    0  0.99946800112E+01  0.59717647657E+00 -0.12704940118E+02  0.16176085804E+02  0.51100000000E-03 0. -1.
<mgrwt>
<rscale>  0 0.20025074E+02</rscale>
<asrwt>0</asrwt>
<pdfrwt beam="1">  1        1 0.53538754E-03 0.20025074E+02</pdfrwt>
<pdfrwt beam="2">  1       -1 0.44319342E-02 0.20025074E+02</pdfrwt>
<totfact> 0.36489542E+06</totfact>
</mgrwt>
</event>
<event>
 5    1  0.1031837E-006  0.2000093E+02  0.7818608E-02  0.1745310E+00
         -1   -1    0    0    0  501 -0.00000000000E+00  0.00000000000E+00  0.14014849436E+01  0.14014927242E+01  0.46700000000E-02 0.  1.
          1   -1    0    0  501    0  0.00000000000E+00 -0.00000000000E+00 -0.71359339175E+02  0.71359339328E+02  0.46700000000E-02 0. -1.
       1023    2    1    2    0    0  0.00000000000E+00  0.00000000000E+00 -0.69957854232E+02  0.72760832052E+02  0.20000932784E+02 0.  0.
        -11    1    3    3    0    0 -0.78554414111E+00  0.99692906710E+01 -0.34709338458E+02  0.36121212778E+02  0.51100000000E-03 0.  1.
         11    1    3    3    0    0  0.78554414111E+00 -0.99692906710E+01 -0.35248515773E+02  0.36639619274E+02  0.51100000000E-03 0. -1.
<mgrwt>
<rscale>  0 0.20000933E+02</rscale>
<asrwt>0</asrwt>
<pdfrwt beam="2">  1        1 0.10978358E-01 0.20000933E+02</pdfrwt>
<pdfrwt beam="1">  1       -1 0.21561373E-03 0.20000933E+02</pdfrwt>
<totfact> 0.42902141E+06</totfact>
</mgrwt>
</event>
<event>
 4    1  0.9583198E-007  0.2002416E+02  0.7818608E-02  0.1744848E+00
         -1   -1    0    0    0  501 -0.00000000000E+00  0.00000000000E+00  0.28541824067E+01  0.28541862272E+01  0.46700000000E-02 0.  1.
          1   -1    0    0  501    0  0.00000000000E+00 -0.00000000000E+00 -0.35120990059E+02  0.35120990369E+02  0.46700000000E-02 0. -1.
        -11    1    1    2    0    0 -0.91579297354E+01  0.40180527997E+01 -0.15225146826E+02  0.18215859065E+02  0.51100000000E-03 0. -1.
         11    1    1    2    0    0  0.91579297354E+01 -0.40180527997E+01 -0.17041660825E+02  0.19759317531E+02  0.51100000000E-03 0.  1.
<mgrwt>
<rscale>  0 0.20024164E+02</rscale>
<asrwt>0</asrwt>
<pdfrwt beam="2">  1        1 0.54032292E-02 0.20024164E+02</pdfrwt>
<pdfrwt beam="1">  1       -1 0.43910533E-03 0.20024164E+02</pdfrwt>
<totfact> 0.40689488E+06</totfact>
</mgrwt>
</event>
<event>
 5    1  0.9724954E-007  0.2000067E+02  0.7818608E-02  0.1745315E+00
         -1   -1    0    0    0  501 -0.00000000000E+00  0.00000000000E+00  0.32309994409E+01  0.32310028158E+01  0.46700000000E-02 0. -1.
          1   -1    0    0  501    0  0.00000000000E+00 -0.00000000000E+00 -0.30952237869E+02  0.30952238221E+02  0.46700000000E-02 0.  1.
       1023    2    1    2    0    0  0.00000000000E+00  0.00000000000E+00 -0.27721238428E+02  0.34183241037E+02  0.20000672684E+02 0.  0.
        -11    1    3    3    0    0 -0.30172776683E+01  0.95342606987E+01 -0.13817547958E+02  0.17056691456E+02  0.51100000000E-03 0.  1.
         11    1    3    3    0    0  0.30172776683E+01 -0.95342606987E+01 -0.13903690470E+02  0.17126549581E+02  0.51100000000E-03 0. -1.
<mgrwt>
<rscale>  0 0.20000673E+02</rscale>
<asrwt>0</asrwt>
<pdfrwt beam="2">  1        1 0.47618828E-02 0.20000673E+02</pdfrwt>
<pdfrwt beam="1">  1       -1 0.49707715E-03 0.20000673E+02</pdfrwt>
<totfact> 0.40518833E+06</totfact>
</mgrwt>
</event>
<event>
 5    1  0.9583198E-007  0.2000058E+02  0.7818608E-02  0.1745317E+00
         -1   -1    0    0    0  501 -0.00000000000E+00  0.00000000000E+00  0.55449328589E+02  0.55449328785E+02  0.46700000000E-02 0. -1.
          1   -1    0    0  501    0  0.00000000000E+00 -0.00000000000E+00 -0.18035496351E+01  0.18035556812E+01  0.46700000000E-02 0.  1.
       1023    2    1    2    0    0  0.00000000000E+00  0.00000000000E+00  0.53645778954E+02  0.57252884467E+02  0.20000579497E+02 0.  0.
        -11    1    3    3    0    0 -0.95677994311E+01  0.29090969359E+01  0.26859531628E+02  0.28660775818E+02  0.51100000000E-03 0.  1.
         11    1    3    3    0    0  0.95677994311E+01 -0.29090969359E+01  0.26786247325E+02  0.28592108649E+02  0.51100000000E-03 0. -1.
<mgrwt>
<rscale>  0 0.20000579E+02</rscale>
<asrwt>0</asrwt>
<pdfrwt beam="2">  1        1 0.27746967E-03 0.20000579E+02</pdfrwt>
<pdfrwt beam="1">  1       -1 0.85306659E-02 0.20000579E+02</pdfrwt>
<totfact> 0.34547379E+06</totfact>
</mgrwt>
</event>
<event>
 5    1  0.9583198E-007  0.2000350E+02  0.7818608E-02  0.1745258E+00
         -1   -1    0    0    0  501 -0.00000000000E+00  0.00000000000E+00  0.23240787545E+02  0.23240788014E+02  0.46700000000E-02 0. -1.
          1   -1    0    0  501    0  0.00000000000E+00 -0.00000000000E+00 -0.43042857400E+01  0.43042882734E+01  0.46700000000E-02 0.  1.
       1023    2    1    2    0    0  0.00000000000E+00  0.00000000000E+00  0.18936501805E+02  0.27545076288E+02  0.20003502870E+02 0.  0.
        -11    1    3    3    0    0  0.94057547932E+01  0.34009917092E+01  0.94572629660E+01  0.13764984232E+02  0.51100000000E-03 0. -1.
         11    1    3    3    0    0 -0.94057547932E+01 -0.34009917092E+01  0.94792388390E+01  0.13780092056E+02  0.51100000000E-03 0.  1.
<mgrwt>
<rscale>  0 0.20003503E+02</rscale>
<asrwt>0</asrwt>
<pdfrwt beam="2">  1        1 0.66219804E-03 0.20003503E+02</pdfrwt>
<pdfrwt beam="1">  1       -1 0.35755060E-02 0.20003503E+02</pdfrwt>
<totfact> 0.37083637E+06</totfact>
</mgrwt>
</event>
<event>
 5    1  0.1011944E-006  0.2000122E+02  0.7818608E-02  0.1745304E+00
          1   -1    0    0  501    0  0.00000000000E+00  0.00000000000E+00  0.38958213710E+02  0.38958213990E+02  0.46700000000E-02 0.  1.
         -1   -1    0    0    0  501 -0.00000000000E+00 -0.00000000000E+00 -0.25671635587E+01  0.25671678064E+01  0.46700000000E-02 0. -1.
       1023    2    1    2    0    0  0.00000000000E+00  0.00000000000E+00  0.36391050152E+02  0.41525381796E+02  0.20001220018E+02 0.  0.
        -11    1    3    3    0    0 -0.11126664469E+01 -0.99385182851E+01  0.18184545638E+02  0.20753068993E+02  0.51100000000E-03 0. -1.
         11    1    3    3    0    0  0.11126664469E+01  0.99385182851E+01  0.18206504514E+02  0.20772312803E+02  0.51100000000E-03 0.  1.
<mgrwt>
<rscale>  0 0.20001220E+02</rscale>
<asrwt>0</asrwt>
<pdfrwt beam="1">  1        1 0.59935720E-02 0.20001220E+02</pdfrwt>
<pdfrwt beam="2">  1       -1 0.39494857E-03 0.20001220E+02</pdfrwt>
<totfact> 0.41039415E+06</totfact>
</mgrwt>
</event>
<event>
 5    1  0.1008941E-006  0.2000149E+02  0.7818608E-02  0.1745298E+00
         -1   -1    0    0    0  501 -0.00000000000E+00  0.00000000000E+00  0.66916001825E+01  0.66916018120E+01  0.46700000000E-02 0.  1.
          1   -1    0    0  501    0  0.00000000000E+00 -0.00000000000E+00 -0.14946328352E+02  0.14946329082E+02  0.46700000000E-02 0. -1.
       1023    2    1    2    0    0  0.00000000000E+00  0.00000000000E+00 -0.82547281696E+01  0.21637930894E+02  0.20001487850E+02 0.  0.
        -11    1    3    3    0    0 -0.91580644971E+01  0.40163256319E+01 -0.39999948817E+01  0.10770374934E+02  0.51100000000E-03 0.  1.
         11    1    3    3    0    0  0.91580644971E+01 -0.40163256319E+01 -0.42547332879E+01  0.10867555959E+02  0.51100000000E-03 0. -1.
<mgrwt>
<rscale>  0 0.20001488E+02</rscale>
<asrwt>0</asrwt>
<pdfrwt beam="2">  1        1 0.22994353E-02 0.20001488E+02</pdfrwt>
<pdfrwt beam="1">  1       -1 0.10294771E-02 0.20001488E+02</pdfrwt>
<totfact> 0.39232540E+06</totfact>
</mgrwt>
</event>
<event>
 5    1  0.9583198E-007  0.2000254E+02  0.7818608E-02  0.1745278E+00
          1   -1    0    0  501    0  0.00000000000E+00  0.00000000000E+00  0.72042565833E+01  0.72042580969E+01  0.46700000000E-02 0. -1.
         -1   -1    0    0    0  501 -0.00000000000E+00 -0.00000000000E+00 -0.13884204942E+02  0.13884205727E+02  0.46700000000E-02 0.  1.
       1023    2    1    2    0    0  0.00000000000E+00  0.00000000000E+00 -0.66799483587E+01  0.21088463824E+02  0.20002539749E+02 0.  0.
        -11    1    3    3    0    0  0.40410654335E+01  0.91481322955E+01 -0.32526238876E+01  0.10516562972E+02  0.51100000000E-03 0.  1.
         11    1    3    3    0    0 -0.40410654335E+01 -0.91481322955E+01 -0.34273244711E+01  0.10571900852E+02  0.51100000000E-03 0. -1.
<mgrwt>
<rscale>  0 0.20002540E+02</rscale>
<asrwt>0</asrwt>
<pdfrwt beam="1">  1        1 0.11083473E-02 0.20002540E+02</pdfrwt>
<pdfrwt beam="2">  1       -1 0.21360317E-02 0.20002540E+02</pdfrwt>
<totfact> 0.38083138E+06</totfact>
</mgrwt>
</event>
<event>
 5    1  0.9583198E-007  0.2000026E+02  0.7818608E-02  0.1745323E+00
         -1   -1    0    0    0  501 -0.00000000000E+00  0.00000000000E+00  0.92969591573E+00  0.92970764471E+00  0.46700000000E-02 0.  1.
          1   -1    0    0  501    0  0.00000000000E+00 -0.00000000000E+00 -0.10756416767E+03  0.10756416777E+03  0.46700000000E-02 0. -1.
       1023    2    1    2    0    0  0.00000000000E+00  0.00000000000E+00 -0.10663447175E+03  0.10849387542E+03  0.20000260910E+02 0.  0.
        -11    1    3    3    0    0  0.86092354160E+01  0.50875486450E+01 -0.53193155772E+02  0.54124984129E+02  0.51100000000E-03 0.  1.
         11    1    3    3    0    0 -0.86092354160E+01 -0.50875486450E+01 -0.53441315981E+02  0.54368891286E+02  0.51100000000E-03 0. -1.
<mgrwt>
<rscale>  0 0.20000261E+02</rscale>
<asrwt>0</asrwt>
<pdfrwt beam="2">  1        1 0.16548325E-01 0.20000261E+02</pdfrwt>
<pdfrwt beam="1">  1       -1 0.14303114E-03 0.20000261E+02</pdfrwt>
<totfact> 0.44721591E+06</totfact>
</mgrwt>
</event>
<event>
 5    1  0.9583198E-007  0.2000148E+02  0.7818608E-02  0.1745299E+00
          1   -1    0    0  501    0  0.00000000000E+00  0.00000000000E+00  0.67830296947E+01  0.67830313023E+01  0.46700000000E-02 0. -1.
         -1   -1    0    0    0  501 -0.00000000000E+00 -0.00000000000E+00 -0.14744852295E+02  0.14744853035E+02  0.46700000000E-02 0.  1.
       1023    2    1    2    0    0  0.00000000000E+00  0.00000000000E+00 -0.79618226006E+01  0.21527884337E+02  0.20001479568E+02 0.  0.
        -11    1    3    3    0    0  0.80858264063E+01  0.58848244250E+01 -0.39214817580E+01  0.10741962885E+02  0.51100000000E-03 0.  1.
         11    1    3    3    0    0 -0.80858264063E+01 -0.58848244250E+01 -0.40403408425E+01  0.10785921452E+02  0.51100000000E-03 0. -1.
<mgrwt>
<rscale>  0 0.20001480E+02</rscale>
<asrwt>0</asrwt>
<pdfrwt beam="1">  1        1 0.10435432E-02 0.20001480E+02</pdfrwt>
<pdfrwt beam="2">  1       -1 0.22684390E-02 0.20001480E+02</pdfrwt>
<totfact> 0.37983773E+06</totfact>
</mgrwt>
</event>
<event>
 5    1  0.9583198E-007  0.2001152E+02  0.7818608E-02  0.1745099E+00
          1   -1    0    0  501    0  0.00000000000E+00  0.00000000000E+00  0.37797405959E+01  0.37797434809E+01  0.46700000000E-02 0. -1.
         -1   -1    0    0    0  501 -0.00000000000E+00 -0.00000000000E+00 -0.26487317744E+02  0.26487318156E+02  0.46700000000E-02 0.  1.
       1023    2    1    2    0    0  0.00000000000E+00  0.00000000000E+00 -0.22707577148E+02  0.30267061637E+02  0.20011520686E+02 0.  0.
        -11    1    3    3    0    0 -0.88429654720E+01  0.46774407116E+01 -0.11056056865E+02  0.14910160416E+02  0.51100000000E-03 0.  1.
         11    1    3    3    0    0  0.88429654720E+01 -0.46774407116E+01 -0.11651520283E+02  0.15356901221E+02  0.51100000000E-03 0. -1.
<mgrwt>
<rscale>  0 0.20011521E+02</rscale>
<asrwt>0</asrwt>
<pdfrwt beam="1">  1        1 0.58149882E-03 0.20011521E+02</pdfrwt>
<pdfrwt beam="2">  1       -1 0.40749721E-02 0.20011521E+02</pdfrwt>
<totfact> 0.36750216E+06</totfact>
</mgrwt>
</event>
<event>
 5    1  0.9583198E-007  0.2000059E+02  0.7818608E-02  0.1745316E+00
          1   -1    0    0  501    0  0.00000000000E+00  0.00000000000E+00  0.41834255098E+01  0.41834281164E+01  0.46700000000E-02 0. -1.
         -1   -1    0    0    0  501 -0.00000000000E+00 -0.00000000000E+00 -0.23905244825E+02  0.23905245281E+02  0.46700000000E-02 0.  1.
       1023    2    1    2    0    0  0.00000000000E+00  0.00000000000E+00 -0.19721819315E+02  0.28088673398E+02  0.20000585395E+02 0.  0.
        -11    1    3    3    0    0  0.88123643759E+01 -0.47272496024E+01 -0.98122788189E+01  0.14010191668E+02  0.51100000000E-03 0.  1.
         11    1    3    3    0    0 -0.88123643759E+01  0.47272496024E+01 -0.99095404964E+01  0.14078481730E+02  0.51100000000E-03 0. -1.
<mgrwt>
<rscale>  0 0.20000585E+02</rscale>
<asrwt>0</asrwt>
<pdfrwt beam="1">  1        1 0.64360417E-03 0.20000585E+02</pdfrwt>
<pdfrwt beam="2">  1       -1 0.36777301E-02 0.20000585E+02</pdfrwt>
<totfact> 0.37032569E+06</totfact>
</mgrwt>
</event>
<event>
 5    1  0.9583198E-007  0.2000069E+02  0.7818608E-02  0.1745314E+00
         -1   -1    0    0    0  501 -0.00000000000E+00  0.00000000000E+00  0.47792639802E+02  0.47792640030E+02  0.46700000000E-02 0.  1.
          1   -1    0    0  501    0  0.00000000000E+00 -0.00000000000E+00 -0.20925139453E+01  0.20925191564E+01  0.46700000000E-02 0. -1.
       1023    2    1    2    0    0  0.00000000000E+00  0.00000000000E+00  0.45700125857E+02  0.49885159187E+02  0.20000690082E+02 0.  0.
        -11    1    3    3    0    0  0.58395716766E+01 -0.81179998057E+01  0.23015177585E+02  0.25093842228E+02  0.51100000000E-03 0. -1.
         11    1    3    3    0    0 -0.58395716766E+01  0.81179998057E+01  0.22684948271E+02  0.24791316959E+02  0.51100000000E-03 0.  1.
<mgrwt>
<rscale>  0 0.20000690E+02</rscale>
<asrwt>0</asrwt>
<pdfrwt beam="2">  1        1 0.32192563E-03 0.20000690E+02</pdfrwt>
<pdfrwt beam="1">  1       -1 0.73527144E-02 0.20000690E+02</pdfrwt>
<totfact> 0.35085380E+06</totfact>
</mgrwt>
</event>
<event>
 5    1  0.9703800E-007  0.2000051E+02  0.7818608E-02  0.1745318E+00
         -1   -1    0    0    0  501 -0.00000000000E+00  0.00000000000E+00  0.52682946407E+01  0.52682967105E+01  0.46700000000E-02 0. -1.
          1   -1    0    0  501    0  0.00000000000E+00 -0.00000000000E+00 -0.18982437249E+02  0.18982437823E+02  0.46700000000E-02 0.  1.
       1023    2    1    2    0    0  0.00000000000E+00  0.00000000000E+00 -0.13714142608E+02  0.24250734534E+02  0.20000510442E+02 0.  0.
        -11    1    3    3    0    0 -0.20671436833E+01  0.97841314716E+01 -0.67929967406E+01  0.12089132171E+02  0.51100000000E-03 0.  1.
         11    1    3    3    0    0  0.20671436833E+01 -0.97841314716E+01 -0.69211458676E+01  0.12161602363E+02  0.51100000000E-03 0. -1.
<mgrwt>
<rscale>  0 0.20000510E+02</rscale>
<asrwt>0</asrwt>
<pdfrwt beam="2">  1        1 0.29203751E-02 0.20000510E+02</pdfrwt>
<pdfrwt beam="1">  1       -1 0.81050708E-03 0.20000510E+02</pdfrwt>
<totfact> 0.39616945E+06</totfact>
</mgrwt>
</event>
<event>
 5    1  0.9583198E-007  0.2000049E+02  0.7818608E-02  0.1745318E+00
          1   -1    0    0  501    0  0.00000000000E+00  0.00000000000E+00  0.11870969009E+02  0.11870969928E+02  0.46700000000E-02 0.  1.
         -1   -1    0    0    0  501 -0.00000000000E+00 -0.00000000000E+00 -0.84243197817E+01  0.84243210761E+01  0.46700000000E-02 0. -1.
       1023    2    1    2    0    0  0.00000000000E+00  0.00000000000E+00  0.34466492273E+01  0.20295291004E+02  0.20000486145E+02 0.  0.
        -11    1    3    3    0    0 -0.96135692490E+01 -0.27531937666E+01  0.17880744331E+01  0.10158641644E+02  0.51100000000E-03 0.  1.
         11    1    3    3    0    0  0.96135692490E+01  0.27531937666E+01  0.16585747942E+01  0.10136649359E+02  0.51100000000E-03 0. -1.
<mgrwt>
<rscale>  0 0.20000486E+02</rscale>
<asrwt>0</asrwt>
<pdfrwt beam="1">  1        1 0.18263031E-02 0.20000486E+02</pdfrwt>
<pdfrwt beam="2">  1       -1 0.12960494E-02 0.20000486E+02</pdfrwt>
<totfact> 0.38884842E+06</totfact>
</mgrwt>
</event>
<event>
 5    1  0.9583198E-007  0.2000011E+02  0.7818608E-02  0.1745326E+00
          1   -1    0    0  501    0  0.00000000000E+00  0.00000000000E+00  0.54064973984E+01  0.54064994153E+01  0.46700000000E-02 0. -1.
         -1   -1    0    0    0  501 -0.00000000000E+00 -0.00000000000E+00 -0.18496464879E+02  0.18496465469E+02  0.46700000000E-02 0.  1.
       1023    2    1    2    0    0  0.00000000000E+00  0.00000000000E+00 -0.13089967481E+02  0.23902964884E+02  0.20000112040E+02 0.  0.
        -11    1    3    3    0    0  0.98565580962E+01  0.16880090653E+01 -0.65415965384E+01  0.11949627511E+02  0.51100000000E-03 0. -1.
         11    1    3    3    0    0 -0.98565580962E+01 -0.16880090653E+01 -0.65483709427E+01  0.11953337374E+02  0.51100000000E-03 0.  1.
<mgrwt>
<rscale>  0 0.20000112E+02</rscale>
<asrwt>0</asrwt>
<pdfrwt beam="1">  1        1 0.83176904E-03 0.20000112E+02</pdfrwt>
<pdfrwt beam="2">  1       -1 0.28456102E-02 0.20000112E+02</pdfrwt>
<totfact> 0.37571974E+06</totfact>
</mgrwt>
</event>
<event>
 5    1  0.9583198E-007  0.2000046E+02  0.7818608E-02  0.1745319E+00
         -1   -1    0    0    0  501 -0.00000000000E+00  0.00000000000E+00  0.17009862218E+01  0.17009926324E+01  0.46700000000E-02 0.  1.
          1   -1    0    0  501    0  0.00000000000E+00 -0.00000000000E+00 -0.58792012331E+02  0.58792012516E+02  0.46700000000E-02 0. -1.
       1023    2    1    2    0    0  0.00000000000E+00  0.00000000000E+00 -0.57091026109E+02  0.60493005149E+02  0.20000460238E+02 0.  0.
        -11    1    3    3    0    0  0.98195738779E+01  0.18919477451E+01 -0.28444982288E+02  0.30151625413E+02  0.51100000000E-03 0.  1.
         11    1    3    3    0    0 -0.98195738779E+01 -0.18919477451E+01 -0.28646043821E+02  0.30341379736E+02  0.51100000000E-03 0. -1.
<mgrwt>
<rscale>  0 0.20000460E+02</rscale>
<asrwt>0</asrwt>
<pdfrwt beam="2">  1        1 0.90449239E-02 0.20000460E+02</pdfrwt>
<pdfrwt beam="1">  1       -1 0.26169074E-03 0.20000460E+02</pdfrwt>
<totfact> 0.42216757E+06</totfact>
</mgrwt>
</event>
<event>
 5    1  0.9583198E-007  0.2000018E+02  0.7818608E-02  0.1745324E+00
          1   -1    0    0  501    0  0.00000000000E+00  0.00000000000E+00  0.19199357937E+02  0.19199358505E+02  0.46700000000E-02 0. -1.
         -1   -1    0    0    0  501 -0.00000000000E+00 -0.00000000000E+00 -0.52086004629E+01  0.52086025564E+01  0.46700000000E-02 0.  1.
       1023    2    1    2    0    0  0.00000000000E+00  0.00000000000E+00  0.13990757474E+02  0.24407961061E+02  0.20000181711E+02 0.  0.
        -11    1    3    3    0    0  0.49534740478E+01 -0.86870202509E+01  0.69657136740E+01  0.12186976378E+02  0.51100000000E-03 0.  1.
         11    1    3    3    0    0 -0.49534740478E+01  0.86870202509E+01  0.70250438001E+01  0.12220984684E+02  0.51100000000E-03 0. -1.
<mgrwt>
<rscale>  0 0.20000182E+02</rscale>
<asrwt>0</asrwt>
<pdfrwt beam="1">  1        1 0.29537476E-02 0.20000182E+02</pdfrwt>
<pdfrwt beam="2">  1       -1 0.80132335E-03 0.20000182E+02</pdfrwt>
<totfact> 0.39637126E+06</totfact>
</mgrwt>
</event>
<event>
 5    1  0.9583198E-007  0.2000047E+02  0.7818608E-02  0.1745319E+00
          1   -1    0    0  501    0  0.00000000000E+00  0.00000000000E+00  0.61523639279E+01  0.61523657003E+01  0.46700000000E-02 0.  1.
         -1   -1    0    0    0  501 -0.00000000000E+00 -0.00000000000E+00 -0.16254674290E+02  0.16254674961E+02  0.46700000000E-02 0. -1.
       1023    2    1    2    0    0  0.00000000000E+00  0.00000000000E+00 -0.10102310362E+02  0.22407040661E+02  0.20000469908E+02 0.  0.
        -11    1    3    3    0    0  0.19552382476E+01 -0.98071784106E+01 -0.50864746143E+01  0.11219444249E+02  0.51100000000E-03 0. -1.
         11    1    3    3    0    0 -0.19552382476E+01  0.98071784106E+01 -0.50158357479E+01  0.11187596413E+02  0.51100000000E-03 0.  1.
<mgrwt>
<rscale>  0 0.20000470E+02</rscale>
<asrwt>0</asrwt>
<pdfrwt beam="1">  1        1 0.94651772E-03 0.20000470E+02</pdfrwt>
<pdfrwt beam="2">  1       -1 0.25007193E-02 0.20000470E+02</pdfrwt>
<totfact> 0.37813970E+06</totfact>
</mgrwt>
</event>
<event>
 5    1  0.9583198E-007  0.2000059E+02  0.7818608E-02  0.1745316E+00
          1   -1    0    0  501    0  0.00000000000E+00  0.00000000000E+00  0.12790084907E+01  0.12790170163E+01  0.46700000000E-02 0. -1.
         -1   -1    0    0    0  501 -0.00000000000E+00 -0.00000000000E+00 -0.78189892038E+02  0.78189892177E+02  0.46700000000E-02 0.  1.
       1023    2    1    2    0    0  0.00000000000E+00  0.00000000000E+00 -0.76910883547E+02  0.79468909194E+02  0.20000588002E+02 0.  0.
        -11    1    3    3    0    0  0.98291685057E+01  0.18414223421E+01 -0.38257169585E+02  0.39542564594E+02  0.51100000000E-03 0.  1.
         11    1    3    3    0    0 -0.98291685057E+01 -0.18414223421E+01 -0.38653713962E+02  0.39926344599E+02  0.51100000000E-03 0. -1.
<mgrwt>
<rscale>  0 0.20000588E+02</rscale>
<asrwt>0</asrwt>
<pdfrwt beam="1">  1        1 0.19677127E-03 0.20000588E+02</pdfrwt>
<pdfrwt beam="2">  1       -1 0.12029211E-01 0.20000588E+02</pdfrwt>
<totfact> 0.33098737E+06</totfact>
</mgrwt>
</event>
<event>
 4    1  0.9583198E-007  0.2010973E+02  0.7818608E-02  0.1743155E+00
          1   -1    0    0  501    0  0.00000000000E+00  0.00000000000E+00  0.10634989394E+03  0.10634989404E+03  0.46700000000E-02 0. -1.
         -1   -1    0    0    0  501 -0.00000000000E+00 -0.00000000000E+00 -0.95063316169E+00  0.95064463235E+00  0.46700000000E-02 0.  1.
        -11    1    1    2    0    0  0.86355751170E+01 -0.51318310735E+01  0.50364614048E+02  0.51356627578E+02  0.51100000000E-03 0.  1.
         11    1    1    2    0    0 -0.86355751170E+01  0.51318310735E+01  0.55034646728E+02  0.55943911094E+02  0.51100000000E-03 0. -1.
<mgrwt>
<rscale>  0 0.20109735E+02</rscale>
<asrwt>0</asrwt>
<pdfrwt beam="1">  1        1 0.16361518E-01 0.20109735E+02</pdfrwt>
<pdfrwt beam="2">  1       -1 0.14625219E-03 0.20109735E+02</pdfrwt>
<totfact> 0.44129588E+06</totfact>
</mgrwt>
</event>
<event>
 5    1  0.9583198E-007  0.2000258E+02  0.7818608E-02  0.1745277E+00
          1   -1    0    0  501    0  0.00000000000E+00  0.00000000000E+00  0.20645573989E+01  0.20645626806E+01  0.46700000000E-02 0.  1.
         -1   -1    0    0    0  501 -0.00000000000E+00 -0.00000000000E+00 -0.48448944984E+02  0.48448945209E+02  0.46700000000E-02 0. -1.
       1023    2    1    2    0    0  0.00000000000E+00  0.00000000000E+00 -0.46384387585E+02  0.50513507890E+02  0.20002576526E+02 0.  0.
        -11    1    3    3    0    0 -0.24463438939E+01  0.96974193295E+01 -0.23103750310E+02  0.25175540088E+02  0.51100000000E-03 0.  1.
         11    1    3    3    0    0  0.24463438939E+01 -0.96974193295E+01 -0.23280637276E+02  0.25337967802E+02  0.51100000000E-03 0. -1.
<mgrwt>
<rscale>  0 0.20002577E+02</rscale>
<asrwt>0</asrwt>
<pdfrwt beam="1">  1        1 0.31762468E-03 0.20002577E+02</pdfrwt>
<pdfrwt beam="2">  1       -1 0.74536834E-02 0.20002577E+02</pdfrwt>
<totfact> 0.35030728E+06</totfact>
</mgrwt>
</event>
<event>
 4    1  0.9583198E-007  0.2004436E+02  0.7818608E-02  0.1744447E+00
         -1   -1    0    0    0  501 -0.00000000000E+00  0.00000000000E+00  0.79435962805E+02  0.79435962942E+02  0.46700000000E-02 0. -1.
          1   -1    0    0  501    0  0.00000000000E+00 -0.00000000000E+00 -0.12644613982E+01  0.12644700220E+01  0.46700000000E-02 0.  1.
        -11    1    1    2    0    0 -0.91785863600E+01 -0.40201786942E+01  0.39847284205E+02  0.41087885600E+02  0.51100000000E-03 0. -1.
         11    1    1    2    0    0  0.91785863600E+01  0.40201786942E+01  0.38324217201E+02  0.39612547364E+02  0.51100000000E-03 0.  1.
<mgrwt>
<rscale>  0 0.20044357E+02</rscale>
<asrwt>0</asrwt>
<pdfrwt beam="2">  1        1 0.19453325E-03 0.20044357E+02</pdfrwt>
<pdfrwt beam="1">  1       -1 0.12220914E-01 0.20044357E+02</pdfrwt>
<totfact> 0.32866691E+06</totfact>
</mgrwt>
</event>
<event>
 5    1  0.9768022E-007  0.2000141E+02  0.7818608E-02  0.1745300E+00
          1   -1    0    0  501    0  0.00000000000E+00  0.00000000000E+00  0.32039622261E+02  0.32039622601E+02  0.46700000000E-02 0. -1.
         -1   -1    0    0    0  501 -0.00000000000E+00 -0.00000000000E+00 -0.31215737199E+01  0.31215772132E+01  0.46700000000E-02 0.  1.
       1023    2    1    2    0    0  0.00000000000E+00  0.00000000000E+00  0.28918048541E+02  0.35161199814E+02  0.20001410974E+02 0.  0.
        -11    1    3    3    0    0 -0.49178590419E+01 -0.87079544813E+01  0.14428516322E+02  0.17555508888E+02  0.51100000000E-03 0.  1.
         11    1    3    3    0    0  0.49178590419E+01  0.87079544813E+01  0.14489532218E+02  0.17605690926E+02  0.51100000000E-03 0. -1.
<mgrwt>
<rscale>  0 0.20001411E+02</rscale>
<asrwt>0</asrwt>
<pdfrwt beam="1">  1        1 0.49291733E-02 0.20001411E+02</pdfrwt>
<pdfrwt beam="2">  1       -1 0.48024237E-03 0.20001411E+02</pdfrwt>
<totfact> 0.40589020E+06</totfact>
</mgrwt>
</event>
<event>
 5    1  0.9692272E-007  0.2000060E+02  0.7818608E-02  0.1745316E+00
          1   -1    0    0  501    0  0.00000000000E+00  0.00000000000E+00  0.61139875181E+02  0.61139875359E+02  0.46700000000E-02 0.  1.
         -1   -1    0    0    0  501 -0.00000000000E+00 -0.00000000000E+00 -0.16356883612E+01  0.16356950278E+01  0.46700000000E-02 0. -1.
       1023    2    1    2    0    0  0.00000000000E+00  0.00000000000E+00  0.59504186819E+02  0.62775570387E+02  0.20000599699E+02 0.  0.
        -11    1    3    3    0    0  0.76838640532E+01  0.64001897092E+01  0.29885320112E+02  0.31514069137E+02  0.51100000000E-03 0.  1.
         11    1    3    3    0    0 -0.76838640532E+01 -0.64001897092E+01  0.29618866707E+02  0.31261501250E+02  0.51100000000E-03 0. -1.
<mgrwt>
<rscale>  0 0.20000600E+02</rscale>
<asrwt>0</asrwt>
<pdfrwt beam="1">  1        1 0.94061324E-02 0.20000600E+02</pdfrwt>
<pdfrwt beam="2">  1       -1 0.25164496E-03 0.20000600E+02</pdfrwt>
<totfact> 0.42347359E+06</totfact>
</mgrwt>
</event>
<event>
 5    1  0.9583198E-007  0.2000069E+02  0.7818608E-02  0.1745314E+00
         -1   -1    0    0    0  501 -0.00000000000E+00  0.00000000000E+00  0.28407892097E+02  0.28407892481E+02  0.46700000000E-02 0.  1.
          1   -1    0    0  501    0  0.00000000000E+00 -0.00000000000E+00 -0.35203905076E+01  0.35203936051E+01  0.46700000000E-02 0. -1.
       1023    2    1    2    0    0  0.00000000000E+00  0.00000000000E+00  0.24887501590E+02  0.31928286086E+02  0.20000692914E+02 0.  0.
        -11    1    3    3    0    0  0.86178935737E+01 -0.50733425348E+01  0.12434323618E+02  0.15956794735E+02  0.51100000000E-03 0. -1.
         11    1    3    3    0    0 -0.86178935737E+01  0.50733425348E+01  0.12453177972E+02  0.15971491351E+02  0.51100000000E-03 0.  1.
<mgrwt>
<rscale>  0 0.20000693E+02</rscale>
<asrwt>0</asrwt>
<pdfrwt beam="2">  1        1 0.54159880E-03 0.20000693E+02</pdfrwt>
<pdfrwt beam="1">  1       -1 0.43704453E-02 0.20000693E+02</pdfrwt>
<totfact> 0.36622597E+06</totfact>
</mgrwt>
</event>
<event>
 5    1  0.1024636E-006  0.2000140E+02  0.7818608E-02  0.1745300E+00
          1   -1    0    0  501    0  0.00000000000E+00  0.00000000000E+00  0.72893166271E+02  0.72893166420E+02  0.46700000000E-02 0. -1.
         -1   -1    0    0    0  501 -0.00000000000E+00 -0.00000000000E+00 -0.13720580855E+01  0.13720660330E+01  0.46700000000E-02 0.  1.
       1023    2    1    2    0    0  0.00000000000E+00  0.00000000000E+00  0.71521108185E+02  0.74265232453E+02  0.20001395834E+02 0.  0.
        -11    1    3    3    0    0 -0.83096337675E+01 -0.55640866840E+01  0.35501052945E+02  0.36882703730E+02  0.51100000000E-03 0. -1.
         11    1    3    3    0    0  0.83096337675E+01  0.55640866840E+01  0.36020055240E+02  0.37382528723E+02  0.51100000000E-03 0.  1.
<mgrwt>
<rscale>  0 0.20001396E+02</rscale>
<asrwt>0</asrwt>
<pdfrwt beam="1">  1        1 0.11214332E-01 0.20001396E+02</pdfrwt>
<pdfrwt beam="2">  1       -1 0.21108651E-03 0.20001396E+02</pdfrwt>
<totfact> 0.42981372E+06</totfact>
</mgrwt>
</event>
<event>
 4    1  0.9583198E-007  0.2005788E+02  0.7818608E-02  0.1744180E+00
         -1   -1    0    0    0  501 -0.00000000000E+00  0.00000000000E+00  0.87055773313E+00  0.87057025886E+00  0.46700000000E-02 0. -1.
          1   -1    0    0  501    0  0.00000000000E+00 -0.00000000000E+00 -0.11553382693E+03  0.11553382703E+03  0.46700000000E-02 0.  1.
        -11    1    1    2    0    0  0.54730211021E+01 -0.83990085344E+01 -0.55666785698E+02  0.56562251852E+02  0.51100000000E-03 0.  1.
         11    1    1    2    0    0 -0.54730211021E+01  0.83990085344E+01 -0.58996483502E+02  0.59842145435E+02  0.51100000000E-03 0. -1.
<mgrwt>
<rscale>  0 0.20057876E+02</rscale>
<asrwt>0</asrwt>
<pdfrwt beam="2">  1        1 0.17774424E-01 0.20057876E+02</pdfrwt>
<pdfrwt beam="1">  1       -1 0.13393302E-03 0.20057876E+02</pdfrwt>
<totfact> 0.44809097E+06</totfact>
</mgrwt>
</event>
<event>
 5    1  0.9583198E-007  0.2000045E+02  0.7818608E-02  0.1745319E+00
         -1   -1    0    0    0  501 -0.00000000000E+00  0.00000000000E+00  0.45450340964E+01  0.45450364956E+01  0.46700000000E-02 0.  1.
          1   -1    0    0  501    0  0.00000000000E+00 -0.00000000000E+00 -0.22003014982E+02  0.22003015477E+02  0.46700000000E-02 0. -1.
       1023    2    1    2    0    0  0.00000000000E+00  0.00000000000E+00 -0.17457980885E+02  0.26548051973E+02  0.20000449169E+02 0.  0.
        -11    1    3    3    0    0  0.19191846619E+01 -0.98141480883E+01 -0.86480423280E+01  0.13220794561E+02  0.51100000000E-03 0.  1.
         11    1    3    3    0    0 -0.19191846619E+01  0.98141480883E+01 -0.88099385571E+01  0.13327257411E+02  0.51100000000E-03 0. -1.
<mgrwt>
<rscale>  0 0.20000449E+02</rscale>
<asrwt>0</asrwt>
<pdfrwt beam="2">  1        1 0.33850794E-02 0.20000449E+02</pdfrwt>
<pdfrwt beam="1">  1       -1 0.69923625E-03 0.20000449E+02</pdfrwt>
<totfact> 0.39867164E+06</totfact>
</mgrwt>
</event>
<event>
 4    1  0.9583198E-007  0.2001651E+02  0.7818608E-02  0.1745000E+00
         -1   -1    0    0    0  501 -0.00000000000E+00  0.00000000000E+00  0.16899166165E+01  0.16899230691E+01  0.46700000000E-02 0. -1.
          1   -1    0    0  501    0  0.00000000000E+00 -0.00000000000E+00 -0.59272118148E+02  0.59272118332E+02  0.46700000000E-02 0.  1.
        -11    1    1    2    0    0  0.96084486665E+01 -0.27819755684E+01 -0.27811454984E+02  0.29555688157E+02  0.51100000000E-03 0. -1.
         11    1    1    2    0    0 -0.96084486665E+01  0.27819755684E+01 -0.29770746548E+02  0.31406353245E+02  0.51100000000E-03 0.  1.
<mgrwt>
<rscale>  0 0.20016507E+02</rscale>
<asrwt>0</asrwt>
<pdfrwt beam="2">  1        1 0.91187863E-02 0.20016507E+02</pdfrwt>
<pdfrwt beam="1">  1       -1 0.25998773E-03 0.20016507E+02</pdfrwt>
<totfact> 0.42168610E+06</totfact>
</mgrwt>
</event>
<event>
 5    1  0.9583198E-007  0.2000615E+02  0.7818608E-02  0.1745206E+00
         -1   -1    0    0    0  501 -0.00000000000E+00  0.00000000000E+00  0.31655584739E+01  0.31655619186E+01  0.46700000000E-02 0.  1.
          1   -1    0    0  501    0  0.00000000000E+00 -0.00000000000E+00 -0.31609400839E+02  0.31609401184E+02  0.46700000000E-02 0. -1.
       1023    2    1    2    0    0  0.00000000000E+00  0.00000000000E+00 -0.28443842365E+02  0.34774963103E+02  0.20006146313E+02 0.  0.
        -11    1    3    3    0    0 -0.99798184000E+01 -0.64499225047E+00 -0.14605440730E+02  0.17701177630E+02  0.51100000000E-03 0. -1.
         11    1    3    3    0    0  0.99798184000E+01  0.64499225047E+00 -0.13838401635E+02  0.17073785473E+02  0.51100000000E-03 0.  1.
<mgrwt>
<rscale>  0 0.20006146E+02</rscale>
<asrwt>0</asrwt>
<pdfrwt beam="2">  1        1 0.48629848E-02 0.20006146E+02</pdfrwt>
<pdfrwt beam="1">  1       -1 0.48700931E-03 0.20006146E+02</pdfrwt>
<totfact> 0.40538614E+06</totfact>
</mgrwt>
</event>
<event>
 5    1  0.9941600E-007  0.2000153E+02  0.7818608E-02  0.1745298E+00
         -1   -1    0    0    0  501 -0.00000000000E+00  0.00000000000E+00  0.23213508040E+01  0.23213555015E+01  0.46700000000E-02 0.  1.
          1   -1    0    0  501    0  0.00000000000E+00 -0.00000000000E+00 -0.43084911813E+02  0.43084912066E+02  0.46700000000E-02 0. -1.
       1023    2    1    2    0    0  0.00000000000E+00  0.00000000000E+00 -0.40763561009E+02  0.45406267567E+02  0.20001530649E+02 0.  0.
        -11    1    3    3    0    0  0.60834590064E+01 -0.79374598506E+01 -0.20246246354E+02  0.22581457748E+02  0.51100000000E-03 0.  1.
         11    1    3    3    0    0 -0.60834590064E+01  0.79374598506E+01 -0.20517314655E+02  0.22824809819E+02  0.51100000000E-03 0. -1.
<mgrwt>
<rscale>  0 0.20001531E+02</rscale>
<asrwt>0</asrwt>
<pdfrwt beam="2">  1        1 0.66284478E-02 0.20001531E+02</pdfrwt>
<pdfrwt beam="1">  1       -1 0.35713130E-03 0.20001531E+02</pdfrwt>
<totfact> 0.41294042E+06</totfact>
</mgrwt>
</event>
<event>
 5    1  0.9583198E-007  0.2000044E+02  0.7818608E-02  0.1745319E+00
          1   -1    0    0  501    0  0.00000000000E+00  0.00000000000E+00  0.36501110829E+02  0.36501111128E+02  0.46700000000E-02 0. -1.
         -1   -1    0    0    0  501 -0.00000000000E+00 -0.00000000000E+00 -0.27397607746E+01  0.27397647547E+01  0.46700000000E-02 0.  1.
       1023    2    1    2    0    0  0.00000000000E+00  0.00000000000E+00  0.33761350054E+02  0.39240875882E+02  0.20000439558E+02 0.  0.
        -11    1    3    3    0    0 -0.95497933312E+01  0.29674460607E+01  0.16860419946E+02  0.19603011243E+02  0.51100000000E-03 0.  1.
         11    1    3    3    0    0  0.95497933312E+01 -0.29674460607E+01  0.16900930109E+02  0.19637864639E+02  0.51100000000E-03 0. -1.
<mgrwt>
<rscale>  0 0.20000440E+02</rscale>
<asrwt>0</asrwt>
<pdfrwt beam="1">  1        1 0.56155553E-02 0.20000440E+02</pdfrwt>
<pdfrwt beam="2">  1       -1 0.42150203E-03 0.20000440E+02</pdfrwt>
<totfact> 0.40886556E+06</totfact>
</mgrwt>
</event>
<event>
 5    1  0.1006371E-006  0.2000111E+02  0.7818608E-02  0.1745306E+00
         -1   -1    0    0    0  501 -0.00000000000E+00  0.00000000000E+00  0.20620976019E+01  0.20621028899E+01  0.46700000000E-02 0. -1.
          1   -1    0    0  501    0  0.00000000000E+00 -0.00000000000E+00 -0.48499622808E+02  0.48499623033E+02  0.46700000000E-02 0.  1.
       1023    2    1    2    0    0  0.00000000000E+00  0.00000000000E+00 -0.46437525206E+02  0.50561725923E+02  0.20001109495E+02 0.  0.
        -11    1    3    3    0    0  0.18737938420E+01  0.98233922394E+01 -0.23296946949E+02  0.25352669995E+02  0.51100000000E-03 0. -1.
         11    1    3    3    0    0 -0.18737938420E+01 -0.98233922394E+01 -0.23140578257E+02  0.25209055928E+02  0.51100000000E-03 0.  1.
<mgrwt>
<rscale>  0 0.20001109E+02</rscale>
<asrwt>0</asrwt>
<pdfrwt beam="2">  1        1 0.74614800E-02 0.20001109E+02</pdfrwt>
<pdfrwt beam="1">  1       -1 0.31724625E-03 0.20001109E+02</pdfrwt>
<totfact> 0.41621366E+06</totfact>
</mgrwt>
</event>
<event>
 5    1  0.9907313E-007  0.2000114E+02  0.7818608E-02  0.1745305E+00
         -1   -1    0    0    0  501 -0.00000000000E+00  0.00000000000E+00  0.17617913692E+01  0.17617975586E+01  0.46700000000E-02 0. -1.
          1   -1    0    0  501    0  0.00000000000E+00 -0.00000000000E+00 -0.56766759535E+02  0.56766759727E+02  0.46700000000E-02 0.  1.
       1023    2    1    2    0    0  0.00000000000E+00  0.00000000000E+00 -0.55004968165E+02  0.58528557285E+02  0.20001137343E+02 0.  0.
        -11    1    3    3    0    0  0.43520258732E+01  0.90033593139E+01 -0.27806101953E+02  0.29549617835E+02  0.51100000000E-03 0.  1.
         11    1    3    3    0    0 -0.43520258732E+01 -0.90033593139E+01 -0.27198866212E+02  0.28978939450E+02  0.51100000000E-03 0. -1.
<mgrwt>
<rscale>  0 0.20001137E+02</rscale>
<asrwt>0</asrwt>
<pdfrwt beam="2">  1        1 0.87333467E-02 0.20001137E+02</pdfrwt>
<pdfrwt beam="1">  1       -1 0.27104536E-03 0.20001137E+02</pdfrwt>
<totfact> 0.42099331E+06</totfact>
</mgrwt>
</event>
<event>
 5    1  0.9583198E-007  0.2000200E+02  0.7818608E-02  0.1745288E+00
         -1   -1    0    0    0  501 -0.00000000000E+00  0.00000000000E+00  0.83533254742E+02  0.83533254873E+02  0.46700000000E-02 0.  1.
          1   -1    0    0  501    0  0.00000000000E+00 -0.00000000000E+00 -0.11973623551E+01  0.11973714622E+01  0.46700000000E-02 0. -1.
       1023    2    1    2    0    0  0.00000000000E+00  0.00000000000E+00  0.82335892387E+02  0.84730626335E+02  0.20001996499E+02 0.  0.
        -11    1    3    3    0    0  0.95528250809E+01 -0.29579089001E+01  0.41674043867E+02  0.42857107049E+02  0.51100000000E-03 0.  1.
         11    1    3    3    0    0 -0.95528250809E+01  0.29579089001E+01  0.40661848520E+02  0.41873519286E+02  0.51100000000E-03 0. -1.
<mgrwt>
<rscale>  0 0.20001996E+02</rscale>
<asrwt>0</asrwt>
<pdfrwt beam="2">  1        1 0.18421029E-03 0.20001996E+02</pdfrwt>
<pdfrwt beam="1">  1       -1 0.12851272E-01 0.20001996E+02</pdfrwt>
<totfact> 0.32779387E+06</totfact>
</mgrwt>
</event>
<event>
 5    1  0.9583198E-007  0.2000328E+02  0.7818608E-02  0.1745263E+00
         -1   -1    0    0    0  501 -0.00000000000E+00  0.00000000000E+00  0.81517664129E+01  0.81517677506E+01  0.46700000000E-02 0.  1.
          1   -1    0    0  501    0  0.00000000000E+00 -0.00000000000E+00 -0.12271306095E+02  0.12271306984E+02  0.46700000000E-02 0. -1.
       1023    2    1    2    0    0  0.00000000000E+00  0.00000000000E+00 -0.41195396821E+01  0.20423074734E+02  0.20003284090E+02 0.  0.
        -11    1    3    3    0    0  0.63668268590E+01 -0.77126028860E+01 -0.21721516624E+01  0.10234205911E+02  0.51100000000E-03 0. -1.
         11    1    3    3    0    0 -0.63668268590E+01  0.77126028860E+01 -0.19473880197E+01  0.10188868823E+02  0.51100000000E-03 0.  1.
<mgrwt>
<rscale>  0 0.20003284E+02</rscale>
<asrwt>0</asrwt>
<pdfrwt beam="2">  1        1 0.18878934E-02 0.20003284E+02</pdfrwt>
<pdfrwt beam="1">  1       -1 0.12541181E-02 0.20003284E+02</pdfrwt>
<totfact> 0.38923056E+06</totfact>
</mgrwt>
</event>
<event>
 5    1  0.9583198E-007  0.2000236E+02  0.7818608E-02  0.1745281E+00
          1   -1    0    0  501    0  0.00000000000E+00  0.00000000000E+00  0.63878667415E+01  0.63878684485E+01  0.46700000000E-02 0. -1.
         -1   -1    0    0    0  501 -0.00000000000E+00 -0.00000000000E+00 -0.15658361876E+02  0.15658362572E+02  0.46700000000E-02 0.  1.
       1023    2    1    2    0    0  0.00000000000E+00  0.00000000000E+00 -0.92704951345E+01  0.22046231021E+02  0.20002355416E+02 0.  0.
        -11    1    3    3    0    0  0.79834805747E+01 -0.60237940026E+01 -0.45925742978E+01  0.11005171294E+02  0.51100000000E-03 0. -1.
         11    1    3    3    0    0 -0.79834805747E+01  0.60237940026E+01 -0.46779208367E+01  0.11041059727E+02  0.51100000000E-03 0.  1.
<mgrwt>
<rscale>  0 0.20002355E+02</rscale>
<asrwt>0</asrwt>
<pdfrwt beam="1">  1        1 0.98274892E-03 0.20002355E+02</pdfrwt>
<pdfrwt beam="2">  1       -1 0.24089789E-02 0.20002355E+02</pdfrwt>
<totfact> 0.37873751E+06</totfact>
</mgrwt>
</event>
<event>
 5    1  0.9783029E-007  0.2000145E+02  0.7818608E-02  0.1745299E+00
         -1   -1    0    0    0  501 -0.00000000000E+00  0.00000000000E+00  0.21726703961E+02  0.21726704463E+02  0.46700000000E-02 0.  1.
          1   -1    0    0  501    0  0.00000000000E+00 -0.00000000000E+00 -0.46032969207E+01  0.46032992895E+01  0.46700000000E-02 0. -1.
       1023    2    1    2    0    0  0.00000000000E+00  0.00000000000E+00  0.17123407041E+02  0.26330003753E+02  0.20001450671E+02 0.  0.
        -11    1    3    3    0    0 -0.81997123894E+00  0.99665919024E+01  0.86879685707E+01  0.13247116861E+02  0.51100000000E-03 0. -1.
         11    1    3    3    0    0  0.81997123894E+00 -0.99665919024E+01  0.84354384701E+01  0.13082886892E+02  0.51100000000E-03 0.  1.
<mgrwt>
<rscale>  0 0.20001451E+02</rscale>
<asrwt>0</asrwt>
<pdfrwt beam="2">  1        1 0.70819977E-03 0.20001451E+02</pdfrwt>
<pdfrwt beam="1">  1       -1 0.33425700E-02 0.20001451E+02</pdfrwt>
<totfact> 0.37238369E+06</totfact>
</mgrwt>
</event>
<event>
 5    1  0.9583198E-007  0.2000586E+02  0.7818608E-02  0.1745212E+00
          1   -1    0    0  501    0  0.00000000000E+00  0.00000000000E+00  0.23134539718E+01  0.23134586853E+01  0.46700000000E-02 0.  1.
         -1   -1    0    0    0  501 -0.00000000000E+00 -0.00000000000E+00 -0.43250711003E+02  0.43250711255E+02  0.46700000000E-02 0. -1.
       1023    2    1    2    0    0  0.00000000000E+00  0.00000000000E+00 -0.40937257031E+02  0.45564169940E+02  0.20005863369E+02 0.  0.
        -11    1    3    3    0    0  0.86239827809E+01 -0.50644973408E+01 -0.20033924189E+02  0.22391523641E+02  0.51100000000E-03 0.  1.
         11    1    3    3    0    0 -0.86239827809E+01  0.50644973408E+01 -0.20903332843E+02  0.23172646299E+02  0.51100000000E-03 0. -1.
<mgrwt>
<rscale>  0 0.20005863E+02</rscale>
<asrwt>0</asrwt>
<pdfrwt beam="1">  1        1 0.35591641E-03 0.20005863E+02</pdfrwt>
<pdfrwt beam="2">  1       -1 0.66539553E-02 0.20005863E+02</pdfrwt>
<totfact> 0.35400277E+06</totfact>
</mgrwt>
</event>
<event>
 5    1  0.1177520E-006  0.2000088E+02  0.7818608E-02  0.1745311E+00
         -1   -1    0    0    0  501 -0.00000000000E+00  0.00000000000E+00  0.12162069936E+02  0.12162070833E+02  0.46700000000E-02 0.  1.
          1   -1    0    0  501    0  0.00000000000E+00 -0.00000000000E+00 -0.82230093912E+01  0.82230107173E+01  0.46700000000E-02 0. -1.
       1023    2    1    2    0    0  0.00000000000E+00  0.00000000000E+00  0.39390605449E+01  0.20385081550E+02  0.20000883776E+02 0.  0.
        -11    1    3    3    0    0 -0.99930572584E+01  0.37656788239E+00  0.18916360670E+01  0.10177489082E+02  0.51100000000E-03 0. -1.
         11    1    3    3    0    0  0.99930572584E+01 -0.37656788239E+00  0.20474244779E+01  0.10207592468E+02  0.51100000000E-03 0.  1.
<mgrwt>
<rscale>  0 0.20000884E+02</rscale>
<asrwt>0</asrwt>
<pdfrwt beam="2">  1        1 0.12650785E-02 0.20000884E+02</pdfrwt>
<pdfrwt beam="1">  1       -1 0.18710879E-02 0.20000884E+02</pdfrwt>
<totfact> 0.38310320E+06</totfact>
</mgrwt>
</event>
<event>
 5    1  0.9583198E-007  0.2000262E+02  0.7818608E-02  0.1745276E+00
          1   -1    0    0  501    0  0.00000000000E+00  0.00000000000E+00  0.10997011765E+02  0.10997012757E+02  0.46700000000E-02 0. -1.
         -1   -1    0    0    0  501 -0.00000000000E+00 -0.00000000000E+00 -0.90957636277E+01  0.90957648265E+01  0.46700000000E-02 0.  1.
       1023    2    1    2    0    0  0.00000000000E+00  0.00000000000E+00  0.19012481376E+01  0.20092777583E+02  0.20002623991E+02 0.  0.
        -11    1    3    3    0    0 -0.99643740457E+01  0.84859602861E+00  0.81821178254E+00  0.10033859483E+02  0.51100000000E-03 0. -1.
         11    1    3    3    0    0  0.99643740457E+01 -0.84859602861E+00  0.10830363551E+01  0.10058918100E+02  0.51100000000E-03 0.  1.
<mgrwt>
<rscale>  0 0.20002624E+02</rscale>
<asrwt>0</asrwt>
<pdfrwt beam="1">  1        1 0.16918481E-02 0.20002624E+02</pdfrwt>
<pdfrwt beam="2">  1       -1 0.13993484E-02 0.20002624E+02</pdfrwt>
<totfact> 0.38758781E+06</totfact>
</mgrwt>
</event>
<event>
 5    1  0.9583198E-007  0.2000064E+02  0.7818608E-02  0.1745315E+00
          1   -1    0    0  501    0  0.00000000000E+00  0.00000000000E+00  0.51846842447E+01  0.51846863479E+01  0.46700000000E-02 0.  1.
         -1   -1    0    0    0  501 -0.00000000000E+00 -0.00000000000E+00 -0.19288812191E+02  0.19288812757E+02  0.46700000000E-02 0. -1.
       1023    2    1    2    0    0  0.00000000000E+00  0.00000000000E+00 -0.14104127947E+02  0.24473499105E+02  0.20000643322E+02 0.  0.
        -11    1    3    3    0    0  0.23737210163E+00 -0.99973957603E+01 -0.69951214031E+01  0.12203933432E+02  0.51100000000E-03 0. -1.
         11    1    3    3    0    0 -0.23737210163E+00  0.99973957603E+01 -0.71090065437E+01  0.12269565673E+02  0.51100000000E-03 0.  1.
<mgrwt>
<rscale>  0 0.20000643E+02</rscale>
<asrwt>0</asrwt>
<pdfrwt beam="1">  1        1 0.79764395E-03 0.20000643E+02</pdfrwt>
<pdfrwt beam="2">  1       -1 0.29675097E-02 0.20000643E+02</pdfrwt>
<totfact> 0.37487124E+06</totfact>
</mgrwt>
</event>
<event>
 4    1  0.9583198E-007  0.2003613E+02  0.7818608E-02  0.1744611E+00
          1   -1    0    0  501    0  0.00000000000E+00  0.00000000000E+00  0.45168491399E+01  0.45168515541E+01  0.46700000000E-02 0. -1.
         -1   -1    0    0    0  501 -0.00000000000E+00 -0.00000000000E+00 -0.22219374368E+02  0.22219374859E+02  0.46700000000E-02 0.  1.
        -11    1    1    2    0    0 -0.18544320882E+00  0.10012107047E+02 -0.92401297175E+01  0.13625588947E+02  0.51100000000E-03 0.  1.
         11    1    1    2    0    0  0.18544320882E+00 -0.10012107047E+02 -0.84623955106E+01  0.13110637465E+02  0.51100000000E-03 0. -1.
<mgrwt>
<rscale>  0 0.20036127E+02</rscale>
<asrwt>0</asrwt>
<pdfrwt beam="1">  1        1 0.69490010E-03 0.20036127E+02</pdfrwt>
<pdfrwt beam="2">  1       -1 0.34183655E-02 0.20036127E+02</pdfrwt>
<totfact> 0.37048916E+06</totfact>
</mgrwt>
</event>
<event>
 5    1  0.9974897E-007  0.2000095E+02  0.7818608E-02  0.1745309E+00
         -1   -1    0    0    0  501 -0.00000000000E+00  0.00000000000E+00  0.53746698480E+01  0.53746718769E+01  0.46700000000E-02 0.  1.
          1   -1    0    0  501    0  0.00000000000E+00 -0.00000000000E+00 -0.18607556215E+02  0.18607556801E+02  0.46700000000E-02 0. -1.
       1023    2    1    2    0    0  0.00000000000E+00  0.00000000000E+00 -0.13232886367E+02  0.23982228678E+02  0.20000950247E+02 0.  0.
        -11    1    3    3    0    0 -0.96306104169E+01 -0.26938824935E+01 -0.65421159234E+01  0.11950102130E+02  0.51100000000E-03 0.  1.
         11    1    3    3    0    0  0.96306104169E+01  0.26938824935E+01 -0.66907704438E+01  0.12032126549E+02  0.51100000000E-03 0. -1.
<mgrwt>
<rscale>  0 0.20000950E+02</rscale>
<asrwt>0</asrwt>
<pdfrwt beam="2">  1        1 0.28627011E-02 0.20000950E+02</pdfrwt>
<pdfrwt beam="1">  1       -1 0.82687249E-03 0.20000950E+02</pdfrwt>
<totfact> 0.39582256E+06</totfact>
</mgrwt>
</event>
<event>
 5    1  0.9612629E-007  0.2000121E+02  0.7818608E-02  0.1745304E+00
         -1   -1    0    0    0  501 -0.00000000000E+00  0.00000000000E+00  0.54423920141E+01  0.54423940177E+01  0.46700000000E-02 0.  1.
          1   -1    0    0  501    0  0.00000000000E+00 -0.00000000000E+00 -0.18376498736E+02  0.18376499330E+02  0.46700000000E-02 0. -1.
       1023    2    1    2    0    0  0.00000000000E+00  0.00000000000E+00 -0.12934106722E+02  0.23818893347E+02  0.20001214053E+02 0.  0.
        -11    1    3    3    0    0  0.89070452602E+01  0.45471037608E+01 -0.64395661345E+01  0.11894520593E+02  0.51100000000E-03 0.  1.
         11    1    3    3    0    0 -0.89070452602E+01 -0.45471037608E+01 -0.64945405878E+01  0.11924372754E+02  0.51100000000E-03 0. -1.
<mgrwt>
<rscale>  0 0.20001214E+02</rscale>
<asrwt>0</asrwt>
<pdfrwt beam="2">  1        1 0.28271538E-02 0.20001214E+02</pdfrwt>
<pdfrwt beam="1">  1       -1 0.83729129E-03 0.20001214E+02</pdfrwt>
<totfact> 0.39560690E+06</totfact>
</mgrwt>
</event>
<event>
 5    1  0.9583198E-007  0.2000340E+02  0.7818608E-02  0.1745260E+00
         -1   -1    0    0    0  501 -0.00000000000E+00  0.00000000000E+00  0.16864663072E+01  0.16864727731E+01  0.46700000000E-02 0.  1.
          1   -1    0    0  501    0  0.00000000000E+00 -0.00000000000E+00 -0.59315623317E+02  0.59315623501E+02  0.46700000000E-02 0. -1.
       1023    2    1    2    0    0  0.00000000000E+00  0.00000000000E+00 -0.57629157010E+02  0.61002096274E+02  0.20003400015E+02 0.  0.
        -11    1    3    3    0    0 -0.10628801393E+01 -0.99449493869E+01 -0.28669273537E+02  0.30363777398E+02  0.51100000000E-03 0. -1.
         11    1    3    3    0    0  0.10628801393E+01  0.99449493869E+01 -0.28959883473E+02  0.30638318876E+02  0.51100000000E-03 0.  1.
<mgrwt>
<rscale>  0 0.20003400E+02</rscale>
<asrwt>0</asrwt>
<pdfrwt beam="2">  1        1 0.91254794E-02 0.20003400E+02</pdfrwt>
<pdfrwt beam="1">  1       -1 0.25945691E-03 0.20003400E+02</pdfrwt>
<totfact> 0.42232376E+06</totfact>
</mgrwt>
</event>
<event>
 5    1  0.9583198E-007  0.2000322E+02  0.7818608E-02  0.1745264E+00
         -1   -1    0    0    0  501 -0.00000000000E+00  0.00000000000E+00  0.60986953903E+02  0.60986954081E+02  0.46700000000E-02 0. -1.
          1   -1    0    0  501    0  0.00000000000E+00 -0.00000000000E+00 -0.16402194638E+01  0.16402261119E+01  0.46700000000E-02 0.  1.
       1023    2    1    2    0    0  0.00000000000E+00  0.00000000000E+00  0.59346734439E+02  0.62627180193E+02  0.20003220001E+02 0.  0.
        -11    1    3    3    0    0 -0.61003908534E+01  0.79249296004E+01  0.30029302967E+02  0.31650881736E+02  0.51100000000E-03 0. -1.
         11    1    3    3    0    0  0.61003908534E+01 -0.79249296004E+01  0.29317431472E+02  0.30976298457E+02  0.51100000000E-03 0.  1.
<mgrwt>
<rscale>  0 0.20003220E+02</rscale>
<asrwt>0</asrwt>
<pdfrwt beam="2">  1        1 0.25234202E-03 0.20003220E+02</pdfrwt>
<pdfrwt beam="1">  1       -1 0.93826074E-02 0.20003220E+02</pdfrwt>
<totfact> 0.34165868E+06</totfact>
</mgrwt>
</event>
<event>
 4    1  0.9583198E-007  0.2008405E+02  0.7818608E-02  0.1743662E+00
          1   -1    0    0  501    0  0.00000000000E+00  0.00000000000E+00  0.10292486301E+02  0.10292487361E+02  0.46700000000E-02 0.  1.
         -1   -1    0    0    0  501 -0.00000000000E+00 -0.00000000000E+00 -0.97976524762E+01  0.97976535892E+01  0.46700000000E-02 0. -1.
        -11    1    1    2    0    0  0.96237913136E+01  0.28516255509E+01 -0.57795212981E-01  0.10037552893E+02  0.51100000000E-03 0. -1.
         11    1    1    2    0    0 -0.96237913136E+01 -0.28516255509E+01  0.55262903811E+00  0.10052588057E+02  0.51100000000E-03 0.  1.
<mgrwt>
<rscale>  0 0.20084046E+02</rscale>
<asrwt>0</asrwt>
<pdfrwt beam="1">  1        1 0.15834596E-02 0.20084046E+02</pdfrwt>
<pdfrwt beam="2">  1       -1 0.15073313E-02 0.20084046E+02</pdfrwt>
<totfact> 0.38302939E+06</totfact>
</mgrwt>
</event>
<event>
 5    1  0.9583198E-007  0.2000070E+02  0.7818608E-02  0.1745314E+00
         -1   -1    0    0    0  501 -0.00000000000E+00  0.00000000000E+00  0.13269671319E+02  0.13269672141E+02  0.46700000000E-02 0.  1.
          1   -1    0    0  501    0  0.00000000000E+00 -0.00000000000E+00 -0.75365088096E+01  0.75365102565E+01  0.46700000000E-02 0. -1.
       1023    2    1    2    0    0  0.00000000000E+00  0.00000000000E+00  0.57331625092E+01  0.20806182397E+02  0.20000701827E+02 0.  0.
        -11    1    3    3    0    0 -0.25661851004E+01 -0.96654895244E+01  0.28614407328E+01  0.10401674723E+02  0.51100000000E-03 0. -1.
         11    1    3    3    0    0  0.25661851004E+01  0.96654895244E+01  0.28717217763E+01  0.10404507674E+02  0.51100000000E-03 0.  1.
<mgrwt>
<rscale>  0 0.20000702E+02</rscale>
<asrwt>0</asrwt>
<pdfrwt beam="2">  1        1 0.11594631E-02 0.20000702E+02</pdfrwt>
<pdfrwt beam="1">  1       -1 0.20414880E-02 0.20000702E+02</pdfrwt>
<totfact> 0.38167356E+06</totfact>
</mgrwt>
</event>
<event>
 5    1  0.9583198E-007  0.2000030E+02  0.7818608E-02  0.1745322E+00
          1   -1    0    0  501    0  0.00000000000E+00  0.00000000000E+00  0.29898352663E+02  0.29898353028E+02  0.46700000000E-02 0.  1.
         -1   -1    0    0    0  501 -0.00000000000E+00 -0.00000000000E+00 -0.33447655032E+01  0.33447687633E+01  0.46700000000E-02 0. -1.
       1023    2    1    2    0    0  0.00000000000E+00  0.00000000000E+00  0.26553587160E+02  0.33243121791E+02  0.20000303882E+02 0.  0.
        -11    1    3    3    0    0  0.39026819097E+01  0.92070440462E+01  0.13359105511E+02  0.16687309144E+02  0.51100000000E-03 0. -1.
         11    1    3    3    0    0 -0.39026819097E+01 -0.92070440462E+01  0.13194481649E+02  0.16555812647E+02  0.51100000000E-03 0.  1.
<mgrwt>
<rscale>  0 0.20000304E+02</rscale>
<asrwt>0</asrwt>
<pdfrwt beam="1">  1        1 0.45997469E-02 0.20000304E+02</pdfrwt>
<pdfrwt beam="2">  1       -1 0.51457958E-03 0.20000304E+02</pdfrwt>
<totfact> 0.40448308E+06</totfact>
</mgrwt>
</event>
<event>
 5    1  0.9583198E-007  0.2000133E+02  0.7818608E-02  0.1745302E+00
          1   -1    0    0  501    0  0.00000000000E+00  0.00000000000E+00  0.34274269556E+01  0.34274301372E+01  0.46700000000E-02 0. -1.
         -1   -1    0    0    0  501 -0.00000000000E+00 -0.00000000000E+00 -0.29180279500E+02  0.29180279873E+02  0.46700000000E-02 0.  1.
       1023    2    1    2    0    0  0.00000000000E+00  0.00000000000E+00 -0.25752852544E+02  0.32607710010E+02  0.20001333405E+02 0.  0.
        -11    1    3    3    0    0  0.96970776872E+01 -0.24448043249E+01 -0.12787873951E+02  0.16233918329E+02  0.51100000000E-03 0. -1.
         11    1    3    3    0    0 -0.96970776872E+01  0.24448043249E+01 -0.12964978593E+02  0.16373791681E+02  0.51100000000E-03 0.  1.
<mgrwt>
<rscale>  0 0.20001333E+02</rscale>
<asrwt>0</asrwt>
<pdfrwt beam="1">  1        1 0.52729675E-03 0.20001333E+02</pdfrwt>
<pdfrwt beam="2">  1       -1 0.44892739E-02 0.20001333E+02</pdfrwt>
<totfact> 0.36552285E+06</totfact>
</mgrwt>
</event>
<event>
 5    1  0.9583198E-007  0.2000108E+02  0.7818608E-02  0.1745307E+00
         -1   -1    0    0    0  501 -0.00000000000E+00  0.00000000000E+00  0.19356923688E+02  0.19356924251E+02  0.46700000000E-02 0. -1.
          1   -1    0    0  501    0  0.00000000000E+00 -0.00000000000E+00 -0.51666642322E+01  0.51666663428E+01  0.46700000000E-02 0.  1.
       1023    2    1    2    0    0  0.00000000000E+00  0.00000000000E+00  0.14190259456E+02  0.24523590594E+02  0.20001075776E+02 0.  0.
        -11    1    3    3    0    0 -0.42308554929E+01  0.90614687855E+01  0.70705145462E+01  0.12247552040E+02  0.51100000000E-03 0. -1.
         11    1    3    3    0    0  0.42308554929E+01 -0.90614687855E+01  0.71197449093E+01  0.12276038554E+02  0.51100000000E-03 0.  1.
<mgrwt>
<rscale>  0 0.20001076E+02</rscale>
<asrwt>0</asrwt>
<pdfrwt beam="2">  1        1 0.79487164E-03 0.20001076E+02</pdfrwt>
<pdfrwt beam="1">  1       -1 0.29779884E-02 0.20001076E+02</pdfrwt>
<totfact> 0.37478302E+06</totfact>
</mgrwt>
</event>
<event>
 5    1  0.9774544E-007  0.2000090E+02  0.7818608E-02  0.1745310E+00
          1   -1    0    0  501    0  0.00000000000E+00  0.00000000000E+00  0.35439393192E+02  0.35439393500E+02  0.46700000000E-02 0.  1.
         -1   -1    0    0    0  501 -0.00000000000E+00 -0.00000000000E+00 -0.28219702422E+01  0.28219741064E+01  0.46700000000E-02 0. -1.
       1023    2    1    2    0    0  0.00000000000E+00  0.00000000000E+00  0.32617422950E+02  0.38261367606E+02  0.20000899260E+02 0.  0.
        -11    1    3    3    0    0  0.39676284579E+01  0.91797013534E+01  0.16308422501E+02  0.19130437456E+02  0.51100000000E-03 0.  1.
         11    1    3    3    0    0 -0.39676284579E+01 -0.91797013534E+01  0.16309000449E+02  0.19130930150E+02  0.51100000000E-03 0. -1.
<mgrwt>
<rscale>  0 0.20000899E+02</rscale>
<asrwt>0</asrwt>
<pdfrwt beam="1">  1        1 0.54522146E-02 0.20000899E+02</pdfrwt>
<pdfrwt beam="2">  1       -1 0.43414959E-03 0.20000899E+02</pdfrwt>
<totfact> 0.40815831E+06</totfact>
</mgrwt>
</event>
<event>
 4    1  0.9583198E-007  0.2001694E+02  0.7818608E-02  0.1744992E+00
         -1   -1    0    0    0  501 -0.00000000000E+00  0.00000000000E+00  0.29107397175E+01  0.29107434637E+01  0.46700000000E-02 0.  1.
          1   -1    0    0  501    0  0.00000000000E+00 -0.00000000000E+00 -0.34413710288E+02  0.34413710605E+02  0.46700000000E-02 0. -1.
        -11    1    1    2    0    0  0.75258225366E+01  0.65938075809E+01 -0.15321703467E+02  0.18299478152E+02  0.51100000000E-03 0.  1.
         11    1    1    2    0    0 -0.75258225366E+01 -0.65938075809E+01 -0.16181267104E+02  0.19024975916E+02  0.51100000000E-03 0. -1.
<mgrwt>
<rscale>  0 0.20016936E+02</rscale>
<asrwt>0</asrwt>
<pdfrwt beam="2">  1        1 0.52944170E-02 0.20016936E+02</pdfrwt>
<pdfrwt beam="1">  1       -1 0.44780645E-03 0.20016936E+02</pdfrwt>
<totfact> 0.40676100E+06</totfact>
</mgrwt>
</event>
<event>
 5    1  0.9676281E-007  0.2000075E+02  0.7818608E-02  0.1745313E+00
          1   -1    0    0  501    0  0.00000000000E+00  0.00000000000E+00  0.14936605836E+02  0.14936606566E+02  0.46700000000E-02 0. -1.
         -1   -1    0    0    0  501 -0.00000000000E+00 -0.00000000000E+00 -0.66954605825E+01  0.66954622111E+01  0.46700000000E-02 0.  1.
       1023    2    1    2    0    0  0.00000000000E+00  0.00000000000E+00  0.82411452539E+01  0.21632068778E+02  0.20000748099E+02 0.  0.
        -11    1    3    3    0    0  0.96918479876E+01 -0.24633749698E+01  0.42132797218E+01  0.10851352908E+02  0.51100000000E-03 0.  1.
         11    1    3    3    0    0 -0.96918479876E+01  0.24633749698E+01  0.40278655321E+01  0.10780715870E+02  0.51100000000E-03 0. -1.
<mgrwt>
<rscale>  0 0.20000748E+02</rscale>
<asrwt>0</asrwt>
<pdfrwt beam="1">  1        1 0.22979395E-02 0.20000748E+02</pdfrwt>
<pdfrwt beam="2">  1       -1 0.10300711E-02 0.20000748E+02</pdfrwt>
<totfact> 0.39234801E+06</totfact>
</mgrwt>
</event>
<event>
 5    1  0.9583198E-007  0.2001064E+02  0.7818608E-02  0.1745117E+00
          1   -1    0    0  501    0  0.00000000000E+00  0.00000000000E+00  0.26088572096E+02  0.26088572514E+02  0.46700000000E-02 0.  1.
         -1   -1    0    0    0  501 -0.00000000000E+00 -0.00000000000E+00 -0.38371744494E+01  0.38371772912E+01  0.46700000000E-02 0. -1.
       1023    2    1    2    0    0  0.00000000000E+00  0.00000000000E+00  0.22251397647E+02  0.29925749805E+02  0.20010642273E+02 0.  0.
        -11    1    3    3    0    0 -0.47168371496E+01 -0.88216094307E+01  0.10837626827E+02  0.14748677946E+02  0.51100000000E-03 0.  1.
         11    1    3    3    0    0  0.47168371496E+01  0.88216094307E+01  0.11413770819E+02  0.15177071859E+02  0.51100000000E-03 0. -1.
<mgrwt>
<rscale>  0 0.20010642E+02</rscale>
<asrwt>0</asrwt>
<pdfrwt beam="1">  1        1 0.40136267E-02 0.20010642E+02</pdfrwt>
<pdfrwt beam="2">  1       -1 0.59033478E-03 0.20010642E+02</pdfrwt>
<totfact> 0.40131853E+06</totfact>
</mgrwt>
</event>
<event>
 5    1  0.9583198E-007  0.2001113E+02  0.7818608E-02  0.1745107E+00
         -1   -1    0    0    0  501 -0.00000000000E+00  0.00000000000E+00  0.27522038254E+01  0.27522077875E+01  0.46700000000E-02 0.  1.
          1   -1    0    0  501    0  0.00000000000E+00 -0.00000000000E+00 -0.36374922445E+02  0.36374922745E+02  0.46700000000E-02 0. -1.
       1023    2    1    2    0    0  0.00000000000E+00  0.00000000000E+00 -0.33622718620E+02  0.39127130532E+02  0.20011125314E+02 0.  0.
        -11    1    3    3    0    0  0.82371627609E+01 -0.56788596866E+01 -0.17016300299E+02  0.19739675119E+02  0.51100000000E-03 0. -1.
         11    1    3    3    0    0 -0.82371627609E+01  0.56788596866E+01 -0.16606418321E+02  0.19387455413E+02  0.51100000000E-03 0.  1.
<mgrwt>
<rscale>  0 0.20011125E+02</rscale>
<asrwt>0</asrwt>
<pdfrwt beam="2">  1        1 0.55961419E-02 0.20011125E+02</pdfrwt>
<pdfrwt beam="1">  1       -1 0.42341633E-03 0.20011125E+02</pdfrwt>
<totfact> 0.40829787E+06</totfact>
</mgrwt>
</event>
<event>
 5    1  0.9583198E-007  0.2000025E+02  0.7818608E-02  0.1745323E+00
          1   -1    0    0  501    0  0.00000000000E+00  0.00000000000E+00  0.47166052027E+01  0.47166075146E+01  0.46700000000E-02 0.  1.
         -1   -1    0    0    0  501 -0.00000000000E+00 -0.00000000000E+00 -0.21202220577E+02  0.21202221091E+02  0.46700000000E-02 0. -1.
       1023    2    1    2    0    0  0.00000000000E+00  0.00000000000E+00 -0.16485615374E+02  0.25918828606E+02  0.20000254049E+02 0.  0.
        -11    1    3    3    0    0 -0.73191843059E+01  0.68139993147E+01 -0.81927057540E+01  0.12927547076E+02  0.51100000000E-03 0. -1.
         11    1    3    3    0    0  0.73191843059E+01 -0.68139993147E+01 -0.82929096205E+01  0.12991281530E+02  0.51100000000E-03 0.  1.
<mgrwt>
<rscale>  0 0.20000254E+02</rscale>
<asrwt>0</asrwt>
<pdfrwt beam="1">  1        1 0.72563180E-03 0.20000254E+02</pdfrwt>
<pdfrwt beam="2">  1       -1 0.32618803E-02 0.20000254E+02</pdfrwt>
<totfact> 0.37294994E+06</totfact>
</mgrwt>
</event>
<event>
 5    1  0.9583198E-007  0.2000518E+02  0.7818608E-02  0.1745225E+00
          1   -1    0    0  501    0  0.00000000000E+00  0.00000000000E+00  0.35989688382E+01  0.35989718680E+01  0.46700000000E-02 0.  1.
         -1   -1    0    0    0  501 -0.00000000000E+00 -0.00000000000E+00 -0.27800118438E+02  0.27800118830E+02  0.46700000000E-02 0. -1.
       1023    2    1    2    0    0  0.00000000000E+00  0.00000000000E+00 -0.24201149600E+02  0.31399090698E+02  0.20005180697E+02 0.  0.
        -11    1    3    3    0    0  0.57795612053E+01 -0.81627221685E+01 -0.12313782124E+02  0.15863876934E+02  0.51100000000E-03 0.  1.
         11    1    3    3    0    0 -0.57795612053E+01  0.81627221685E+01 -0.11887367475E+02  0.15535213764E+02  0.51100000000E-03 0. -1.
<mgrwt>
<rscale>  0 0.20005181E+02</rscale>
<asrwt>0</asrwt>
<pdfrwt beam="1">  1        1 0.55368779E-03 0.20005181E+02</pdfrwt>
<pdfrwt beam="2">  1       -1 0.42769414E-02 0.20005181E+02</pdfrwt>
<totfact> 0.36658306E+06</totfact>
</mgrwt>
</event>
<event>
 5    1  0.9583198E-007  0.2000059E+02  0.7818608E-02  0.1745316E+00
         -1   -1    0    0    0  501 -0.00000000000E+00  0.00000000000E+00  0.97787305177E+01  0.97787316329E+01  0.46700000000E-02 0.  1.
          1   -1    0    0  501    0  0.00000000000E+00 -0.00000000000E+00 -0.10226878253E+02  0.10226879319E+02  0.46700000000E-02 0. -1.
       1023    2    1    2    0    0  0.00000000000E+00  0.00000000000E+00 -0.44814773521E+00  0.20005610952E+02  0.20000590821E+02 0.  0.
        -11    1    3    3    0    0 -0.99724504369E+01  0.74312047155E+00 -0.16150993636E+00  0.10001403975E+02  0.51100000000E-03 0.  1.
         11    1    3    3    0    0  0.99724504369E+01 -0.74312047155E+00 -0.28663779885E+00  0.10004206977E+02  0.51100000000E-03 0. -1.
<mgrwt>
<rscale>  0 0.20000591E+02</rscale>
<asrwt>0</asrwt>
<pdfrwt beam="2">  1        1 0.15733661E-02 0.20000591E+02</pdfrwt>
<pdfrwt beam="1">  1       -1 0.15044202E-02 0.20000591E+02</pdfrwt>
<totfact> 0.38656079E+06</totfact>
</mgrwt>
</event>
<event>
 5    1  0.9583198E-007  0.2000023E+02  0.7818608E-02  0.1745323E+00
         -1   -1    0    0    0  501 -0.00000000000E+00  0.00000000000E+00  0.61459696538E+02  0.61459696715E+02  0.46700000000E-02 0.  1.
          1   -1    0    0  501    0  0.00000000000E+00 -0.00000000000E+00 -0.16271167926E+01  0.16271234943E+01  0.46700000000E-02 0. -1.
       1023    2    1    2    0    0  0.00000000000E+00  0.00000000000E+00  0.59832579745E+02  0.63086820210E+02  0.20000232128E+02 0.  0.
        -11    1    3    3    0    0  0.95457207739E+01 -0.29800315372E+01  0.30013408494E+02  0.31635519006E+02  0.51100000000E-03 0.  1.
         11    1    3    3    0    0 -0.95457207739E+01  0.29800315372E+01  0.29819171251E+02  0.31451301204E+02  0.51100000000E-03 0. -1.
<mgrwt>
<rscale>  0 0.20000232E+02</rscale>
<asrwt>0</asrwt>
<pdfrwt beam="2">  1        1 0.25032619E-03 0.20000232E+02</pdfrwt>
<pdfrwt beam="1">  1       -1 0.94553385E-02 0.20000232E+02</pdfrwt>
<totfact> 0.34145977E+06</totfact>
</mgrwt>
</event>
<event>
 5    1  0.9583198E-007  0.2000094E+02  0.7818608E-02  0.1745309E+00
          1   -1    0    0  501    0  0.00000000000E+00  0.00000000000E+00  0.11486870381E+03  0.11486870390E+03  0.46700000000E-02 0. -1.
         -1   -1    0    0    0  501 -0.00000000000E+00 -0.00000000000E+00 -0.87063433710E+00  0.87064686173E+00  0.46700000000E-02 0.  1.
       1023    2    1    2    0    0  0.00000000000E+00  0.00000000000E+00  0.11399806947E+03  0.11573935076E+03  0.20000936786E+02 0.  0.
        -11    1    3    3    0    0  0.15814815418E+01  0.98746176529E+01  0.56915144958E+02  0.57787047715E+02  0.51100000000E-03 0. -1.
         11    1    3    3    0    0 -0.15814815418E+01 -0.98746176529E+01  0.57082924511E+02  0.57952303049E+02  0.51100000000E-03 0.  1.
<mgrwt>
<rscale>  0 0.20000937E+02</rscale>
<asrwt>0</asrwt>
<pdfrwt beam="1">  1        1 0.17672117E-01 0.20000937E+02</pdfrwt>
<pdfrwt beam="2">  1       -1 0.13394466E-03 0.20000937E+02</pdfrwt>
<totfact> 0.45059908E+06</totfact>
</mgrwt>
</event>
<event>
 5    1  0.9583198E-007  0.2000009E+02  0.7818608E-02  0.1745326E+00
          1   -1    0    0  501    0  0.00000000000E+00  0.00000000000E+00  0.15539353492E+01  0.15539423665E+01  0.46700000000E-02 0. -1.
         -1   -1    0    0    0  501 -0.00000000000E+00 -0.00000000000E+00 -0.64353176265E+02  0.64353176434E+02  0.46700000000E-02 0.  1.
       1023    2    1    2    0    0  0.00000000000E+00  0.00000000000E+00 -0.62799240915E+02  0.65907118800E+02  0.20000091226E+02 0.  0.
        -11    1    3    3    0    0 -0.99825320744E+01 -0.59154092454E+00 -0.31421657018E+02  0.32974556818E+02  0.51100000000E-03 0. -1.
         11    1    3    3    0    0  0.99825320744E+01  0.59154092454E+00 -0.31377583897E+02  0.32932561983E+02  0.51100000000E-03 0.  1.
<mgrwt>
<rscale>  0 0.20000091E+02</rscale>
<asrwt>0</asrwt>
<pdfrwt beam="1">  1        1 0.23906758E-03 0.20000091E+02</pdfrwt>
<pdfrwt beam="2">  1       -1 0.99004871E-02 0.20000091E+02</pdfrwt>
<totfact> 0.33958169E+06</totfact>
</mgrwt>
</event>
<event>
 5    1  0.9583198E-007  0.2000614E+02  0.7818608E-02  0.1745206E+00
          1   -1    0    0  501    0  0.00000000000E+00  0.00000000000E+00  0.34496501632E+02  0.34496501948E+02  0.46700000000E-02 0.  1.
         -1   -1    0    0    0  501 -0.00000000000E+00 -0.00000000000E+00 -0.29006218778E+01  0.29006256371E+01  0.46700000000E-02 0. -1.
       1023    2    1    2    0    0  0.00000000000E+00  0.00000000000E+00  0.31595879754E+02  0.37397127585E+02  0.20006137413E+02 0.  0.
        -11    1    3    3    0    0 -0.71177611724E+01 -0.70279814331E+01  0.15649145064E+02  0.18572850848E+02  0.51100000000E-03 0. -1.
         11    1    3    3    0    0  0.71177611724E+01  0.70279814331E+01  0.15946734690E+02  0.18824276737E+02  0.51100000000E-03 0.  1.
<mgrwt>
<rscale>  0 0.20006137E+02</rscale>
<asrwt>0</asrwt>
<pdfrwt beam="1">  1        1 0.53071544E-02 0.20006137E+02</pdfrwt>
<pdfrwt beam="2">  1       -1 0.44624983E-03 0.20006137E+02</pdfrwt>
<totfact> 0.40730514E+06</totfact>
</mgrwt>
</event>
<event>
 5    1  0.9583198E-007  0.2000009E+02  0.7818608E-02  0.1745326E+00
          1   -1    0    0  501    0  0.00000000000E+00  0.00000000000E+00  0.28718664570E+01  0.28718702540E+01  0.46700000000E-02 0. -1.
         -1   -1    0    0    0  501 -0.00000000000E+00 -0.00000000000E+00 -0.34820854100E+02  0.34820854413E+02  0.46700000000E-02 0.  1.
       1023    2    1    2    0    0  0.00000000000E+00  0.00000000000E+00 -0.31948987643E+02  0.37692724667E+02  0.20000092035E+02 0.  0.
        -11    1    3    3    0    0 -0.98908515523E+01  0.14737419117E+01 -0.15959841876E+02  0.18833943098E+02  0.51100000000E-03 0.  1.
         11    1    3    3    0    0  0.98908515523E+01 -0.14737419117E+01 -0.15989145767E+02  0.18858781569E+02  0.51100000000E-03 0. -1.
<mgrwt>
<rscale>  0 0.20000092E+02</rscale>
<asrwt>0</asrwt>
<pdfrwt beam="1">  1        1 0.44182595E-03 0.20000092E+02</pdfrwt>
<pdfrwt beam="2">  1       -1 0.53570545E-02 0.20000092E+02</pdfrwt>
<totfact> 0.36081919E+06</totfact>
</mgrwt>
</event>
<event>
 4    1  0.9583198E-007  0.2001291E+02  0.7818608E-02  0.1745071E+00
          1   -1    0    0  501    0  0.00000000000E+00  0.00000000000E+00  0.48072234878E+01  0.48072257561E+01  0.46700000000E-02 0.  1.
         -1   -1    0    0    0  501 -0.00000000000E+00 -0.00000000000E+00 -0.20828887069E+02  0.20828887593E+02  0.46700000000E-02 0. -1.
        -11    1    1    2    0    0  0.73787853128E+01  0.67558760133E+01 -0.82696315661E+01  0.12979797375E+02  0.51100000000E-03 0.  1.
         11    1    1    2    0    0 -0.73787853128E+01 -0.67558760133E+01 -0.77520320155E+01  0.12656315974E+02  0.51100000000E-03 0. -1.
<mgrwt>
<rscale>  0 0.20012911E+02</rscale>
<asrwt>0</asrwt>
<pdfrwt beam="1">  1        1 0.73957307E-03 0.20012911E+02</pdfrwt>
<pdfrwt beam="2">  1       -1 0.32044443E-02 0.20012911E+02</pdfrwt>
<totfact> 0.37280286E+06</totfact>
</mgrwt>
</event>
<event>
 5    1  0.9583198E-007  0.2000010E+02  0.7818608E-02  0.1745326E+00
          1   -1    0    0  501    0  0.00000000000E+00  0.00000000000E+00  0.70380075347E+01  0.70380090841E+01  0.46700000000E-02 0. -1.
         -1   -1    0    0    0  501 -0.00000000000E+00 -0.00000000000E+00 -0.14208710301E+02  0.14208711069E+02  0.46700000000E-02 0.  1.
       1023    2    1    2    0    0  0.00000000000E+00  0.00000000000E+00 -0.71707027667E+01  0.21246720153E+02  0.20000103477E+02 0.  0.
        -11    1    3    3    0    0 -0.52197914431E+01  0.85296043820E+01 -0.36126615023E+01  0.10632577158E+02  0.51100000000E-03 0.  1.
         11    1    3    3    0    0  0.52197914431E+01 -0.85296043820E+01 -0.35580412644E+01  0.10614142995E+02  0.51100000000E-03 0. -1.
<mgrwt>
<rscale>  0 0.20000103E+02</rscale>
<asrwt>0</asrwt>
<pdfrwt beam="1">  1        1 0.10827706E-02 0.20000103E+02</pdfrwt>
<pdfrwt beam="2">  1       -1 0.21859556E-02 0.20000103E+02</pdfrwt>
<totfact> 0.38053731E+06</totfact>
</mgrwt>
</event>
<event>
 5    1  0.9583198E-007  0.2000031E+02  0.7818608E-02  0.1745322E+00
          1   -1    0    0  501    0  0.00000000000E+00  0.00000000000E+00  0.94952446902E+00  0.94953595307E+00  0.46700000000E-02 0.  1.
         -1   -1    0    0    0  501 -0.00000000000E+00 -0.00000000000E+00 -0.10531844213E+03  0.10531844223E+03  0.46700000000E-02 0. -1.
       1023    2    1    2    0    0  0.00000000000E+00  0.00000000000E+00 -0.10436891766E+03  0.10626797819E+03  0.20000305351E+02 0.  0.
        -11    1    3    3    0    0  0.93338249568E+01 -0.35892326590E+01 -0.52114397323E+02  0.53065179619E+02  0.51100000000E-03 0.  1.
         11    1    3    3    0    0 -0.93338249568E+01  0.35892326590E+01 -0.52254520339E+02  0.53202798568E+02  0.51100000000E-03 0. -1.
<mgrwt>
<rscale>  0 0.20000305E+02</rscale>
<asrwt>0</asrwt>
<pdfrwt beam="1">  1        1 0.14608166E-03 0.20000305E+02</pdfrwt>
<pdfrwt beam="2">  1       -1 0.16202829E-01 0.20000305E+02</pdfrwt>
<totfact> 0.31584276E+06</totfact>
</mgrwt>
</event>
<event>
 5    1  0.9583198E-007  0.2000042E+02  0.7818608E-02  0.1745320E+00
         -1   -1    0    0    0  501 -0.00000000000E+00  0.00000000000E+00  0.50151620358E+02  0.50151620575E+02  0.46700000000E-02 0.  1.
          1   -1    0    0  501    0  0.00000000000E+00 -0.00000000000E+00 -0.19940340840E+01  0.19940395526E+01  0.46700000000E-02 0. -1.
       1023    2    1    2    0    0  0.00000000000E+00  0.00000000000E+00  0.48157586273E+02  0.52145660127E+02  0.20000418857E+02 0.  0.
        -11    1    3    3    0    0  0.99227314609E+01  0.12414482895E+01  0.23951202693E+02  0.25954997673E+02  0.51100000000E-03 0. -1.
         11    1    3    3    0    0 -0.99227314609E+01 -0.12414482895E+01  0.24206383581E+02  0.26190662455E+02  0.51100000000E-03 0.  1.
<mgrwt>
<rscale>  0 0.20000419E+02</rscale>
<asrwt>0</asrwt>
<pdfrwt beam="2">  1        1 0.30677493E-03 0.20000419E+02</pdfrwt>
<pdfrwt beam="1">  1       -1 0.77156339E-02 0.20000419E+02</pdfrwt>
<totfact> 0.34917216E+06</totfact>
</mgrwt>
</event>
<event>
 5    1  0.9583198E-007  0.2000065E+02  0.7818608E-02  0.1745315E+00
         -1   -1    0    0    0  501 -0.00000000000E+00  0.00000000000E+00  0.35601363776E+02  0.35601364082E+02  0.46700000000E-02 0. -1.
          1   -1    0    0  501    0  0.00000000000E+00 -0.00000000000E+00 -0.28090623786E+01  0.28090662605E+01  0.46700000000E-02 0.  1.
       1023    2    1    2    0    0  0.00000000000E+00  0.00000000000E+00  0.32792301397E+02  0.38410430343E+02  0.20000653194E+02 0.  0.
        -11    1    3    3    0    0 -0.36127223689E+01 -0.93249519790E+01  0.16384087221E+02  0.19194916167E+02  0.51100000000E-03 0. -1.
         11    1    3    3    0    0  0.36127223689E+01  0.93249519790E+01  0.16408214176E+02  0.19215514176E+02  0.51100000000E-03 0.  1.
<mgrwt>
<rscale>  0 0.20000653E+02</rscale>
<asrwt>0</asrwt>
<pdfrwt beam="2">  1        1 0.43216378E-03 0.20000653E+02</pdfrwt>
<pdfrwt beam="1">  1       -1 0.54771330E-02 0.20000653E+02</pdfrwt>
<totfact> 0.36016332E+06</totfact>
</mgrwt>
</event>
<event>
 5    1  0.9763576E-007  0.2000074E+02  0.7818608E-02  0.1745313E+00
         -1   -1    0    0    0  501 -0.00000000000E+00  0.00000000000E+00  0.52433775481E+01  0.52433796278E+01  0.46700000000E-02 0.  1.
          1   -1    0    0  501    0  0.00000000000E+00 -0.00000000000E+00 -0.19073080779E+02  0.19073081350E+02  0.46700000000E-02 0. -1.
       1023    2    1    2    0    0  0.00000000000E+00  0.00000000000E+00 -0.13829703231E+02  0.24316460978E+02  0.20000739563E+02 0.  0.
        -11    1    3    3    0    0  0.80224123430E+01 -0.59705672010E+01 -0.69451974017E+01  0.12175489301E+02  0.51100000000E-03 0. -1.
         11    1    3    3    0    0 -0.80224123430E+01  0.59705672010E+01 -0.68845058290E+01  0.12140971677E+02  0.51100000000E-03 0.  1.
<mgrwt>
<rscale>  0 0.20000740E+02</rscale>
<asrwt>0</asrwt>
<pdfrwt beam="2">  1        1 0.29343203E-02 0.20000740E+02</pdfrwt>
<pdfrwt beam="1">  1       -1 0.80667368E-03 0.20000740E+02</pdfrwt>
<totfact> 0.39623765E+06</totfact>
</mgrwt>
</event>
<event>
 5    1  0.9583198E-007  0.2000660E+02  0.7818608E-02  0.1745197E+00
         -1   -1    0    0    0  501 -0.00000000000E+00  0.00000000000E+00  0.47883650083E+02  0.47883650310E+02  0.46700000000E-02 0. -1.
          1   -1    0    0  501    0  0.00000000000E+00 -0.00000000000E+00 -0.20897706822E+01  0.20897759002E+01  0.46700000000E-02 0.  1.
       1023    2    1    2    0    0  0.00000000000E+00  0.00000000000E+00  0.45793879400E+02  0.49973426210E+02  0.20006597329E+02 0.  0.
        -11    1    3    3    0    0  0.85995536729E+00  0.99660811389E+01  0.23048619064E+02  0.25125706707E+02  0.51100000000E-03 0.  1.
         11    1    3    3    0    0 -0.85995536729E+00 -0.99660811389E+01  0.22745260337E+02  0.24847719504E+02  0.51100000000E-03 0. -1.
<mgrwt>
<rscale>  0 0.20006597E+02</rscale>
<asrwt>0</asrwt>
<pdfrwt beam="2">  1        1 0.32150359E-03 0.20006597E+02</pdfrwt>
<pdfrwt beam="1">  1       -1 0.73667161E-02 0.20006597E+02</pdfrwt>
<totfact> 0.35056027E+06</totfact>
</mgrwt>
</event>
<event>
 4    1  0.9583198E-007  0.2015267E+02  0.7818608E-02  0.1742309E+00
          1   -1    0    0  501    0  0.00000000000E+00  0.00000000000E+00  0.11802788605E+02  0.11802789529E+02  0.46700000000E-02 0. -1.
         -1   -1    0    0    0  501 -0.00000000000E+00 -0.00000000000E+00 -0.86024153479E+01  0.86024166155E+01  0.46700000000E-02 0.  1.
        -11    1    1    2    0    0 -0.69970955861E+01 -0.71832387220E+01  0.25995948333E+01  0.10359351270E+02  0.51100000000E-03 0.  1.
         11    1    1    2    0    0  0.69970955861E+01  0.71832387220E+01  0.60077842365E+00  0.10045854874E+02  0.51100000000E-03 0. -1.
<mgrwt>
<rscale>  0 0.20152669E+02</rscale>
<asrwt>0</asrwt>
<pdfrwt beam="1">  1        1 0.18158138E-02 0.20152669E+02</pdfrwt>
<pdfrwt beam="2">  1       -1 0.13234487E-02 0.20152669E+02</pdfrwt>
<totfact> 0.38215625E+06</totfact>
</mgrwt>
</event>
<event>
 5    1  0.9936711E-007  0.2000091E+02  0.7818608E-02  0.1745310E+00
         -1   -1    0    0    0  501 -0.00000000000E+00  0.00000000000E+00  0.26891712635E+01  0.26891753185E+01  0.46700000000E-02 0.  1.
          1   -1    0    0  501    0  0.00000000000E+00 -0.00000000000E+00 -0.37189538237E+02  0.37189538530E+02  0.46700000000E-02 0. -1.
       1023    2    1    2    0    0  0.00000000000E+00  0.00000000000E+00 -0.34500366973E+02  0.39878713849E+02  0.20000912402E+02 0.  0.
        -11    1    3    3    0    0 -0.71158302366E+01 -0.70264826902E+01 -0.17148029034E+02  0.19850979798E+02  0.51100000000E-03 0.  1.
         11    1    3    3    0    0  0.71158302366E+01  0.70264826902E+01 -0.17352337940E+02  0.20027734050E+02  0.51100000000E-03 0. -1.
<mgrwt>
<rscale>  0 0.20000912E+02</rscale>
<asrwt>0</asrwt>
<pdfrwt beam="2">  1        1 0.57214674E-02 0.20000912E+02</pdfrwt>
<pdfrwt beam="1">  1       -1 0.41371902E-03 0.20000912E+02</pdfrwt>
<totfact> 0.40928555E+06</totfact>
</mgrwt>
</event>
<event>
 5    1  0.9583198E-007  0.2000062E+02  0.7818608E-02  0.1745316E+00
         -1   -1    0    0    0  501 -0.00000000000E+00  0.00000000000E+00  0.78954502239E+02  0.78954502377E+02  0.46700000000E-02 0. -1.
          1   -1    0    0  501    0  0.00000000000E+00 -0.00000000000E+00 -0.12666260324E+01  0.12666346414E+01  0.46700000000E-02 0.  1.
       1023    2    1    2    0    0  0.00000000000E+00  0.00000000000E+00  0.77687876207E+02  0.80221137019E+02  0.20000617866E+02 0.  0.
        -11    1    3    3    0    0  0.41878161962E+01  0.90810273829E+01  0.38612980912E+02  0.39886904593E+02  0.51100000000E-03 0. -1.
         11    1    3    3    0    0 -0.41878161962E+01 -0.90810273829E+01  0.39074895295E+02  0.40334232426E+02  0.51100000000E-03 0.  1.
<mgrwt>
<rscale>  0 0.20000618E+02</rscale>
<asrwt>0</asrwt>
<pdfrwt beam="2">  1        1 0.19486627E-03 0.20000618E+02</pdfrwt>
<pdfrwt beam="1">  1       -1 0.12146844E-01 0.20000618E+02</pdfrwt>
<totfact> 0.33053115E+06</totfact>
</mgrwt>
</event>
<event>
 5    1  0.9583198E-007  0.2000090E+02  0.7818608E-02  0.1745310E+00
         -1   -1    0    0    0  501 -0.00000000000E+00  0.00000000000E+00  0.41284819898E+02  0.41284820162E+02  0.46700000000E-02 0.  1.
          1   -1    0    0  501    0  0.00000000000E+00 -0.00000000000E+00 -0.24224126357E+01  0.24224171372E+01  0.46700000000E-02 0. -1.
       1023    2    1    2    0    0  0.00000000000E+00  0.00000000000E+00  0.38862407262E+02  0.43707237299E+02  0.20000897333E+02 0.  0.
        -11    1    3    3    0    0  0.50049068654E+01 -0.86579373715E+01  0.19433397192E+02  0.21855569060E+02  0.51100000000E-03 0. -1.
         11    1    3    3    0    0 -0.50049068654E+01  0.86579373715E+01  0.19429010070E+02  0.21851668239E+02  0.51100000000E-03 0.  1.
<mgrwt>
<rscale>  0 0.20000897E+02</rscale>
<asrwt>0</asrwt>
<pdfrwt beam="2">  1        1 0.37267924E-03 0.20000897E+02</pdfrwt>
<pdfrwt beam="1">  1       -1 0.63515111E-02 0.20000897E+02</pdfrwt>
<totfact> 0.35568726E+06</totfact>
</mgrwt>
</event>
<event>
 5    1  0.9583198E-007  0.2000562E+02  0.7818608E-02  0.1745216E+00
         -1   -1    0    0    0  501 -0.00000000000E+00  0.00000000000E+00  0.70255053835E+02  0.70255053990E+02  0.46700000000E-02 0. -1.
          1   -1    0    0  501    0  0.00000000000E+00 -0.00000000000E+00 -0.14241814411E+01  0.14241890977E+01  0.46700000000E-02 0.  1.
       1023    2    1    2    0    0  0.00000000000E+00  0.00000000000E+00  0.68830872394E+02  0.71679243088E+02  0.20005621589E+02 0.  0.
        -11    1    3    3    0    0 -0.97022977057E+01  0.24283354645E+01  0.33850854901E+02  0.35297475430E+02  0.51100000000E-03 0. -1.
         11    1    3    3    0    0  0.97022977057E+01 -0.24283354645E+01  0.34980017493E+02  0.36381767658E+02  0.51100000000E-03 0.  1.
<mgrwt>
<rscale>  0 0.20005622E+02</rscale>
<asrwt>0</asrwt>
<pdfrwt beam="2">  1        1 0.21910540E-03 0.20005622E+02</pdfrwt>
<pdfrwt beam="1">  1       -1 0.10808472E-01 0.20005622E+02</pdfrwt>
<totfact> 0.33563837E+06</totfact>
</mgrwt>
</event>
<event>
 5    1  0.9583198E-007  0.2000023E+02  0.7818608E-02  0.1745323E+00
         -1   -1    0    0    0  501 -0.00000000000E+00  0.00000000000E+00  0.66991643192E+01  0.66991659470E+01  0.46700000000E-02 0.  1.
          1   -1    0    0  501    0  0.00000000000E+00 -0.00000000000E+00 -0.14927580464E+02  0.14927581195E+02  0.46700000000E-02 0. -1.
       1023    2    1    2    0    0  0.00000000000E+00  0.00000000000E+00 -0.82284161449E+01  0.21626747142E+02  0.20000233990E+02 0.  0.
        -11    1    3    3    0    0  0.47130639257E+01 -0.88197422349E+01 -0.40721196884E+01  0.10797360033E+02  0.51100000000E-03 0.  1.
         11    1    3    3    0    0 -0.47130639257E+01  0.88197422349E+01 -0.41562964564E+01  0.10829387109E+02  0.51100000000E-03 0. -1.
<mgrwt>
<rscale>  0 0.20000234E+02</rscale>
<asrwt>0</asrwt>
<pdfrwt beam="2">  1        1 0.22965510E-02 0.20000234E+02</pdfrwt>
<pdfrwt beam="1">  1       -1 0.10306408E-02 0.20000234E+02</pdfrwt>
<totfact> 0.39236136E+06</totfact>
</mgrwt>
</event>
<event>
 5    1  0.9583198E-007  0.2000892E+02  0.7818608E-02  0.1745151E+00
         -1   -1    0    0    0  501 -0.00000000000E+00  0.00000000000E+00  0.58331662581E+01  0.58331681275E+01  0.46700000000E-02 0. -1.
          1   -1    0    0  501    0  0.00000000000E+00 -0.00000000000E+00 -0.17158646526E+02  0.17158647162E+02  0.46700000000E-02 0.  1.
       1023    2    1    2    0    0  0.00000000000E+00  0.00000000000E+00 -0.11325480268E+02  0.22991815289E+02  0.20008924684E+02 0.  0.
        -11    1    3    3    0    0  0.47569135238E+01  0.88003613933E+01 -0.55235187179E+01  0.11427328919E+02  0.51100000000E-03 0. -1.
         11    1    3    3    0    0 -0.47569135238E+01 -0.88003613933E+01 -0.58019615504E+01  0.11564486371E+02  0.51100000000E-03 0.  1.
<mgrwt>
<rscale>  0 0.20008925E+02</rscale>
<asrwt>0</asrwt>
<pdfrwt beam="2">  1        1 0.26397919E-02 0.20008925E+02</pdfrwt>
<pdfrwt beam="1">  1       -1 0.89741040E-03 0.20008925E+02</pdfrwt>
<totfact> 0.39416062E+06</totfact>
</mgrwt>
</event>
<event>
 5    1  0.9664166E-007  0.2000052E+02  0.7818608E-02  0.1745318E+00
         -1   -1    0    0    0  501 -0.00000000000E+00  0.00000000000E+00  0.70037470308E+01  0.70037485877E+01  0.46700000000E-02 0. -1.
          1   -1    0    0  501    0  0.00000000000E+00 -0.00000000000E+00 -0.14278814280E+02  0.14278815043E+02  0.46700000000E-02 0.  1.
       1023    2    1    2    0    0  0.00000000000E+00  0.00000000000E+00 -0.72750672490E+01  0.21282563631E+02  0.20000522774E+02 0.  0.
        -11    1    3    3    0    0 -0.83788884042E+00  0.99650723294E+01 -0.36136609887E+01  0.10633121378E+02  0.51100000000E-03 0.  1.
         11    1    3    3    0    0  0.83788884042E+00 -0.99650723294E+01 -0.36614062603E+01  0.10649442253E+02  0.51100000000E-03 0. -1.
<mgrwt>
<rscale>  0 0.20000523E+02</rscale>
<asrwt>0</asrwt>
<pdfrwt beam="2">  1        1 0.21967408E-02 0.20000523E+02</pdfrwt>
<pdfrwt beam="1">  1       -1 0.10774997E-02 0.20000523E+02</pdfrwt>
<totfact> 0.39166426E+06</totfact>
</mgrwt>
</event>
<event>
 5    1  0.1023681E-006  0.2000186E+02  0.7818608E-02  0.1745291E+00
          1   -1    0    0  501    0  0.00000000000E+00  0.00000000000E+00  0.86697621571E+02  0.86697621697E+02  0.46700000000E-02 0. -1.
         -1   -1    0    0    0  501 -0.00000000000E+00 -0.00000000000E+00 -0.11536437915E+01  0.11536532437E+01  0.46700000000E-02 0.  1.
       1023    2    1    2    0    0  0.00000000000E+00  0.00000000000E+00  0.85543977780E+02  0.87851274941E+02  0.20001859272E+02 0.  0.
        -11    1    3    3    0    0 -0.14965289796E+01 -0.98882513413E+01  0.42603033813E+02  0.43761119774E+02  0.51100000000E-03 0.  1.
         11    1    3    3    0    0  0.14965289796E+01  0.98882513413E+01  0.42940943967E+02  0.44090155167E+02  0.51100000000E-03 0. -1.
<mgrwt>
<rscale>  0 0.20001859E+02</rscale>
<asrwt>0</asrwt>
<pdfrwt beam="1">  1        1 0.13338098E-01 0.20001859E+02</pdfrwt>
<pdfrwt beam="2">  1       -1 0.17748438E-03 0.20001859E+02</pdfrwt>
<totfact> 0.43692616E+06</totfact>
</mgrwt>
</event>
<event>
 5    1  0.9583198E-007  0.2000051E+02  0.7818608E-02  0.1745318E+00
          1   -1    0    0  501    0  0.00000000000E+00  0.00000000000E+00  0.56276296217E+01  0.56276315593E+01  0.46700000000E-02 0.  1.
         -1   -1    0    0    0  501 -0.00000000000E+00 -0.00000000000E+00 -0.17770367157E+02  0.17770367771E+02  0.46700000000E-02 0. -1.
       1023    2    1    2    0    0  0.00000000000E+00  0.00000000000E+00 -0.12142737535E+02  0.23397999330E+02  0.20000507438E+02 0.  0.
        -11    1    3    3    0    0 -0.23342168768E+01 -0.97239108642E+01 -0.61245079915E+01  0.11726577050E+02  0.51100000000E-03 0. -1.
         11    1    3    3    0    0  0.23342168768E+01  0.97239108642E+01 -0.60182295439E+01  0.11671422279E+02  0.51100000000E-03 0.  1.
<mgrwt>
<rscale>  0 0.20000507E+02</rscale>
<asrwt>0</asrwt>
<pdfrwt beam="1">  1        1 0.86578937E-03 0.20000507E+02</pdfrwt>
<pdfrwt beam="2">  1       -1 0.27339028E-02 0.20000507E+02</pdfrwt>
<totfact> 0.37647494E+06</totfact>
</mgrwt>
</event>
<event>
 5    1  0.9583198E-007  0.2000525E+02  0.7818608E-02  0.1745224E+00
         -1   -1    0    0    0  501 -0.00000000000E+00  0.00000000000E+00  0.10616632140E+03  0.10616632150E+03  0.46700000000E-02 0.  1.
          1   -1    0    0  501    0  0.00000000000E+00 -0.00000000000E+00 -0.94240735889E+00  0.94241892967E+00  0.46700000000E-02 0. -1.
       1023    2    1    2    0    0  0.00000000000E+00  0.00000000000E+00  0.10522391404E+03  0.10710874043E+03  0.20005254082E+02 0.  0.
        -11    1    3    3    0    0  0.82616967410E+00 -0.99680793442E+01  0.53072071011E+02  0.54006387435E+02  0.51100000000E-03 0.  1.
         11    1    3    3    0    0 -0.82616967410E+00  0.99680793442E+01  0.52151843031E+02  0.53102352998E+02  0.51100000000E-03 0. -1.
<mgrwt>
<rscale>  0 0.20005254E+02</rscale>
<asrwt>0</asrwt>
<pdfrwt beam="2">  1        1 0.14498666E-03 0.20005254E+02</pdfrwt>
<pdfrwt beam="1">  1       -1 0.16333279E-01 0.20005254E+02</pdfrwt>
<totfact> 0.31522708E+06</totfact>
</mgrwt>
</event>
<event>
 5    1  0.1020927E-006  0.2000129E+02  0.7818608E-02  0.1745302E+00
         -1   -1    0    0    0  501 -0.00000000000E+00  0.00000000000E+00  0.12197549579E+01  0.12197638977E+01  0.46700000000E-02 0.  1.
          1   -1    0    0  501    0  0.00000000000E+00 -0.00000000000E+00 -0.81993972386E+02  0.81993972519E+02  0.46700000000E-02 0. -1.
       1023    2    1    2    0    0  0.00000000000E+00  0.00000000000E+00 -0.80774217428E+02  0.83213736417E+02  0.20001293141E+02 0.  0.
        -11    1    3    3    0    0  0.99023892159E+01 -0.13984036249E+01 -0.40348372765E+02  0.41569267855E+02  0.51100000000E-03 0.  1.
         11    1    3    3    0    0 -0.99023892159E+01  0.13984036249E+01 -0.40425844663E+02  0.41644468563E+02  0.51100000000E-03 0. -1.
<mgrwt>
<rscale>  0 0.20001293E+02</rscale>
<asrwt>0</asrwt>
<pdfrwt beam="2">  1        1 0.12614454E-01 0.20001293E+02</pdfrwt>
<pdfrwt beam="1">  1       -1 0.18765537E-03 0.20001293E+02</pdfrwt>
<totfact> 0.43455744E+06</totfact>
</mgrwt>
</event>
<event>
 5    1  0.9583198E-007  0.2000014E+02  0.7818608E-02  0.1745325E+00
         -1   -1    0    0    0  501 -0.00000000000E+00  0.00000000000E+00  0.56716501498E+01  0.56716520724E+01  0.46700000000E-02 0. -1.
          1   -1    0    0  501    0  0.00000000000E+00 -0.00000000000E+00 -0.17631801368E+02  0.17631801986E+02  0.46700000000E-02 0.  1.
       1023    2    1    2    0    0  0.00000000000E+00  0.00000000000E+00 -0.11960151218E+02  0.23303454058E+02  0.20000143847E+02 0.  0.
        -11    1    3    3    0    0  0.13453970642E+01 -0.99091309697E+01 -0.59548590301E+01  0.11638784995E+02  0.51100000000E-03 0. -1.
         11    1    3    3    0    0 -0.13453970642E+01  0.99091309697E+01 -0.60052921878E+01  0.11664669063E+02  0.51100000000E-03 0.  1.
<mgrwt>
<rscale>  0 0.20000144E+02</rscale>
<asrwt>0</asrwt>
<pdfrwt beam="2">  1        1 0.27125850E-02 0.20000144E+02</pdfrwt>
<pdfrwt beam="1">  1       -1 0.87256176E-03 0.20000144E+02</pdfrwt>
<totfact> 0.39498507E+06</totfact>
</mgrwt>
</event>
<event>
 5    1  0.9583198E-007  0.2000278E+02  0.7818608E-02  0.1745273E+00
          1   -1    0    0  501    0  0.00000000000E+00  0.00000000000E+00  0.48596969053E+02  0.48596969277E+02  0.46700000000E-02 0.  1.
         -1   -1    0    0    0  501 -0.00000000000E+00 -0.00000000000E+00 -0.20583103736E+01  0.20583156713E+01  0.46700000000E-02 0. -1.
       1023    2    1    2    0    0  0.00000000000E+00  0.00000000000E+00  0.46538658679E+02  0.50655284949E+02  0.20002778346E+02 0.  0.
        -11    1    3    3    0    0  0.79886974131E+01 -0.60163109383E+01  0.23552478211E+02  0.25587780557E+02  0.51100000000E-03 0. -1.
         11    1    3    3    0    0 -0.79886974131E+01  0.60163109383E+01  0.22986180468E+02  0.25067504392E+02  0.51100000000E-03 0.  1.
<mgrwt>
<rscale>  0 0.20002778E+02</rscale>
<asrwt>0</asrwt>
<pdfrwt beam="1">  1        1 0.74764572E-02 0.20002778E+02</pdfrwt>
<pdfrwt beam="2">  1       -1 0.31666356E-03 0.20002778E+02</pdfrwt>
<totfact> 0.41619400E+06</totfact>
</mgrwt>
</event>
<event>
 5    1  0.9583198E-007  0.2000030E+02  0.7818608E-02  0.1745322E+00
         -1   -1    0    0    0  501 -0.00000000000E+00  0.00000000000E+00  0.30959700898E+01  0.30959736119E+01  0.46700000000E-02 0.  1.
          1   -1    0    0  501    0  0.00000000000E+00 -0.00000000000E+00 -0.32301016601E+02  0.32301016939E+02  0.46700000000E-02 0. -1.
       1023    2    1    2    0    0  0.00000000000E+00  0.00000000000E+00 -0.29205046512E+02  0.35396990551E+02  0.20000304956E+02 0.  0.
        -11    1    3    3    0    0  0.99787188312E+01  0.65367578039E+00 -0.14656431122E+02  0.17742973117E+02  0.51100000000E-03 0. -1.
         11    1    3    3    0    0 -0.99787188312E+01 -0.65367578039E+00 -0.14548615390E+02  0.17654017434E+02  0.51100000000E-03 0.  1.
<mgrwt>
<rscale>  0 0.20000305E+02</rscale>
<asrwt>0</asrwt>
<pdfrwt beam="2">  1        1 0.49693873E-02 0.20000305E+02</pdfrwt>
<pdfrwt beam="1">  1       -1 0.47630341E-03 0.20000305E+02</pdfrwt>
<totfact> 0.40611570E+06</totfact>
</mgrwt>
</event>
<event>
 5    1  0.9916849E-007  0.2000080E+02  0.7818608E-02  0.1745312E+00
         -1   -1    0    0    0  501 -0.00000000000E+00  0.00000000000E+00  0.12333508289E+01  0.12333596702E+01  0.46700000000E-02 0.  1.
          1   -1    0    0  501    0  0.00000000000E+00 -0.00000000000E+00 -0.81086141476E+02  0.81086141611E+02  0.46700000000E-02 0. -1.
       1023    2    1    2    0    0  0.00000000000E+00  0.00000000000E+00 -0.79852790647E+02  0.82319501281E+02  0.20000802908E+02 0.  0.
        -11    1    3    3    0    0 -0.99583481834E+01 -0.91609456809E+00 -0.39967795697E+02  0.41199910448E+02  0.51100000000E-03 0. -1.
         11    1    3    3    0    0  0.99583481834E+01  0.91609456809E+00 -0.39884994950E+02  0.41119590833E+02  0.51100000000E-03 0.  1.
<mgrwt>
<rscale>  0 0.20000803E+02</rscale>
<asrwt>0</asrwt>
<pdfrwt beam="2">  1        1 0.12474787E-01 0.20000803E+02</pdfrwt>
<pdfrwt beam="1">  1       -1 0.18974704E-03 0.20000803E+02</pdfrwt>
<totfact> 0.43411501E+06</totfact>
</mgrwt>
</event>
<event>
 5    1  0.9583198E-007  0.2000025E+02  0.7818608E-02  0.1745323E+00
         -1   -1    0    0    0  501 -0.00000000000E+00  0.00000000000E+00  0.29601945658E+02  0.29601946027E+02  0.46700000000E-02 0.  1.
          1   -1    0    0  501    0  0.00000000000E+00 -0.00000000000E+00 -0.33782377107E+01  0.33782409386E+01  0.46700000000E-02 0. -1.
       1023    2    1    2    0    0  0.00000000000E+00  0.00000000000E+00  0.26223707948E+02  0.32980186965E+02  0.20000246842E+02 0.  0.
        -11    1    3    3    0    0 -0.92844244857E+01  0.37150461323E+01  0.13080463404E+02  0.16465133735E+02  0.51100000000E-03 0. -1.
         11    1    3    3    0    0  0.92844244857E+01 -0.37150461323E+01  0.13143244544E+02  0.16515053230E+02  0.51100000000E-03 0.  1.
<mgrwt>
<rscale>  0 0.20000247E+02</rscale>
<asrwt>0</asrwt>
<pdfrwt beam="2">  1        1 0.51972916E-03 0.20000247E+02</pdfrwt>
<pdfrwt beam="1">  1       -1 0.45541457E-02 0.20000247E+02</pdfrwt>
<totfact> 0.36519964E+06</totfact>
</mgrwt>
</event>
<event>
 5    1  0.9583198E-007  0.2000019E+02  0.7818608E-02  0.1745324E+00
          1   -1    0    0  501    0  0.00000000000E+00  0.00000000000E+00  0.30490834677E+02  0.30490835034E+02  0.46700000000E-02 0.  1.
         -1   -1    0    0    0  501 -0.00000000000E+00 -0.00000000000E+00 -0.32797358071E+01  0.32797391319E+01  0.46700000000E-02 0. -1.
       1023    2    1    2    0    0  0.00000000000E+00  0.00000000000E+00  0.27211098870E+02  0.33770574166E+02  0.20000194445E+02 0.  0.
        -11    1    3    3    0    0 -0.31016380964E+01 -0.95069331726E+01  0.13610005887E+02  0.16888877930E+02  0.51100000000E-03 0.  1.
         11    1    3    3    0    0  0.31016380964E+01  0.95069331726E+01  0.13601092982E+02  0.16881696236E+02  0.51100000000E-03 0. -1.
<mgrwt>
<rscale>  0 0.20000194E+02</rscale>
<asrwt>0</asrwt>
<pdfrwt beam="1">  1        1 0.46908978E-02 0.20000194E+02</pdfrwt>
<pdfrwt beam="2">  1       -1 0.50457504E-03 0.20000194E+02</pdfrwt>
<totfact> 0.40489505E+06</totfact>
</mgrwt>
</event>
<event>
 4    1  0.9583198E-007  0.2011148E+02  0.7818608E-02  0.1743120E+00
          1   -1    0    0  501    0  0.00000000000E+00  0.00000000000E+00  0.48016294907E+02  0.48016295134E+02  0.46700000000E-02 0. -1.
         -1   -1    0    0    0  501 -0.00000000000E+00 -0.00000000000E+00 -0.21059046667E+01  0.21059098447E+01  0.46700000000E-02 0.  1.
        -11    1    1    2    0    0  0.83336603524E+01  0.56009039507E+01  0.21595039826E+02  0.23815242289E+02  0.51100000000E-03 0. -1.
         11    1    1    2    0    0 -0.83336603524E+01 -0.56009039507E+01  0.24315350414E+02  0.26306962689E+02  0.51100000000E-03 0.  1.
<mgrwt>
<rscale>  0 0.20111477E+02</rscale>
<asrwt>0</asrwt>
<pdfrwt beam="1">  1        1 0.73871223E-02 0.20111477E+02</pdfrwt>
<pdfrwt beam="2">  1       -1 0.32398577E-03 0.20111477E+02</pdfrwt>
<totfact> 0.41086778E+06</totfact>
</mgrwt>
</event>
<event>
 5    1  0.9583198E-007  0.2000035E+02  0.7818608E-02  0.1745321E+00
          1   -1    0    0  501    0  0.00000000000E+00  0.00000000000E+00  0.11635743569E+02  0.11635744506E+02  0.46700000000E-02 0.  1.
         -1   -1    0    0    0  501 -0.00000000000E+00 -0.00000000000E+00 -0.85945063780E+01  0.85945076468E+01  0.46700000000E-02 0. -1.
       1023    2    1    2    0    0  0.00000000000E+00  0.00000000000E+00  0.30412371911E+01  0.20230252153E+02  0.20000349460E+02 0.  0.
        -11    1    3    3    0    0 -0.45420587722E+01  0.89090778127E+01  0.15601705852E+01  0.10121071973E+02  0.51100000000E-03 0.  1.
         11    1    3    3    0    0  0.45420587722E+01 -0.89090778127E+01  0.14810666058E+01  0.10109180180E+02  0.51100000000E-03 0. -1.
<mgrwt>
<rscale>  0 0.20000349E+02</rscale>
<asrwt>0</asrwt>
<pdfrwt beam="1">  1        1 0.17901146E-02 0.20000349E+02</pdfrwt>
<pdfrwt beam="2">  1       -1 0.13222319E-02 0.20000349E+02</pdfrwt>
<totfact> 0.38854950E+06</totfact>
</mgrwt>
</event>
<event>
 5    1  0.9583198E-007  0.2000220E+02  0.7818608E-02  0.1745284E+00
          1   -1    0    0  501    0  0.00000000000E+00  0.00000000000E+00  0.21393319333E+02  0.21393319842E+02  0.46700000000E-02 0. -1.
         -1   -1    0    0    0  501 -0.00000000000E+00 -0.00000000000E+00 -0.46753813113E+01  0.46753836437E+01  0.46700000000E-02 0.  1.
       1023    2    1    2    0    0  0.00000000000E+00  0.00000000000E+00  0.16717938021E+02  0.26068703486E+02  0.20002196123E+02 0.  0.
        -11    1    3    3    0    0 -0.16597780338E+01  0.98621299094E+01  0.82623783892E+01  0.12972407887E+02  0.51100000000E-03 0.  1.
         11    1    3    3    0    0  0.16597780338E+01 -0.98621299094E+01  0.84555596320E+01  0.13096295599E+02  0.51100000000E-03 0. -1.
<mgrwt>
<rscale>  0 0.20002196E+02</rscale>
<asrwt>0</asrwt>
<pdfrwt beam="1">  1        1 0.32912800E-02 0.20002196E+02</pdfrwt>
<pdfrwt beam="2">  1       -1 0.71928967E-03 0.20002196E+02</pdfrwt>
<totfact> 0.39810603E+06</totfact>
</mgrwt>
</event>
<event>
 5    1  0.9583198E-007  0.2000041E+02  0.7818608E-02  0.1745320E+00
         -1   -1    0    0    0  501 -0.00000000000E+00  0.00000000000E+00  0.37829683562E+01  0.37829712387E+01  0.46700000000E-02 0.  1.
          1   -1    0    0  501    0  0.00000000000E+00 -0.00000000000E+00 -0.26435332335E+02  0.26435332747E+02  0.46700000000E-02 0. -1.
       1023    2    1    2    0    0  0.00000000000E+00  0.00000000000E+00 -0.22652363978E+02  0.30218303986E+02  0.20000407545E+02 0.  0.
        -11    1    3    3    0    0  0.86769041530E+01  0.49711144259E+01 -0.11414680567E+02  0.15175492645E+02  0.51100000000E-03 0. -1.
         11    1    3    3    0    0 -0.86769041530E+01 -0.49711144259E+01 -0.11237683412E+02  0.15042811341E+02  0.51100000000E-03 0.  1.
<mgrwt>
<rscale>  0 0.20000408E+02</rscale>
<asrwt>0</asrwt>
<pdfrwt beam="2">  1        1 0.40669743E-02 0.20000408E+02</pdfrwt>
<pdfrwt beam="1">  1       -1 0.58199540E-03 0.20000408E+02</pdfrwt>
<totfact> 0.40203052E+06</totfact>
</mgrwt>
</event>
<event>
 5    1  0.9815722E-007  0.2000056E+02  0.7818608E-02  0.1745317E+00
         -1   -1    0    0    0  501 -0.00000000000E+00  0.00000000000E+00  0.13160932292E+01  0.13161015146E+01  0.46700000000E-02 0. -1.
          1   -1    0    0  501    0  0.00000000000E+00 -0.00000000000E+00 -0.75986491065E+02  0.75986491208E+02  0.46700000000E-02 0.  1.
       1023    2    1    2    0    0  0.00000000000E+00  0.00000000000E+00 -0.74670397836E+02  0.77302592723E+02  0.20000563211E+02 0.  0.
        -11    1    3    3    0    0 -0.89755751734E+01 -0.44093884557E+01 -0.37506993766E+02  0.38817241503E+02  0.51100000000E-03 0. -1.
         11    1    3    3    0    0  0.89755751734E+01  0.44093884557E+01 -0.37163404069E+02  0.38485351220E+02  0.51100000000E-03 0.  1.
<mgrwt>
<rscale>  0 0.20000563E+02</rscale>
<asrwt>0</asrwt>
<pdfrwt beam="2">  1        1 0.11690227E-01 0.20000563E+02</pdfrwt>
<pdfrwt beam="1">  1       -1 0.20247659E-03 0.20000563E+02</pdfrwt>
<totfact> 0.43148146E+06</totfact>
</mgrwt>
</event>
<event>
 5    1  0.1005190E-006  0.2000122E+02  0.7818608E-02  0.1745304E+00
         -1   -1    0    0    0  501 -0.00000000000E+00  0.00000000000E+00  0.33070820830E+01  0.33070853803E+01  0.46700000000E-02 0.  1.
          1   -1    0    0  501    0  0.00000000000E+00 -0.00000000000E+00 -0.30241804944E+02  0.30241805305E+02  0.46700000000E-02 0. -1.
       1023    2    1    2    0    0  0.00000000000E+00  0.00000000000E+00 -0.26934722861E+02  0.33548890685E+02  0.20001219227E+02 0.  0.
        -11    1    3    3    0    0  0.20047201022E+01  0.97970226385E+01 -0.13286417340E+02  0.16629174401E+02  0.51100000000E-03 0. -1.
         11    1    3    3    0    0 -0.20047201022E+01 -0.97970226385E+01 -0.13648305521E+02  0.16919716284E+02  0.51100000000E-03 0.  1.
<mgrwt>
<rscale>  0 0.20001219E+02</rscale>
<asrwt>0</asrwt>
<pdfrwt beam="2">  1        1 0.46525855E-02 0.20001219E+02</pdfrwt>
<pdfrwt beam="1">  1       -1 0.50878216E-03 0.20001219E+02</pdfrwt>
<totfact> 0.40467804E+06</totfact>
</mgrwt>
</event>
<event>
 5    1  0.9583198E-007  0.2000336E+02  0.7818608E-02  0.1745261E+00
         -1   -1    0    0    0  501 -0.00000000000E+00  0.00000000000E+00  0.26830583459E+01  0.26830624101E+01  0.46700000000E-02 0.  1.
          1   -1    0    0  501    0  0.00000000000E+00 -0.00000000000E+00 -0.37283383781E+02  0.37283384073E+02  0.46700000000E-02 0. -1.
       1023    2    1    2    0    0  0.00000000000E+00  0.00000000000E+00 -0.34600325435E+02  0.39966446483E+02  0.20003357826E+02 0.  0.
        -11    1    3    3    0    0 -0.85855153266E+01 -0.51282674176E+01 -0.17605669781E+02  0.20247711200E+02  0.51100000000E-03 0. -1.
         11    1    3    3    0    0  0.85855153266E+01  0.51282674176E+01 -0.16994655653E+02  0.19718735283E+02  0.51100000000E-03 0.  1.
<mgrwt>
<rscale>  0 0.20003358E+02</rscale>
<asrwt>0</asrwt>
<pdfrwt beam="2">  1        1 0.57359052E-02 0.20003358E+02</pdfrwt>
<pdfrwt beam="1">  1       -1 0.41277857E-03 0.20003358E+02</pdfrwt>
<totfact> 0.40923401E+06</totfact>
</mgrwt>
</event>
<event>
 5    1  0.9583198E-007  0.2000066E+02  0.7818608E-02  0.1745315E+00
          1   -1    0    0  501    0  0.00000000000E+00  0.00000000000E+00  0.33131574415E+02  0.33131574744E+02  0.46700000000E-02 0.  1.
         -1   -1    0    0    0  501 -0.00000000000E+00 -0.00000000000E+00 -0.30184662294E+01  0.30184698420E+01  0.46700000000E-02 0. -1.
       1023    2    1    2    0    0  0.00000000000E+00  0.00000000000E+00  0.30113108185E+02  0.36150044586E+02  0.20000660964E+02 0.  0.
        -11    1    3    3    0    0  0.80917257551E+01 -0.58758340122E+01  0.15186368858E+02  0.18183158427E+02  0.51100000000E-03 0.  1.
         11    1    3    3    0    0 -0.80917257551E+01  0.58758340122E+01  0.14926739328E+02  0.17966886159E+02  0.51100000000E-03 0. -1.
<mgrwt>
<rscale>  0 0.20000661E+02</rscale>
<asrwt>0</asrwt>
<pdfrwt beam="1">  1        1 0.50971654E-02 0.20000661E+02</pdfrwt>
<pdfrwt beam="2">  1       -1 0.46437974E-03 0.20000661E+02</pdfrwt>
<totfact> 0.40665356E+06</totfact>
</mgrwt>
</event>
<event>
 5    1  0.9583198E-007  0.2000031E+02  0.7818608E-02  0.1745322E+00
          1   -1    0    0  501    0  0.00000000000E+00  0.00000000000E+00  0.21272536844E+01  0.21272588105E+01  0.46700000000E-02 0. -1.
         -1   -1    0    0    0  501 -0.00000000000E+00 -0.00000000000E+00 -0.47010366245E+02  0.47010366477E+02  0.46700000000E-02 0.  1.
       1023    2    1    2    0    0  0.00000000000E+00  0.00000000000E+00 -0.44883112561E+02  0.49137625288E+02  0.20000310642E+02 0.  0.
        -11    1    3    3    0    0 -0.81572122107E+00 -0.99668273592E+01 -0.22460179862E+02  0.24585823729E+02  0.51100000000E-03 0.  1.
         11    1    3    3    0    0  0.81572122107E+00  0.99668273592E+01 -0.22422932699E+02  0.24551801559E+02  0.51100000000E-03 0. -1.
<mgrwt>
<rscale>  0 0.20000311E+02</rscale>
<asrwt>0</asrwt>
<pdfrwt beam="1">  1        1 0.32727024E-03 0.20000311E+02</pdfrwt>
<pdfrwt beam="2">  1       -1 0.72323637E-02 0.20000311E+02</pdfrwt>
<totfact> 0.35143656E+06</totfact>
</mgrwt>
</event>
<event>
 5    1  0.9583198E-007  0.2000029E+02  0.7818608E-02  0.1745322E+00
          1   -1    0    0  501    0  0.00000000000E+00  0.00000000000E+00  0.20529124465E+01  0.20529177582E+01  0.46700000000E-02 0.  1.
         -1   -1    0    0    0  501 -0.00000000000E+00 -0.00000000000E+00 -0.48712644327E+02  0.48712644550E+02  0.46700000000E-02 0. -1.
       1023    2    1    2    0    0  0.00000000000E+00  0.00000000000E+00 -0.46659731880E+02  0.50765562309E+02  0.20000293433E+02 0.  0.
        -11    1    3    3    0    0  0.86142688507E+01 -0.50791047522E+01 -0.23332614663E+02  0.25385307566E+02  0.51100000000E-03 0.  1.
         11    1    3    3    0    0 -0.86142688507E+01  0.50791047522E+01 -0.23327117217E+02  0.25380254743E+02  0.51100000000E-03 0. -1.
<mgrwt>
<rscale>  0 0.20000293E+02</rscale>
<asrwt>0</asrwt>
<pdfrwt beam="1">  1        1 0.31583315E-03 0.20000293E+02</pdfrwt>
<pdfrwt beam="2">  1       -1 0.74942526E-02 0.20000293E+02</pdfrwt>
<totfact> 0.35020547E+06</totfact>
</mgrwt>
</event>
<event>
 5    1  0.9583198E-007  0.2000512E+02  0.7818608E-02  0.1745226E+00
          1   -1    0    0  501    0  0.00000000000E+00  0.00000000000E+00  0.13821826988E+01  0.13821905881E+01  0.46700000000E-02 0. -1.
         -1   -1    0    0    0  501 -0.00000000000E+00 -0.00000000000E+00 -0.72386142487E+02  0.72386142638E+02  0.46700000000E-02 0.  1.
       1023    2    1    2    0    0  0.00000000000E+00  0.00000000000E+00 -0.71003959788E+02  0.73768333226E+02  0.20005116378E+02 0.  0.
        -11    1    3    3    0    0 -0.97882963328E+01  0.20585721748E+01 -0.35310175708E+02  0.36699550042E+02  0.51100000000E-03 0. -1.
         11    1    3    3    0    0  0.97882963328E+01 -0.20585721748E+01 -0.35693784080E+02  0.37068783184E+02  0.51100000000E-03 0.  1.
<mgrwt>
<rscale>  0 0.20005116E+02</rscale>
<asrwt>0</asrwt>
<pdfrwt beam="1">  1        1 0.21264417E-03 0.20005116E+02</pdfrwt>
<pdfrwt beam="2">  1       -1 0.11136327E-01 0.20005116E+02</pdfrwt>
<totfact> 0.33433823E+06</totfact>
</mgrwt>
</event>
<event>
 5    1  0.9583198E-007  0.2000295E+02  0.7818608E-02  0.1745269E+00
          1   -1    0    0  501    0  0.00000000000E+00  0.00000000000E+00  0.22247504580E+01  0.22247553594E+01  0.46700000000E-02 0.  1.
         -1   -1    0    0    0  501 -0.00000000000E+00 -0.00000000000E+00 -0.44962077759E+02  0.44962078002E+02  0.46700000000E-02 0. -1.
       1023    2    1    2    0    0  0.00000000000E+00  0.00000000000E+00 -0.42737327301E+02  0.47186833361E+02  0.20002952227E+02 0.  0.
        -11    1    3    3    0    0 -0.51722254736E+01  0.85592623065E+01 -0.21064393643E+02  0.23317837965E+02  0.51100000000E-03 0. -1.
         11    1    3    3    0    0  0.51722254736E+01 -0.85592623065E+01 -0.21672933658E+02  0.23868995396E+02  0.51100000000E-03 0.  1.
<mgrwt>
<rscale>  0 0.20002952E+02</rscale>
<asrwt>0</asrwt>
<pdfrwt beam="1">  1        1 0.34226973E-03 0.20002952E+02</pdfrwt>
<pdfrwt beam="2">  1       -1 0.69172424E-02 0.20002952E+02</pdfrwt>
<totfact> 0.35283900E+06</totfact>
</mgrwt>
</event>
<event>
 5    1  0.1007451E-006  0.2000101E+02  0.7818608E-02  0.1745308E+00
         -1   -1    0    0    0  501 -0.00000000000E+00  0.00000000000E+00  0.63263581598E+01  0.63263598835E+01  0.46700000000E-02 0. -1.
          1   -1    0    0  501    0  0.00000000000E+00 -0.00000000000E+00 -0.15808477387E+02  0.15808478076E+02  0.46700000000E-02 0.  1.
       1023    2    1    2    0    0  0.00000000000E+00  0.00000000000E+00 -0.94821192268E+01  0.22134837960E+02  0.20001011636E+02 0.  0.
        -11    1    3    3    0    0  0.22192837983E+01  0.97509837788E+01 -0.46783472558E+01  0.11040554268E+02  0.51100000000E-03 0.  1.
         11    1    3    3    0    0 -0.22192837983E+01 -0.97509837788E+01 -0.48037719710E+01  0.11094283692E+02  0.51100000000E-03 0. -1.
<mgrwt>
<rscale>  0 0.20001012E+02</rscale>
<asrwt>0</asrwt>
<pdfrwt beam="2">  1        1 0.24320736E-02 0.20001012E+02</pdfrwt>
<pdfrwt beam="1">  1       -1 0.97328606E-03 0.20001012E+02</pdfrwt>
<totfact> 0.39321792E+06</totfact>
</mgrwt>
</event>
<event>
 5    1  0.9583198E-007  0.2001079E+02  0.7818608E-02  0.1745114E+00
         -1   -1    0    0    0  501 -0.00000000000E+00  0.00000000000E+00  0.98219737485E+00  0.98220847688E+00  0.46700000000E-02 0. -1.
          1   -1    0    0  501    0  0.00000000000E+00 -0.00000000000E+00 -0.10192186733E+03  0.10192186743E+03  0.46700000000E-02 0.  1.
       1023    2    1    2    0    0  0.00000000000E+00  0.00000000000E+00 -0.10093966995E+03  0.10290407591E+03  0.20010793813E+02 0.  0.
        -11    1    3    3    0    0  0.59144406692E+01  0.80693220059E+01 -0.51065134724E+02  0.52035973622E+02  0.51100000000E-03 0. -1.
         11    1    3    3    0    0 -0.59144406692E+01 -0.80693220059E+01 -0.49874535227E+02  0.50868102289E+02  0.51100000000E-03 0.  1.
<mgrwt>
<rscale>  0 0.20010794E+02</rscale>
<asrwt>0</asrwt>
<pdfrwt beam="2">  1        1 0.15680280E-01 0.20010794E+02</pdfrwt>
<pdfrwt beam="1">  1       -1 0.15110823E-03 0.20010794E+02</pdfrwt>
<totfact> 0.44400739E+06</totfact>
</mgrwt>
</event>
<event>
 5    1  0.9583198E-007  0.2000085E+02  0.7818608E-02  0.1745311E+00
         -1   -1    0    0    0  501 -0.00000000000E+00  0.00000000000E+00  0.21439692346E+02  0.21439692855E+02  0.46700000000E-02 0. -1.
          1   -1    0    0  501    0  0.00000000000E+00 -0.00000000000E+00 -0.46646400219E+01  0.46646423596E+01  0.46700000000E-02 0.  1.
       1023    2    1    2    0    0  0.00000000000E+00  0.00000000000E+00  0.16775052324E+02  0.26104335214E+02  0.20000848395E+02 0.  0.
        -11    1    3    3    0    0  0.87326378501E+01  0.48733396150E+01  0.83992755710E+01  0.13059717960E+02  0.51100000000E-03 0.  1.
         11    1    3    3    0    0 -0.87326378501E+01 -0.48733396150E+01  0.83757767532E+01  0.13044617254E+02  0.51100000000E-03 0. -1.
<mgrwt>
<rscale>  0 0.20000848E+02</rscale>
<asrwt>0</asrwt>
<pdfrwt beam="2">  1        1 0.71763714E-03 0.20000848E+02</pdfrwt>
<pdfrwt beam="1">  1       -1 0.32984144E-02 0.20000848E+02</pdfrwt>
<totfact> 0.37269070E+06</totfact>
</mgrwt>
</event>
<event>
 5    1  0.9583198E-007  0.2000070E+02  0.7818608E-02  0.1745314E+00
         -1   -1    0    0    0  501 -0.00000000000E+00  0.00000000000E+00  0.98083633617E+01  0.98083644735E+01  0.46700000000E-02 0.  1.
          1   -1    0    0  501    0  0.00000000000E+00 -0.00000000000E+00 -0.10196089496E+02  0.10196090566E+02  0.46700000000E-02 0. -1.
       1023    2    1    2    0    0  0.00000000000E+00  0.00000000000E+00 -0.38772613438E+00  0.20004455039E+02  0.20000697234E+02 0.  0.
        -11    1    3    3    0    0  0.87354593781E+01 -0.48678596598E+01 -0.14223953602E+00  0.10001226953E+02  0.51100000000E-03 0.  1.
         11    1    3    3    0    0 -0.87354593781E+01  0.48678596598E+01 -0.24548659836E+00  0.10003228086E+02  0.51100000000E-03 0. -1.
<mgrwt>
<rscale>  0 0.20000697E+02</rscale>
<asrwt>0</asrwt>
<pdfrwt beam="2">  1        1 0.15686293E-02 0.20000697E+02</pdfrwt>
<pdfrwt beam="1">  1       -1 0.15089791E-02 0.20000697E+02</pdfrwt>
<totfact> 0.38650956E+06</totfact>
</mgrwt>
</event>
<event>
 5    1  0.9583198E-007  0.2001154E+02  0.7818608E-02  0.1745099E+00
          1   -1    0    0  501    0  0.00000000000E+00  0.00000000000E+00  0.66912285705E+02  0.66912285868E+02  0.46700000000E-02 0. -1.
         -1   -1    0    0    0  501 -0.00000000000E+00 -0.00000000000E+00 -0.14962153506E+01  0.14962226386E+01  0.46700000000E-02 0.  1.
       1023    2    1    2    0    0  0.00000000000E+00  0.00000000000E+00  0.65416070354E+02  0.68408508507E+02  0.20011541057E+02 0.  0.
        -11    1    3    3    0    0 -0.50958198393E+01  0.86099613420E+01  0.33148862707E+02  0.34625798376E+02  0.51100000000E-03 0. -1.
         11    1    3    3    0    0  0.50958198393E+01 -0.86099613420E+01  0.32267207648E+02  0.33782710131E+02  0.51100000000E-03 0.  1.
<mgrwt>
<rscale>  0 0.20011541E+02</rscale>
<asrwt>0</asrwt>
<pdfrwt beam="1">  1        1 0.10294198E-01 0.20011541E+02</pdfrwt>
<pdfrwt beam="2">  1       -1 0.23018755E-03 0.20011541E+02</pdfrwt>
<totfact> 0.42612802E+06</totfact>
</mgrwt>
</event>
<event>
 4    1  0.9583198E-007  0.3262702E+02  0.7818608E-02  0.1570743E+00
          1   -1    0    0  501    0  0.00000000000E+00  0.00000000000E+00  0.12263489172E+03  0.12263489181E+03  0.46700000000E-02 0. -1.
         -1   -1    0    0    0  501 -0.00000000000E+00 -0.00000000000E+00 -0.21701024509E+01  0.21701074757E+01  0.46700000000E-02 0.  1.
        -11    1    1    2    0    0 -0.10673686151E+02 -0.12286997632E+02  0.55985365595E+02  0.58303164991E+02  0.51100000000E-03 0.  1.
         11    1    1    2    0    0  0.10673686151E+02  0.12286997632E+02  0.64479423675E+02  0.66501834294E+02  0.51100000000E-03 0. -1.
<mgrwt>
<rscale>  0 0.32627019E+02</rscale>
<asrwt>0</asrwt>
<pdfrwt beam="1">  1        1 0.18866910E-01 0.32627019E+02</pdfrwt>
<pdfrwt beam="2">  1       -1 0.33386225E-03 0.32627019E+02</pdfrwt>
<totfact> 0.14786247E+06</totfact>
</mgrwt>
</event>
<event>
 5    1  0.1000890E-006  0.2000098E+02  0.7818608E-02  0.1745309E+00
         -1   -1    0    0    0  501 -0.00000000000E+00  0.00000000000E+00  0.65921134029E+01  0.65921150571E+01  0.46700000000E-02 0.  1.
          1   -1    0    0  501    0  0.00000000000E+00 -0.00000000000E+00 -0.15171125571E+02  0.15171126289E+02  0.46700000000E-02 0. -1.
       1023    2    1    2    0    0  0.00000000000E+00  0.00000000000E+00 -0.85790121678E+01  0.21763241347E+02  0.20000980579E+02 0.  0.
        -11    1    3    3    0    0  0.49688571680E+01  0.86786558874E+01 -0.42518725494E+01  0.10866785634E+02  0.51100000000E-03 0.  1.
         11    1    3    3    0    0 -0.49688571680E+01 -0.86786558874E+01 -0.43271396185E+01  0.10896455713E+02  0.51100000000E-03 0. -1.
<mgrwt>
<rscale>  0 0.20000981E+02</rscale>
<asrwt>0</asrwt>
<pdfrwt beam="2">  1        1 0.23340195E-02 0.20000981E+02</pdfrwt>
<pdfrwt beam="1">  1       -1 0.10141715E-02 0.20000981E+02</pdfrwt>
<totfact> 0.39257887E+06</totfact>
</mgrwt>
</event>
<event>
 5    1  0.9981307E-007  0.2000125E+02  0.7818608E-02  0.1745303E+00
         -1   -1    0    0    0  501 -0.00000000000E+00  0.00000000000E+00  0.44508302780E+01  0.44508327280E+01  0.46700000000E-02 0.  1.
          1   -1    0    0  501    0  0.00000000000E+00 -0.00000000000E+00 -0.22470507905E+02  0.22470508390E+02  0.46700000000E-02 0. -1.
       1023    2    1    2    0    0  0.00000000000E+00  0.00000000000E+00 -0.18019677627E+02  0.26921341118E+02  0.20001245607E+02 0.  0.
        -11    1    3    3    0    0 -0.70417296852E+01 -0.71011558384E+01 -0.89974298191E+01  0.13452364655E+02  0.51100000000E-03 0. -1.
         11    1    3    3    0    0  0.70417296852E+01  0.71011558384E+01 -0.90222478080E+01  0.13468976463E+02  0.51100000000E-03 0.  1.
<mgrwt>
<rscale>  0 0.20001246E+02</rscale>
<asrwt>0</asrwt>
<pdfrwt beam="2">  1        1 0.34570014E-02 0.20001246E+02</pdfrwt>
<pdfrwt beam="1">  1       -1 0.68474336E-03 0.20001246E+02</pdfrwt>
<totfact> 0.39900504E+06</totfact>
</mgrwt>
</event>
<event>
 5    1  0.9583198E-007  0.2000075E+02  0.7818608E-02  0.1745313E+00
         -1   -1    0    0    0  501 -0.00000000000E+00  0.00000000000E+00  0.10792769351E+02  0.10792770362E+02  0.46700000000E-02 0. -1.
          1   -1    0    0  501    0  0.00000000000E+00 -0.00000000000E+00 -0.92661519125E+01  0.92661530893E+01  0.46700000000E-02 0.  1.
       1023    2    1    2    0    0  0.00000000000E+00  0.00000000000E+00  0.15266174388E+01  0.20058923451E+02  0.20000746216E+02 0.  0.
        -11    1    3    3    0    0  0.93991043496E+01  0.34151395112E+01  0.79689619837E+00  0.10032017956E+02  0.51100000000E-03 0.  1.
         11    1    3    3    0    0 -0.93991043496E+01 -0.34151395112E+01  0.72972124045E+00  0.10026905495E+02  0.51100000000E-03 0. -1.
<mgrwt>
<rscale>  0 0.20000746E+02</rscale>
<asrwt>0</asrwt>
<pdfrwt beam="2">  1        1 0.14255620E-02 0.20000746E+02</pdfrwt>
<pdfrwt beam="1">  1       -1 0.16604262E-02 0.20000746E+02</pdfrwt>
<totfact> 0.38501771E+06</totfact>
</mgrwt>
</event>
<event>
 5    1  0.9850546E-007  0.2000141E+02  0.7818608E-02  0.1745300E+00
          1   -1    0    0  501    0  0.00000000000E+00  0.00000000000E+00  0.84607223608E+01  0.84607236497E+01  0.46700000000E-02 0.  1.
         -1   -1    0    0    0  501 -0.00000000000E+00 -0.00000000000E+00 -0.11820987357E+02  0.11820988279E+02  0.46700000000E-02 0. -1.
       1023    2    1    2    0    0  0.00000000000E+00  0.00000000000E+00 -0.33602649961E+01  0.20281711929E+02  0.20001411398E+02 0.  0.
        -11    1    3    3    0    0 -0.13357543494E+01 -0.99110838262E+01 -0.16974578909E+01  0.10143726428E+02  0.51100000000E-03 0.  1.
         11    1    3    3    0    0  0.13357543494E+01  0.99110838262E+01 -0.16628071053E+01  0.10137985501E+02  0.51100000000E-03 0. -1.
<mgrwt>
<rscale>  0 0.20001411E+02</rscale>
<asrwt>0</asrwt>
<pdfrwt beam="1">  1        1 0.13016498E-02 0.20001411E+02</pdfrwt>
<pdfrwt beam="2">  1       -1 0.18186136E-02 0.20001411E+02</pdfrwt>
<totfact> 0.38354139E+06</totfact>
</mgrwt>
</event>
<event>
 5    1  0.9583198E-007  0.2000388E+02  0.7818608E-02  0.1745251E+00
         -1   -1    0    0    0  501 -0.00000000000E+00  0.00000000000E+00  0.10266053138E+02  0.10266054200E+02  0.46700000000E-02 0. -1.
          1   -1    0    0  501    0  0.00000000000E+00 -0.00000000000E+00 -0.97446201626E+01  0.97446212816E+01  0.46700000000E-02 0.  1.
       1023    2    1    2    0    0  0.00000000000E+00  0.00000000000E+00  0.52143297538E+00  0.20010675482E+02  0.20003880646E+02 0.  0.
        -11    1    3    3    0    0  0.99406494793E+01  0.11000356936E+01  0.15013770553E+00  0.10002456308E+02  0.51100000000E-03 0.  1.
         11    1    3    3    0    0 -0.99406494793E+01 -0.11000356936E+01  0.37129526985E+00  0.10008219174E+02  0.51100000000E-03 0. -1.
<mgrwt>
<rscale>  0 0.20003881E+02</rscale>
<asrwt>0</asrwt>
<pdfrwt beam="2">  1        1 0.14991725E-02 0.20003881E+02</pdfrwt>
<pdfrwt beam="1">  1       -1 0.15793929E-02 0.20003881E+02</pdfrwt>
<totfact> 0.38566819E+06</totfact>
</mgrwt>
</event>
<event>
 5    1  0.9583198E-007  0.2000433E+02  0.7818608E-02  0.1745242E+00
         -1   -1    0    0    0  501 -0.00000000000E+00  0.00000000000E+00  0.12524600720E+01  0.12524687784E+01  0.46700000000E-02 0.  1.
          1   -1    0    0  501    0  0.00000000000E+00 -0.00000000000E+00 -0.79877185308E+02  0.79877185444E+02  0.46700000000E-02 0. -1.
       1023    2    1    2    0    0  0.00000000000E+00  0.00000000000E+00 -0.78624725236E+02  0.81129654223E+02  0.20004333928E+02 0.  0.
        -11    1    3    3    0    0 -0.34684591819E+01 -0.93809941256E+01 -0.38905105797E+02  0.40170144600E+02  0.51100000000E-03 0.  1.
         11    1    3    3    0    0  0.34684591819E+01  0.93809941256E+01 -0.39719619439E+02  0.40959509623E+02  0.51100000000E-03 0. -1.
<mgrwt>
<rscale>  0 0.20004334E+02</rscale>
<asrwt>0</asrwt>
<pdfrwt beam="2">  1        1 0.12288794E-01 0.20004334E+02</pdfrwt>
<pdfrwt beam="1">  1       -1 0.19268691E-03 0.20004334E+02</pdfrwt>
<totfact> 0.43332303E+06</totfact>
</mgrwt>
</event>
<event>
 5    1  0.9583198E-007  0.2000034E+02  0.7818608E-02  0.1745321E+00
         -1   -1    0    0    0  501 -0.00000000000E+00  0.00000000000E+00  0.61131752064E+01  0.61131769901E+01  0.46700000000E-02 0. -1.
          1   -1    0    0  501    0  0.00000000000E+00 -0.00000000000E+00 -0.16358664294E+02  0.16358664961E+02  0.46700000000E-02 0.  1.
       1023    2    1    2    0    0  0.00000000000E+00  0.00000000000E+00 -0.10245489088E+02  0.22471841951E+02  0.20000340848E+02 0.  0.
        -11    1    3    3    0    0  0.98854060366E+01 -0.15099111758E+01 -0.51769093644E+01  0.11260616106E+02  0.51100000000E-03 0.  1.
         11    1    3    3    0    0 -0.98854060366E+01  0.15099111758E+01 -0.50685797236E+01  0.11211225845E+02  0.51100000000E-03 0. -1.
<mgrwt>
<rscale>  0 0.20000341E+02</rscale>
<asrwt>0</asrwt>
<pdfrwt beam="2">  1        1 0.25167178E-02 0.20000341E+02</pdfrwt>
<pdfrwt beam="1">  1       -1 0.94048869E-03 0.20000341E+02</pdfrwt>
<totfact> 0.39378428E+06</totfact>
</mgrwt>
</event>
<event>
 4    1  0.9583198E-007  0.2001441E+02  0.7818608E-02  0.1745042E+00
         -1   -1    0    0    0  501 -0.00000000000E+00  0.00000000000E+00  0.27560460017E+01  0.27560499582E+01  0.46700000000E-02 0. -1.
          1   -1    0    0  501    0  0.00000000000E+00 -0.00000000000E+00 -0.36336149722E+02  0.36336150022E+02  0.46700000000E-02 0.  1.
        -11    1    1    2    0    0  0.96266045298E+01  0.27205764497E+01 -0.16269121001E+02  0.19098621662E+02  0.51100000000E-03 0. -1.
         11    1    1    2    0    0 -0.96266045298E+01 -0.27205764497E+01 -0.17310982719E+02  0.19993578318E+02  0.51100000000E-03 0.  1.
<mgrwt>
<rscale>  0 0.20014413E+02</rscale>
<asrwt>0</asrwt>
<pdfrwt beam="2">  1        1 0.55901769E-02 0.20014413E+02</pdfrwt>
<pdfrwt beam="1">  1       -1 0.42400743E-03 0.20014413E+02</pdfrwt>
<totfact> 0.40812340E+06</totfact>
</mgrwt>
</event>
<event>
 5    1  0.9976015E-007  0.2000157E+02  0.7818608E-02  0.1745297E+00
         -1   -1    0    0    0  501 -0.00000000000E+00  0.00000000000E+00  0.31732028477E+01  0.31732062841E+01  0.46700000000E-02 0. -1.
          1   -1    0    0  501    0  0.00000000000E+00 -0.00000000000E+00 -0.31518822233E+02  0.31518822579E+02  0.46700000000E-02 0.  1.
       1023    2    1    2    0    0  0.00000000000E+00  0.00000000000E+00 -0.28345619386E+02  0.34692028863E+02  0.20001568146E+02 0.  0.
        -11    1    3    3    0    0 -0.28813165915E+01 -0.95759413690E+01 -0.13960074764E+02  0.17172196309E+02  0.51100000000E-03 0.  1.
         11    1    3    3    0    0  0.28813165915E+01  0.95759413690E+01 -0.14385544622E+02  0.17519832554E+02  0.51100000000E-03 0. -1.
<mgrwt>
<rscale>  0 0.20001568E+02</rscale>
<asrwt>0</asrwt>
<pdfrwt beam="2">  1        1 0.48490497E-02 0.20001568E+02</pdfrwt>
<pdfrwt beam="1">  1       -1 0.48818537E-03 0.20001568E+02</pdfrwt>
<totfact> 0.40553210E+06</totfact>
</mgrwt>
</event>
<event>
 5    1  0.9583198E-007  0.2000134E+02  0.7818608E-02  0.1745301E+00
         -1   -1    0    0    0  501 -0.00000000000E+00  0.00000000000E+00  0.27915504700E+02  0.27915505091E+02  0.46700000000E-02 0. -1.
          1   -1    0    0  501    0  0.00000000000E+00 -0.00000000000E+00 -0.35827179824E+01  0.35827210260E+01  0.46700000000E-02 0.  1.
       1023    2    1    2    0    0  0.00000000000E+00  0.00000000000E+00  0.24332786718E+02  0.31498226117E+02  0.20001343431E+02 0.  0.
        -11    1    3    3    0    0  0.19026566538E+00 -0.99988007963E+01  0.12111475451E+02  0.15706688265E+02  0.51100000000E-03 0. -1.
         11    1    3    3    0    0 -0.19026566538E+00  0.99988007963E+01  0.12221311267E+02  0.15791537852E+02  0.51100000000E-03 0.  1.
<mgrwt>
<rscale>  0 0.20001343E+02</rscale>
<asrwt>0</asrwt>
<pdfrwt beam="2">  1        1 0.55118763E-03 0.20001343E+02</pdfrwt>
<pdfrwt beam="1">  1       -1 0.42946934E-02 0.20001343E+02</pdfrwt>
<totfact> 0.36663528E+06</totfact>
</mgrwt>
</event>
<event>
 4    1  0.9583198E-007  0.2001782E+02  0.7818608E-02  0.1744974E+00
         -1   -1    0    0    0  501 -0.00000000000E+00  0.00000000000E+00  0.61021817434E+01  0.61021835304E+01  0.46700000000E-02 0. -1.
          1   -1    0    0  501    0  0.00000000000E+00 -0.00000000000E+00 -0.16416790187E+02  0.16416790851E+02  0.46700000000E-02 0.  1.
        -11    1    1    2    0    0 -0.25663221634E+01  0.96682412881E+01 -0.55426959236E+01  0.11436012304E+02  0.51100000000E-03 0.  1.
         11    1    1    2    0    0  0.25663221634E+01 -0.96682412881E+01 -0.47719125197E+01  0.11082962077E+02  0.51100000000E-03 0. -1.
<mgrwt>
<rscale>  0 0.20017819E+02</rscale>
<asrwt>0</asrwt>
<pdfrwt beam="2">  1        1 0.25256602E-02 0.20017819E+02</pdfrwt>
<pdfrwt beam="1">  1       -1 0.93879739E-03 0.20017819E+02</pdfrwt>
<totfact> 0.39306752E+06</totfact>
</mgrwt>
</event>
<event>
 5    1  0.9583198E-007  0.2000052E+02  0.7818608E-02  0.1745318E+00
         -1   -1    0    0    0  501 -0.00000000000E+00  0.00000000000E+00  0.90214948339E+01  0.90214960427E+01  0.46700000000E-02 0. -1.
          1   -1    0    0  501    0  0.00000000000E+00 -0.00000000000E+00 -0.11085209138E+02  0.11085210121E+02  0.46700000000E-02 0.  1.
       1023    2    1    2    0    0  0.00000000000E+00  0.00000000000E+00 -0.20637143036E+01  0.20106706164E+02  0.20000517894E+02 0.  0.
        -11    1    3    3    0    0 -0.55816047413E+01  0.82975539275E+01 -0.10703498592E+01  0.10057303901E+02  0.51100000000E-03 0.  1.
         11    1    3    3    0    0  0.55816047413E+01 -0.82975539275E+01 -0.99336444445E+00  0.10049402263E+02  0.51100000000E-03 0. -1.
<mgrwt>
<rscale>  0 0.20000518E+02</rscale>
<asrwt>0</asrwt>
<pdfrwt beam="2">  1        1 0.17054170E-02 0.20000518E+02</pdfrwt>
<pdfrwt beam="1">  1       -1 0.13879224E-02 0.20000518E+02</pdfrwt>
<totfact> 0.38780242E+06</totfact>
</mgrwt>
</event>
<event>
 5    1  0.9583198E-007  0.2000478E+02  0.7818608E-02  0.1745233E+00
         -1   -1    0    0    0  501 -0.00000000000E+00  0.00000000000E+00  0.15722999462E+02  0.15723000156E+02  0.46700000000E-02 0.  1.
          1   -1    0    0  501    0  0.00000000000E+00 -0.00000000000E+00 -0.63631512995E+01  0.63631530132E+01  0.46700000000E-02 0. -1.
       1023    2    1    2    0    0  0.00000000000E+00  0.00000000000E+00  0.93598481628E+01  0.22086153169E+02  0.20004784532E+02 0.  0.
        -11    1    3    3    0    0  0.63442063503E+01  0.77315317915E+01  0.48448399744E+01  0.11112965972E+02  0.51100000000E-03 0.  1.
         11    1    3    3    0    0 -0.63442063503E+01 -0.77315317915E+01  0.45150081884E+01  0.10973187197E+02  0.51100000000E-03 0. -1.
<mgrwt>
<rscale>  0 0.20004785E+02</rscale>
<asrwt>0</asrwt>
<pdfrwt beam="2">  1        1 0.97894654E-03 0.20004785E+02</pdfrwt>
<pdfrwt beam="1">  1       -1 0.24189232E-02 0.20004785E+02</pdfrwt>
<totfact> 0.37856267E+06</totfact>
</mgrwt>
</event>
<event>
 4    1  0.9583198E-007  0.2003658E+02  0.7818608E-02  0.1744602E+00
          1   -1    0    0  501    0  0.00000000000E+00  0.00000000000E+00  0.24236942132E+02  0.24236942581E+02  0.46700000000E-02 0.  1.
         -1   -1    0    0    0  501 -0.00000000000E+00 -0.00000000000E+00 -0.41410388581E+01  0.41410414914E+01  0.46700000000E-02 0. -1.
        -11    1    1    2    0    0  0.19783627974E+00 -0.10005332586E+02  0.93831259290E+01  0.13718194918E+02  0.51100000000E-03 0.  1.
         11    1    1    2    0    0 -0.19783627974E+00  0.10005332586E+02  0.10712777344E+02  0.14659789154E+02  0.51100000000E-03 0. -1.
<mgrwt>
<rscale>  0 0.20036583E+02</rscale>
<asrwt>0</asrwt>
<pdfrwt beam="1">  1        1 0.37287606E-02 0.20036583E+02</pdfrwt>
<pdfrwt beam="2">  1       -1 0.63708313E-03 0.20036583E+02</pdfrwt>
<totfact> 0.39878622E+06</totfact>
</mgrwt>
</event>
<event>
 5    1  0.9583198E-007  0.2000012E+02  0.7818608E-02  0.1745326E+00
         -1   -1    0    0    0  501 -0.00000000000E+00  0.00000000000E+00  0.47556822254E+01  0.47556845183E+01  0.46700000000E-02 0.  1.
          1   -1    0    0  501    0  0.00000000000E+00 -0.00000000000E+00 -0.21027718000E+02  0.21027718518E+02  0.46700000000E-02 0. -1.
       1023    2    1    2    0    0  0.00000000000E+00  0.00000000000E+00 -0.16272035774E+02  0.25783403036E+02  0.20000118097E+02 0.  0.
        -11    1    3    3    0    0  0.99141816181E+01 -0.13074882082E+01 -0.81029452809E+01  0.12870829230E+02  0.51100000000E-03 0. -1.
         11    1    3    3    0    0 -0.99141816181E+01  0.13074882082E+01 -0.81690904933E+01  0.12912573807E+02  0.51100000000E-03 0.  1.
<mgrwt>
<rscale>  0 0.20000118E+02</rscale>
<asrwt>0</asrwt>
<pdfrwt beam="2">  1        1 0.32350337E-02 0.20000118E+02</pdfrwt>
<pdfrwt beam="1">  1       -1 0.73164365E-03 0.20000118E+02</pdfrwt>
<totfact> 0.39790257E+06</totfact>
</mgrwt>
</event>
<event>
 4    1  0.9583198E-007  0.2004840E+02  0.7818608E-02  0.1744367E+00
         -1   -1    0    0    0  501 -0.00000000000E+00  0.00000000000E+00  0.23684383225E+02  0.23684383685E+02  0.46700000000E-02 0.  1.
          1   -1    0    0  501    0  0.00000000000E+00 -0.00000000000E+00 -0.42426481233E+01  0.42426506935E+01  0.46700000000E-02 0. -1.
        -11    1    1    2    0    0 -0.57978164138E+01 -0.81556786919E+01  0.88911652299E+01  0.13385910111E+02  0.51100000000E-03 0. -1.
         11    1    1    2    0    0  0.57978164138E+01  0.81556786919E+01  0.10550569872E+02  0.14541124268E+02  0.51100000000E-03 0.  1.
<mgrwt>
<rscale>  0 0.20048396E+02</rscale>
<asrwt>0</asrwt>
<pdfrwt beam="2">  1        1 0.65271532E-03 0.20048396E+02</pdfrwt>
<pdfrwt beam="1">  1       -1 0.36437515E-02 0.20048396E+02</pdfrwt>
<totfact> 0.36859380E+06</totfact>
</mgrwt>
</event>
<event>
 4    1  0.9583198E-007  0.2002756E+02  0.7818608E-02  0.1744781E+00
         -1   -1    0    0    0  501 -0.00000000000E+00  0.00000000000E+00  0.14396700423E+01  0.14396776165E+01  0.46700000000E-02 0. -1.
          1   -1    0    0  501    0  0.00000000000E+00 -0.00000000000E+00 -0.69651702429E+02  0.69651702586E+02  0.46700000000E-02 0.  1.
        -11    1    1    2    0    0 -0.70185621303E+01  0.71359246610E+01 -0.35194956459E+02  0.36590526036E+02  0.51100000000E-03 0. -1.
         11    1    1    2    0    0  0.70185621303E+01 -0.71359246610E+01 -0.33017075928E+02  0.34500854167E+02  0.51100000000E-03 0.  1.
<mgrwt>
<rscale>  0 0.20027555E+02</rscale>
<asrwt>0</asrwt>
<pdfrwt beam="2">  1        1 0.10715645E-01 0.20027555E+02</pdfrwt>
<pdfrwt beam="1">  1       -1 0.22148835E-03 0.20027555E+02</pdfrwt>
<totfact> 0.42684820E+06</totfact>
</mgrwt>
</event>
<event>
 5    1  0.9583198E-007  0.2000019E+02  0.7818608E-02  0.1745324E+00
          1   -1    0    0  501    0  0.00000000000E+00  0.00000000000E+00  0.58615655986E+01  0.58615674590E+01  0.46700000000E-02 0. -1.
         -1   -1    0    0    0  501 -0.00000000000E+00 -0.00000000000E+00 -0.17060610335E+02  0.17060610974E+02  0.46700000000E-02 0.  1.
       1023    2    1    2    0    0  0.00000000000E+00  0.00000000000E+00 -0.11199044736E+02  0.22922178433E+02  0.20000191527E+02 0.  0.
        -11    1    3    3    0    0 -0.79567252134E+01  0.60573847616E+01 -0.55731684889E+01  0.11448213552E+02  0.51100000000E-03 0. -1.
         11    1    3    3    0    0  0.79567252134E+01 -0.60573847616E+01 -0.56258762473E+01  0.11473964881E+02  0.51100000000E-03 0.  1.
<mgrwt>
<rscale>  0 0.20000192E+02</rscale>
<asrwt>0</asrwt>
<pdfrwt beam="1">  1        1 0.90177952E-03 0.20000192E+02</pdfrwt>
<pdfrwt beam="2">  1       -1 0.26247095E-02 0.20000192E+02</pdfrwt>
<totfact> 0.37725740E+06</totfact>
</mgrwt>
</event>
<event>
 5    1  0.9583198E-007  0.2000607E+02  0.7818608E-02  0.1745207E+00
         -1   -1    0    0    0  501 -0.00000000000E+00  0.00000000000E+00  0.76353842568E+02  0.76353842711E+02  0.46700000000E-02 0. -1.
          1   -1    0    0  501    0  0.00000000000E+00 -0.00000000000E+00 -0.13104820926E+01  0.13104904135E+01  0.46700000000E-02 0.  1.
       1023    2    1    2    0    0  0.00000000000E+00  0.00000000000E+00  0.75043360476E+02  0.77664333124E+02  0.20006066285E+02 0.  0.
        -11    1    3    3    0    0  0.12731782931E+01 -0.99211818564E+01  0.37906754122E+02  0.39204245188E+02  0.51100000000E-03 0.  1.
         11    1    3    3    0    0 -0.12731782931E+01  0.99211818564E+01  0.37136606353E+02  0.38460087936E+02  0.51100000000E-03 0. -1.
<mgrwt>
<rscale>  0 0.20006066E+02</rscale>
<asrwt>0</asrwt>
<pdfrwt beam="2">  1        1 0.20161327E-03 0.20006066E+02</pdfrwt>
<pdfrwt beam="1">  1       -1 0.11746746E-01 0.20006066E+02</pdfrwt>
<totfact> 0.33188847E+06</totfact>
</mgrwt>
</event>
<event>
 5    1  0.9583198E-007  0.2000033E+02  0.7818608E-02  0.1745322E+00
         -1   -1    0    0    0  501 -0.00000000000E+00  0.00000000000E+00  0.19300545736E+02  0.19300546301E+02  0.46700000000E-02 0.  1.
          1   -1    0    0  501    0  0.00000000000E+00 -0.00000000000E+00 -0.51813681797E+01  0.51813702842E+01  0.46700000000E-02 0. -1.
       1023    2    1    2    0    0  0.00000000000E+00  0.00000000000E+00  0.14119177557E+02  0.24481916586E+02  0.20000326618E+02 0.  0.
        -11    1    3    3    0    0 -0.77962735764E+01 -0.62626760071E+01  0.70798322979E+01  0.12252633108E+02  0.51100000000E-03 0.  1.
         11    1    3    3    0    0  0.77962735764E+01  0.62626760071E+01  0.70393452589E+01  0.12229283478E+02  0.51100000000E-03 0. -1.
<mgrwt>
<rscale>  0 0.20000327E+02</rscale>
<asrwt>0</asrwt>
<pdfrwt beam="2">  1        1 0.79713376E-03 0.20000327E+02</pdfrwt>
<pdfrwt beam="1">  1       -1 0.29693150E-02 0.20000327E+02</pdfrwt>
<totfact> 0.37487214E+06</totfact>
</mgrwt>
</event>
<event>
 4    1  0.9583198E-007  0.2005981E+02  0.7818608E-02  0.1744141E+00
          1   -1    0    0  501    0  0.00000000000E+00  0.00000000000E+00  0.81124839241E+02  0.81124839375E+02  0.46700000000E-02 0. -1.
         -1   -1    0    0    0  501 -0.00000000000E+00 -0.00000000000E+00 -0.12400476475E+01  0.12400564410E+01  0.46700000000E-02 0.  1.
        -11    1    1    2    0    0 -0.14841507809E+01  0.99093654606E+01  0.41782335961E+02  0.42966985303E+02  0.51100000000E-03 0. -1.
         11    1    1    2    0    0  0.14841507809E+01 -0.99093654606E+01  0.38102455632E+02  0.39397910513E+02  0.51100000000E-03 0.  1.
<mgrwt>
<rscale>  0 0.20059814E+02</rscale>
<asrwt>0</asrwt>
<pdfrwt beam="1">  1        1 0.12480745E-01 0.20059814E+02</pdfrwt>
<pdfrwt beam="2">  1       -1 0.19077726E-03 0.20059814E+02</pdfrwt>
<totfact> 0.43131563E+06</totfact>
</mgrwt>
</event>
<event>
 5    1  0.9935827E-007  0.2000227E+02  0.7818608E-02  0.1745283E+00
          1   -1    0    0  501    0  0.00000000000E+00  0.00000000000E+00  0.21831083402E+02  0.21831083901E+02  0.46700000000E-02 0.  1.
         -1   -1    0    0    0  501 -0.00000000000E+00 -0.00000000000E+00 -0.45816618969E+01  0.45816642769E+01  0.46700000000E-02 0. -1.
       1023    2    1    2    0    0  0.00000000000E+00  0.00000000000E+00  0.17249421505E+02  0.26412748178E+02  0.20002267973E+02 0.  0.
        -11    1    3    3    0    0 -0.77306346854E+01  0.63439825799E+01  0.84692901820E+01  0.13104873294E+02  0.51100000000E-03 0.  1.
         11    1    3    3    0    0  0.77306346854E+01 -0.63439825799E+01  0.87801313227E+01  0.13307874884E+02  0.51100000000E-03 0. -1.
<mgrwt>
<rscale>  0 0.20002268E+02</rscale>
<asrwt>0</asrwt>
<pdfrwt beam="1">  1        1 0.33586284E-02 0.20002268E+02</pdfrwt>
<pdfrwt beam="2">  1       -1 0.70487128E-03 0.20002268E+02</pdfrwt>
<totfact> 0.39845369E+06</totfact>
</mgrwt>
</event>
<event>
 5    1  0.9998226E-007  0.2000136E+02  0.7818608E-02  0.1745301E+00
         -1   -1    0    0    0  501 -0.00000000000E+00  0.00000000000E+00  0.65613383328E+01  0.65613399947E+01  0.46700000000E-02 0.  1.
          1   -1    0    0  501    0  0.00000000000E+00 -0.00000000000E+00 -0.15242856754E+02  0.15242857469E+02  0.46700000000E-02 0. -1.
       1023    2    1    2    0    0  0.00000000000E+00  0.00000000000E+00 -0.86815184213E+01  0.21804197464E+02  0.20001356578E+02 0.  0.
        -11    1    3    3    0    0  0.40149395887E+01 -0.91586849692E+01 -0.44617383222E+01  0.10950267549E+02  0.51100000000E-03 0.  1.
         11    1    3    3    0    0 -0.40149395887E+01  0.91586849692E+01 -0.42197800991E+01  0.10853929916E+02  0.51100000000E-03 0. -1.
<mgrwt>
<rscale>  0 0.20001357E+02</rscale>
<asrwt>0</asrwt>
<pdfrwt beam="2">  1        1 0.23450551E-02 0.20001357E+02</pdfrwt>
<pdfrwt beam="1">  1       -1 0.10094369E-02 0.20001357E+02</pdfrwt>
<totfact> 0.39263541E+06</totfact>
</mgrwt>
</event>
<event>
 5    1  0.9583198E-007  0.2000377E+02  0.7818608E-02  0.1745253E+00
          1   -1    0    0  501    0  0.00000000000E+00  0.00000000000E+00  0.12278862196E+02  0.12278863084E+02  0.46700000000E-02 0. -1.
         -1   -1    0    0    0  501 -0.00000000000E+00 -0.00000000000E+00 -0.81471459083E+01  0.81471472467E+01  0.46700000000E-02 0.  1.
       1023    2    1    2    0    0  0.00000000000E+00  0.00000000000E+00  0.41317162873E+01  0.20426010330E+02  0.20003770108E+02 0.  0.
        -11    1    3    3    0    0 -0.21940853218E+01 -0.97580697952E+01  0.20031796938E+01  0.10200326744E+02  0.51100000000E-03 0.  1.
         11    1    3    3    0    0  0.21940853218E+01  0.97580697952E+01  0.21285365935E+01  0.10225683587E+02  0.51100000000E-03 0. -1.
<mgrwt>
<rscale>  0 0.20003770E+02</rscale>
<asrwt>0</asrwt>
<pdfrwt beam="1">  1        1 0.18890559E-02 0.20003770E+02</pdfrwt>
<pdfrwt beam="2">  1       -1 0.12534072E-02 0.20003770E+02</pdfrwt>
<totfact> 0.38921858E+06</totfact>
</mgrwt>
</event>
<event>
 5    1  0.9583198E-007  0.2000049E+02  0.7818608E-02  0.1745318E+00
          1   -1    0    0  501    0  0.00000000000E+00  0.00000000000E+00  0.25517104154E+02  0.25517104581E+02  0.46700000000E-02 0.  1.
         -1   -1    0    0    0  501 -0.00000000000E+00 -0.00000000000E+00 -0.39191285563E+01  0.39191313386E+01  0.46700000000E-02 0. -1.
       1023    2    1    2    0    0  0.00000000000E+00  0.00000000000E+00  0.21597975597E+02  0.29436235920E+02  0.20000485874E+02 0.  0.
        -11    1    3    3    0    0 -0.34822950522E+01  0.93741814304E+01  0.10715702691E+02  0.14657009953E+02  0.51100000000E-03 0.  1.
         11    1    3    3    0    0  0.34822950522E+01 -0.93741814304E+01  0.10882272906E+02  0.14779225967E+02  0.51100000000E-03 0. -1.
<mgrwt>
<rscale>  0 0.20000486E+02</rscale>
<asrwt>0</asrwt>
<pdfrwt beam="1">  1        1 0.39257086E-02 0.20000486E+02</pdfrwt>
<pdfrwt beam="2">  1       -1 0.60294310E-03 0.20000486E+02</pdfrwt>
<totfact> 0.40135491E+06</totfact>
</mgrwt>
</event>
<event>
 4    1  0.9583198E-007  0.2044697E+02  0.7818608E-02  0.1736583E+00
         -1   -1    0    0    0  501 -0.00000000000E+00  0.00000000000E+00  0.93088166193E+02  0.93088166310E+02  0.46700000000E-02 0. -1.
          1   -1    0    0  501    0  0.00000000000E+00 -0.00000000000E+00 -0.11227979019E+01  0.11228076137E+01  0.46700000000E-02 0.  1.
        -11    1    1    2    0    0 -0.65062585533E+01  0.78154502074E+01  0.41134870184E+02  0.42373225127E+02  0.51100000000E-03 0.  1.
         11    1    1    2    0    0  0.65062585533E+01 -0.78154502074E+01  0.50830498107E+02  0.51837748797E+02  0.51100000000E-03 0. -1.
<mgrwt>
<rscale>  0 0.20446971E+02</rscale>
<asrwt>0</asrwt>
<pdfrwt beam="2">  1        1 0.17273886E-03 0.20446971E+02</pdfrwt>
<pdfrwt beam="1">  1       -1 0.14321260E-01 0.20446971E+02</pdfrwt>
<totfact> 0.30717324E+06</totfact>
</mgrwt>
</event>
<event>
 5    1  0.9583198E-007  0.2000022E+02  0.7818608E-02  0.1745324E+00
         -1   -1    0    0    0  501 -0.00000000000E+00  0.00000000000E+00  0.46518923396E+02  0.46518923631E+02  0.46700000000E-02 0.  1.
          1   -1    0    0  501    0  0.00000000000E+00 -0.00000000000E+00 -0.21497064782E+01  0.21497115507E+01  0.46700000000E-02 0. -1.
       1023    2    1    2    0    0  0.00000000000E+00  0.00000000000E+00  0.44369216918E+02  0.48668635181E+02  0.20000216011E+02 0.  0.
        -11    1    3    3    0    0 -0.97804476395E+01  0.20842573847E+01  0.22256589013E+02  0.24399939337E+02  0.51100000000E-03 0. -1.
         11    1    3    3    0    0  0.97804476395E+01 -0.20842573847E+01  0.22112627905E+02  0.24268695844E+02  0.51100000000E-03 0.  1.
<mgrwt>
<rscale>  0 0.20000216E+02</rscale>
<asrwt>0</asrwt>
<pdfrwt beam="2">  1        1 0.33072448E-03 0.20000216E+02</pdfrwt>
<pdfrwt beam="1">  1       -1 0.71567580E-02 0.20000216E+02</pdfrwt>
<totfact> 0.35179897E+06</totfact>
</mgrwt>
</event>
<event>
 5    1  0.9583198E-007  0.2000150E+02  0.7818608E-02  0.1745298E+00
          1   -1    0    0  501    0  0.00000000000E+00  0.00000000000E+00  0.83974591033E+01  0.83974604019E+01  0.46700000000E-02 0. -1.
         -1   -1    0    0    0  501 -0.00000000000E+00 -0.00000000000E+00 -0.11910144781E+02  0.11910145697E+02  0.46700000000E-02 0.  1.
       1023    2    1    2    0    0  0.00000000000E+00  0.00000000000E+00 -0.35126856777E+01  0.20307606098E+02  0.20001497563E+02 0.  0.
        -11    1    3    3    0    0  0.50838298082E+01  0.86121730084E+01 -0.17449239519E+01  0.10151827880E+02  0.51100000000E-03 0.  1.
         11    1    3    3    0    0 -0.50838298082E+01 -0.86121730084E+01 -0.17677617258E+01  0.10155778219E+02  0.51100000000E-03 0. -1.
<mgrwt>
<rscale>  0 0.20001498E+02</rscale>
<asrwt>0</asrwt>
<pdfrwt beam="1">  1        1 0.12919170E-02 0.20001498E+02</pdfrwt>
<pdfrwt beam="2">  1       -1 0.18323301E-02 0.20001498E+02</pdfrwt>
<totfact> 0.38341655E+06</totfact>
</mgrwt>
</event>
<event>
 4    1  0.9583198E-007  0.2001432E+02  0.7818608E-02  0.1745043E+00
         -1   -1    0    0    0  501 -0.00000000000E+00  0.00000000000E+00  0.29583923185E+01  0.29583960044E+01  0.46700000000E-02 0.  1.
          1   -1    0    0  501    0  0.00000000000E+00 -0.00000000000E+00 -0.33850538937E+02  0.33850539259E+02  0.46700000000E-02 0. -1.
        -11    1    1    2    0    0 -0.73339512187E+01  0.68080245563E+01 -0.15602226554E+02  0.18535520293E+02  0.51100000000E-03 0. -1.
         11    1    1    2    0    0  0.73339512187E+01 -0.68080245563E+01 -0.15289920065E+02  0.18273414971E+02  0.51100000000E-03 0.  1.
<mgrwt>
<rscale>  0 0.20014320E+02</rscale>
<asrwt>0</asrwt>
<pdfrwt beam="2">  1        1 0.52077753E-02 0.20014320E+02</pdfrwt>
<pdfrwt beam="1">  1       -1 0.45513761E-03 0.20014320E+02</pdfrwt>
<totfact> 0.40650967E+06</totfact>
</mgrwt>
</event>
<event>
 5    1  0.1126545E-006  0.2000081E+02  0.7818608E-02  0.1745312E+00
          1   -1    0    0  501    0  0.00000000000E+00  0.00000000000E+00  0.13296173777E+01  0.13296255789E+01  0.46700000000E-02 0. -1.
         -1   -1    0    0    0  501 -0.00000000000E+00 -0.00000000000E+00 -0.75215477664E+02  0.75215477809E+02  0.46700000000E-02 0.  1.
       1023    2    1    2    0    0  0.00000000000E+00  0.00000000000E+00 -0.73885860286E+02  0.76545103388E+02  0.20000812544E+02 0.  0.
        -11    1    3    3    0    0 -0.99892695088E+01 -0.47179468104E+00 -0.36963822480E+02  0.38292718213E+02  0.51100000000E-03 0. -1.
         11    1    3    3    0    0  0.99892695088E+01  0.47179468104E+00 -0.36922037806E+02  0.38252385175E+02  0.51100000000E-03 0.  1.
<mgrwt>
<rscale>  0 0.20000813E+02</rscale>
<asrwt>0</asrwt>
<pdfrwt beam="1">  1        1 0.20455722E-03 0.20000813E+02</pdfrwt>
<pdfrwt beam="2">  1       -1 0.11571609E-01 0.20000813E+02</pdfrwt>
<totfact> 0.33276761E+06</totfact>
</mgrwt>
</event>
<event>
 5    1  0.9583198E-007  0.2000048E+02  0.7818608E-02  0.1745319E+00
         -1   -1    0    0    0  501 -0.00000000000E+00  0.00000000000E+00  0.11841942193E+03  0.11841942202E+03  0.46700000000E-02 0.  1.
          1   -1    0    0  501    0  0.00000000000E+00 -0.00000000000E+00 -0.84448978667E+00  0.84450269904E+00  0.46700000000E-02 0. -1.
       1023    2    1    2    0    0  0.00000000000E+00  0.00000000000E+00  0.11757493214E+03  0.11926392472E+03  0.20000476778E+02 0.  0.
        -11    1    3    3    0    0 -0.45460333180E+01 -0.89069536761E+01  0.59188583436E+02  0.60027399178E+02  0.51100000000E-03 0. -1.
         11    1    3    3    0    0  0.45460333180E+01  0.89069536761E+01  0.58386348704E+02  0.59236525539E+02  0.51100000000E-03 0.  1.
<mgrwt>
<rscale>  0 0.20000477E+02</rscale>
<asrwt>0</asrwt>
<pdfrwt beam="2">  1        1 0.12992244E-03 0.20000477E+02</pdfrwt>
<pdfrwt beam="1">  1       -1 0.18218383E-01 0.20000477E+02</pdfrwt>
<totfact> 0.30913416E+06</totfact>
</mgrwt>
</event>
<event>
 5    1  0.9583198E-007  0.2001128E+02  0.7818608E-02  0.1745104E+00
          1   -1    0    0  501    0  0.00000000000E+00  0.00000000000E+00  0.35085118190E+01  0.35085149270E+01  0.46700000000E-02 0.  1.
         -1   -1    0    0    0  501 -0.00000000000E+00 -0.00000000000E+00 -0.28534256895E+02  0.28534257277E+02  0.46700000000E-02 0. -1.
       1023    2    1    2    0    0  0.00000000000E+00  0.00000000000E+00 -0.25025745076E+02  0.32042772204E+02  0.20011280167E+02 0.  0.
        -11    1    3    3    0    0 -0.99838341007E+01 -0.64804316253E+00 -0.12714970574E+02  0.16179226812E+02  0.51100000000E-03 0. -1.
         11    1    3    3    0    0  0.99838341007E+01  0.64804316253E+00 -0.12310774502E+02  0.15863545391E+02  0.51100000000E-03 0.  1.
<mgrwt>
<rscale>  0 0.20011280E+02</rscale>
<asrwt>0</asrwt>
<pdfrwt beam="1">  1        1 0.53977134E-03 0.20011280E+02</pdfrwt>
<pdfrwt beam="2">  1       -1 0.43898858E-02 0.20011280E+02</pdfrwt>
<totfact> 0.36568876E+06</totfact>
</mgrwt>
</event>
<event>
 5    1  0.9668411E-007  0.2000103E+02  0.7818608E-02  0.1745308E+00
         -1   -1    0    0    0  501 -0.00000000000E+00  0.00000000000E+00  0.84577495477E+01  0.84577508370E+01  0.46700000000E-02 0.  1.
          1   -1    0    0  501    0  0.00000000000E+00 -0.00000000000E+00 -0.11824690816E+02  0.11824691738E+02  0.46700000000E-02 0. -1.
       1023    2    1    2    0    0  0.00000000000E+00  0.00000000000E+00 -0.33669412681E+01  0.20282442575E+02  0.20001029556E+02 0.  0.
        -11    1    3    3    0    0  0.18063397383E+01  0.98358752993E+01 -0.16280258314E+01  0.10132017298E+02  0.51100000000E-03 0.  1.
         11    1    3    3    0    0 -0.18063397383E+01 -0.98358752993E+01 -0.17389154367E+01  0.10150425277E+02  0.51100000000E-03 0. -1.
<mgrwt>
<rscale>  0 0.20001030E+02</rscale>
<asrwt>0</asrwt>
<pdfrwt beam="2">  1        1 0.18191834E-02 0.20001030E+02</pdfrwt>
<pdfrwt beam="1">  1       -1 0.13011924E-02 0.20001030E+02</pdfrwt>
<totfact> 0.38876507E+06</totfact>
</mgrwt>
</event>
<event>
 5    1  0.9583198E-007  0.2000027E+02  0.7818608E-02  0.1745323E+00
          1   -1    0    0  501    0  0.00000000000E+00  0.00000000000E+00  0.80492122261E+02  0.80492122397E+02  0.46700000000E-02 0. -1.
         -1   -1    0    0    0  501 -0.00000000000E+00 -0.00000000000E+00 -0.12423866968E+01  0.12423954738E+01  0.46700000000E-02 0.  1.
       1023    2    1    2    0    0  0.00000000000E+00  0.00000000000E+00  0.79249735564E+02  0.81734517870E+02  0.20000270611E+02 0.  0.
        -11    1    3    3    0    0  0.10983909481E+01  0.99395310391E+01  0.39443670498E+02  0.40691570166E+02  0.51100000000E-03 0.  1.
         11    1    3    3    0    0 -0.10983909481E+01 -0.99395310391E+01  0.39806065066E+02  0.41042947705E+02  0.51100000000E-03 0. -1.
<mgrwt>
<rscale>  0 0.20000271E+02</rscale>
<asrwt>0</asrwt>
<pdfrwt beam="1">  1        1 0.12383403E-01 0.20000271E+02</pdfrwt>
<pdfrwt beam="2">  1       -1 0.19113712E-03 0.20000271E+02</pdfrwt>
<totfact> 0.43383486E+06</totfact>
</mgrwt>
</event>
<event>
 5    1  0.9583198E-007  0.2000046E+02  0.7818608E-02  0.1745319E+00
          1   -1    0    0  501    0  0.00000000000E+00  0.00000000000E+00  0.33576644868E+02  0.33576645193E+02  0.46700000000E-02 0. -1.
         -1   -1    0    0    0  501 -0.00000000000E+00 -0.00000000000E+00 -0.29783940978E+01  0.29783977590E+01  0.46700000000E-02 0.  1.
       1023    2    1    2    0    0  0.00000000000E+00  0.00000000000E+00  0.30598250770E+02  0.36555042952E+02  0.20000455370E+02 0.  0.
        -11    1    3    3    0    0  0.95047758078E+01  0.31085977514E+01  0.15262101051E+02  0.18246530407E+02  0.51100000000E-03 0. -1.
         11    1    3    3    0    0 -0.95047758078E+01 -0.31085977514E+01  0.15336149719E+02  0.18308512545E+02  0.51100000000E-03 0.  1.
<mgrwt>
<rscale>  0 0.20000455E+02</rscale>
<asrwt>0</asrwt>
<pdfrwt beam="1">  1        1 0.51656379E-02 0.20000455E+02</pdfrwt>
<pdfrwt beam="2">  1       -1 0.45821479E-03 0.20000455E+02</pdfrwt>
<totfact> 0.40695776E+06</totfact>
</mgrwt>
</event>
<event>
 5    1  0.9781368E-007  0.2000220E+02  0.7818608E-02  0.1745284E+00
         -1   -1    0    0    0  501 -0.00000000000E+00  0.00000000000E+00  0.35045636489E+01  0.35045667604E+01  0.46700000000E-02 0.  1.
          1   -1    0    0  501    0  0.00000000000E+00 -0.00000000000E+00 -0.28540473764E+02  0.28540474146E+02  0.46700000000E-02 0. -1.
       1023    2    1    2    0    0  0.00000000000E+00  0.00000000000E+00 -0.25035910115E+02  0.32045040906E+02  0.20002196165E+02 0.  0.
        -11    1    3    3    0    0 -0.92213860524E+01  0.38699254630E+01 -0.12344821284E+02  0.15887255793E+02  0.51100000000E-03 0. -1.
         11    1    3    3    0    0  0.92213860524E+01 -0.38699254630E+01 -0.12691088831E+02  0.16157785114E+02  0.51100000000E-03 0.  1.
<mgrwt>
<rscale>  0 0.20002196E+02</rscale>
<asrwt>0</asrwt>
<pdfrwt beam="2">  1        1 0.43908422E-02 0.20002196E+02</pdfrwt>
<pdfrwt beam="1">  1       -1 0.53916392E-03 0.20002196E+02</pdfrwt>
<totfact> 0.40345286E+06</totfact>
</mgrwt>
</event>
<event>
 5    1  0.9746186E-007  0.2000172E+02  0.7818608E-02  0.1745294E+00
         -1   -1    0    0    0  501 -0.00000000000E+00  0.00000000000E+00  0.49892062369E+01  0.49892084225E+01  0.46700000000E-02 0.  1.
          1   -1    0    0  501    0  0.00000000000E+00 -0.00000000000E+00 -0.20046718156E+02  0.20046718700E+02  0.46700000000E-02 0. -1.
       1023    2    1    2    0    0  0.00000000000E+00  0.00000000000E+00 -0.15057511919E+02  0.25035927123E+02  0.20001724468E+02 0.  0.
        -11    1    3    3    0    0  0.45899904692E+01  0.88852896899E+01 -0.74920539343E+01  0.12495889636E+02  0.51100000000E-03 0.  1.
         11    1    3    3    0    0 -0.45899904692E+01 -0.88852896899E+01 -0.75654579852E+01  0.12540037487E+02  0.51100000000E-03 0. -1.
<mgrwt>
<rscale>  0 0.20001724E+02</rscale>
<asrwt>0</asrwt>
<pdfrwt beam="2">  1        1 0.30841107E-02 0.20001724E+02</pdfrwt>
<pdfrwt beam="1">  1       -1 0.76757041E-03 0.20001724E+02</pdfrwt>
<totfact> 0.39702139E+06</totfact>
</mgrwt>
</event>
<event>
 5    1  0.9583198E-007  0.2000038E+02  0.7818608E-02  0.1745321E+00
          1   -1    0    0  501    0  0.00000000000E+00  0.00000000000E+00  0.15187882364E+02  0.15187883082E+02  0.46700000000E-02 0. -1.
         -1   -1    0    0    0  501 -0.00000000000E+00 -0.00000000000E+00 -0.65844437206E+01  0.65844453767E+01  0.46700000000E-02 0.  1.
       1023    2    1    2    0    0  0.00000000000E+00  0.00000000000E+00  0.86034386438E+01  0.21772328459E+02  0.20000378247E+02 0.  0.
        -11    1    3    3    0    0  0.23919882503E+01 -0.97098511205E+01  0.43355477774E+01  0.10899531704E+02  0.51100000000E-03 0.  1.
         11    1    3    3    0    0 -0.23919882503E+01  0.97098511205E+01  0.42678908664E+01  0.10872796755E+02  0.51100000000E-03 0. -1.
<mgrwt>
<rscale>  0 0.20000378E+02</rscale>
<asrwt>0</asrwt>
<pdfrwt beam="1">  1        1 0.23365975E-02 0.20000378E+02</pdfrwt>
<pdfrwt beam="2">  1       -1 0.10129915E-02 0.20000378E+02</pdfrwt>
<totfact> 0.39262259E+06</totfact>
</mgrwt>
</event>
<event>
 5    1  0.9583198E-007  0.2000053E+02  0.7818608E-02  0.1745318E+00
          1   -1    0    0  501    0  0.00000000000E+00  0.00000000000E+00  0.33933843756E+02  0.33933844078E+02  0.46700000000E-02 0.  1.
         -1   -1    0    0    0  501 -0.00000000000E+00 -0.00000000000E+00 -0.29470649362E+01  0.29470686363E+01  0.46700000000E-02 0. -1.
       1023    2    1    2    0    0  0.00000000000E+00  0.00000000000E+00  0.30986778820E+02  0.36880912714E+02  0.20000531517E+02 0.  0.
        -11    1    3    3    0    0 -0.99430058698E+01  0.10680148478E+01  0.15427068581E+02  0.18384734611E+02  0.51100000000E-03 0.  1.
         11    1    3    3    0    0  0.99430058698E+01 -0.10680148478E+01  0.15559710239E+02  0.18496178103E+02  0.51100000000E-03 0. -1.
<mgrwt>
<rscale>  0 0.20000532E+02</rscale>
<asrwt>0</asrwt>
<pdfrwt beam="1">  1        1 0.52205917E-02 0.20000532E+02</pdfrwt>
<pdfrwt beam="2">  1       -1 0.45339491E-03 0.20000532E+02</pdfrwt>
<totfact> 0.40718998E+06</totfact>
</mgrwt>
</event>
<event>
 5    1  0.9597007E-007  0.2000078E+02  0.7818608E-02  0.1745313E+00
         -1   -1    0    0    0  501 -0.00000000000E+00  0.00000000000E+00  0.23058199541E+01  0.23058246832E+01  0.46700000000E-02 0.  1.
          1   -1    0    0  501    0  0.00000000000E+00 -0.00000000000E+00 -0.43371863089E+02  0.43371863341E+02  0.46700000000E-02 0. -1.
       1023    2    1    2    0    0  0.00000000000E+00  0.00000000000E+00 -0.41066043135E+02  0.45677688024E+02  0.20000782096E+02 0.  0.
        -11    1    3    3    0    0  0.78928807881E+01  0.61408003476E+01 -0.20467432385E+02  0.22779876750E+02  0.51100000000E-03 0. -1.
         11    1    3    3    0    0 -0.78928807881E+01 -0.61408003476E+01 -0.20598610751E+02  0.22897811274E+02  0.51100000000E-03 0.  1.
<mgrwt>
<rscale>  0 0.20000782E+02</rscale>
<asrwt>0</asrwt>
<pdfrwt beam="2">  1        1 0.66725941E-02 0.20000782E+02</pdfrwt>
<pdfrwt beam="1">  1       -1 0.35474195E-03 0.20000782E+02</pdfrwt>
<totfact> 0.41315010E+06</totfact>
</mgrwt>
</event>
<event>
 4    1  0.9583198E-007  0.2002767E+02  0.7818608E-02  0.1744778E+00
          1   -1    0    0  501    0  0.00000000000E+00  0.00000000000E+00  0.75730257283E+01  0.75730271682E+01  0.46700000000E-02 0. -1.
         -1   -1    0    0    0  501 -0.00000000000E+00 -0.00000000000E+00 -0.13241320265E+02  0.13241321088E+02  0.46700000000E-02 0.  1.
        -11    1    1    2    0    0  0.94324948430E+01 -0.33618959594E+01 -0.27813693269E+01  0.10392801307E+02  0.51100000000E-03 0.  1.
         11    1    1    2    0    0 -0.94324948430E+01  0.33618959594E+01 -0.28869252096E+01  0.10421546950E+02  0.51100000000E-03 0. -1.
<mgrwt>
<rscale>  0 0.20027669E+02</rscale>
<asrwt>0</asrwt>
<pdfrwt beam="1">  1        1 0.11650811E-02 0.20027669E+02</pdfrwt>
<pdfrwt beam="2">  1       -1 0.20371264E-02 0.20027669E+02</pdfrwt>
<totfact> 0.38058375E+06</totfact>
</mgrwt>
</event>
<event>
 5    1  0.9583198E-007  0.2001038E+02  0.7818608E-02  0.1745122E+00
          1   -1    0    0  501    0  0.00000000000E+00  0.00000000000E+00  0.12789427877E+02  0.12789428729E+02  0.46700000000E-02 0.  1.
         -1   -1    0    0    0  501 -0.00000000000E+00 -0.00000000000E+00 -0.78270751360E+01  0.78270765291E+01  0.46700000000E-02 0. -1.
       1023    2    1    2    0    0  0.00000000000E+00  0.00000000000E+00  0.49623527407E+01  0.20616505258E+02  0.20010380915E+02 0.  0.
        -11    1    3    3    0    0  0.59530407455E+01  0.80386325429E+01  0.22613389604E+01  0.10255338192E+02  0.51100000000E-03 0. -1.
         11    1    3    3    0    0 -0.59530407455E+01 -0.80386325429E+01  0.27010137802E+01  0.10361167066E+02  0.51100000000E-03 0.  1.
<mgrwt>
<rscale>  0 0.20010381E+02</rscale>
<asrwt>0</asrwt>
<pdfrwt beam="1">  1        1 0.19676044E-02 0.20010381E+02</pdfrwt>
<pdfrwt beam="2">  1       -1 0.12041656E-02 0.20010381E+02</pdfrwt>
<totfact> 0.38954848E+06</totfact>
</mgrwt>
</event>
<event>
 5    1  0.9583198E-007  0.2000034E+02  0.7818608E-02  0.1745321E+00
          1   -1    0    0  501    0  0.00000000000E+00  0.00000000000E+00  0.32276954657E+01  0.32276988441E+01  0.46700000000E-02 0. -1.
         -1   -1    0    0    0  501 -0.00000000000E+00 -0.00000000000E+00 -0.30982898891E+02  0.30982899243E+02  0.46700000000E-02 0.  1.
       1023    2    1    2    0    0  0.00000000000E+00  0.00000000000E+00 -0.27755203425E+02  0.34210598087E+02  0.20000342604E+02 0.  0.
        -11    1    3    3    0    0 -0.99518727342E+01  0.98104278297E+00 -0.13818103010E+02  0.17057027493E+02  0.51100000000E-03 0. -1.
         11    1    3    3    0    0  0.99518727342E+01 -0.98104278297E+00 -0.13937100416E+02  0.17153570594E+02  0.51100000000E-03 0.  1.
<mgrwt>
<rscale>  0 0.20000343E+02</rscale>
<asrwt>0</asrwt>
<pdfrwt beam="1">  1        1 0.49656884E-03 0.20000343E+02</pdfrwt>
<pdfrwt beam="2">  1       -1 0.47665999E-02 0.20000343E+02</pdfrwt>
<totfact> 0.36400808E+06</totfact>
</mgrwt>
</event>
<event>
 5    1  0.9583198E-007  0.2000544E+02  0.7818608E-02  0.1745220E+00
          1   -1    0    0  501    0  0.00000000000E+00  0.00000000000E+00  0.61083188557E+02  0.61083188736E+02  0.46700000000E-02 0.  1.
         -1   -1    0    0    0  501 -0.00000000000E+00 -0.00000000000E+00 -0.16379992621E+01  0.16380059193E+01  0.46700000000E-02 0. -1.
       1023    2    1    2    0    0  0.00000000000E+00  0.00000000000E+00  0.59445189295E+02  0.62721194655E+02  0.20005442475E+02 0.  0.
        -11    1    3    3    0    0 -0.36325370729E+01  0.93198191504E+01  0.29695027722E+02  0.31334470256E+02  0.51100000000E-03 0.  1.
         11    1    3    3    0    0  0.36325370729E+01 -0.93198191504E+01  0.29750161573E+02  0.31386724399E+02  0.51100000000E-03 0. -1.
<mgrwt>
<rscale>  0 0.20005442E+02</rscale>
<asrwt>0</asrwt>
<pdfrwt beam="1">  1        1 0.93974141E-02 0.20005442E+02</pdfrwt>
<pdfrwt beam="2">  1       -1 0.25200041E-03 0.20005442E+02</pdfrwt>
<totfact> 0.42321477E+06</totfact>
</mgrwt>
</event>
<event>
 5    1  0.1017031E-006  0.2000223E+02  0.7818608E-02  0.1745284E+00
         -1   -1    0    0    0  501 -0.00000000000E+00  0.00000000000E+00  0.11365882609E+01  0.11365978549E+01  0.46700000000E-02 0.  1.
          1   -1    0    0  501    0  0.00000000000E+00 -0.00000000000E+00 -0.88001806743E+02  0.88001806867E+02  0.46700000000E-02 0. -1.
       1023    2    1    2    0    0  0.00000000000E+00  0.00000000000E+00 -0.86865218482E+02  0.89138404722E+02  0.20002225236E+02 0.  0.
        -11    1    3    3    0    0  0.97090213977E+01 -0.23975283171E+01 -0.43855730465E+02  0.44981533249E+02  0.51100000000E-03 0. -1.
         11    1    3    3    0    0 -0.97090213977E+01  0.23975283171E+01 -0.43009488017E+02  0.44156871473E+02  0.51100000000E-03 0.  1.
<mgrwt>
<rscale>  0 0.20002225E+02</rscale>
<asrwt>0</asrwt>
<pdfrwt beam="2">  1        1 0.13538735E-01 0.20002225E+02</pdfrwt>
<pdfrwt beam="1">  1       -1 0.17486055E-03 0.20002225E+02</pdfrwt>
<totfact> 0.43756706E+06</totfact>
</mgrwt>
</event>
<event>
 5    1  0.9841502E-007  0.2000086E+02  0.7818608E-02  0.1745311E+00
         -1   -1    0    0    0  501 -0.00000000000E+00  0.00000000000E+00  0.24262833637E+01  0.24262878580E+01  0.46700000000E-02 0.  1.
          1   -1    0    0  501    0  0.00000000000E+00 -0.00000000000E+00 -0.41218802845E+02  0.41218803110E+02  0.46700000000E-02 0. -1.
       1023    2    1    2    0    0  0.00000000000E+00  0.00000000000E+00 -0.38792519482E+02  0.43645090968E+02  0.20000859928E+02 0.  0.
        -11    1    3    3    0    0 -0.91996024483E+01 -0.39210237550E+01 -0.19312120283E+02  0.21747760863E+02  0.51100000000E-03 0. -1.
         11    1    3    3    0    0  0.91996024483E+01  0.39210237550E+01 -0.19480399199E+02  0.21897330104E+02  0.51100000000E-03 0.  1.
<mgrwt>
<rscale>  0 0.20000860E+02</rscale>
<asrwt>0</asrwt>
<pdfrwt beam="2">  1        1 0.63413541E-02 0.20000860E+02</pdfrwt>
<pdfrwt beam="1">  1       -1 0.37327476E-03 0.20000860E+02</pdfrwt>
<totfact> 0.41182286E+06</totfact>
</mgrwt>
</event>
<event>
 4    1  0.9583198E-007  0.2001313E+02  0.7818608E-02  0.1745067E+00
         -1   -1    0    0    0  501 -0.00000000000E+00  0.00000000000E+00  0.42389529899E+01  0.42389555623E+01  0.46700000000E-02 0.  1.
          1   -1    0    0  501    0  0.00000000000E+00 -0.00000000000E+00 -0.23621694899E+02  0.23621695360E+02  0.46700000000E-02 0. -1.
        -11    1    1    2    0    0  0.92840414416E+01  0.37330127194E+01 -0.96219494553E+01  0.13882028707E+02  0.51100000000E-03 0. -1.
         11    1    1    2    0    0 -0.92840414416E+01 -0.37330127194E+01 -0.97607924535E+01  0.13978622215E+02  0.51100000000E-03 0.  1.
<mgrwt>
<rscale>  0 0.20013125E+02</rscale>
<asrwt>0</asrwt>
<pdfrwt beam="2">  1        1 0.36341071E-02 0.20013125E+02</pdfrwt>
<pdfrwt beam="1">  1       -1 0.65214686E-03 0.20013125E+02</pdfrwt>
<totfact> 0.39936578E+06</totfact>
</mgrwt>
</event>
<event>
 5    1  0.9583198E-007  0.2000168E+02  0.7818608E-02  0.1745295E+00
          1   -1    0    0  501    0  0.00000000000E+00  0.00000000000E+00  0.14145933193E+01  0.14146010278E+01  0.46700000000E-02 0.  1.
         -1   -1    0    0    0  501 -0.00000000000E+00 -0.00000000000E+00 -0.70703382237E+02  0.70703382391E+02  0.46700000000E-02 0. -1.
       1023    2    1    2    0    0  0.00000000000E+00  0.00000000000E+00 -0.69288788917E+02  0.72117983419E+02  0.20001681498E+02 0.  0.
        -11    1    3    3    0    0 -0.93805650882E+01 -0.34650848858E+01 -0.34202789373E+02  0.35634710828E+02  0.51100000000E-03 0.  1.
         11    1    3    3    0    0  0.93805650882E+01  0.34650848858E+01 -0.35085999544E+02  0.36483272590E+02  0.51100000000E-03 0. -1.
<mgrwt>
<rscale>  0 0.20001681E+02</rscale>
<asrwt>0</asrwt>
<pdfrwt beam="1">  1        1 0.21763040E-03 0.20001681E+02</pdfrwt>
<pdfrwt beam="2">  1       -1 0.10877441E-01 0.20001681E+02</pdfrwt>
<totfact> 0.33550478E+06</totfact>
</mgrwt>
</event>
<event>
 4    1  0.1418543E-006  0.2039027E+02  0.7818608E-02  0.1737677E+00
         -1   -1    0    0    0  501 -0.00000000000E+00  0.00000000000E+00  0.12904929776E+02  0.12904930621E+02  0.46700000000E-02 0. -1.
          1   -1    0    0  501    0  0.00000000000E+00 -0.00000000000E+00 -0.80543412617E+01  0.80543426156E+01  0.46700000000E-02 0.  1.
        -11    1    1    2    0    0 -0.22195465060E+01 -0.97807869308E+01  0.54376278496E+00  0.10044195234E+02  0.51100000000E-03 0.  1.
         11    1    1    2    0    0  0.22195465060E+01  0.97807869308E+01  0.43068257297E+01  0.10915078003E+02  0.51100000000E-03 0. -1.
<mgrwt>
<rscale>  0 0.20390265E+02</rscale>
<asrwt>0</asrwt>
<pdfrwt beam="2">  1        1 0.12391296E-02 0.20390265E+02</pdfrwt>
<pdfrwt beam="1">  1       -1 0.19853740E-02 0.20390265E+02</pdfrwt>
<totfact> 0.36628770E+06</totfact>
</mgrwt>
</event>
<event>
 5    1  0.9583198E-007  0.2000021E+02  0.7818608E-02  0.1745324E+00
          1   -1    0    0  501    0  0.00000000000E+00  0.00000000000E+00  0.23845724879E+01  0.23845770608E+01  0.46700000000E-02 0. -1.
         -1   -1    0    0    0  501 -0.00000000000E+00 -0.00000000000E+00 -0.41937053899E+02  0.41937054159E+02  0.46700000000E-02 0.  1.
       1023    2    1    2    0    0  0.00000000000E+00  0.00000000000E+00 -0.39552481411E+02  0.44321631220E+02  0.20000205204E+02 0.  0.
        -11    1    3    3    0    0  0.59907360660E+01 -0.80070318316E+01 -0.19829353478E+02  0.22208213277E+02  0.51100000000E-03 0.  1.
         11    1    3    3    0    0 -0.59907360660E+01  0.80070318316E+01 -0.19723127933E+02  0.22113417942E+02  0.51100000000E-03 0. -1.
<mgrwt>
<rscale>  0 0.20000205E+02</rscale>
<asrwt>0</asrwt>
<pdfrwt beam="1">  1        1 0.36685771E-03 0.20000205E+02</pdfrwt>
<pdfrwt beam="2">  1       -1 0.64518543E-02 0.20000205E+02</pdfrwt>
<totfact> 0.35521665E+06</totfact>
</mgrwt>
</event>
<event>
 5    1  0.9669228E-007  0.2000097E+02  0.7818608E-02  0.1745309E+00
         -1   -1    0    0    0  501 -0.00000000000E+00  0.00000000000E+00  0.35657927911E+02  0.35657928217E+02  0.46700000000E-02 0. -1.
          1   -1    0    0  501    0  0.00000000000E+00 -0.00000000000E+00 -0.28046963294E+01  0.28047002173E+01  0.46700000000E-02 0.  1.
       1023    2    1    2    0    0  0.00000000000E+00  0.00000000000E+00  0.32853231582E+02  0.38462628434E+02  0.20000973994E+02 0.  0.
        -11    1    3    3    0    0 -0.45827705190E+01  0.88881269024E+01  0.16242621633E+02  0.19074153802E+02  0.51100000000E-03 0.  1.
         11    1    3    3    0    0  0.45827705190E+01 -0.88881269024E+01  0.16610609949E+02  0.19388474633E+02  0.51100000000E-03 0. -1.
<mgrwt>
<rscale>  0 0.20000974E+02</rscale>
<asrwt>0</asrwt>
<pdfrwt beam="2">  1        1 0.43149208E-03 0.20000974E+02</pdfrwt>
<pdfrwt beam="1">  1       -1 0.54858352E-02 0.20000974E+02</pdfrwt>
<totfact> 0.36010491E+06</totfact>
</mgrwt>
</event>
<event>
 5    1  0.9583198E-007  0.2000028E+02  0.7818608E-02  0.1745322E+00
          1   -1    0    0  501    0  0.00000000000E+00  0.00000000000E+00  0.75468506724E+01  0.75468521173E+01  0.46700000000E-02 0. -1.
         -1   -1    0    0    0  501 -0.00000000000E+00 -0.00000000000E+00 -0.13250932150E+02  0.13250932973E+02  0.46700000000E-02 0.  1.
       1023    2    1    2    0    0  0.00000000000E+00  0.00000000000E+00 -0.57040814774E+01  0.20797785090E+02  0.20000282977E+02 0.  0.
        -11    1    3    3    0    0 -0.39136517722E+01 -0.92024880496E+01 -0.28319565977E+01  0.10393384190E+02  0.51100000000E-03 0.  1.
         11    1    3    3    0    0  0.39136517722E+01  0.92024880496E+01 -0.28721248797E+01  0.10404400900E+02  0.51100000000E-03 0. -1.
<mgrwt>
<rscale>  0 0.20000283E+02</rscale>
<asrwt>0</asrwt>
<pdfrwt beam="1">  1        1 0.11610541E-02 0.20000283E+02</pdfrwt>
<pdfrwt beam="2">  1       -1 0.20386051E-02 0.20000283E+02</pdfrwt>
<totfact> 0.38171477E+06</totfact>
</mgrwt>
</event>
<event>
 5    1  0.9583198E-007  0.2000012E+02  0.7818608E-02  0.1745326E+00
         -1   -1    0    0    0  501 -0.00000000000E+00  0.00000000000E+00  0.10876829148E+02  0.10876830151E+02  0.46700000000E-02 0.  1.
          1   -1    0    0  501    0  0.00000000000E+00 -0.00000000000E+00 -0.91939633212E+01  0.91939645072E+01  0.46700000000E-02 0. -1.
       1023    2    1    2    0    0  0.00000000000E+00  0.00000000000E+00  0.16828658269E+01  0.20070794658E+02  0.20000119020E+02 0.  0.
        -11    1    3    3    0    0 -0.95925507063E+01  0.28254805894E+01  0.81269035457E+00  0.10032987366E+02  0.51100000000E-03 0. -1.
         11    1    3    3    0    0  0.95925507063E+01 -0.28254805894E+01  0.87017547232E+00  0.10037807292E+02  0.51100000000E-03 0.  1.
<mgrwt>
<rscale>  0 0.20000119E+02</rscale>
<asrwt>0</asrwt>
<pdfrwt beam="2">  1        1 0.14144561E-02 0.20000119E+02</pdfrwt>
<pdfrwt beam="1">  1       -1 0.16733585E-02 0.20000119E+02</pdfrwt>
<totfact> 0.38492202E+06</totfact>
</mgrwt>
</event>
<event>
 5    1  0.9583198E-007  0.2000083E+02  0.7818608E-02  0.1745312E+00
          1   -1    0    0  501    0  0.00000000000E+00  0.00000000000E+00  0.97000242270E+00  0.97001366431E+00  0.46700000000E-02 0.  1.
         -1   -1    0    0    0  501 -0.00000000000E+00 -0.00000000000E+00 -0.10310045918E+03  0.10310045928E+03  0.46700000000E-02 0. -1.
       1023    2    1    2    0    0  0.00000000000E+00  0.00000000000E+00 -0.10213045676E+03  0.10407047295E+03  0.20000828548E+02 0.  0.
        -11    1    3    3    0    0  0.95942408024E+01  0.28202499068E+01 -0.50696590406E+02  0.51673470419E+02  0.51100000000E-03 0. -1.
         11    1    3    3    0    0 -0.95942408024E+01 -0.28202499068E+01 -0.51433866350E+02  0.52397002529E+02  0.51100000000E-03 0.  1.
<mgrwt>
<rscale>  0 0.20000829E+02</rscale>
<asrwt>0</asrwt>
<pdfrwt beam="1">  1        1 0.14923210E-03 0.20000829E+02</pdfrwt>
<pdfrwt beam="2">  1       -1 0.15861601E-01 0.20000829E+02</pdfrwt>
<totfact> 0.31699554E+06</totfact>
</mgrwt>
</event>
<event>
 5    1  0.9583198E-007  0.2000017E+02  0.7818608E-02  0.1745325E+00
         -1   -1    0    0    0  501 -0.00000000000E+00  0.00000000000E+00  0.44492030987E+02  0.44492031232E+02  0.46700000000E-02 0.  1.
          1   -1    0    0  501    0  0.00000000000E+00 -0.00000000000E+00 -0.22476280176E+01  0.22476328691E+01  0.46700000000E-02 0. -1.
       1023    2    1    2    0    0  0.00000000000E+00  0.00000000000E+00  0.42244402970E+02  0.46739664102E+02  0.20000165451E+02 0.  0.
        -11    1    3    3    0    0  0.83985229090E+01 -0.54282991317E+01  0.21108231262E+02  0.23357205436E+02  0.51100000000E-03 0. -1.
         11    1    3    3    0    0 -0.83985229090E+01  0.54282991317E+01  0.21136171708E+02  0.23382458665E+02  0.51100000000E-03 0.  1.
<mgrwt>
<rscale>  0 0.20000165E+02</rscale>
<asrwt>0</asrwt>
<pdfrwt beam="2">  1        1 0.34578936E-03 0.20000165E+02</pdfrwt>
<pdfrwt beam="1">  1       -1 0.68449275E-02 0.20000165E+02</pdfrwt>
<totfact> 0.35329612E+06</totfact>
</mgrwt>
</event>
<event>
 5    1  0.9583198E-007  0.2000257E+02  0.7818608E-02  0.1745277E+00
          1   -1    0    0  501    0  0.00000000000E+00  0.00000000000E+00  0.11142023225E+01  0.11142121092E+01  0.46700000000E-02 0. -1.
         -1   -1    0    0    0  501 -0.00000000000E+00 -0.00000000000E+00 -0.89772990462E+02  0.89772990584E+02  0.46700000000E-02 0.  1.
       1023    2    1    2    0    0  0.00000000000E+00  0.00000000000E+00 -0.88658788140E+02  0.90887202693E+02  0.20002572308E+02 0.  0.
        -11    1    3    3    0    0 -0.13771016666E+01 -0.99060194838E+01 -0.44373320371E+02  0.45486450642E+02  0.51100000000E-03 0.  1.
         11    1    3    3    0    0  0.13771016666E+01  0.99060194838E+01 -0.44285467769E+02  0.45400752051E+02  0.51100000000E-03 0. -1.
<mgrwt>
<rscale>  0 0.20002572E+02</rscale>
<asrwt>0</asrwt>
<pdfrwt beam="1">  1        1 0.17141657E-03 0.20002572E+02</pdfrwt>
<pdfrwt beam="2">  1       -1 0.13811224E-01 0.20002572E+02</pdfrwt>
<totfact> 0.32420806E+06</totfact>
</mgrwt>
</event>
<event>
 5    1  0.9583198E-007  0.2000307E+02  0.7818608E-02  0.1745267E+00
         -1   -1    0    0    0  501 -0.00000000000E+00  0.00000000000E+00  0.27659331014E+02  0.27659331408E+02  0.46700000000E-02 0. -1.
          1   -1    0    0  501    0  0.00000000000E+00 -0.00000000000E+00 -0.36165230996E+01  0.36165261148E+01  0.46700000000E-02 0.  1.
       1023    2    1    2    0    0  0.00000000000E+00  0.00000000000E+00  0.24042807914E+02  0.31275857523E+02  0.20003066050E+02 0.  0.
        -11    1    3    3    0    0  0.22280190783E+01  0.97495265954E+01  0.12201889330E+02  0.15776673963E+02  0.51100000000E-03 0.  1.
         11    1    3    3    0    0 -0.22280190783E+01 -0.97495265954E+01  0.11840918584E+02  0.15499183560E+02  0.51100000000E-03 0. -1.
<mgrwt>
<rscale>  0 0.20003066E+02</rscale>
<asrwt>0</asrwt>
<pdfrwt beam="2">  1        1 0.55638842E-03 0.20003066E+02</pdfrwt>
<pdfrwt beam="1">  1       -1 0.42552820E-02 0.20003066E+02</pdfrwt>
<totfact> 0.36679355E+06</totfact>
</mgrwt>
</event>
<event>
 5    1  0.9583198E-007  0.2000041E+02  0.7818608E-02  0.1745320E+00
         -1   -1    0    0    0  501 -0.00000000000E+00  0.00000000000E+00  0.43336349609E+02  0.43336349860E+02  0.46700000000E-02 0. -1.
          1   -1    0    0  501    0  0.00000000000E+00 -0.00000000000E+00 -0.23076240778E+01  0.23076288032E+01  0.46700000000E-02 0.  1.
       1023    2    1    2    0    0  0.00000000000E+00  0.00000000000E+00  0.41028725531E+02  0.45643978664E+02  0.20000411734E+02 0.  0.
        -11    1    3    3    0    0  0.39459458929E+01  0.91886746913E+01  0.20613460499E+02  0.22911066880E+02  0.51100000000E-03 0. -1.
         11    1    3    3    0    0 -0.39459458929E+01 -0.91886746913E+01  0.20415265032E+02  0.22732911784E+02  0.51100000000E-03 0.  1.
<mgrwt>
<rscale>  0 0.20000412E+02</rscale>
<asrwt>0</asrwt>
<pdfrwt beam="2">  1        1 0.35501950E-03 0.20000412E+02</pdfrwt>
<pdfrwt beam="1">  1       -1 0.66671305E-02 0.20000412E+02</pdfrwt>
<totfact> 0.35415061E+06</totfact>
</mgrwt>
</event>
<event>
 5    1  0.9583198E-007  0.2000037E+02  0.7818608E-02  0.1745321E+00
          1   -1    0    0  501    0  0.00000000000E+00  0.00000000000E+00  0.21115665656E+02  0.21115666172E+02  0.46700000000E-02 0. -1.
         -1   -1    0    0    0  501 -0.00000000000E+00 -0.00000000000E+00 -0.47359931720E+01  0.47359954744E+01  0.46700000000E-02 0.  1.
       1023    2    1    2    0    0  0.00000000000E+00  0.00000000000E+00  0.16379672484E+02  0.25851661647E+02  0.20000368477E+02 0.  0.
        -11    1    3    3    0    0  0.96425853414E+01 -0.26503268405E+01  0.81893971705E+01  0.12925552627E+02  0.51100000000E-03 0. -1.
         11    1    3    3    0    0 -0.96425853414E+01  0.26503268405E+01  0.81902753134E+01  0.12926109020E+02  0.51100000000E-03 0.  1.
<mgrwt>
<rscale>  0 0.20000368E+02</rscale>
<asrwt>0</asrwt>
<pdfrwt beam="1">  1        1 0.32485642E-02 0.20000368E+02</pdfrwt>
<pdfrwt beam="2">  1       -1 0.72861454E-03 0.20000368E+02</pdfrwt>
<totfact> 0.39796291E+06</totfact>
</mgrwt>
</event>
<event>
 5    1  0.9583198E-007  0.2000043E+02  0.7818608E-02  0.1745320E+00
          1   -1    0    0  501    0  0.00000000000E+00  0.00000000000E+00  0.19147483468E+01  0.19147540418E+01  0.46700000000E-02 0. -1.
         -1   -1    0    0    0  501 -0.00000000000E+00 -0.00000000000E+00 -0.52228330547E+02  0.52228330756E+02  0.46700000000E-02 0.  1.
       1023    2    1    2    0    0  0.00000000000E+00  0.00000000000E+00 -0.50313582200E+02  0.54143084798E+02  0.20000426935E+02 0.  0.
        -11    1    3    3    0    0  0.58915965619E+01  0.80803541215E+01 -0.25061604597E+02  0.26983088370E+02  0.51100000000E-03 0. -1.
         11    1    3    3    0    0 -0.58915965619E+01 -0.80803541215E+01 -0.25251977604E+02  0.27159996427E+02  0.51100000000E-03 0.  1.
<mgrwt>
<rscale>  0 0.20000427E+02</rscale>
<asrwt>0</asrwt>
<pdfrwt beam="1">  1        1 0.29457716E-03 0.20000427E+02</pdfrwt>
<pdfrwt beam="2">  1       -1 0.80351272E-02 0.20000427E+02</pdfrwt>
<totfact> 0.34770730E+06</totfact>
</mgrwt>
</event>
<event>
 5    1  0.9583198E-007  0.2000025E+02  0.7818608E-02  0.1745323E+00
          1   -1    0    0  501    0  0.00000000000E+00  0.00000000000E+00  0.11000538280E+03  0.11000538290E+03  0.46700000000E-02 0. -1.
         -1   -1    0    0    0  501 -0.00000000000E+00 -0.00000000000E+00 -0.90906298501E+00  0.90907498019E+00  0.46700000000E-02 0.  1.
       1023    2    1    2    0    0  0.00000000000E+00  0.00000000000E+00  0.10909631982E+03  0.11091445788E+03  0.20000249236E+02 0.  0.
        -11    1    3    3    0    0  0.94206961269E+01  0.33543853526E+01  0.54366290992E+02  0.55278341266E+02  0.51100000000E-03 0.  1.
         11    1    3    3    0    0 -0.94206961269E+01 -0.33543853526E+01  0.54730028824E+02  0.55636116614E+02  0.51100000000E-03 0. -1.
<mgrwt>
<rscale>  0 0.20000249E+02</rscale>
<asrwt>0</asrwt>
<pdfrwt beam="1">  1        1 0.16923914E-01 0.20000249E+02</pdfrwt>
<pdfrwt beam="2">  1       -1 0.13985671E-03 0.20000249E+02</pdfrwt>
<totfact> 0.44836656E+06</totfact>
</mgrwt>
</event>
<event>
 5    1  0.9583198E-007  0.2000293E+02  0.7818608E-02  0.1745270E+00
         -1   -1    0    0    0  501 -0.00000000000E+00  0.00000000000E+00  0.46519354790E+01  0.46519378231E+01  0.46700000000E-02 0.  1.
          1   -1    0    0  501    0  0.00000000000E+00 -0.00000000000E+00 -0.21502723205E+02  0.21502723712E+02  0.46700000000E-02 0. -1.
       1023    2    1    2    0    0  0.00000000000E+00  0.00000000000E+00 -0.16850787726E+02  0.26154661535E+02  0.20002931611E+02 0.  0.
        -11    1    3    3    0    0  0.34424483253E+01 -0.93889647446E+01 -0.86370724613E+01  0.13213709941E+02  0.51100000000E-03 0. -1.
         11    1    3    3    0    0 -0.34424483253E+01  0.93889647446E+01 -0.82137152648E+01  0.12940951594E+02  0.51100000000E-03 0.  1.
<mgrwt>
<rscale>  0 0.20002932E+02</rscale>
<asrwt>0</asrwt>
<pdfrwt beam="2">  1        1 0.33081114E-02 0.20002932E+02</pdfrwt>
<pdfrwt beam="1">  1       -1 0.71568261E-03 0.20002932E+02</pdfrwt>
<totfact> 0.39816128E+06</totfact>
</mgrwt>
</event>
<event>
 4    1  0.9583198E-007  0.2002330E+02  0.7818608E-02  0.1744865E+00
          1   -1    0    0  501    0  0.00000000000E+00  0.00000000000E+00  0.75544126481E+02  0.75544126626E+02  0.46700000000E-02 0. -1.
         -1   -1    0    0    0  501 -0.00000000000E+00 -0.00000000000E+00 -0.13268110425E+01  0.13268192610E+01  0.46700000000E-02 0.  1.
        -11    1    1    2    0    0  0.75484105064E+00  0.99820917304E+01  0.36550180346E+02  0.37896274539E+02  0.51100000000E-03 0. -1.
         11    1    1    2    0    0 -0.75484105064E+00 -0.99820917304E+01  0.37667135092E+02  0.38974671348E+02  0.51100000000E-03 0.  1.
<mgrwt>
<rscale>  0 0.20023297E+02</rscale>
<asrwt>0</asrwt>
<pdfrwt beam="1">  1        1 0.11622178E-01 0.20023297E+02</pdfrwt>
<pdfrwt beam="2">  1       -1 0.20412535E-03 0.20023297E+02</pdfrwt>
<totfact> 0.43016711E+06</totfact>
</mgrwt>
</event>
<event>
 5    1  0.9583198E-007  0.2000171E+02  0.7818608E-02  0.1745294E+00
          1   -1    0    0  501    0  0.00000000000E+00  0.00000000000E+00  0.92761657771E+01  0.92761669526E+01  0.46700000000E-02 0.  1.
         -1   -1    0    0    0  501 -0.00000000000E+00 -0.00000000000E+00 -0.10782155717E+02  0.10782156728E+02  0.46700000000E-02 0. -1.
       1023    2    1    2    0    0  0.00000000000E+00  0.00000000000E+00 -0.15059899397E+01  0.20058323681E+02  0.20001708507E+02 0.  0.
        -11    1    3    3    0    0  0.91059485567E+01 -0.41345174831E+01 -0.82065146519E+00  0.10034241527E+02  0.51100000000E-03 0. -1.
         11    1    3    3    0    0 -0.91059485567E+01  0.41345174831E+01 -0.68533847456E+00  0.10024082154E+02  0.51100000000E-03 0.  1.
<mgrwt>
<rscale>  0 0.20001709E+02</rscale>
<asrwt>0</asrwt>
<pdfrwt beam="1">  1        1 0.14271026E-02 0.20001709E+02</pdfrwt>
<pdfrwt beam="2">  1       -1 0.16587934E-02 0.20001709E+02</pdfrwt>
<totfact> 0.38499266E+06</totfact>
</mgrwt>
</event>
<event>
 5    1  0.9607159E-007  0.2000041E+02  0.7818608E-02  0.1745320E+00
         -1   -1    0    0    0  501 -0.00000000000E+00  0.00000000000E+00  0.14502205340E+01  0.14502280531E+01  0.46700000000E-02 0.  1.
          1   -1    0    0  501    0  0.00000000000E+00 -0.00000000000E+00 -0.68957658943E+02  0.68957659101E+02  0.46700000000E-02 0. -1.
       1023    2    1    2    0    0  0.00000000000E+00  0.00000000000E+00 -0.67507438409E+02  0.70407887154E+02  0.20000408320E+02 0.  0.
        -11    1    3    3    0    0 -0.70311591923E+01 -0.71109067972E+01 -0.33906677725E+02  0.35350600980E+02  0.51100000000E-03 0. -1.
         11    1    3    3    0    0  0.70311591923E+01  0.71109067972E+01 -0.33600760684E+02  0.35057286174E+02  0.51100000000E-03 0.  1.
<mgrwt>
<rscale>  0 0.20000408E+02</rscale>
<asrwt>0</asrwt>
<pdfrwt beam="2">  1        1 0.10608869E-01 0.20000408E+02</pdfrwt>
<pdfrwt beam="1">  1       -1 0.22311150E-03 0.20000408E+02</pdfrwt>
<totfact> 0.42775942E+06</totfact>
</mgrwt>
</event>
<event>
 5    1  0.9994837E-007  0.2000142E+02  0.7818608E-02  0.1745300E+00
          1   -1    0    0  501    0  0.00000000000E+00  0.00000000000E+00  0.27730194633E+02  0.27730195026E+02  0.46700000000E-02 0. -1.
         -1   -1    0    0    0  501 -0.00000000000E+00 -0.00000000000E+00 -0.36066882622E+01  0.36066912856E+01  0.46700000000E-02 0.  1.
       1023    2    1    2    0    0  0.00000000000E+00  0.00000000000E+00  0.24123506371E+02  0.31336886312E+02  0.20001422052E+02 0.  0.
        -11    1    3    3    0    0 -0.86513458217E+01 -0.50166224312E+01  0.11992823711E+02  0.15615380430E+02  0.51100000000E-03 0. -1.
         11    1    3    3    0    0  0.86513458217E+01  0.50166224312E+01  0.12130682660E+02  0.15721505882E+02  0.51100000000E-03 0.  1.
<mgrwt>
<rscale>  0 0.20001422E+02</rscale>
<asrwt>0</asrwt>
<pdfrwt beam="1">  1        1 0.42661841E-02 0.20001422E+02</pdfrwt>
<pdfrwt beam="2">  1       -1 0.55487537E-03 0.20001422E+02</pdfrwt>
<totfact> 0.40291529E+06</totfact>
</mgrwt>
</event>
<event>
 5    1  0.9583198E-007  0.2000024E+02  0.7818608E-02  0.1745323E+00
          1   -1    0    0  501    0  0.00000000000E+00  0.00000000000E+00  0.40383773218E+01  0.40383800220E+01  0.46700000000E-02 0.  1.
         -1   -1    0    0    0  501 -0.00000000000E+00 -0.00000000000E+00 -0.24763008529E+02  0.24763008969E+02  0.46700000000E-02 0. -1.
       1023    2    1    2    0    0  0.00000000000E+00  0.00000000000E+00 -0.20724631207E+02  0.28801388991E+02  0.20000241727E+02 0.  0.
        -11    1    3    3    0    0 -0.36708876732E+01 -0.93019204172E+01 -0.10413781509E+02  0.14437727846E+02  0.51100000000E-03 0. -1.
         11    1    3    3    0    0  0.36708876732E+01  0.93019204172E+01 -0.10310849698E+02  0.14363661146E+02  0.51100000000E-03 0.  1.
<mgrwt>
<rscale>  0 0.20000242E+02</rscale>
<asrwt>0</asrwt>
<pdfrwt beam="1">  1        1 0.62128908E-03 0.20000242E+02</pdfrwt>
<pdfrwt beam="2">  1       -1 0.38096938E-02 0.20000242E+02</pdfrwt>
<totfact> 0.36953746E+06</totfact>
</mgrwt>
</event>
<event>
 5    1  0.9583198E-007  0.2000072E+02  0.7818608E-02  0.1745314E+00
         -1   -1    0    0    0  501 -0.00000000000E+00  0.00000000000E+00  0.10723277278E+03  0.10723277288E+03  0.46700000000E-02 0.  1.
          1   -1    0    0  501    0  0.00000000000E+00 -0.00000000000E+00 -0.93261231833E+00  0.93262401062E+00  0.46700000000E-02 0. -1.
       1023    2    1    2    0    0  0.00000000000E+00  0.00000000000E+00  0.10630016046E+03  0.10816539690E+03  0.20000724255E+02 0.  0.
        -11    1    3    3    0    0 -0.26252880962E+01  0.96495059877E+01  0.52899959209E+02  0.53836890586E+02  0.51100000000E-03 0.  1.
         11    1    3    3    0    0  0.26252880962E+01 -0.96495059877E+01  0.53400201256E+02  0.54328506309E+02  0.51100000000E-03 0. -1.
<mgrwt>
<rscale>  0 0.20000724E+02</rscale>
<asrwt>0</asrwt>
<pdfrwt beam="2">  1        1 0.14347972E-03 0.20000724E+02</pdfrwt>
<pdfrwt beam="1">  1       -1 0.16497351E-01 0.20000724E+02</pdfrwt>
<totfact> 0.31482615E+06</totfact>
</mgrwt>
</event>
<event>
 5    1  0.9631378E-007  0.2000172E+02  0.7818608E-02  0.1745294E+00
          1   -1    0    0  501    0  0.00000000000E+00  0.00000000000E+00  0.25890931182E+02  0.25890931603E+02  0.46700000000E-02 0.  1.
         -1   -1    0    0    0  501 -0.00000000000E+00 -0.00000000000E+00 -0.38630183519E+01  0.38630211746E+01  0.46700000000E-02 0. -1.
       1023    2    1    2    0    0  0.00000000000E+00  0.00000000000E+00  0.22027912830E+02  0.29753952778E+02  0.20001718983E+02 0.  0.
        -11    1    3    3    0    0  0.84200130976E+01 -0.53959902533E+01  0.10921548216E+02  0.14808563302E+02  0.51100000000E-03 0. -1.
         11    1    3    3    0    0 -0.84200130976E+01  0.53959902533E+01  0.11106364614E+02  0.14945389476E+02  0.51100000000E-03 0.  1.
<mgrwt>
<rscale>  0 0.20001719E+02</rscale>
<asrwt>0</asrwt>
<pdfrwt beam="1">  1        1 0.39832205E-02 0.20001719E+02</pdfrwt>
<pdfrwt beam="2">  1       -1 0.59431075E-03 0.20001719E+02</pdfrwt>
<totfact> 0.40157444E+06</totfact>
</mgrwt>
</event>
<event>
 5    1  0.9963716E-007  0.2000093E+02  0.7818608E-02  0.1745310E+00
          1   -1    0    0  501    0  0.00000000000E+00  0.00000000000E+00  0.73137481780E+02  0.73137481929E+02  0.46700000000E-02 0. -1.
         -1   -1    0    0    0  501 -0.00000000000E+00 -0.00000000000E+00 -0.13674109061E+01  0.13674188806E+01  0.46700000000E-02 0.  1.
       1023    2    1    2    0    0  0.00000000000E+00  0.00000000000E+00  0.71770070873E+02  0.74504900809E+02  0.20000929264E+02 0.  0.
        -11    1    3    3    0    0  0.99208414970E+01 -0.12579921849E+01  0.36110155857E+02  0.37469307395E+02  0.51100000000E-03 0. -1.
         11    1    3    3    0    0 -0.99208414970E+01  0.12579921849E+01  0.35659915016E+02  0.37035593415E+02  0.51100000000E-03 0.  1.
<mgrwt>
<rscale>  0 0.20000929E+02</rscale>
<asrwt>0</asrwt>
<pdfrwt beam="1">  1        1 0.11251921E-01 0.20000929E+02</pdfrwt>
<pdfrwt beam="2">  1       -1 0.21037153E-03 0.20000929E+02</pdfrwt>
<totfact> 0.42996519E+06</totfact>
</mgrwt>
</event>
<event>
 5    1  0.9583198E-007  0.2000003E+02  0.7818608E-02  0.1745327E+00
          1   -1    0    0  501    0  0.00000000000E+00  0.00000000000E+00  0.54361736081E+01  0.54361756140E+01  0.46700000000E-02 0. -1.
         -1   -1    0    0    0  501 -0.00000000000E+00 -0.00000000000E+00 -0.18395342224E+02  0.18395342817E+02  0.46700000000E-02 0.  1.
       1023    2    1    2    0    0  0.00000000000E+00  0.00000000000E+00 -0.12959168616E+02  0.23831518431E+02  0.20000030488E+02 0.  0.
        -11    1    3    3    0    0 -0.38890969813E+01  0.92127717354E+01 -0.64892821816E+01  0.11921032752E+02  0.51100000000E-03 0.  1.
         11    1    3    3    0    0  0.38890969813E+01 -0.92127717354E+01 -0.64698864347E+01  0.11910485679E+02  0.51100000000E-03 0. -1.
<mgrwt>
<rscale>  0 0.20000030E+02</rscale>
<asrwt>0</asrwt>
<pdfrwt beam="1">  1        1 0.83633461E-03 0.20000030E+02</pdfrwt>
<pdfrwt beam="2">  1       -1 0.28300528E-02 0.20000030E+02</pdfrwt>
<totfact> 0.37582967E+06</totfact>
</mgrwt>
</event>
<event>
 5    1  0.9583198E-007  0.2000260E+02  0.7818608E-02  0.1745276E+00
         -1   -1    0    0    0  501 -0.00000000000E+00  0.00000000000E+00  0.25209066823E+01  0.25209110079E+01  0.46700000000E-02 0. -1.
          1   -1    0    0  501    0  0.00000000000E+00 -0.00000000000E+00 -0.39678543181E+02  0.39678543456E+02  0.46700000000E-02 0.  1.
       1023    2    1    2    0    0  0.00000000000E+00  0.00000000000E+00 -0.37157636499E+02  0.42199454464E+02  0.20002600003E+02 0.  0.
        -11    1    3    3    0    0  0.58545941874E+01 -0.81082211855E+01 -0.18409022697E+02  0.20950218157E+02  0.51100000000E-03 0.  1.
         11    1    3    3    0    0 -0.58545941874E+01  0.81082211855E+01 -0.18748613802E+02  0.21249236307E+02  0.51100000000E-03 0. -1.
<mgrwt>
<rscale>  0 0.20002600E+02</rscale>
<asrwt>0</asrwt>
<pdfrwt beam="2">  1        1 0.61043912E-02 0.20002600E+02</pdfrwt>
<pdfrwt beam="1">  1       -1 0.38783218E-03 0.20002600E+02</pdfrwt>
<totfact> 0.41078365E+06</totfact>
</mgrwt>
</event>
<event>
 5    1  0.9583198E-007  0.2000023E+02  0.7818608E-02  0.1745324E+00
          1   -1    0    0  501    0  0.00000000000E+00  0.00000000000E+00  0.38786355319E+01  0.38786383433E+01  0.46700000000E-02 0.  1.
         -1   -1    0    0    0  501 -0.00000000000E+00 -0.00000000000E+00 -0.25782838547E+02  0.25782838970E+02  0.46700000000E-02 0. -1.
       1023    2    1    2    0    0  0.00000000000E+00  0.00000000000E+00 -0.21904203015E+02  0.29661477313E+02  0.20000228166E+02 0.  0.
        -11    1    3    3    0    0  0.99195742431E+01 -0.12660882714E+01 -0.10897636097E+02  0.14790517416E+02  0.51100000000E-03 0.  1.
         11    1    3    3    0    0 -0.99195742431E+01  0.12660882714E+01 -0.11006566918E+02  0.14870959897E+02  0.51100000000E-03 0. -1.
<mgrwt>
<rscale>  0 0.20000228E+02</rscale>
<asrwt>0</asrwt>
<pdfrwt beam="1">  1        1 0.59671343E-03 0.20000228E+02</pdfrwt>
<pdfrwt beam="2">  1       -1 0.39665907E-02 0.20000228E+02</pdfrwt>
<totfact> 0.36859879E+06</totfact>
</mgrwt>
</event>
<event>
 5    1  0.9583198E-007  0.2000019E+02  0.7818608E-02  0.1745324E+00
         -1   -1    0    0    0  501 -0.00000000000E+00  0.00000000000E+00  0.11981433950E+01  0.11981524961E+01  0.46700000000E-02 0. -1.
          1   -1    0    0  501    0  0.00000000000E+00 -0.00000000000E+00 -0.83463738866E+02  0.83463738997E+02  0.46700000000E-02 0.  1.
       1023    2    1    2    0    0  0.00000000000E+00  0.00000000000E+00 -0.82265595471E+02  0.84661891493E+02  0.20000191823E+02 0.  0.
        -11    1    3    3    0    0  0.51391641118E+01 -0.85784594017E+01 -0.41262890839E+02  0.42457356655E+02  0.51100000000E-03 0. -1.
         11    1    3    3    0    0 -0.51391641118E+01  0.85784594017E+01 -0.41002704632E+02  0.42204534838E+02  0.51100000000E-03 0.  1.
<mgrwt>
<rscale>  0 0.20000192E+02</rscale>
<asrwt>0</asrwt>
<pdfrwt beam="2">  1        1 0.12840571E-01 0.20000192E+02</pdfrwt>
<pdfrwt beam="1">  1       -1 0.18433053E-03 0.20000192E+02</pdfrwt>
<totfact> 0.43536179E+06</totfact>
</mgrwt>
</event>
<event>
 5    1  0.9583198E-007  0.2000248E+02  0.7818608E-02  0.1745279E+00
         -1   -1    0    0    0  501 -0.00000000000E+00  0.00000000000E+00  0.10568453602E+02  0.10568454634E+02  0.46700000000E-02 0. -1.
          1   -1    0    0  501    0  0.00000000000E+00 -0.00000000000E+00 -0.94644624076E+01  0.94644635597E+01  0.46700000000E-02 0.  1.
       1023    2    1    2    0    0  0.00000000000E+00  0.00000000000E+00  0.11039911943E+01  0.20032918193E+02  0.20002475216E+02 0.  0.
        -11    1    3    3    0    0  0.36727406385E+01  0.93021582916E+01  0.62681374676E+00  0.10020582239E+02  0.51100000000E-03 0.  1.
         11    1    3    3    0    0 -0.36727406385E+01 -0.93021582916E+01  0.47717744758E+00  0.10012335954E+02  0.51100000000E-03 0. -1.
<mgrwt>
<rscale>  0 0.20002475E+02</rscale>
<asrwt>0</asrwt>
<pdfrwt beam="2">  1        1 0.14560713E-02 0.20002475E+02</pdfrwt>
<pdfrwt beam="1">  1       -1 0.16259161E-02 0.20002475E+02</pdfrwt>
<totfact> 0.38527437E+06</totfact>
</mgrwt>
</event>
<event>
 4    1  0.9583198E-007  0.2001453E+02  0.7818608E-02  0.1745039E+00
         -1   -1    0    0    0  501 -0.00000000000E+00  0.00000000000E+00  0.98617845227E+02  0.98617845337E+02  0.46700000000E-02 0.  1.
          1   -1    0    0  501    0  0.00000000000E+00 -0.00000000000E+00 -0.10154837583E+01  0.10154944964E+01  0.46700000000E-02 0. -1.
        -11    1    1    2    0    0 -0.65467894683E+01  0.75591701356E+01  0.50689265413E+02  0.51666266886E+02  0.51100000000E-03 0.  1.
         11    1    1    2    0    0  0.65467894683E+01 -0.75591701356E+01  0.46913096055E+02  0.47967072948E+02  0.51100000000E-03 0. -1.
<mgrwt>
<rscale>  0 0.20014531E+02</rscale>
<asrwt>0</asrwt>
<pdfrwt beam="2">  1        1 0.15622912E-03 0.20014531E+02</pdfrwt>
<pdfrwt beam="1">  1       -1 0.15171976E-01 0.20014531E+02</pdfrwt>
<totfact> 0.31891472E+06</totfact>
</mgrwt>
</event>
<event>
 5    1  0.9583198E-007  0.2000074E+02  0.7818608E-02  0.1745313E+00
         -1   -1    0    0    0  501 -0.00000000000E+00  0.00000000000E+00  0.23073908541E+02  0.23073909013E+02  0.46700000000E-02 0. -1.
          1   -1    0    0  501    0  0.00000000000E+00 -0.00000000000E+00 -0.43342196169E+01  0.43342221328E+01  0.46700000000E-02 0.  1.
       1023    2    1    2    0    0  0.00000000000E+00  0.00000000000E+00  0.18739688924E+02  0.27408131146E+02  0.20000742785E+02 0.  0.
        -11    1    3    3    0    0  0.34409864651E+01  0.93897197230E+01  0.93503007636E+01  0.13690703012E+02  0.51100000000E-03 0. -1.
         11    1    3    3    0    0 -0.34409864651E+01 -0.93897197230E+01  0.93893881601E+01  0.13717428134E+02  0.51100000000E-03 0.  1.
<mgrwt>
<rscale>  0 0.20000743E+02</rscale>
<asrwt>0</asrwt>
<pdfrwt beam="2">  1        1 0.66680324E-03 0.20000743E+02</pdfrwt>
<pdfrwt beam="1">  1       -1 0.35498323E-02 0.20000743E+02</pdfrwt>
<totfact> 0.37110819E+06</totfact>
</mgrwt>
</event>
<event>
 5    1  0.9583198E-007  0.2000093E+02  0.7818608E-02  0.1745310E+00
          1   -1    0    0  501    0  0.00000000000E+00  0.00000000000E+00  0.85873495861E+00  0.85874765679E+00  0.46700000000E-02 0. -1.
         -1   -1    0    0    0  501 -0.00000000000E+00 -0.00000000000E+00 -0.11646028889E+03  0.11646028899E+03  0.46700000000E-02 0.  1.
       1023    2    1    2    0    0  0.00000000000E+00  0.00000000000E+00 -0.11560155394E+03  0.11731903665E+03  0.20000927151E+02 0.  0.
        -11    1    3    3    0    0 -0.35863719302E+01  0.93350915813E+01 -0.57465200023E+02  0.58328854029E+02  0.51100000000E-03 0. -1.
         11    1    3    3    0    0  0.35863719302E+01 -0.93350915813E+01 -0.58136353913E+02  0.58990182616E+02  0.51100000000E-03 0.  1.
<mgrwt>
<rscale>  0 0.20000927E+02</rscale>
<asrwt>0</asrwt>
<pdfrwt beam="1">  1        1 0.13211415E-03 0.20000927E+02</pdfrwt>
<pdfrwt beam="2">  1       -1 0.17916956E-01 0.20000927E+02</pdfrwt>
<totfact> 0.31009885E+06</totfact>
</mgrwt>
</event>
<event>
 5    1  0.9583198E-007  0.2000547E+02  0.7818608E-02  0.1745219E+00
         -1   -1    0    0    0  501 -0.00000000000E+00  0.00000000000E+00  0.46220476398E+01  0.46220499990E+01  0.46700000000E-02 0. -1.
          1   -1    0    0  501    0  0.00000000000E+00 -0.00000000000E+00 -0.21647263244E+02  0.21647263747E+02  0.46700000000E-02 0.  1.
       1023    2    1    2    0    0  0.00000000000E+00  0.00000000000E+00 -0.17025215604E+02  0.26269313746E+02  0.20005471210E+02 0.  0.
        -11    1    3    3    0    0  0.87807293989E+01 -0.47907518052E+01 -0.84509100862E+01  0.13094670411E+02  0.51100000000E-03 0.  1.
         11    1    3    3    0    0 -0.87807293989E+01  0.47907518052E+01 -0.85743055177E+01  0.13174643335E+02  0.51100000000E-03 0. -1.
<mgrwt>
<rscale>  0 0.20005471E+02</rscale>
<asrwt>0</asrwt>
<pdfrwt beam="2">  1        1 0.33303484E-02 0.20005471E+02</pdfrwt>
<pdfrwt beam="1">  1       -1 0.71108449E-03 0.20005471E+02</pdfrwt>
<totfact> 0.39816395E+06</totfact>
</mgrwt>
</event>
<event>
 4    1  0.9583198E-007  0.2001522E+02  0.7818608E-02  0.1745025E+00
          1   -1    0    0  501    0  0.00000000000E+00  0.00000000000E+00  0.25623424318E+01  0.25623466874E+01  0.46700000000E-02 0. -1.
         -1   -1    0    0    0  501 -0.00000000000E+00 -0.00000000000E+00 -0.39086190532E+02  0.39086190811E+02  0.46700000000E-02 0.  1.
        -11    1    1    2    0    0  0.54031428082E+01  0.84234987791E+01 -0.18376176883E+02  0.20924463219E+02  0.51100000000E-03 0. -1.
         11    1    1    2    0    0 -0.54031428082E+01 -0.84234987791E+01 -0.18147671217E+02  0.20724074280E+02  0.51100000000E-03 0.  1.
<mgrwt>
<rscale>  0 0.20015224E+02</rscale>
<asrwt>0</asrwt>
<pdfrwt beam="1">  1        1 0.39420690E-03 0.20015224E+02</pdfrwt>
<pdfrwt beam="2">  1       -1 0.60132600E-02 0.20015224E+02</pdfrwt>
<totfact> 0.35682403E+06</totfact>
</mgrwt>
</event>
<event>
 5    1  0.9583198E-007  0.2000314E+02  0.7818608E-02  0.1745266E+00
          1   -1    0    0  501    0  0.00000000000E+00  0.00000000000E+00  0.11336892926E+03  0.11336892936E+03  0.46700000000E-02 0. -1.
         -1   -1    0    0    0  501 -0.00000000000E+00 -0.00000000000E+00 -0.88234688352E+00  0.88235924189E+00  0.46700000000E-02 0.  1.
       1023    2    1    2    0    0  0.00000000000E+00  0.00000000000E+00  0.11248658238E+03  0.11425128860E+03  0.20003143043E+02 0.  0.
        -11    1    3    3    0    0  0.76321198971E+01  0.64618469856E+01  0.55309786623E+02  0.56206558489E+02  0.51100000000E-03 0. -1.
         11    1    3    3    0    0 -0.76321198971E+01 -0.64618469856E+01  0.57176795757E+02  0.58044730113E+02  0.51100000000E-03 0.  1.
<mgrwt>
<rscale>  0 0.20003143E+02</rscale>
<asrwt>0</asrwt>
<pdfrwt beam="1">  1        1 0.17441373E-01 0.20003143E+02</pdfrwt>
<pdfrwt beam="2">  1       -1 0.13574665E-03 0.20003143E+02</pdfrwt>
<totfact> 0.44979419E+06</totfact>
</mgrwt>
</event>
<event>
 4    1  0.9583198E-007  0.2001947E+02  0.7818608E-02  0.1744941E+00
          1   -1    0    0  501    0  0.00000000000E+00  0.00000000000E+00  0.13086673255E+02  0.13086674088E+02  0.46700000000E-02 0. -1.
         -1   -1    0    0    0  501 -0.00000000000E+00 -0.00000000000E+00 -0.76562437273E+01  0.76562451516E+01  0.46700000000E-02 0.  1.
        -11    1    1    2    0    0 -0.87740481815E+01 -0.48027750706E+01  0.31086923374E+01  0.10474470783E+02  0.51100000000E-03 0.  1.
         11    1    1    2    0    0  0.87740481815E+01  0.48027750706E+01  0.23217371902E+01  0.10268448457E+02  0.51100000000E-03 0. -1.
<mgrwt>
<rscale>  0 0.20019469E+02</rscale>
<asrwt>0</asrwt>
<pdfrwt beam="1">  1        1 0.20133345E-02 0.20019469E+02</pdfrwt>
<pdfrwt beam="2">  1       -1 0.11778838E-02 0.20019469E+02</pdfrwt>
<totfact> 0.38949942E+06</totfact>
</mgrwt>
</event>
<event>
 5    1  0.9583198E-007  0.2001115E+02  0.7818608E-02  0.1745106E+00
         -1   -1    0    0    0  501 -0.00000000000E+00  0.00000000000E+00  0.23738368187E+01  0.23738414123E+01  0.46700000000E-02 0. -1.
          1   -1    0    0  501    0  0.00000000000E+00 -0.00000000000E+00 -0.42172851003E+02  0.42172851262E+02  0.46700000000E-02 0.  1.
       1023    2    1    2    0    0  0.00000000000E+00  0.00000000000E+00 -0.39799014184E+02  0.44546692674E+02  0.20011154343E+02 0.  0.
        -11    1    3    3    0    0  0.33965530945E+01 -0.94112782614E+01 -0.20018198474E+02  0.22379387879E+02  0.51100000000E-03 0. -1.
         11    1    3    3    0    0 -0.33965530945E+01  0.94112782614E+01 -0.19780815710E+02  0.22167304795E+02  0.51100000000E-03 0.  1.
<mgrwt>
<rscale>  0 0.20011154E+02</rscale>
<asrwt>0</asrwt>
<pdfrwt beam="2">  1        1 0.64881307E-02 0.20011154E+02</pdfrwt>
<pdfrwt beam="1">  1       -1 0.36520607E-03 0.20011154E+02</pdfrwt>
<totfact> 0.41193971E+06</totfact>
</mgrwt>
</event>
<event>
 5    1  0.9583198E-007  0.2000053E+02  0.7818608E-02  0.1745318E+00
          1   -1    0    0  501    0  0.00000000000E+00  0.00000000000E+00  0.84990300909E+00  0.84991583922E+00  0.46700000000E-02 0. -1.
         -1   -1    0    0    0  501 -0.00000000000E+00 -0.00000000000E+00 -0.11766578831E+03  0.11766578840E+03  0.46700000000E-02 0.  1.
       1023    2    1    2    0    0  0.00000000000E+00  0.00000000000E+00 -0.11681588530E+03  0.11851570424E+03  0.20000527326E+02 0.  0.
        -11    1    3    3    0    0 -0.43738850384E+01  0.89930196311E+01 -0.58403168158E+02  0.59253146107E+02  0.51100000000E-03 0. -1.
         11    1    3    3    0    0  0.43738850384E+01 -0.89930196311E+01 -0.58412717139E+02  0.59262558131E+02  0.51100000000E-03 0.  1.
<mgrwt>
<rscale>  0 0.20000527E+02</rscale>
<asrwt>0</asrwt>
<pdfrwt beam="1">  1        1 0.13075540E-03 0.20000527E+02</pdfrwt>
<pdfrwt beam="2">  1       -1 0.18102417E-01 0.20000527E+02</pdfrwt>
<totfact> 0.30950857E+06</totfact>
</mgrwt>
</event>
<event>
 5    1  0.9583198E-007  0.2000014E+02  0.7818608E-02  0.1745325E+00
         -1   -1    0    0    0  501 -0.00000000000E+00  0.00000000000E+00  0.38218855608E+02  0.38218855893E+02  0.46700000000E-02 0. -1.
          1   -1    0    0  501    0  0.00000000000E+00 -0.00000000000E+00 -0.26165431894E+01  0.26165473569E+01  0.46700000000E-02 0.  1.
       1023    2    1    2    0    0  0.00000000000E+00  0.00000000000E+00  0.35602312418E+02  0.40835403250E+02  0.20000137726E+02 0.  0.
        -11    1    3    3    0    0  0.52657843726E+01 -0.85012787849E+01  0.17870424504E+02  0.20478093130E+02  0.51100000000E-03 0. -1.
         11    1    3    3    0    0 -0.52657843726E+01  0.85012787849E+01  0.17731887915E+02  0.20357310120E+02  0.51100000000E-03 0.  1.
<mgrwt>
<rscale>  0 0.20000138E+02</rscale>
<asrwt>0</asrwt>
<pdfrwt beam="2">  1        1 0.40254547E-03 0.20000138E+02</pdfrwt>
<pdfrwt beam="1">  1       -1 0.58798240E-02 0.20000138E+02</pdfrwt>
<totfact> 0.35809609E+06</totfact>
</mgrwt>
</event>
<event>
 5    1  0.9583198E-007  0.2000442E+02  0.7818608E-02  0.1745240E+00
          1   -1    0    0  501    0  0.00000000000E+00  0.00000000000E+00  0.11172668318E+02  0.11172669294E+02  0.46700000000E-02 0. -1.
         -1   -1    0    0    0  501 -0.00000000000E+00 -0.00000000000E+00 -0.89543703661E+01  0.89543715838E+01  0.46700000000E-02 0.  1.
       1023    2    1    2    0    0  0.00000000000E+00  0.00000000000E+00  0.22182979516E+01  0.20127040877E+02  0.20004422728E+02 0.  0.
        -11    1    3    3    0    0 -0.12705072481E+01  0.99200318841E+01  0.12617714382E+01  0.10080341694E+02  0.51100000000E-03 0. -1.
         11    1    3    3    0    0  0.12705072481E+01 -0.99200318841E+01  0.95652651338E+00  0.10046699183E+02  0.51100000000E-03 0.  1.
<mgrwt>
<rscale>  0 0.20004423E+02</rscale>
<asrwt>0</asrwt>
<pdfrwt beam="1">  1        1 0.17188722E-02 0.20004423E+02</pdfrwt>
<pdfrwt beam="2">  1       -1 0.13775956E-02 0.20004423E+02</pdfrwt>
<totfact> 0.38775135E+06</totfact>
</mgrwt>
</event>
<event>
 5    1  0.1008264E-006  0.2000072E+02  0.7818608E-02  0.1745314E+00
          1   -1    0    0  501    0  0.00000000000E+00  0.00000000000E+00  0.93829738233E+02  0.93829738349E+02  0.46700000000E-02 0.  1.
         -1   -1    0    0    0  501 -0.00000000000E+00 -0.00000000000E+00 -0.10658321567E+01  0.10658423875E+01  0.46700000000E-02 0. -1.
       1023    2    1    2    0    0  0.00000000000E+00  0.00000000000E+00  0.92763906076E+02  0.94895580737E+02  0.20000724308E+02 0.  0.
        -11    1    3    3    0    0  0.62472783638E+01 -0.78088497043E+01  0.46500310494E+02  0.47563489117E+02  0.51100000000E-03 0. -1.
         11    1    3    3    0    0 -0.62472783638E+01  0.78088497043E+01  0.46263595582E+02  0.47332091620E+02  0.51100000000E-03 0.  1.
<mgrwt>
<rscale>  0 0.20000724E+02</rscale>
<asrwt>0</asrwt>
<pdfrwt beam="1">  1        1 0.14435345E-01 0.20000724E+02</pdfrwt>
<pdfrwt beam="2">  1       -1 0.16397497E-03 0.20000724E+02</pdfrwt>
<totfact> 0.44054922E+06</totfact>
</mgrwt>
</event>
<event>
 4    1  0.9583198E-007  0.2001655E+02  0.7818608E-02  0.1744999E+00
          1   -1    0    0  501    0  0.00000000000E+00  0.00000000000E+00  0.29487277552E+01  0.29487314532E+01  0.46700000000E-02 0. -1.
         -1   -1    0    0    0  501 -0.00000000000E+00 -0.00000000000E+00 -0.33969055682E+02  0.33969056003E+02  0.46700000000E-02 0.  1.
        -11    1    1    2    0    0 -0.74687137140E+01 -0.66599307785E+01 -0.15194952027E+02  0.18194035558E+02  0.51100000000E-03 0. -1.
         11    1    1    2    0    0  0.74687137140E+01  0.66599307785E+01 -0.15825375899E+02  0.18723751898E+02  0.51100000000E-03 0.  1.
<mgrwt>
<rscale>  0 0.20016550E+02</rscale>
<asrwt>0</asrwt>
<pdfrwt beam="1">  1        1 0.45365076E-03 0.20016550E+02</pdfrwt>
<pdfrwt beam="2">  1       -1 0.52260086E-02 0.20016550E+02</pdfrwt>
<totfact> 0.36086332E+06</totfact>
</mgrwt>
</event>
<event>
 5    1  0.9941969E-007  0.2000220E+02  0.7818608E-02  0.1745284E+00
          1   -1    0    0  501    0  0.00000000000E+00  0.00000000000E+00  0.82176505314E+02  0.82176505447E+02  0.46700000000E-02 0.  1.
         -1   -1    0    0    0  501 -0.00000000000E+00 -0.00000000000E+00 -0.12171563999E+01  0.12171653588E+01  0.46700000000E-02 0. -1.
       1023    2    1    2    0    0  0.00000000000E+00  0.00000000000E+00  0.80959348914E+02  0.83393670806E+02  0.20002203724E+02 0.  0.
        -11    1    3    3    0    0 -0.94355520488E+01 -0.33150580366E+01  0.40699734732E+02  0.41910471958E+02  0.51100000000E-03 0. -1.
         11    1    3    3    0    0  0.94355520488E+01  0.33150580366E+01  0.40259614182E+02  0.41483198847E+02  0.51100000000E-03 0.  1.
<mgrwt>
<rscale>  0 0.20002204E+02</rscale>
<asrwt>0</asrwt>
<pdfrwt beam="1">  1        1 0.12642541E-01 0.20002204E+02</pdfrwt>
<pdfrwt beam="2">  1       -1 0.18725552E-03 0.20002204E+02</pdfrwt>
<totfact> 0.43460723E+06</totfact>
</mgrwt>
</event>
<event>
 5    1  0.9583198E-007  0.2000528E+02  0.7818608E-02  0.1745223E+00
          1   -1    0    0  501    0  0.00000000000E+00  0.00000000000E+00  0.46885275334E+02  0.46885275567E+02  0.46700000000E-02 0.  1.
         -1   -1    0    0    0  501 -0.00000000000E+00 -0.00000000000E+00 -0.21339887633E+01  0.21339938732E+01  0.46700000000E-02 0. -1.
       1023    2    1    2    0    0  0.00000000000E+00  0.00000000000E+00  0.44751286571E+02  0.49019269440E+02  0.20005277471E+02 0.  0.
        -11    1    3    3    0    0  0.42201588140E+01 -0.90687437824E+01  0.22301031201E+02  0.24441518920E+02  0.51100000000E-03 0.  1.
         11    1    3    3    0    0 -0.42201588140E+01  0.90687437824E+01  0.22450255370E+02  0.24577750521E+02  0.51100000000E-03 0. -1.
<mgrwt>
<rscale>  0 0.20005277E+02</rscale>
<asrwt>0</asrwt>
<pdfrwt beam="1">  1        1 0.72131189E-02 0.20005277E+02</pdfrwt>
<pdfrwt beam="2">  1       -1 0.32830641E-03 0.20005277E+02</pdfrwt>
<totfact> 0.41506247E+06</totfact>
</mgrwt>
</event>
<event>
 4    1  0.9583198E-007  0.2002166E+02  0.7818608E-02  0.1744898E+00
         -1   -1    0    0    0  501 -0.00000000000E+00  0.00000000000E+00  0.51656388631E+02  0.51656388842E+02  0.46700000000E-02 0. -1.
          1   -1    0    0  501    0  0.00000000000E+00 -0.00000000000E+00 -0.19400612575E+01  0.19400668781E+01  0.46700000000E-02 0.  1.
        -11    1    1    2    0    0  0.29136837171E+01  0.95763446454E+01  0.25244093411E+02  0.27156218109E+02  0.51100000000E-03 0. -1.
         11    1    1    2    0    0 -0.29136837171E+01 -0.95763446454E+01  0.24472233962E+02  0.26440237611E+02  0.51100000000E-03 0.  1.
<mgrwt>
<rscale>  0 0.20021660E+02</rscale>
<asrwt>0</asrwt>
<pdfrwt beam="2">  1        1 0.29847138E-03 0.20021660E+02</pdfrwt>
<pdfrwt beam="1">  1       -1 0.79471379E-02 0.20021660E+02</pdfrwt>
<totfact> 0.34729747E+06</totfact>
</mgrwt>
</event>
<event>
 5    1  0.1090173E-006  0.2000148E+02  0.7818608E-02  0.1745299E+00
         -1   -1    0    0    0  501 -0.00000000000E+00  0.00000000000E+00  0.89306945739E+00  0.89308166738E+00  0.46700000000E-02 0. -1.
          1   -1    0    0  501    0  0.00000000000E+00 -0.00000000000E+00 -0.11198916169E+03  0.11198916179E+03  0.46700000000E-02 0.  1.
       1023    2    1    2    0    0  0.00000000000E+00  0.00000000000E+00 -0.11109609223E+03  0.11288224345E+03  0.20001479396E+02 0.  0.
        -11    1    3    3    0    0  0.16549557797E+01 -0.98627886515E+01 -0.55752751776E+02  0.56642588301E+02  0.51100000000E-03 0.  1.
         11    1    3    3    0    0 -0.16549557797E+01  0.98627886515E+01 -0.55343340457E+02  0.56239655154E+02  0.51100000000E-03 0. -1.
<mgrwt>
<rscale>  0 0.20001479E+02</rscale>
<asrwt>0</asrwt>
<pdfrwt beam="2">  1        1 0.17229092E-01 0.20001479E+02</pdfrwt>
<pdfrwt beam="1">  1       -1 0.13739634E-03 0.20001479E+02</pdfrwt>
<totfact> 0.44923407E+06</totfact>
</mgrwt>
</event>
<event>
 5    1  0.1016367E-006  0.2000233E+02  0.7818608E-02  0.1745282E+00
          1   -1    0    0  501    0  0.00000000000E+00  0.00000000000E+00  0.15507939979E+02  0.15507940682E+02  0.46700000000E-02 0.  1.
         -1   -1    0    0    0  501 -0.00000000000E+00 -0.00000000000E+00 -0.64498102734E+01  0.64498119640E+01  0.46700000000E-02 0. -1.
       1023    2    1    2    0    0  0.00000000000E+00  0.00000000000E+00  0.90581297052E+01  0.21957752646E+02  0.20002329552E+02 0.  0.
        -11    1    3    3    0    0 -0.14220439765E+01 -0.98988088750E+01  0.46620270768E+01  0.11033726612E+02  0.51100000000E-03 0.  1.
         11    1    3    3    0    0  0.14220439765E+01  0.98988088750E+01  0.43961026285E+01  0.10924026034E+02  0.51100000000E-03 0. -1.
<mgrwt>
<rscale>  0 0.20002330E+02</rscale>
<asrwt>0</asrwt>
<pdfrwt beam="1">  1        1 0.23858371E-02 0.20002330E+02</pdfrwt>
<pdfrwt beam="2">  1       -1 0.99227871E-03 0.20002330E+02</pdfrwt>
<totfact> 0.39286032E+06</totfact>
</mgrwt>
</event>
<event>
 5    1  0.9583198E-007  0.2000293E+02  0.7818608E-02  0.1745270E+00
          1   -1    0    0  501    0  0.00000000000E+00  0.00000000000E+00  0.10503582769E+03  0.10503582779E+03  0.46700000000E-02 0. -1.
         -1   -1    0    0    0  501 -0.00000000000E+00 -0.00000000000E+00 -0.95232947248E+00  0.95234092270E+00  0.46700000000E-02 0.  1.
       1023    2    1    2    0    0  0.00000000000E+00  0.00000000000E+00  0.10408349822E+03  0.10598816872E+03  0.20002932452E+02 0.  0.
        -11    1    3    3    0    0  0.90924737260E+01  0.41660620255E+01  0.51971624146E+02  0.52925219583E+02  0.51100000000E-03 0. -1.
         11    1    3    3    0    0 -0.90924737260E+01 -0.41660620255E+01  0.52111874072E+02  0.53062949134E+02  0.51100000000E-03 0.  1.
<mgrwt>
<rscale>  0 0.20002932E+02</rscale>
<asrwt>0</asrwt>
<pdfrwt beam="1">  1        1 0.16159363E-01 0.20002932E+02</pdfrwt>
<pdfrwt beam="2">  1       -1 0.14651308E-03 0.20002932E+02</pdfrwt>
<totfact> 0.44588469E+06</totfact>
</mgrwt>
</event>
<event>
 5    1  0.9583198E-007  0.2000109E+02  0.7818608E-02  0.1745306E+00
         -1   -1    0    0    0  501 -0.00000000000E+00  0.00000000000E+00  0.84233590860E+02  0.84233590990E+02  0.46700000000E-02 0. -1.
          1   -1    0    0  501    0  0.00000000000E+00 -0.00000000000E+00 -0.11872996825E+01  0.11873088667E+01  0.46700000000E-02 0.  1.
       1023    2    1    2    0    0  0.00000000000E+00  0.00000000000E+00  0.83046291178E+02  0.85420899856E+02  0.20001091318E+02 0.  0.
        -11    1    3    3    0    0  0.27963705362E+01  0.96011458954E+01  0.41933288853E+02  0.43109191653E+02  0.51100000000E-03 0.  1.
         11    1    3    3    0    0 -0.27963705362E+01 -0.96011458954E+01  0.41113002325E+02  0.42311708204E+02  0.51100000000E-03 0. -1.
<mgrwt>
<rscale>  0 0.20001091E+02</rscale>
<asrwt>0</asrwt>
<pdfrwt beam="2">  1        1 0.18266219E-03 0.20001091E+02</pdfrwt>
<pdfrwt beam="1">  1       -1 0.12959016E-01 0.20001091E+02</pdfrwt>
<totfact> 0.32742077E+06</totfact>
</mgrwt>
</event>
<event>
 5    1  0.9583198E-007  0.2000063E+02  0.7818608E-02  0.1745315E+00
         -1   -1    0    0    0  501 -0.00000000000E+00  0.00000000000E+00  0.86863346388E+00  0.86864601736E+00  0.46700000000E-02 0. -1.
          1   -1    0    0  501    0  0.00000000000E+00 -0.00000000000E+00 -0.11512979828E+03  0.11512979838E+03  0.46700000000E-02 0.  1.
       1023    2    1    2    0    0  0.00000000000E+00  0.00000000000E+00 -0.11426116482E+03  0.11599844439E+03  0.20000632896E+02 0.  0.
        -11    1    3    3    0    0 -0.58590421475E+01  0.81040763090E+01 -0.57383459878E+02  0.58248312383E+02  0.51100000000E-03 0.  1.
         11    1    3    3    0    0  0.58590421475E+01 -0.81040763090E+01 -0.56877704940E+02  0.57750132011E+02  0.51100000000E-03 0. -1.
<mgrwt>
<rscale>  0 0.20000633E+02</rscale>
<asrwt>0</asrwt>
<pdfrwt beam="2">  1        1 0.17712266E-01 0.20000633E+02</pdfrwt>
<pdfrwt beam="1">  1       -1 0.13363698E-03 0.20000633E+02</pdfrwt>
<totfact> 0.45073489E+06</totfact>
</mgrwt>
</event>
<event>
 5    1  0.1007280E-006  0.2000097E+02  0.7818608E-02  0.1745309E+00
         -1   -1    0    0    0  501 -0.00000000000E+00  0.00000000000E+00  0.17133580212E+01  0.17133643856E+01  0.46700000000E-02 0.  1.
          1   -1    0    0  501    0  0.00000000000E+00 -0.00000000000E+00 -0.58370473048E+02  0.58370473235E+02  0.46700000000E-02 0. -1.
       1023    2    1    2    0    0  0.00000000000E+00  0.00000000000E+00 -0.56657115027E+02  0.60083837621E+02  0.20000971477E+02 0.  0.
        -11    1    3    3    0    0 -0.66144213527E+01 -0.75004654779E+01 -0.28188860240E+02  0.29910188801E+02  0.51100000000E-03 0.  1.
         11    1    3    3    0    0  0.66144213527E+01  0.75004654779E+01 -0.28468254787E+02  0.30173648820E+02  0.51100000000E-03 0. -1.
<mgrwt>
<rscale>  0 0.20000971E+02</rscale>
<asrwt>0</asrwt>
<pdfrwt beam="2">  1        1 0.89800718E-02 0.20000971E+02</pdfrwt>
<pdfrwt beam="1">  1       -1 0.26359409E-03 0.20000971E+02</pdfrwt>
<totfact> 0.42190651E+06</totfact>
</mgrwt>
</event>
<event>
 5    1  0.9583198E-007  0.2000060E+02  0.7818608E-02  0.1745316E+00
         -1   -1    0    0    0  501 -0.00000000000E+00  0.00000000000E+00  0.11728231206E+02  0.11728232135E+02  0.46700000000E-02 0. -1.
          1   -1    0    0  501    0  0.00000000000E+00 -0.00000000000E+00 -0.85269418618E+01  0.85269431406E+01  0.46700000000E-02 0.  1.
       1023    2    1    2    0    0  0.00000000000E+00  0.00000000000E+00  0.32012893439E+01  0.20255175276E+02  0.20000596791E+02 0.  0.
        -11    1    3    3    0    0 -0.26624058772E+01 -0.96391466228E+01  0.16679364112E+01  0.10138222961E+02  0.51100000000E-03 0. -1.
         11    1    3    3    0    0  0.26624058772E+01  0.96391466228E+01  0.15333529327E+01  0.10116952315E+02  0.51100000000E-03 0.  1.
<mgrwt>
<rscale>  0 0.20000597E+02</rscale>
<asrwt>0</asrwt>
<pdfrwt beam="2">  1        1 0.13118374E-02 0.20000597E+02</pdfrwt>
<pdfrwt beam="1">  1       -1 0.18043434E-02 0.20000597E+02</pdfrwt>
<totfact> 0.38370241E+06</totfact>
</mgrwt>
</event>
<event>
 5    1  0.9583198E-007  0.2000077E+02  0.7818608E-02  0.1745313E+00
         -1   -1    0    0    0  501 -0.00000000000E+00  0.00000000000E+00  0.63617611849E+02  0.63617612020E+02  0.46700000000E-02 0.  1.
          1   -1    0    0  501    0  0.00000000000E+00 -0.00000000000E+00 -0.15720097048E+01  0.15720166414E+01  0.46700000000E-02 0. -1.
       1023    2    1    2    0    0  0.00000000000E+00  0.00000000000E+00  0.62045602144E+02  0.65189628662E+02  0.20000773476E+02 0.  0.
        -11    1    3    3    0    0  0.29659660461E+01  0.95503819098E+01  0.30920484442E+02  0.32497432323E+02  0.51100000000E-03 0. -1.
         11    1    3    3    0    0 -0.29659660461E+01 -0.95503819098E+01  0.31125117702E+02  0.32692196339E+02  0.51100000000E-03 0.  1.
<mgrwt>
<rscale>  0 0.20000773E+02</rscale>
<asrwt>0</asrwt>
<pdfrwt beam="2">  1        1 0.24184813E-03 0.20000773E+02</pdfrwt>
<pdfrwt beam="1">  1       -1 0.97873282E-02 0.20000773E+02</pdfrwt>
<totfact> 0.34003173E+06</totfact>
</mgrwt>
</event>
<event>
 5    1  0.9583198E-007  0.2000054E+02  0.7818608E-02  0.1745317E+00
         -1   -1    0    0    0  501 -0.00000000000E+00  0.00000000000E+00  0.15780737342E+02  0.15780738033E+02  0.46700000000E-02 0.  1.
          1   -1    0    0  501    0  0.00000000000E+00 -0.00000000000E+00 -0.63371795444E+01  0.63371812651E+01  0.46700000000E-02 0. -1.
       1023    2    1    2    0    0  0.00000000000E+00  0.00000000000E+00  0.94435577972E+01  0.22117919298E+02  0.20000539247E+02 0.  0.
        -11    1    3    3    0    0  0.72275057196E+01 -0.69114783921E+01  0.47168586933E+01  0.11056858898E+02  0.51100000000E-03 0. -1.
         11    1    3    3    0    0 -0.72275057196E+01  0.69114783921E+01  0.47266991038E+01  0.11061060400E+02  0.51100000000E-03 0.  1.
<mgrwt>
<rscale>  0 0.20000539E+02</rscale>
<asrwt>0</asrwt>
<pdfrwt beam="2">  1        1 0.97495090E-03 0.20000539E+02</pdfrwt>
<pdfrwt beam="1">  1       -1 0.24278059E-02 0.20000539E+02</pdfrwt>
<totfact> 0.37867312E+06</totfact>
</mgrwt>
</event>
<event>
 5    1  0.9583198E-007  0.2000363E+02  0.7818608E-02  0.1745256E+00
          1   -1    0    0  501    0  0.00000000000E+00  0.00000000000E+00  0.51870879582E+01  0.51870900605E+01  0.46700000000E-02 0. -1.
         -1   -1    0    0    0  501 -0.00000000000E+00 -0.00000000000E+00 -0.19285624349E+02  0.19285624915E+02  0.46700000000E-02 0.  1.
       1023    2    1    2    0    0  0.00000000000E+00  0.00000000000E+00 -0.14098536391E+02  0.24472714975E+02  0.20003625919E+02 0.  0.
        -11    1    3    3    0    0 -0.84011016067E+01 -0.54265515042E+01 -0.69251487798E+01  0.12164853280E+02  0.51100000000E-03 0.  1.
         11    1    3    3    0    0  0.84011016067E+01  0.54265515042E+01 -0.71733876114E+01  0.12307861696E+02  0.51100000000E-03 0. -1.
<mgrwt>
<rscale>  0 0.20003626E+02</rscale>
<asrwt>0</asrwt>
<pdfrwt beam="1">  1        1 0.79801375E-03 0.20003626E+02</pdfrwt>
<pdfrwt beam="2">  1       -1 0.29670193E-02 0.20003626E+02</pdfrwt>
<totfact> 0.37475175E+06</totfact>
</mgrwt>
</event>
<event>
 5    1  0.9890236E-007  0.2000212E+02  0.7818608E-02  0.1745286E+00
          1   -1    0    0  501    0  0.00000000000E+00  0.00000000000E+00  0.57103250971E+02  0.57103251162E+02  0.46700000000E-02 0.  1.
         -1   -1    0    0    0  501 -0.00000000000E+00 -0.00000000000E+00 -0.17515818985E+01  0.17515881240E+01  0.46700000000E-02 0. -1.
       1023    2    1    2    0    0  0.00000000000E+00  0.00000000000E+00  0.55351669073E+02  0.58854839286E+02  0.20002120844E+02 0.  0.
        -11    1    3    3    0    0 -0.86609760867E+01  0.49998073626E+01  0.27979188471E+02  0.29712717281E+02  0.51100000000E-03 0.  1.
         11    1    3    3    0    0  0.86609760867E+01 -0.49998073626E+01  0.27372480602E+02  0.29142122006E+02  0.51100000000E-03 0. -1.
<mgrwt>
<rscale>  0 0.20002121E+02</rscale>
<asrwt>0</asrwt>
<pdfrwt beam="1">  1        1 0.87851161E-02 0.20002121E+02</pdfrwt>
<pdfrwt beam="2">  1       -1 0.26947463E-03 0.20002121E+02</pdfrwt>
<totfact> 0.42113781E+06</totfact>
</mgrwt>
</event>
<event>
 5    1  0.9583198E-007  0.2000203E+02  0.7818608E-02  0.1745288E+00
          1   -1    0    0  501    0  0.00000000000E+00  0.00000000000E+00  0.25763399038E+02  0.25763399461E+02  0.46700000000E-02 0. -1.
         -1   -1    0    0    0  501 -0.00000000000E+00 -0.00000000000E+00 -0.38822615085E+01  0.38822643173E+01  0.46700000000E-02 0.  1.
       1023    2    1    2    0    0  0.00000000000E+00  0.00000000000E+00  0.21881137529E+02  0.29645663778E+02  0.20002029929E+02 0.  0.
        -11    1    3    3    0    0  0.83777204616E+01 -0.54619148501E+01  0.10999595950E+02  0.14866399204E+02  0.51100000000E-03 0. -1.
         11    1    3    3    0    0 -0.83777204616E+01  0.54619148501E+01  0.10881541579E+02  0.14779264575E+02  0.51100000000E-03 0.  1.
<mgrwt>
<rscale>  0 0.20002030E+02</rscale>
<asrwt>0</asrwt>
<pdfrwt beam="1">  1        1 0.39636002E-02 0.20002030E+02</pdfrwt>
<pdfrwt beam="2">  1       -1 0.59727123E-03 0.20002030E+02</pdfrwt>
<totfact> 0.40146691E+06</totfact>
</mgrwt>
</event>
<event>
 5    1  0.9583198E-007  0.2000326E+02  0.7818608E-02  0.1745263E+00
         -1   -1    0    0    0  501 -0.00000000000E+00  0.00000000000E+00  0.56399101974E+01  0.56399121309E+01  0.46700000000E-02 0. -1.
          1   -1    0    0  501    0  0.00000000000E+00 -0.00000000000E+00 -0.17736547174E+02  0.17736547789E+02  0.46700000000E-02 0.  1.
       1023    2    1    2    0    0  0.00000000000E+00  0.00000000000E+00 -0.12096636976E+02  0.23376459920E+02  0.20003256041E+02 0.  0.
        -11    1    3    3    0    0  0.97872527671E+01  0.20592176093E+01 -0.60988394877E+01  0.11714373105E+02  0.51100000000E-03 0. -1.
         11    1    3    3    0    0 -0.97872527671E+01 -0.20592176093E+01 -0.59977974887E+01  0.11662086814E+02  0.51100000000E-03 0.  1.
<mgrwt>
<rscale>  0 0.20003256E+02</rscale>
<asrwt>0</asrwt>
<pdfrwt beam="2">  1        1 0.27286997E-02 0.20003256E+02</pdfrwt>
<pdfrwt beam="1">  1       -1 0.86767869E-03 0.20003256E+02</pdfrwt>
<totfact> 0.39494234E+06</totfact>
</mgrwt>
</event>
<event>
 5    1  0.9583198E-007  0.2000198E+02  0.7818608E-02  0.1745289E+00
          1   -1    0    0  501    0  0.00000000000E+00  0.00000000000E+00  0.11264547616E+03  0.11264547626E+03  0.46700000000E-02 0. -1.
         -1   -1    0    0    0  501 -0.00000000000E+00 -0.00000000000E+00 -0.88791068307E+00  0.88792296401E+00  0.46700000000E-02 0.  1.
       1023    2    1    2    0    0  0.00000000000E+00  0.00000000000E+00  0.11175756548E+03  0.11353339922E+03  0.20001982335E+02 0.  0.
        -11    1    3    3    0    0  0.70622612677E+01 -0.70809578441E+01  0.55505457764E+02  0.56399214002E+02  0.51100000000E-03 0. -1.
         11    1    3    3    0    0 -0.70622612677E+01  0.70809578441E+01  0.56252107716E+02  0.57134185222E+02  0.51100000000E-03 0.  1.
<mgrwt>
<rscale>  0 0.20001982E+02</rscale>
<asrwt>0</asrwt>
<pdfrwt beam="1">  1        1 0.17330077E-01 0.20001982E+02</pdfrwt>
<pdfrwt beam="2">  1       -1 0.13660257E-03 0.20001982E+02</pdfrwt>
<totfact> 0.44951516E+06</totfact>
</mgrwt>
</event>
<event>
 5    1  0.9583198E-007  0.2000288E+02  0.7818608E-02  0.1745271E+00
          1   -1    0    0  501    0  0.00000000000E+00  0.00000000000E+00  0.15105264840E+02  0.15105265562E+02  0.46700000000E-02 0. -1.
         -1   -1    0    0    0  501 -0.00000000000E+00 -0.00000000000E+00 -0.66221103579E+01  0.66221120046E+01  0.46700000000E-02 0.  1.
       1023    2    1    2    0    0  0.00000000000E+00  0.00000000000E+00  0.84831544819E+01  0.21727377566E+02  0.20002875442E+02 0.  0.
        -11    1    3    3    0    0 -0.29695465327E+00  0.99963729114E+01  0.43659131352E+01  0.10912234016E+02  0.51100000000E-03 0. -1.
         11    1    3    3    0    0  0.29695465327E+00 -0.99963729114E+01  0.41172413466E+01  0.10815143551E+02  0.51100000000E-03 0.  1.
<mgrwt>
<rscale>  0 0.20002875E+02</rscale>
<asrwt>0</asrwt>
<pdfrwt beam="1">  1        1 0.23238871E-02 0.20002875E+02</pdfrwt>
<pdfrwt beam="2">  1       -1 0.10187864E-02 0.20002875E+02</pdfrwt>
<totfact> 0.39242779E+06</totfact>
</mgrwt>
</event>
<event>
 4    1  0.9583198E-007  0.2010793E+02  0.7818608E-02  0.1743190E+00
         -1   -1    0    0    0  501 -0.00000000000E+00  0.00000000000E+00  0.19292198594E+01  0.19292255116E+01  0.46700000000E-02 0. -1.
          1   -1    0    0  501    0  0.00000000000E+00 -0.00000000000E+00 -0.52395282134E+02  0.52395282342E+02  0.46700000000E-02 0.  1.
        -11    1    1    2    0    0  0.71362210435E+01  0.70489750761E+01 -0.23383878309E+02  0.25444438792E+02  0.51100000000E-03 0.  1.
         11    1    1    2    0    0 -0.71362210435E+01 -0.70489750761E+01 -0.27082183965E+02  0.28880069061E+02  0.51100000000E-03 0. -1.
<mgrwt>
<rscale>  0 0.20107927E+02</rscale>
<asrwt>0</asrwt>
<pdfrwt beam="2">  1        1 0.80608120E-02 0.20107927E+02</pdfrwt>
<pdfrwt beam="1">  1       -1 0.29680355E-03 0.20107927E+02</pdfrwt>
<totfact> 0.41356772E+06</totfact>
</mgrwt>
</event>
<event>
 4    1  0.9583198E-007  0.2008292E+02  0.7818608E-02  0.1743684E+00
          1   -1    0    0  501    0  0.00000000000E+00  0.00000000000E+00  0.12087920208E+01  0.12088010417E+01  0.46700000000E-02 0. -1.
         -1   -1    0    0    0  501 -0.00000000000E+00 -0.00000000000E+00 -0.83414318605E+02  0.83414318736E+02  0.46700000000E-02 0.  1.
        -11    1    1    2    0    0 -0.98518554240E+01 -0.18080011599E+01 -0.38114234674E+02  0.39408410378E+02  0.51100000000E-03 0.  1.
         11    1    1    2    0    0  0.98518554240E+01  0.18080011599E+01 -0.44091291911E+02  0.45214709400E+02  0.51100000000E-03 0. -1.
<mgrwt>
<rscale>  0 0.20082923E+02</rscale>
<asrwt>0</asrwt>
<pdfrwt beam="1">  1        1 0.18596877E-03 0.20082923E+02</pdfrwt>
<pdfrwt beam="2">  1       -1 0.12832968E-01 0.20082923E+02</pdfrwt>
<totfact> 0.32497224E+06</totfact>
</mgrwt>
</event>
<event>
 5    1  0.9601812E-007  0.2000270E+02  0.7818608E-02  0.1745274E+00
         -1   -1    0    0    0  501 -0.00000000000E+00  0.00000000000E+00  0.12209002756E+01  0.12209092070E+01  0.46700000000E-02 0. -1.
          1   -1    0    0  501    0  0.00000000000E+00 -0.00000000000E+00 -0.81928568890E+02  0.81928569023E+02  0.46700000000E-02 0.  1.
       1023    2    1    2    0    0  0.00000000000E+00  0.00000000000E+00 -0.80707668614E+02  0.83149478230E+02  0.20002698737E+02 0.  0.
        -11    1    3    3    0    0  0.96946154147E+01 -0.24572227828E+01 -0.40108714424E+02  0.41336817547E+02  0.51100000000E-03 0. -1.
         11    1    3    3    0    0 -0.96946154147E+01  0.24572227828E+01 -0.40598954190E+02  0.41812660683E+02  0.51100000000E-03 0.  1.
<mgrwt>
<rscale>  0 0.20002699E+02</rscale>
<asrwt>0</asrwt>
<pdfrwt beam="2">  1        1 0.12604392E-01 0.20002699E+02</pdfrwt>
<pdfrwt beam="1">  1       -1 0.18783157E-03 0.20002699E+02</pdfrwt>
<totfact> 0.43445642E+06</totfact>
</mgrwt>
</event>
<event>
 5    1  0.9583198E-007  0.2000032E+02  0.7818608E-02  0.1745322E+00
         -1   -1    0    0    0  501 -0.00000000000E+00  0.00000000000E+00  0.36263080407E+01  0.36263110477E+01  0.46700000000E-02 0. -1.
          1   -1    0    0  501    0  0.00000000000E+00 -0.00000000000E+00 -0.27577134956E+02  0.27577135352E+02  0.46700000000E-02 0.  1.
       1023    2    1    2    0    0  0.00000000000E+00  0.00000000000E+00 -0.23950826915E+02  0.31203446399E+02  0.20000323929E+02 0.  0.
        -11    1    3    3    0    0  0.97035362713E+01 -0.24175350795E+01 -0.11994330792E+02  0.15616243577E+02  0.51100000000E-03 0.  1.
         11    1    3    3    0    0 -0.97035362713E+01  0.24175350795E+01 -0.11956496123E+02  0.15587202823E+02  0.51100000000E-03 0. -1.
<mgrwt>
<rscale>  0 0.20000324E+02</rscale>
<asrwt>0</asrwt>
<pdfrwt beam="2">  1        1 0.42426363E-02 0.20000324E+02</pdfrwt>
<pdfrwt beam="1">  1       -1 0.55789383E-03 0.20000324E+02</pdfrwt>
<totfact> 0.40285581E+06</totfact>
</mgrwt>
</event>
<event>
 5    1  0.1023035E-006  0.2000081E+02  0.7818608E-02  0.1745312E+00
          1   -1    0    0  501    0  0.00000000000E+00  0.00000000000E+00  0.21195979044E+02  0.21195979559E+02  0.46700000000E-02 0. -1.
         -1   -1    0    0    0  501 -0.00000000000E+00 -0.00000000000E+00 -0.47182555865E+01  0.47182578976E+01  0.46700000000E-02 0.  1.
       1023    2    1    2    0    0  0.00000000000E+00  0.00000000000E+00  0.16477723458E+02  0.25914237456E+02  0.20000808299E+02 0.  0.
        -11    1    3    3    0    0  0.71245180556E+00 -0.99747802838E+01  0.81543592793E+01  0.12903387338E+02  0.51100000000E-03 0. -1.
         11    1    3    3    0    0 -0.71245180556E+00  0.99747802838E+01  0.83233641787E+01  0.13010850118E+02  0.51100000000E-03 0.  1.
<mgrwt>
<rscale>  0 0.20000808E+02</rscale>
<asrwt>0</asrwt>
<pdfrwt beam="1">  1        1 0.32609202E-02 0.20000808E+02</pdfrwt>
<pdfrwt beam="2">  1       -1 0.72588567E-03 0.20000808E+02</pdfrwt>
<totfact> 0.39800845E+06</totfact>
</mgrwt>
</event>
<event>
 5    1  0.9583198E-007  0.2000321E+02  0.7818608E-02  0.1745264E+00
         -1   -1    0    0    0  501 -0.00000000000E+00  0.00000000000E+00  0.33734283219E+01  0.33734315543E+01  0.46700000000E-02 0.  1.
          1   -1    0    0  501    0  0.00000000000E+00 -0.00000000000E+00 -0.29652938948E+02  0.29652939316E+02  0.46700000000E-02 0. -1.
       1023    2    1    2    0    0  0.00000000000E+00  0.00000000000E+00 -0.26279510626E+02  0.33026370870E+02  0.20003212095E+02 0.  0.
        -11    1    3    3    0    0 -0.71574739180E+01  0.69857261888E+01 -0.13219280444E+02  0.16576464610E+02  0.51100000000E-03 0.  1.
         11    1    3    3    0    0  0.71574739180E+01 -0.69857261888E+01 -0.13060230183E+02  0.16449906260E+02  0.51100000000E-03 0. -1.
<mgrwt>
<rscale>  0 0.20003212E+02</rscale>
<asrwt>0</asrwt>
<pdfrwt beam="2">  1        1 0.45619907E-02 0.20003212E+02</pdfrwt>
<pdfrwt beam="1">  1       -1 0.51898927E-03 0.20003212E+02</pdfrwt>
<totfact> 0.40418229E+06</totfact>
</mgrwt>
</event>
<event>
 5    1  0.9583198E-007  0.2000009E+02  0.7818608E-02  0.1745326E+00
         -1   -1    0    0    0  501 -0.00000000000E+00  0.00000000000E+00  0.22702604535E+01  0.22702652567E+01  0.46700000000E-02 0.  1.
          1   -1    0    0  501    0  0.00000000000E+00 -0.00000000000E+00 -0.44048137949E+02  0.44048138197E+02  0.46700000000E-02 0. -1.
       1023    2    1    2    0    0  0.00000000000E+00  0.00000000000E+00 -0.41777877496E+02  0.46318403454E+02  0.20000086261E+02 0.  0.
        -11    1    3    3    0    0 -0.76160862196E+01 -0.64804323278E+01 -0.20910895728E+02  0.23179006296E+02  0.51100000000E-03 0.  1.
         11    1    3    3    0    0  0.76160862196E+01  0.64804323278E+01 -0.20866981768E+02  0.23139397158E+02  0.51100000000E-03 0. -1.
<mgrwt>
<rscale>  0 0.20000086E+02</rscale>
<asrwt>0</asrwt>
<pdfrwt beam="2">  1        1 0.67766363E-02 0.20000086E+02</pdfrwt>
<pdfrwt beam="1">  1       -1 0.34927126E-03 0.20000086E+02</pdfrwt>
<totfact> 0.41359387E+06</totfact>
</mgrwt>
</event>
<event>
 5    1  0.9583198E-007  0.2000183E+02  0.7818608E-02  0.1745292E+00
          1   -1    0    0  501    0  0.00000000000E+00  0.00000000000E+00  0.57428011204E+01  0.57428030192E+01  0.46700000000E-02 0.  1.
         -1   -1    0    0    0  501 -0.00000000000E+00 -0.00000000000E+00 -0.17416281336E+02  0.17416281962E+02  0.46700000000E-02 0. -1.
       1023    2    1    2    0    0  0.00000000000E+00  0.00000000000E+00 -0.11673480215E+02  0.23159084981E+02  0.20001826837E+02 0.  0.
        -11    1    3    3    0    0 -0.44571594828E+01 -0.89527008513E+01 -0.57975480703E+01  0.11559787501E+02  0.51100000000E-03 0.  1.
         11    1    3    3    0    0  0.44571594828E+01  0.89527008513E+01 -0.58759321449E+01  0.11599297480E+02  0.51100000000E-03 0. -1.
<mgrwt>
<rscale>  0 0.20001827E+02</rscale>
<asrwt>0</asrwt>
<pdfrwt beam="1">  1        1 0.88350807E-03 0.20001827E+02</pdfrwt>
<pdfrwt beam="2">  1       -1 0.26794281E-02 0.20001827E+02</pdfrwt>
<totfact> 0.37680221E+06</totfact>
</mgrwt>
</event>
<event>
 5    1  0.9583198E-007  0.2000342E+02  0.7818608E-02  0.1745260E+00
         -1   -1    0    0    0  501 -0.00000000000E+00  0.00000000000E+00  0.94521351665E+01  0.94521363202E+01  0.46700000000E-02 0. -1.
          1   -1    0    0  501    0  0.00000000000E+00 -0.00000000000E+00 -0.10583233557E+02  0.10583234587E+02  0.46700000000E-02 0.  1.
       1023    2    1    2    0    0  0.00000000000E+00  0.00000000000E+00 -0.11310983900E+01  0.20035370907E+02  0.20003417303E+02 0.  0.
        -11    1    3    3    0    0  0.11105055964E+01  0.99397296853E+01 -0.51324704764E+00  0.10014732732E+02  0.51100000000E-03 0.  1.
         11    1    3    3    0    0 -0.11105055964E+01 -0.99397296853E+01 -0.61785134237E+00  0.10020638175E+02  0.51100000000E-03 0. -1.
<mgrwt>
<rscale>  0 0.20003417E+02</rscale>
<asrwt>0</asrwt>
<pdfrwt beam="2">  1        1 0.16281900E-02 0.20003417E+02</pdfrwt>
<pdfrwt beam="1">  1       -1 0.14541748E-02 0.20003417E+02</pdfrwt>
<totfact> 0.38696473E+06</totfact>
</mgrwt>
</event>
<event>
 5    1  0.9919299E-007  0.2000070E+02  0.7818608E-02  0.1745314E+00
          1   -1    0    0  501    0  0.00000000000E+00  0.00000000000E+00  0.63847082844E+02  0.63847083014E+02  0.46700000000E-02 0.  1.
         -1   -1    0    0    0  501 -0.00000000000E+00 -0.00000000000E+00 -0.15663476947E+01  0.15663546564E+01  0.46700000000E-02 0. -1.
       1023    2    1    2    0    0  0.00000000000E+00  0.00000000000E+00  0.62280735149E+02  0.65413437671E+02  0.20000696418E+02 0.  0.
        -11    1    3    3    0    0 -0.59278225735E+01  0.80538135273E+01  0.31346471068E+02  0.32902951866E+02  0.51100000000E-03 0. -1.
         11    1    3    3    0    0  0.59278225735E+01 -0.80538135273E+01  0.30934264081E+02  0.32510485805E+02  0.51100000000E-03 0.  1.
<mgrwt>
<rscale>  0 0.20000696E+02</rscale>
<asrwt>0</asrwt>
<pdfrwt beam="1">  1        1 0.98226298E-02 0.20000696E+02</pdfrwt>
<pdfrwt beam="2">  1       -1 0.24097709E-03 0.20000696E+02</pdfrwt>
<totfact> 0.42496588E+06</totfact>
</mgrwt>
</event>
<event>
 5    1  0.9583198E-007  0.2000007E+02  0.7818608E-02  0.1745327E+00
         -1   -1    0    0    0  501 -0.00000000000E+00  0.00000000000E+00  0.74856781163E+01  0.74856795730E+01  0.46700000000E-02 0.  1.
          1   -1    0    0  501    0  0.00000000000E+00 -0.00000000000E+00 -0.13358937065E+02  0.13358937881E+02  0.46700000000E-02 0. -1.
       1023    2    1    2    0    0  0.00000000000E+00  0.00000000000E+00 -0.58732589489E+01  0.20844617454E+02  0.20000072653E+02 0.  0.
        -11    1    3    3    0    0  0.75922500469E+01  0.65083298506E+01 -0.29474633598E+01  0.10425361324E+02  0.51100000000E-03 0.  1.
         11    1    3    3    0    0 -0.75922500469E+01 -0.65083298506E+01 -0.29257955891E+01  0.10419256130E+02  0.51100000000E-03 0. -1.
<mgrwt>
<rscale>  0 0.20000073E+02</rscale>
<asrwt>0</asrwt>
<pdfrwt beam="2">  1        1 0.20552213E-02 0.20000073E+02</pdfrwt>
<pdfrwt beam="1">  1       -1 0.11516430E-02 0.20000073E+02</pdfrwt>
<totfact> 0.39066562E+06</totfact>
</mgrwt>
</event>
<event>
 5    1  0.9583198E-007  0.2000091E+02  0.7818608E-02  0.1745310E+00
         -1   -1    0    0    0  501 -0.00000000000E+00  0.00000000000E+00  0.38902293882E+02  0.38902294162E+02  0.46700000000E-02 0.  1.
          1   -1    0    0  501    0  0.00000000000E+00 -0.00000000000E+00 -0.25707732888E+01  0.25707775305E+01  0.46700000000E-02 0. -1.
       1023    2    1    2    0    0  0.00000000000E+00  0.00000000000E+00  0.36331520593E+02  0.41473071692E+02  0.20000907155E+02 0.  0.
        -11    1    3    3    0    0 -0.66595193885E+01 -0.74601539336E+01  0.18326059924E+02  0.20876962609E+02  0.51100000000E-03 0.  1.
         11    1    3    3    0    0  0.66595193885E+01  0.74601539336E+01  0.18005460669E+02  0.20596109083E+02  0.51100000000E-03 0. -1.
<mgrwt>
<rscale>  0 0.20000907E+02</rscale>
<asrwt>0</asrwt>
<pdfrwt beam="2">  1        1 0.39550396E-03 0.20000907E+02</pdfrwt>
<pdfrwt beam="1">  1       -1 0.59849682E-02 0.20000907E+02</pdfrwt>
<totfact> 0.35752971E+06</totfact>
</mgrwt>
</event>
<event>
 5    1  0.9583198E-007  0.2000031E+02  0.7818608E-02  0.1745322E+00
         -1   -1    0    0    0  501 -0.00000000000E+00  0.00000000000E+00  0.42566738599E+02  0.42566738855E+02  0.46700000000E-02 0.  1.
          1   -1    0    0  501    0  0.00000000000E+00 -0.00000000000E+00 -0.23493225126E+01  0.23493271541E+01  0.46700000000E-02 0. -1.
       1023    2    1    2    0    0  0.00000000000E+00  0.00000000000E+00  0.40217416086E+02  0.44916066009E+02  0.20000310724E+02 0.  0.
        -11    1    3    3    0    0 -0.87401250979E+01  0.48593326998E+01  0.20140940422E+02  0.22486893568E+02  0.51100000000E-03 0. -1.
         11    1    3    3    0    0  0.87401250979E+01 -0.48593326998E+01  0.20076475664E+02  0.22429172441E+02  0.51100000000E-03 0.  1.
<mgrwt>
<rscale>  0 0.20000311E+02</rscale>
<asrwt>0</asrwt>
<pdfrwt beam="2">  1        1 0.36143460E-03 0.20000311E+02</pdfrwt>
<pdfrwt beam="1">  1       -1 0.65487295E-02 0.20000311E+02</pdfrwt>
<totfact> 0.35473480E+06</totfact>
</mgrwt>
</event>
<event>
 5    1  0.9583198E-007  0.2000665E+02  0.7818608E-02  0.1745196E+00
         -1   -1    0    0    0  501 -0.00000000000E+00  0.00000000000E+00  0.35400990752E+01  0.35401021554E+01  0.46700000000E-02 0. -1.
          1   -1    0    0  501    0  0.00000000000E+00 -0.00000000000E+00 -0.28266557340E+02  0.28266557726E+02  0.46700000000E-02 0.  1.
       1023    2    1    2    0    0  0.00000000000E+00  0.00000000000E+00 -0.24726458265E+02  0.31806659882E+02  0.20006645758E+02 0.  0.
        -11    1    3    3    0    0 -0.71352795531E+00  0.99777212793E+01 -0.12441506454E+02  0.15964182635E+02  0.51100000000E-03 0.  1.
         11    1    3    3    0    0  0.71352795531E+00 -0.99777212793E+01 -0.12284951811E+02  0.15842477247E+02  0.51100000000E-03 0. -1.
<mgrwt>
<rscale>  0 0.20006646E+02</rscale>
<asrwt>0</asrwt>
<pdfrwt beam="2">  1        1 0.43487012E-02 0.20006646E+02</pdfrwt>
<pdfrwt beam="1">  1       -1 0.54463091E-03 0.20006646E+02</pdfrwt>
<totfact> 0.40305972E+06</totfact>
</mgrwt>
</event>
<event>
 5    1  0.9583198E-007  0.2000301E+02  0.7818608E-02  0.1745268E+00
          1   -1    0    0  501    0  0.00000000000E+00  0.00000000000E+00  0.33605523352E+01  0.33605555801E+01  0.46700000000E-02 0.  1.
         -1   -1    0    0    0  501 -0.00000000000E+00 -0.00000000000E+00 -0.29765938787E+02  0.29765939154E+02  0.46700000000E-02 0. -1.
       1023    2    1    2    0    0  0.00000000000E+00  0.00000000000E+00 -0.26405386452E+02  0.33126494734E+02  0.20003005266E+02 0.  0.
        -11    1    3    3    0    0 -0.94895575537E+01  0.31544160955E+01 -0.12925523379E+02  0.16342313127E+02  0.51100000000E-03 0.  1.
         11    1    3    3    0    0  0.94895575537E+01 -0.31544160955E+01 -0.13479863073E+02  0.16784181607E+02  0.51100000000E-03 0. -1.
<mgrwt>
<rscale>  0 0.20003005E+02</rscale>
<asrwt>0</asrwt>
<pdfrwt beam="1">  1        1 0.51700835E-03 0.20003005E+02</pdfrwt>
<pdfrwt beam="2">  1       -1 0.45793753E-02 0.20003005E+02</pdfrwt>
<totfact> 0.36494678E+06</totfact>
</mgrwt>
</event>
<event>
 5    1  0.9583198E-007  0.2000345E+02  0.7818608E-02  0.1745259E+00
          1   -1    0    0  501    0  0.00000000000E+00  0.00000000000E+00  0.70661796712E+01  0.70661812144E+01  0.46700000000E-02 0. -1.
         -1   -1    0    0    0  501 -0.00000000000E+00 -0.00000000000E+00 -0.14156803612E+02  0.14156804382E+02  0.46700000000E-02 0.  1.
       1023    2    1    2    0    0  0.00000000000E+00  0.00000000000E+00 -0.70906239408E+01  0.21222985597E+02  0.20003453946E+02 0.  0.
        -11    1    3    3    0    0  0.92650006482E+01 -0.37674569881E+01 -0.35707090319E+01  0.10619977986E+02  0.51100000000E-03 0.  1.
         11    1    3    3    0    0 -0.92650006482E+01  0.37674569881E+01 -0.35199149089E+01  0.10603007611E+02  0.51100000000E-03 0. -1.
<mgrwt>
<rscale>  0 0.20003454E+02</rscale>
<asrwt>0</asrwt>
<pdfrwt beam="1">  1        1 0.10871047E-02 0.20003454E+02</pdfrwt>
<pdfrwt beam="2">  1       -1 0.21779700E-02 0.20003454E+02</pdfrwt>
<totfact> 0.38046047E+06</totfact>
</mgrwt>
</event>
<event>
 5    1  0.9583198E-007  0.2000046E+02  0.7818608E-02  0.1745319E+00
         -1   -1    0    0    0  501 -0.00000000000E+00  0.00000000000E+00  0.11042585727E+03  0.11042585737E+03  0.46700000000E-02 0. -1.
          1   -1    0    0  501    0  0.00000000000E+00 -0.00000000000E+00 -0.90562070363E+00  0.90563274441E+00  0.46700000000E-02 0.  1.
       1023    2    1    2    0    0  0.00000000000E+00  0.00000000000E+00  0.10952023656E+03  0.11133149011E+03  0.20000461826E+02 0.  0.
        -11    1    3    3    0    0  0.13354094999E+01  0.99105561392E+01  0.55019811448E+02  0.55921213270E+02  0.51100000000E-03 0.  1.
         11    1    3    3    0    0 -0.13354094999E+01 -0.99105561392E+01  0.54500425116E+02  0.55410276841E+02  0.51100000000E-03 0. -1.
<mgrwt>
<rscale>  0 0.20000462E+02</rscale>
<asrwt>0</asrwt>
<pdfrwt beam="2">  1        1 0.13932730E-03 0.20000462E+02</pdfrwt>
<pdfrwt beam="1">  1       -1 0.16988582E-01 0.20000462E+02</pdfrwt>
<totfact> 0.31318150E+06</totfact>
</mgrwt>
</event>
<event>
 5    1  0.9629549E-007  0.2000205E+02  0.7818608E-02  0.1745287E+00
         -1   -1    0    0    0  501 -0.00000000000E+00  0.00000000000E+00  0.21411455324E+02  0.21411455833E+02  0.46700000000E-02 0. -1.
          1   -1    0    0  501    0  0.00000000000E+00 -0.00000000000E+00 -0.46713534365E+01  0.46713557709E+01  0.46700000000E-02 0.  1.
       1023    2    1    2    0    0  0.00000000000E+00  0.00000000000E+00  0.16740101888E+02  0.26082811604E+02  0.20002051144E+02 0.  0.
        -11    1    3    3    0    0 -0.48243093211E+01  0.87595737858E+01  0.85371414870E+01  0.13148645495E+02  0.51100000000E-03 0. -1.
         11    1    3    3    0    0  0.48243093211E+01 -0.87595737858E+01  0.82029604007E+01  0.12934166109E+02  0.51100000000E-03 0.  1.
<mgrwt>
<rscale>  0 0.20002051E+02</rscale>
<asrwt>0</asrwt>
<pdfrwt beam="2">  1        1 0.71866998E-03 0.20002051E+02</pdfrwt>
<pdfrwt beam="1">  1       -1 0.32940702E-02 0.20002051E+02</pdfrwt>
<totfact> 0.37266931E+06</totfact>
</mgrwt>
</event>
<event>
 5    1  0.9583198E-007  0.2000012E+02  0.7818608E-02  0.1745326E+00
         -1   -1    0    0    0  501 -0.00000000000E+00  0.00000000000E+00  0.10248341565E+01  0.10248447967E+01  0.46700000000E-02 0.  1.
          1   -1    0    0  501    0  0.00000000000E+00 -0.00000000000E+00 -0.97577422984E+02  0.97577423096E+02  0.46700000000E-02 0. -1.
       1023    2    1    2    0    0  0.00000000000E+00  0.00000000000E+00 -0.96552588827E+02  0.98602267892E+02  0.20000120605E+02 0.  0.
        -11    1    3    3    0    0  0.70947775328E+01  0.70473012224E+01 -0.48422796580E+02  0.49444590721E+02  0.51100000000E-03 0. -1.
         11    1    3    3    0    0 -0.70947775328E+01 -0.70473012224E+01 -0.48129792248E+02  0.49157677171E+02  0.51100000000E-03 0.  1.
<mgrwt>
<rscale>  0 0.20000121E+02</rscale>
<asrwt>0</asrwt>
<pdfrwt beam="2">  1        1 0.15011905E-01 0.20000121E+02</pdfrwt>
<pdfrwt beam="1">  1       -1 0.15766770E-03 0.20000121E+02</pdfrwt>
<totfact> 0.44242122E+06</totfact>
</mgrwt>
</event>
<event>
 5    1  0.9951064E-007  0.2000099E+02  0.7818608E-02  0.1745308E+00
          1   -1    0    0  501    0  0.00000000000E+00  0.00000000000E+00  0.56834754559E+02  0.56834754750E+02  0.46700000000E-02 0. -1.
         -1   -1    0    0    0  501 -0.00000000000E+00 -0.00000000000E+00 -0.17596582296E+01  0.17596644265E+01  0.46700000000E-02 0.  1.
       1023    2    1    2    0    0  0.00000000000E+00  0.00000000000E+00  0.55075096329E+02  0.58594419177E+02  0.20000993051E+02 0.  0.
        -11    1    3    3    0    0 -0.96567954881E+01 -0.25991879251E+01  0.27475159344E+02  0.29238567992E+02  0.51100000000E-03 0.  1.
         11    1    3    3    0    0  0.96567954881E+01  0.25991879251E+01  0.27599936985E+02  0.29355851185E+02  0.51100000000E-03 0. -1.
<mgrwt>
<rscale>  0 0.20000993E+02</rscale>
<asrwt>0</asrwt>
<pdfrwt beam="1">  1        1 0.87438077E-02 0.20000993E+02</pdfrwt>
<pdfrwt beam="2">  1       -1 0.27071718E-03 0.20000993E+02</pdfrwt>
<totfact> 0.42103857E+06</totfact>
</mgrwt>
</event>
<event>
 5    1  0.9583198E-007  0.2000019E+02  0.7818608E-02  0.1745324E+00
         -1   -1    0    0    0  501 -0.00000000000E+00  0.00000000000E+00  0.13123362091E+01  0.13123445183E+01  0.46700000000E-02 0. -1.
          1   -1    0    0  501    0  0.00000000000E+00 -0.00000000000E+00 -0.76201177062E+02  0.76201177205E+02  0.46700000000E-02 0.  1.
       1023    2    1    2    0    0  0.00000000000E+00  0.00000000000E+00 -0.74888840853E+02  0.77513521723E+02  0.20000189141E+02 0.  0.
        -11    1    3    3    0    0 -0.16447612035E+01 -0.98638767274E+01 -0.37350469555E+02  0.38665991255E+02  0.51100000000E-03 0.  1.
         11    1    3    3    0    0  0.16447612035E+01  0.98638767274E+01 -0.37538371298E+02  0.38847530468E+02  0.51100000000E-03 0. -1.
<mgrwt>
<rscale>  0 0.20000189E+02</rscale>
<asrwt>0</asrwt>
<pdfrwt beam="2">  1        1 0.11723255E-01 0.20000189E+02</pdfrwt>
<pdfrwt beam="1">  1       -1 0.20189859E-03 0.20000189E+02</pdfrwt>
<totfact> 0.43161163E+06</totfact>
</mgrwt>
</event>
<event>
 5    1  0.9583198E-007  0.2000057E+02  0.7818608E-02  0.1745317E+00
          1   -1    0    0  501    0  0.00000000000E+00  0.00000000000E+00  0.10462526455E+01  0.10462630679E+01  0.46700000000E-02 0.  1.
         -1   -1    0    0    0  501 -0.00000000000E+00 -0.00000000000E+00 -0.95584124904E+02  0.95584125018E+02  0.46700000000E-02 0. -1.
       1023    2    1    2    0    0  0.00000000000E+00  0.00000000000E+00 -0.94537872258E+02  0.96630388086E+02  0.20000565254E+02 0.  0.
        -11    1    3    3    0    0  0.98307904735E+01 -0.18333592051E+01 -0.47279792511E+02  0.48325815332E+02  0.51100000000E-03 0. -1.
         11    1    3    3    0    0 -0.98307904735E+01  0.18333592051E+01 -0.47258079747E+02  0.48304572754E+02  0.51100000000E-03 0.  1.
<mgrwt>
<rscale>  0 0.20000565E+02</rscale>
<asrwt>0</asrwt>
<pdfrwt beam="1">  1        1 0.16096283E-03 0.20000565E+02</pdfrwt>
<pdfrwt beam="2">  1       -1 0.14705244E-01 0.20000565E+02</pdfrwt>
<totfact> 0.32105308E+06</totfact>
</mgrwt>
</event>
<event>
 5    1  0.9583198E-007  0.2000572E+02  0.7818608E-02  0.1745214E+00
         -1   -1    0    0    0  501 -0.00000000000E+00  0.00000000000E+00  0.66442279441E+02  0.66442279605E+02  0.46700000000E-02 0.  1.
          1   -1    0    0  501    0  0.00000000000E+00 -0.00000000000E+00 -0.15059224105E+01  0.15059296516E+01  0.46700000000E-02 0. -1.
       1023    2    1    2    0    0  0.00000000000E+00  0.00000000000E+00  0.64936357030E+02  0.67948209257E+02  0.20005716103E+02 0.  0.
        -11    1    3    3    0    0 -0.84122009192E+01 -0.54113300788E+01  0.32800117062E+02  0.34291329766E+02  0.51100000000E-03 0. -1.
         11    1    3    3    0    0  0.84122009192E+01  0.54113300788E+01  0.32136239968E+02  0.33656879491E+02  0.51100000000E-03 0.  1.
<mgrwt>
<rscale>  0 0.20005716E+02</rscale>
<asrwt>0</asrwt>
<pdfrwt beam="2">  1        1 0.23168099E-03 0.20005716E+02</pdfrwt>
<pdfrwt beam="1">  1       -1 0.10221887E-01 0.20005716E+02</pdfrwt>
<totfact> 0.33803407E+06</totfact>
</mgrwt>
</event>
<event>
 5    1  0.9583198E-007  0.2000189E+02  0.7818608E-02  0.1745291E+00
         -1   -1    0    0    0  501 -0.00000000000E+00  0.00000000000E+00  0.76317484773E+01  0.76317499061E+01  0.46700000000E-02 0. -1.
          1   -1    0    0  501    0  0.00000000000E+00 -0.00000000000E+00 -0.13105628874E+02  0.13105629706E+02  0.46700000000E-02 0.  1.
       1023    2    1    2    0    0  0.00000000000E+00  0.00000000000E+00 -0.54738803966E+01  0.20737379612E+02  0.20001888575E+02 0.  0.
        -11    1    3    3    0    0  0.34071370250E+01 -0.94026751542E+01 -0.27349677221E+01  0.10368169147E+02  0.51100000000E-03 0.  1.
         11    1    3    3    0    0 -0.34071370250E+01  0.94026751542E+01 -0.27389126745E+01  0.10369210465E+02  0.51100000000E-03 0. -1.
<mgrwt>
<rscale>  0 0.20001889E+02</rscale>
<asrwt>0</asrwt>
<pdfrwt beam="2">  1        1 0.20162508E-02 0.20001889E+02</pdfrwt>
<pdfrwt beam="1">  1       -1 0.11741153E-02 0.20001889E+02</pdfrwt>
<totfact> 0.39029401E+06</totfact>
</mgrwt>
</event>
<event>
 5    1  0.9846077E-007  0.2000148E+02  0.7818608E-02  0.1745299E+00
         -1   -1    0    0    0  501 -0.00000000000E+00  0.00000000000E+00  0.10692545605E+02  0.10692546624E+02  0.46700000000E-02 0. -1.
          1   -1    0    0  501    0  0.00000000000E+00 -0.00000000000E+00 -0.93536898728E+01  0.93536910386E+01  0.46700000000E-02 0.  1.
       1023    2    1    2    0    0  0.00000000000E+00  0.00000000000E+00  0.13388557319E+01  0.20046237663E+02  0.20001477690E+02 0.  0.
        -11    1    3    3    0    0 -0.75166992038E+01  0.65957976477E+01  0.57192885895E+00  0.10016607031E+02  0.51100000000E-03 0. -1.
         11    1    3    3    0    0  0.75166992038E+01 -0.65957976477E+01  0.76692687293E+00  0.10029630632E+02  0.51100000000E-03 0.  1.
<mgrwt>
<rscale>  0 0.20001478E+02</rscale>
<asrwt>0</asrwt>
<pdfrwt beam="2">  1        1 0.14390294E-02 0.20001478E+02</pdfrwt>
<pdfrwt beam="1">  1       -1 0.16450072E-02 0.20001478E+02</pdfrwt>
<totfact> 0.38513345E+06</totfact>
</mgrwt>
</event>
<event>
 4    1  0.9583198E-007  0.2001535E+02  0.7818608E-02  0.1745023E+00
         -1   -1    0    0    0  501 -0.00000000000E+00  0.00000000000E+00  0.11230934742E+01  0.11231031834E+01  0.46700000000E-02 0. -1.
          1   -1    0    0  501    0  0.00000000000E+00 -0.00000000000E+00 -0.89176089694E+02  0.89176089816E+02  0.46700000000E-02 0.  1.
        -11    1    1    2    0    0 -0.12634249217E+01 -0.99275099995E+01 -0.43833466470E+02  0.44961366531E+02  0.51100000000E-03 0.  1.
         11    1    1    2    0    0  0.12634249217E+01  0.99275099995E+01 -0.44219529750E+02  0.45337826468E+02  0.51100000000E-03 0. -1.
<mgrwt>
<rscale>  0 0.20015347E+02</rscale>
<asrwt>0</asrwt>
<pdfrwt beam="2">  1        1 0.13719394E-01 0.20015347E+02</pdfrwt>
<pdfrwt beam="1">  1       -1 0.17278444E-03 0.20015347E+02</pdfrwt>
<totfact> 0.43752339E+06</totfact>
</mgrwt>
</event>
<event>
 5    1  0.9583198E-007  0.2000049E+02  0.7818608E-02  0.1745318E+00
          1   -1    0    0  501    0  0.00000000000E+00  0.00000000000E+00  0.36323847082E+02  0.36323847382E+02  0.46700000000E-02 0. -1.
         -1   -1    0    0    0  501 -0.00000000000E+00 -0.00000000000E+00 -0.27531448998E+01  0.27531488605E+01  0.46700000000E-02 0.  1.
       1023    2    1    2    0    0  0.00000000000E+00  0.00000000000E+00  0.33570702182E+02  0.39076996243E+02  0.20000489753E+02 0.  0.
        -11    1    3    3    0    0  0.70249823694E+01 -0.71171988707E+01  0.16784337729E+02  0.19537627551E+02  0.51100000000E-03 0. -1.
         11    1    3    3    0    0 -0.70249823694E+01  0.71171988707E+01  0.16786364453E+02  0.19539368692E+02  0.51100000000E-03 0.  1.
<mgrwt>
<rscale>  0 0.20000490E+02</rscale>
<asrwt>0</asrwt>
<pdfrwt beam="1">  1        1 0.55882845E-02 0.20000490E+02</pdfrwt>
<pdfrwt beam="2">  1       -1 0.42356108E-03 0.20000490E+02</pdfrwt>
<totfact> 0.40874914E+06</totfact>
</mgrwt>
</event>
<event>
 5    1  0.9583198E-007  0.2000641E+02  0.7818608E-02  0.1745201E+00
         -1   -1    0    0    0  501 -0.00000000000E+00  0.00000000000E+00  0.65447219326E+02  0.65447219492E+02  0.46700000000E-02 0.  1.
          1   -1    0    0  501    0  0.00000000000E+00 -0.00000000000E+00 -0.15289253206E+01  0.15289324527E+01  0.46700000000E-02 0. -1.
       1023    2    1    2    0    0  0.00000000000E+00  0.00000000000E+00  0.63918294005E+02  0.66976151945E+02  0.20006414492E+02 0.  0.
        -11    1    3    3    0    0  0.96691545181E+00 -0.99548467528E+01  0.31376837710E+02  0.32932352548E+02  0.51100000000E-03 0. -1.
         11    1    3    3    0    0 -0.96691545181E+00  0.99548467528E+01  0.32541456295E+02  0.34043799397E+02  0.51100000000E-03 0.  1.
<mgrwt>
<rscale>  0 0.20006414E+02</rscale>
<asrwt>0</asrwt>
<pdfrwt beam="2">  1        1 0.23521977E-03 0.20006414E+02</pdfrwt>
<pdfrwt beam="1">  1       -1 0.10068806E-01 0.20006414E+02</pdfrwt>
<totfact> 0.33864327E+06</totfact>
</mgrwt>
</event>
<event>
 5    1  0.9632955E-007  0.2000129E+02  0.7818608E-02  0.1745302E+00
          1   -1    0    0  501    0  0.00000000000E+00  0.00000000000E+00  0.30264884094E+01  0.30264920124E+01  0.46700000000E-02 0. -1.
         -1   -1    0    0    0  501 -0.00000000000E+00 -0.00000000000E+00 -0.33045834598E+02  0.33045834928E+02  0.46700000000E-02 0.  1.
       1023    2    1    2    0    0  0.00000000000E+00  0.00000000000E+00 -0.30019346189E+02  0.36072326941E+02  0.20001290591E+02 0.  0.
        -11    1    3    3    0    0  0.10016100510E+01  0.99502543872E+01 -0.14926614135E+02  0.17967041906E+02  0.51100000000E-03 0. -1.
         11    1    3    3    0    0 -0.10016100510E+01 -0.99502543872E+01 -0.15092732054E+02  0.18105285035E+02  0.51100000000E-03 0.  1.
<mgrwt>
<rscale>  0 0.20001291E+02</rscale>
<asrwt>0</asrwt>
<pdfrwt beam="1">  1        1 0.46561393E-03 0.20001291E+02</pdfrwt>
<pdfrwt beam="2">  1       -1 0.50839746E-02 0.20001291E+02</pdfrwt>
<totfact> 0.36223312E+06</totfact>
</mgrwt>
</event>
<event>
 5    1  0.9583198E-007  0.2000333E+02  0.7818608E-02  0.1745262E+00
         -1   -1    0    0    0  501 -0.00000000000E+00  0.00000000000E+00  0.62601828196E+01  0.62601845615E+01  0.46700000000E-02 0. -1.
          1   -1    0    0  501    0  0.00000000000E+00 -0.00000000000E+00 -0.15979287779E+02  0.15979288462E+02  0.46700000000E-02 0.  1.
       1023    2    1    2    0    0  0.00000000000E+00  0.00000000000E+00 -0.97191049599E+01  0.22239473023E+02  0.20003328701E+02 0.  0.
        -11    1    3    3    0    0 -0.98470323245E+00 -0.99528725218E+01 -0.47894336762E+01  0.11089093159E+02  0.51100000000E-03 0. -1.
         11    1    3    3    0    0  0.98470323245E+00  0.99528725218E+01 -0.49296712836E+01  0.11150379864E+02  0.51100000000E-03 0.  1.
<mgrwt>
<rscale>  0 0.20003329E+02</rscale>
<asrwt>0</asrwt>
<pdfrwt beam="2">  1        1 0.24583521E-02 0.20003329E+02</pdfrwt>
<pdfrwt beam="1">  1       -1 0.96310524E-03 0.20003329E+02</pdfrwt>
<totfact> 0.39328361E+06</totfact>
</mgrwt>
</event>
<event>
 4    1  0.9583198E-007  0.2002347E+02  0.7818608E-02  0.1744862E+00
          1   -1    0    0  501    0  0.00000000000E+00  0.00000000000E+00  0.84017953816E+02  0.84017953946E+02  0.46700000000E-02 0.  1.
         -1   -1    0    0    0  501 -0.00000000000E+00 -0.00000000000E+00 -0.11930127405E+01  0.11930218807E+01  0.46700000000E-02 0. -1.
        -11    1    1    2    0    0 -0.54614593553E-01  0.10002536699E+02  0.43223761756E+02  0.44366060269E+02  0.51100000000E-03 0.  1.
         11    1    1    2    0    0  0.54614593553E-01 -0.10002536699E+02  0.39601179320E+02  0.40844915558E+02  0.51100000000E-03 0. -1.
<mgrwt>
<rscale>  0 0.20023475E+02</rscale>
<asrwt>0</asrwt>
<pdfrwt beam="1">  1        1 0.12925839E-01 0.20023475E+02</pdfrwt>
<pdfrwt beam="2">  1       -1 0.18354114E-03 0.20023475E+02</pdfrwt>
<totfact> 0.43452544E+06</totfact>
</mgrwt>
</event>
<event>
 5    1  0.9583198E-007  0.2000014E+02  0.7818608E-02  0.1745325E+00
          1   -1    0    0  501    0  0.00000000000E+00  0.00000000000E+00  0.91377999550E+01  0.91378011483E+01  0.46700000000E-02 0.  1.
         -1   -1    0    0    0  501 -0.00000000000E+00 -0.00000000000E+00 -0.10943703331E+02  0.10943704328E+02  0.46700000000E-02 0. -1.
       1023    2    1    2    0    0  0.00000000000E+00  0.00000000000E+00 -0.18059033764E+01  0.20081505476E+02  0.20000139379E+02 0.  0.
        -11    1    3    3    0    0  0.26066235415E+00  0.99966461089E+01 -0.92574301714E+00  0.10042802332E+02  0.51100000000E-03 0.  1.
         11    1    3    3    0    0 -0.26066235415E+00 -0.99966461089E+01 -0.88016035928E+00  0.10038703144E+02  0.51100000000E-03 0. -1.
<mgrwt>
<rscale>  0 0.20000139E+02</rscale>
<asrwt>0</asrwt>
<pdfrwt beam="1">  1        1 0.14058155E-02 0.20000139E+02</pdfrwt>
<pdfrwt beam="2">  1       -1 0.16836468E-02 0.20000139E+02</pdfrwt>
<totfact> 0.38482455E+06</totfact>
</mgrwt>
</event>
<event>
 5    1  0.9583198E-007  0.2000054E+02  0.7818608E-02  0.1745317E+00
          1   -1    0    0  501    0  0.00000000000E+00  0.00000000000E+00  0.89973617384E+01  0.89973629504E+01  0.46700000000E-02 0. -1.
         -1   -1    0    0    0  501 -0.00000000000E+00 -0.00000000000E+00 -0.11114969642E+02  0.11114970623E+02  0.46700000000E-02 0.  1.
       1023    2    1    2    0    0  0.00000000000E+00  0.00000000000E+00 -0.21176079032E+01  0.20112333573E+02  0.20000542456E+02 0.  0.
        -11    1    3    3    0    0 -0.93705872683E+01  0.34923386604E+01 -0.10256149482E+01  0.10052672349E+02  0.51100000000E-03 0. -1.
         11    1    3    3    0    0  0.93705872683E+01 -0.34923386604E+01 -0.10919929550E+01  0.10059661224E+02  0.51100000000E-03 0.  1.
<mgrwt>
<rscale>  0 0.20000542E+02</rscale>
<asrwt>0</asrwt>
<pdfrwt beam="1">  1        1 0.13842097E-02 0.20000542E+02</pdfrwt>
<pdfrwt beam="2">  1       -1 0.17099955E-02 0.20000542E+02</pdfrwt>
<totfact> 0.38456218E+06</totfact>
</mgrwt>
</event>
<event>
 5    1  0.9856637E-007  0.2000150E+02  0.7818608E-02  0.1745298E+00
         -1   -1    0    0    0  501 -0.00000000000E+00  0.00000000000E+00  0.10903233242E+02  0.10903234242E+02  0.46700000000E-02 0.  1.
          1   -1    0    0  501    0  0.00000000000E+00 -0.00000000000E+00 -0.91729636116E+01  0.91729648004E+01  0.46700000000E-02 0. -1.
       1023    2    1    2    0    0  0.00000000000E+00  0.00000000000E+00  0.17302696303E+01  0.20076199042E+02  0.20001498319E+02 0.  0.
        -11    1    3    3    0    0 -0.81259050764E+01  0.58295423033E+01  0.89822322546E+00  0.10040951250E+02  0.51100000000E-03 0. -1.
         11    1    3    3    0    0  0.81259050764E+01 -0.58295423033E+01  0.83204640482E+00  0.10035247793E+02  0.51100000000E-03 0.  1.
<mgrwt>
<rscale>  0 0.20001498E+02</rscale>
<asrwt>0</asrwt>
<pdfrwt beam="2">  1        1 0.14112253E-02 0.20001498E+02</pdfrwt>
<pdfrwt beam="1">  1       -1 0.16774207E-02 0.20001498E+02</pdfrwt>
<totfact> 0.38482576E+06</totfact>
</mgrwt>
</event>
<event>
 5    1  0.9583198E-007  0.2000033E+02  0.7818608E-02  0.1745322E+00
         -1   -1    0    0    0  501 -0.00000000000E+00  0.00000000000E+00  0.86547816250E+00  0.86549076175E+00  0.46700000000E-02 0. -1.
          1   -1    0    0  501    0  0.00000000000E+00 -0.00000000000E+00 -0.11554597790E+03  0.11554597799E+03  0.46700000000E-02 0.  1.
       1023    2    1    2    0    0  0.00000000000E+00  0.00000000000E+00 -0.11468049974E+03  0.11641146875E+03  0.20000325945E+02 0.  0.
        -11    1    3    3    0    0  0.89115864559E+01  0.45372729700E+01 -0.57377084981E+02  0.58242021774E+02  0.51100000000E-03 0.  1.
         11    1    3    3    0    0 -0.89115864559E+01 -0.45372729700E+01 -0.57303414755E+02  0.58169446980E+02  0.51100000000E-03 0. -1.
<mgrwt>
<rscale>  0 0.20000326E+02</rscale>
<asrwt>0</asrwt>
<pdfrwt beam="2">  1        1 0.17776293E-01 0.20000326E+02</pdfrwt>
<pdfrwt beam="1">  1       -1 0.13315155E-03 0.20000326E+02</pdfrwt>
<totfact> 0.45094247E+06</totfact>
</mgrwt>
</event>
<event>
 5    1  0.9583198E-007  0.2000080E+02  0.7818608E-02  0.1745312E+00
         -1   -1    0    0    0  501 -0.00000000000E+00  0.00000000000E+00  0.28047343163E+02  0.28047343552E+02  0.46700000000E-02 0. -1.
          1   -1    0    0  501    0  0.00000000000E+00 -0.00000000000E+00 -0.35656851394E+01  0.35656881975E+01  0.46700000000E-02 0.  1.
       1023    2    1    2    0    0  0.00000000000E+00  0.00000000000E+00  0.24481658024E+02  0.31613031750E+02  0.20000804904E+02 0.  0.
        -11    1    3    3    0    0 -0.86600756043E+01  0.50010971149E+01  0.12261261764E+02  0.15822339338E+02  0.51100000000E-03 0.  1.
         11    1    3    3    0    0  0.86600756043E+01 -0.50010971149E+01  0.12220396260E+02  0.15790692412E+02  0.51100000000E-03 0. -1.
<mgrwt>
<rscale>  0 0.20000805E+02</rscale>
<asrwt>0</asrwt>
<pdfrwt beam="2">  1        1 0.54856721E-03 0.20000805E+02</pdfrwt>
<pdfrwt beam="1">  1       -1 0.43149761E-02 0.20000805E+02</pdfrwt>
<totfact> 0.36654008E+06</totfact>
</mgrwt>
</event>
<event>
 5    1  0.9583198E-007  0.2000087E+02  0.7818608E-02  0.1745311E+00
         -1   -1    0    0    0  501 -0.00000000000E+00  0.00000000000E+00  0.24926876281E+02  0.24926876718E+02  0.46700000000E-02 0.  1.
          1   -1    0    0  501    0  0.00000000000E+00 -0.00000000000E+00 -0.40120827167E+01  0.40120854346E+01  0.46700000000E-02 0. -1.
       1023    2    1    2    0    0  0.00000000000E+00  0.00000000000E+00  0.20914793564E+02  0.28938962153E+02  0.20000873497E+02 0.  0.
        -11    1    3    3    0    0  0.99859549852E+01  0.53269068977E+00  0.10348364940E+02  0.14390681482E+02  0.51100000000E-03 0.  1.
         11    1    3    3    0    0 -0.99859549852E+01 -0.53269068977E+00  0.10566428625E+02  0.14548280671E+02  0.51100000000E-03 0. -1.
<mgrwt>
<rscale>  0 0.20000873E+02</rscale>
<asrwt>0</asrwt>
<pdfrwt beam="2">  1        1 0.61724375E-03 0.20000873E+02</pdfrwt>
<pdfrwt beam="1">  1       -1 0.38349042E-02 0.20000873E+02</pdfrwt>
<totfact> 0.36935985E+06</totfact>
</mgrwt>
</event>
<event>
 5    1  0.9986715E-007  0.2000102E+02  0.7818608E-02  0.1745308E+00
         -1   -1    0    0    0  501 -0.00000000000E+00  0.00000000000E+00  0.43633757878E+01  0.43633782869E+01  0.46700000000E-02 0.  1.
          1   -1    0    0  501    0  0.00000000000E+00 -0.00000000000E+00 -0.22920360073E+02  0.22920360548E+02  0.46700000000E-02 0. -1.
       1023    2    1    2    0    0  0.00000000000E+00  0.00000000000E+00 -0.18556984285E+02  0.27283738835E+02  0.20001018451E+02 0.  0.
        -11    1    3    3    0    0  0.68633918204E+01  0.72735161333E+01 -0.92777593448E+01  0.13641371007E+02  0.51100000000E-03 0. -1.
         11    1    3    3    0    0 -0.68633918204E+01 -0.72735161333E+01 -0.92792249400E+01  0.13642367829E+02  0.51100000000E-03 0.  1.
<mgrwt>
<rscale>  0 0.20001018E+02</rscale>
<asrwt>0</asrwt>
<pdfrwt beam="2">  1        1 0.35262094E-02 0.20001018E+02</pdfrwt>
<pdfrwt beam="1">  1       -1 0.67128883E-03 0.20001018E+02</pdfrwt>
<totfact> 0.39936644E+06</totfact>
</mgrwt>
</event>
<event>
 5    1  0.9583198E-007  0.2000479E+02  0.7818608E-02  0.1745233E+00
          1   -1    0    0  501    0  0.00000000000E+00  0.00000000000E+00  0.87648214319E+01  0.87648226760E+01  0.46700000000E-02 0.  1.
         -1   -1    0    0    0  501 -0.00000000000E+00 -0.00000000000E+00 -0.11414712750E+02  0.11414713706E+02  0.46700000000E-02 0. -1.
       1023    2    1    2    0    0  0.00000000000E+00  0.00000000000E+00 -0.26498913183E+01  0.20179536382E+02  0.20004793540E+02 0.  0.
        -11    1    3    3    0    0 -0.11176895447E+01 -0.99388492769E+01 -0.11896622302E+01  0.10072003343E+02  0.51100000000E-03 0.  1.
         11    1    3    3    0    0  0.11176895447E+01  0.99388492769E+01 -0.14602290881E+01  0.10107533038E+02  0.51100000000E-03 0. -1.
<mgrwt>
<rscale>  0 0.20004794E+02</rscale>
<asrwt>0</asrwt>
<pdfrwt beam="1">  1        1 0.13484342E-02 0.20004794E+02</pdfrwt>
<pdfrwt beam="2">  1       -1 0.17561098E-02 0.20004794E+02</pdfrwt>
<totfact> 0.38396018E+06</totfact>
</mgrwt>
</event>
<event>
 5    1  0.9583198E-007  0.2000777E+02  0.7818608E-02  0.1745174E+00
          1   -1    0    0  501    0  0.00000000000E+00  0.00000000000E+00  0.87147282077E+01  0.87147294589E+01  0.46700000000E-02 0. -1.
         -1   -1    0    0    0  501 -0.00000000000E+00 -0.00000000000E+00 -0.11483746525E+02  0.11483747474E+02  0.46700000000E-02 0.  1.
       1023    2    1    2    0    0  0.00000000000E+00  0.00000000000E+00 -0.27690183172E+01  0.20198476933E+02  0.20007773689E+02 0.  0.
        -11    1    3    3    0    0 -0.78807693564E+01  0.61609863976E+01 -0.12673308855E+01  0.10083174444E+02  0.51100000000E-03 0. -1.
         11    1    3    3    0    0  0.78807693564E+01 -0.61609863976E+01 -0.15016874318E+01  0.10115302489E+02  0.51100000000E-03 0.  1.
<mgrwt>
<rscale>  0 0.20007774E+02</rscale>
<asrwt>0</asrwt>
<pdfrwt beam="1">  1        1 0.13407276E-02 0.20007774E+02</pdfrwt>
<pdfrwt beam="2">  1       -1 0.17667304E-02 0.20007774E+02</pdfrwt>
<totfact> 0.38373874E+06</totfact>
</mgrwt>
</event>
<event>
 5    1  0.9583198E-007  0.2000177E+02  0.7818608E-02  0.1745293E+00
         -1   -1    0    0    0  501 -0.00000000000E+00  0.00000000000E+00  0.80918892862E+01  0.80918906338E+01  0.46700000000E-02 0.  1.
          1   -1    0    0  501    0  0.00000000000E+00 -0.00000000000E+00 -0.12360237920E+02  0.12360238802E+02  0.46700000000E-02 0. -1.
       1023    2    1    2    0    0  0.00000000000E+00  0.00000000000E+00 -0.42683486339E+01  0.20452129436E+02  0.20001769882E+02 0.  0.
        -11    1    3    3    0    0 -0.44217568717E+01 -0.89701938882E+01 -0.21722569267E+01  0.10234012539E+02  0.51100000000E-03 0. -1.
         11    1    3    3    0    0  0.44217568717E+01  0.89701938882E+01 -0.20960917072E+01  0.10218116897E+02  0.51100000000E-03 0.  1.
<mgrwt>
<rscale>  0 0.20001770E+02</rscale>
<asrwt>0</asrwt>
<pdfrwt beam="2">  1        1 0.19015752E-02 0.20001770E+02</pdfrwt>
<pdfrwt beam="1">  1       -1 0.12449062E-02 0.20001770E+02</pdfrwt>
<totfact> 0.38940703E+06</totfact>
</mgrwt>
</event>
<event>
 4    1  0.9583198E-007  0.2006310E+02  0.7818608E-02  0.1744076E+00
         -1   -1    0    0    0  501 -0.00000000000E+00  0.00000000000E+00  0.95275699485E+00  0.95276843993E+00  0.46700000000E-02 0. -1.
          1   -1    0    0  501    0  0.00000000000E+00 -0.00000000000E+00 -0.10562121346E+03  0.10562121357E+03  0.46700000000E-02 0.  1.
        -11    1    1    2    0    0 -0.99953967252E+01  0.72270861984E+00 -0.49948571834E+02  0.50943989753E+02  0.51100000000E-03 0. -1.
         11    1    1    2    0    0  0.99953967252E+01 -0.72270861984E+00 -0.54719884635E+02  0.55629992253E+02  0.51100000000E-03 0.  1.
<mgrwt>
<rscale>  0 0.20063097E+02</rscale>
<asrwt>0</asrwt>
<pdfrwt beam="2">  1        1 0.16249409E-01 0.20063097E+02</pdfrwt>
<pdfrwt beam="1">  1       -1 0.14657897E-03 0.20063097E+02</pdfrwt>
<totfact> 0.44321811E+06</totfact>
</mgrwt>
</event>
<event>
 5    1  0.9583198E-007  0.2000334E+02  0.7818608E-02  0.1745262E+00
         -1   -1    0    0    0  501 -0.00000000000E+00  0.00000000000E+00  0.21343471048E+02  0.21343471559E+02  0.46700000000E-02 0.  1.
          1   -1    0    0  501    0  0.00000000000E+00 -0.00000000000E+00 -0.46868386417E+01  0.46868409683E+01  0.46700000000E-02 0. -1.
       1023    2    1    2    0    0  0.00000000000E+00  0.00000000000E+00  0.16656632406E+02  0.26030312527E+02  0.20003343899E+02 0.  0.
        -11    1    3    3    0    0 -0.80327714002E+01  0.59578841573E+01  0.84687209370E+01  0.13105000365E+02  0.51100000000E-03 0. -1.
         11    1    3    3    0    0  0.80327714002E+01 -0.59578841573E+01  0.81879114691E+01  0.12925312162E+02  0.51100000000E-03 0.  1.
<mgrwt>
<rscale>  0 0.20003344E+02</rscale>
<asrwt>0</asrwt>
<pdfrwt beam="2">  1        1 0.72105232E-03 0.20003344E+02</pdfrwt>
<pdfrwt beam="1">  1       -1 0.32836111E-02 0.20003344E+02</pdfrwt>
<totfact> 0.37268352E+06</totfact>
</mgrwt>
</event>
<event>
 5    1  0.9583198E-007  0.2000047E+02  0.7818608E-02  0.1745319E+00
          1   -1    0    0  501    0  0.00000000000E+00  0.00000000000E+00  0.40025058497E+02  0.40025058769E+02  0.46700000000E-02 0. -1.
         -1   -1    0    0    0  501 -0.00000000000E+00 -0.00000000000E+00 -0.24985503157E+01  0.24985546800E+01  0.46700000000E-02 0.  1.
       1023    2    1    2    0    0  0.00000000000E+00  0.00000000000E+00  0.37526508181E+02  0.42523613449E+02  0.20000472108E+02 0.  0.
        -11    1    3    3    0    0 -0.82791982276E+01  0.56088686721E+01  0.18733963026E+02  0.21235957760E+02  0.51100000000E-03 0.  1.
         11    1    3    3    0    0  0.82791982276E+01 -0.56088686721E+01  0.18792545155E+02  0.21287655689E+02  0.51100000000E-03 0. -1.
<mgrwt>
<rscale>  0 0.20000472E+02</rscale>
<asrwt>0</asrwt>
<pdfrwt beam="1">  1        1 0.61577014E-02 0.20000472E+02</pdfrwt>
<pdfrwt beam="2">  1       -1 0.38439273E-03 0.20000472E+02</pdfrwt>
<totfact> 0.41109786E+06</totfact>
</mgrwt>
</event>
<event>
 5    1  0.9715065E-007  0.2000136E+02  0.7818608E-02  0.1745301E+00
          1   -1    0    0  501    0  0.00000000000E+00  0.00000000000E+00  0.24443552892E+01  0.24443597503E+01  0.46700000000E-02 0. -1.
         -1   -1    0    0    0  501 -0.00000000000E+00 -0.00000000000E+00 -0.40916122487E+02  0.40916122753E+02  0.46700000000E-02 0.  1.
       1023    2    1    2    0    0  0.00000000000E+00  0.00000000000E+00 -0.38471767198E+02  0.43360482504E+02  0.20001364244E+02 0.  0.
        -11    1    3    3    0    0 -0.13285944407E+01 -0.99115958733E+01 -0.19033135537E+02  0.21500352197E+02  0.51100000000E-03 0. -1.
         11    1    3    3    0    0  0.13285944407E+01  0.99115958733E+01 -0.19438631660E+02  0.21860130307E+02  0.51100000000E-03 0.  1.
<mgrwt>
<rscale>  0 0.20001364E+02</rscale>
<asrwt>0</asrwt>
<pdfrwt beam="1">  1        1 0.37605505E-03 0.20001364E+02</pdfrwt>
<pdfrwt beam="2">  1       -1 0.62947879E-02 0.20001364E+02</pdfrwt>
<totfact> 0.35595162E+06</totfact>
</mgrwt>
</event>
<event>
 5    1  0.9583198E-007  0.2000268E+02  0.7818608E-02  0.1745275E+00
          1   -1    0    0  501    0  0.00000000000E+00  0.00000000000E+00  0.56516910487E+02  0.56516910680E+02  0.46700000000E-02 0. -1.
         -1   -1    0    0    0  501 -0.00000000000E+00 -0.00000000000E+00 -0.17698528676E+01  0.17698590288E+01  0.46700000000E-02 0.  1.
       1023    2    1    2    0    0  0.00000000000E+00  0.00000000000E+00  0.54747057619E+02  0.58286769709E+02  0.20002679948E+02 0.  0.
        -11    1    3    3    0    0 -0.51831375314E+01  0.85532586651E+01  0.27549637146E+02  0.29308798262E+02  0.51100000000E-03 0.  1.
         11    1    3    3    0    0  0.51831375314E+01 -0.85532586651E+01  0.27197420473E+02  0.28977971446E+02  0.51100000000E-03 0. -1.
<mgrwt>
<rscale>  0 0.20002680E+02</rscale>
<asrwt>0</asrwt>
<pdfrwt beam="1">  1        1 0.86949101E-02 0.20002680E+02</pdfrwt>
<pdfrwt beam="2">  1       -1 0.27228554E-03 0.20002680E+02</pdfrwt>
<totfact> 0.42077968E+06</totfact>
</mgrwt>
</event>
<event>
 5    1  0.9724562E-007  0.2000186E+02  0.7818608E-02  0.1745291E+00
          1   -1    0    0  501    0  0.00000000000E+00  0.00000000000E+00  0.32536373062E+02  0.32536373397E+02  0.46700000000E-02 0.  1.
         -1   -1    0    0    0  501 -0.00000000000E+00 -0.00000000000E+00 -0.30740538006E+01  0.30740573479E+01  0.46700000000E-02 0. -1.
       1023    2    1    2    0    0  0.00000000000E+00  0.00000000000E+00  0.29462319261E+02  0.35610430745E+02  0.20001862953E+02 0.  0.
        -11    1    3    3    0    0 -0.71445473087E+01 -0.69981402648E+01  0.14749552021E+02  0.17820432332E+02  0.51100000000E-03 0.  1.
         11    1    3    3    0    0  0.71445473087E+01  0.69981402648E+01  0.14712767240E+02  0.17789998413E+02  0.51100000000E-03 0. -1.
<mgrwt>
<rscale>  0 0.20001863E+02</rscale>
<asrwt>0</asrwt>
<pdfrwt beam="1">  1        1 0.50055957E-02 0.20001863E+02</pdfrwt>
<pdfrwt beam="2">  1       -1 0.47293169E-03 0.20001863E+02</pdfrwt>
<totfact> 0.40620258E+06</totfact>
</mgrwt>
</event>
<event>
 4    1  0.9583198E-007  0.2009258E+02  0.7818608E-02  0.1743493E+00
          1   -1    0    0  501    0  0.00000000000E+00  0.00000000000E+00  0.20862181111E+02  0.20862181634E+02  0.46700000000E-02 0. -1.
         -1   -1    0    0    0  501 -0.00000000000E+00 -0.00000000000E+00 -0.48378397599E+01  0.48378420139E+01  0.46700000000E-02 0.  1.
        -11    1    1    2    0    0 -0.53807254001E+01 -0.84791793175E+01  0.83722197705E+01  0.13074507711E+02  0.51100000000E-03 0.  1.
         11    1    1    2    0    0  0.53807254001E+01  0.84791793175E+01  0.76521215810E+01  0.12625515937E+02  0.51100000000E-03 0. -1.
<mgrwt>
<rscale>  0 0.20092578E+02</rscale>
<asrwt>0</asrwt>
<pdfrwt beam="1">  1        1 0.32095666E-02 0.20092578E+02</pdfrwt>
<pdfrwt beam="2">  1       -1 0.74428323E-03 0.20092578E+02</pdfrwt>
<totfact> 0.39367473E+06</totfact>
</mgrwt>
</event>
<event>
 5    1  0.9583198E-007  0.2000349E+02  0.7818608E-02  0.1745259E+00
          1   -1    0    0  501    0  0.00000000000E+00  0.00000000000E+00  0.94236945578E+00  0.94238102702E+00  0.46700000000E-02 0. -1.
         -1   -1    0    0    0  501 -0.00000000000E+00 -0.00000000000E+00 -0.10615182683E+03  0.10615182693E+03  0.46700000000E-02 0.  1.
       1023    2    1    2    0    0  0.00000000000E+00  0.00000000000E+00 -0.10520945737E+03  0.10709420796E+03  0.20003486134E+02 0.  0.
        -11    1    3    3    0    0  0.11654499508E+01  0.99334429306E+01 -0.52297080720E+02  0.53244870308E+02  0.51100000000E-03 0. -1.
         11    1    3    3    0    0 -0.11654499508E+01 -0.99334429306E+01 -0.52912376650E+02  0.53849337648E+02  0.51100000000E-03 0.  1.
<mgrwt>
<rscale>  0 0.20003486E+02</rscale>
<asrwt>0</asrwt>
<pdfrwt beam="1">  1        1 0.14498090E-03 0.20003486E+02</pdfrwt>
<pdfrwt beam="2">  1       -1 0.16331042E-01 0.20003486E+02</pdfrwt>
<totfact> 0.31529570E+06</totfact>
</mgrwt>
</event>
<event>
 5    1  0.9583198E-007  0.2000024E+02  0.7818608E-02  0.1745323E+00
          1   -1    0    0  501    0  0.00000000000E+00  0.00000000000E+00  0.12772764913E+02  0.12772765766E+02  0.46700000000E-02 0. -1.
         -1   -1    0    0    0  501 -0.00000000000E+00 -0.00000000000E+00 -0.78293430026E+01  0.78293443953E+01  0.46700000000E-02 0.  1.
       1023    2    1    2    0    0  0.00000000000E+00  0.00000000000E+00  0.49434219100E+01  0.20602110162E+02  0.20000238072E+02 0.  0.
        -11    1    3    3    0    0 -0.99770240364E+01 -0.67915703575E+00  0.24605417111E+01  0.10298375050E+02  0.51100000000E-03 0.  1.
         11    1    3    3    0    0  0.99770240364E+01  0.67915703575E+00  0.24828801989E+01  0.10303735111E+02  0.51100000000E-03 0. -1.
<mgrwt>
<rscale>  0 0.20000238E+02</rscale>
<asrwt>0</asrwt>
<pdfrwt beam="1">  1        1 0.19650409E-02 0.20000238E+02</pdfrwt>
<pdfrwt beam="2">  1       -1 0.12045145E-02 0.20000238E+02</pdfrwt>
<totfact> 0.38997446E+06</totfact>
</mgrwt>
</event>
<event>
 5    1  0.9583198E-007  0.2000282E+02  0.7818608E-02  0.1745272E+00
          1   -1    0    0  501    0  0.00000000000E+00  0.00000000000E+00  0.65337131366E+02  0.65337131533E+02  0.46700000000E-02 0.  1.
         -1   -1    0    0    0  501 -0.00000000000E+00 -0.00000000000E+00 -0.15309518046E+01  0.15309589272E+01  0.46700000000E-02 0. -1.
       1023    2    1    2    0    0  0.00000000000E+00  0.00000000000E+00  0.63806179562E+02  0.66868090460E+02  0.20002824090E+02 0.  0.
        -11    1    3    3    0    0 -0.66510969742E+01 -0.74689152711E+01  0.32171698965E+02  0.33690354716E+02  0.51100000000E-03 0. -1.
         11    1    3    3    0    0  0.66510969742E+01  0.74689152711E+01  0.31634480596E+02  0.33177735745E+02  0.51100000000E-03 0.  1.
<mgrwt>
<rscale>  0 0.20002824E+02</rscale>
<asrwt>0</asrwt>
<pdfrwt beam="1">  1        1 0.10051866E-01 0.20002824E+02</pdfrwt>
<pdfrwt beam="2">  1       -1 0.23553164E-03 0.20002824E+02</pdfrwt>
<totfact> 0.42568205E+06</totfact>
</mgrwt>
</event>
<event>
 5    1  0.9583198E-007  0.2000011E+02  0.7818608E-02  0.1745326E+00
          1   -1    0    0  501    0  0.00000000000E+00  0.00000000000E+00  0.87168885951E+00  0.87170136898E+00  0.46700000000E-02 0. -1.
         -1   -1    0    0    0  501 -0.00000000000E+00 -0.00000000000E+00 -0.11472027189E+03  0.11472027199E+03  0.46700000000E-02 0.  1.
       1023    2    1    2    0    0  0.00000000000E+00  0.00000000000E+00 -0.11384858303E+03  0.11559197335E+03  0.20000111146E+02 0.  0.
        -11    1    3    3    0    0  0.56351015889E+01  0.82611547153E+01 -0.56878036909E+02  0.57750429696E+02  0.51100000000E-03 0.  1.
         11    1    3    3    0    0 -0.56351015889E+01 -0.82611547153E+01 -0.56970546122E+02  0.57841543659E+02  0.51100000000E-03 0. -1.
<mgrwt>
<rscale>  0 0.20000111E+02</rscale>
<asrwt>0</asrwt>
<pdfrwt beam="1">  1        1 0.13410704E-03 0.20000111E+02</pdfrwt>
<pdfrwt beam="2">  1       -1 0.17649262E-01 0.20000111E+02</pdfrwt>
<totfact> 0.31100326E+06</totfact>
</mgrwt>
</event>
<event>
 5    1  0.9742914E-007  0.2000273E+02  0.7818608E-02  0.1745274E+00
          1   -1    0    0  501    0  0.00000000000E+00  0.00000000000E+00  0.63211791335E+02  0.63211791507E+02  0.46700000000E-02 0.  1.
         -1   -1    0    0    0  501 -0.00000000000E+00 -0.00000000000E+00 -0.15824120765E+01  0.15824189675E+01  0.46700000000E-02 0. -1.
       1023    2    1    2    0    0  0.00000000000E+00  0.00000000000E+00  0.61629379258E+02  0.64794210475E+02  0.20002732895E+02 0.  0.
        -11    1    3    3    0    0  0.48123309634E+01 -0.87660902809E+01  0.30308052761E+02  0.31915214718E+02  0.51100000000E-03 0. -1.
         11    1    3    3    0    0 -0.48123309634E+01  0.87660902809E+01  0.31321326498E+02  0.32878995756E+02  0.51100000000E-03 0.  1.
<mgrwt>
<rscale>  0 0.20002733E+02</rscale>
<asrwt>0</asrwt>
<pdfrwt beam="1">  1        1 0.97248926E-02 0.20002733E+02</pdfrwt>
<pdfrwt beam="2">  1       -1 0.24344853E-03 0.20002733E+02</pdfrwt>
<totfact> 0.42452035E+06</totfact>
</mgrwt>
</event>
<event>
 4    1  0.9583198E-007  0.2012507E+02  0.7818608E-02  0.1742852E+00
          1   -1    0    0  501    0  0.00000000000E+00  0.00000000000E+00  0.11444706943E+02  0.11444707896E+02  0.46700000000E-02 0. -1.
         -1   -1    0    0    0  501 -0.00000000000E+00 -0.00000000000E+00 -0.88472881445E+01  0.88472893770E+01  0.46700000000E-02 0.  1.
        -11    1    1    2    0    0  0.94243774054E+01  0.34249092561E+01  0.45165269065E+00  0.10037573577E+02  0.51100000000E-03 0. -1.
         11    1    1    2    0    0 -0.94243774054E+01 -0.34249092561E+01  0.21457661080E+01  0.10254423696E+02  0.51100000000E-03 0.  1.
<mgrwt>
<rscale>  0 0.20125073E+02</rscale>
<asrwt>0</asrwt>
<pdfrwt beam="1">  1        1 0.17607243E-02 0.20125073E+02</pdfrwt>
<pdfrwt beam="2">  1       -1 0.13611214E-02 0.20125073E+02</pdfrwt>
<totfact> 0.38287658E+06</totfact>
</mgrwt>
</event>
<event>
 5    1  0.9718141E-007  0.2000172E+02  0.7818608E-02  0.1745294E+00
          1   -1    0    0  501    0  0.00000000000E+00  0.00000000000E+00  0.12452409297E+02  0.12452410173E+02  0.46700000000E-02 0.  1.
         -1   -1    0    0    0  501 -0.00000000000E+00 -0.00000000000E+00 -0.80319576184E+01  0.80319589760E+01  0.46700000000E-02 0. -1.
       1023    2    1    2    0    0  0.00000000000E+00  0.00000000000E+00  0.44204516786E+01  0.20484369149E+02  0.20001724585E+02 0.  0.
        -11    1    3    3    0    0 -0.35227039499E+00 -0.99943759980E+01  0.21335848214E+01  0.10225645724E+02  0.51100000000E-03 0.  1.
         11    1    3    3    0    0  0.35227039499E+00  0.99943759980E+01  0.22868668572E+01  0.10258723425E+02  0.51100000000E-03 0. -1.
<mgrwt>
<rscale>  0 0.20001725E+02</rscale>
<asrwt>0</asrwt>
<pdfrwt beam="1">  1        1 0.19157554E-02 0.20001725E+02</pdfrwt>
<pdfrwt beam="2">  1       -1 0.12356860E-02 0.20001725E+02</pdfrwt>
<totfact> 0.38952215E+06</totfact>
</mgrwt>
</event>
<event>
 5    1  0.9583198E-007  0.2000969E+02  0.7818608E-02  0.1745135E+00
         -1   -1    0    0    0  501 -0.00000000000E+00  0.00000000000E+00  0.12539806845E+01  0.12539893804E+01  0.46700000000E-02 0.  1.
          1   -1    0    0  501    0  0.00000000000E+00 -0.00000000000E+00 -0.79823047065E+02  0.79823047201E+02  0.46700000000E-02 0. -1.
       1023    2    1    2    0    0  0.00000000000E+00  0.00000000000E+00 -0.78569066380E+02  0.81077036582E+02  0.20009689378E+02 0.  0.
        -11    1    3    3    0    0 -0.51755006595E+01  0.85611961529E+01 -0.38755760197E+02  0.40026101925E+02  0.51100000000E-03 0.  1.
         11    1    3    3    0    0  0.51755006595E+01 -0.85611961529E+01 -0.39813306184E+02  0.41050934656E+02  0.51100000000E-03 0. -1.
<mgrwt>
<rscale>  0 0.20009689E+02</rscale>
<asrwt>0</asrwt>
<pdfrwt beam="2">  1        1 0.12280465E-01 0.20009689E+02</pdfrwt>
<pdfrwt beam="1">  1       -1 0.19292085E-03 0.20009689E+02</pdfrwt>
<totfact> 0.43303868E+06</totfact>
</mgrwt>
</event>
<event>
 5    1  0.9583198E-007  0.2000085E+02  0.7818608E-02  0.1745311E+00
         -1   -1    0    0    0  501 -0.00000000000E+00  0.00000000000E+00  0.40488020547E+02  0.40488020816E+02  0.46700000000E-02 0. -1.
          1   -1    0    0  501    0  0.00000000000E+00 -0.00000000000E+00 -0.24700734929E+01  0.24700779075E+01  0.46700000000E-02 0.  1.
       1023    2    1    2    0    0  0.00000000000E+00  0.00000000000E+00  0.38017947054E+02  0.42958098723E+02  0.20000848676E+02 0.  0.
        -11    1    3    3    0    0 -0.99867453662E+01 -0.51949358218E+00  0.18881362231E+02  0.21366113277E+02  0.51100000000E-03 0. -1.
         11    1    3    3    0    0  0.99867453662E+01  0.51949358218E+00  0.19136584823E+02  0.21591985447E+02  0.51100000000E-03 0.  1.
<mgrwt>
<rscale>  0 0.20000849E+02</rscale>
<asrwt>0</asrwt>
<pdfrwt beam="2">  1        1 0.38001172E-03 0.20000849E+02</pdfrwt>
<pdfrwt beam="1">  1       -1 0.62289258E-02 0.20000849E+02</pdfrwt>
<totfact> 0.35630117E+06</totfact>
</mgrwt>
</event>
<event>
 5    1  0.9596789E-007  0.2000168E+02  0.7818608E-02  0.1745295E+00
         -1   -1    0    0    0  501 -0.00000000000E+00  0.00000000000E+00  0.17580027073E+01  0.17580089100E+01  0.46700000000E-02 0.  1.
          1   -1    0    0  501    0  0.00000000000E+00 -0.00000000000E+00 -0.56892176585E+02  0.56892176777E+02  0.46700000000E-02 0. -1.
       1023    2    1    2    0    0  0.00000000000E+00  0.00000000000E+00 -0.55134173878E+02  0.58650185687E+02  0.20001678727E+02 0.  0.
        -11    1    3    3    0    0 -0.99913265619E+01 -0.43295007190E+00 -0.27720449768E+02  0.29469261746E+02  0.51100000000E-03 0. -1.
         11    1    3    3    0    0  0.99913265619E+01  0.43295007190E+00 -0.27413724110E+02  0.29180923941E+02  0.51100000000E-03 0.  1.
<mgrwt>
<rscale>  0 0.20001679E+02</rscale>
<asrwt>0</asrwt>
<pdfrwt beam="2">  1        1 0.87526416E-02 0.20001679E+02</pdfrwt>
<pdfrwt beam="1">  1       -1 0.27046249E-03 0.20001679E+02</pdfrwt>
<totfact> 0.42103904E+06</totfact>
</mgrwt>
</event>
<event>
 5    1  0.9583198E-007  0.2000416E+02  0.7818608E-02  0.1745245E+00
          1   -1    0    0  501    0  0.00000000000E+00  0.00000000000E+00  0.65091905803E+01  0.65091922555E+01  0.46700000000E-02 0.  1.
         -1   -1    0    0    0  501 -0.00000000000E+00 -0.00000000000E+00 -0.15369278330E+02  0.15369279040E+02  0.46700000000E-02 0. -1.
       1023    2    1    2    0    0  0.00000000000E+00  0.00000000000E+00 -0.88600877497E+01  0.21878471295E+02  0.20004158350E+02 0.  0.
        -11    1    3    3    0    0  0.99672003404E+01  0.83366458956E+00 -0.44725193583E+01  0.10956436873E+02  0.51100000000E-03 0. -1.
         11    1    3    3    0    0 -0.99672003404E+01 -0.83366458956E+00 -0.43875683914E+01  0.10922034422E+02  0.51100000000E-03 0.  1.
<mgrwt>
<rscale>  0 0.20004158E+02</rscale>
<asrwt>0</asrwt>
<pdfrwt beam="1">  1        1 0.10014141E-02 0.20004158E+02</pdfrwt>
<pdfrwt beam="2">  1       -1 0.23645045E-02 0.20004158E+02</pdfrwt>
<totfact> 0.37899529E+06</totfact>
</mgrwt>
</event>
<event>
 5    1  0.9596990E-007  0.2000175E+02  0.7818608E-02  0.1745293E+00
         -1   -1    0    0    0  501 -0.00000000000E+00  0.00000000000E+00  0.84307620084E+01  0.84307633018E+01  0.46700000000E-02 0.  1.
          1   -1    0    0  501    0  0.00000000000E+00 -0.00000000000E+00 -0.11863401582E+02  0.11863402501E+02  0.46700000000E-02 0. -1.
       1023    2    1    2    0    0  0.00000000000E+00  0.00000000000E+00 -0.34326395733E+01  0.20294165803E+02  0.20001753703E+02 0.  0.
        -11    1    3    3    0    0  0.86594444387E+01 -0.50015458362E+01 -0.18450557411E+01  0.10168857836E+02  0.51100000000E-03 0. -1.
         11    1    3    3    0    0 -0.86594444387E+01  0.50015458362E+01 -0.15875838322E+01  0.10125307967E+02  0.51100000000E-03 0.  1.
<mgrwt>
<rscale>  0 0.20001754E+02</rscale>
<asrwt>0</asrwt>
<pdfrwt beam="2">  1        1 0.18251389E-02 0.20001754E+02</pdfrwt>
<pdfrwt beam="1">  1       -1 0.12970405E-02 0.20001754E+02</pdfrwt>
<totfact> 0.38878305E+06</totfact>
</mgrwt>
</event>
<event>
 5    1  0.9672494E-007  0.2000084E+02  0.7818608E-02  0.1745311E+00
          1   -1    0    0  501    0  0.00000000000E+00  0.00000000000E+00  0.32194170517E+02  0.32194170856E+02  0.46700000000E-02 0.  1.
         -1   -1    0    0    0  501 -0.00000000000E+00 -0.00000000000E+00 -0.31064099973E+01  0.31064135076E+01  0.46700000000E-02 0. -1.
       1023    2    1    2    0    0  0.00000000000E+00  0.00000000000E+00  0.29087760520E+02  0.35300584363E+02  0.20000836091E+02 0.  0.
        -11    1    3    3    0    0  0.98764504098E+01 -0.15677313923E+01  0.14684040490E+02  0.17765784525E+02  0.51100000000E-03 0. -1.
         11    1    3    3    0    0 -0.98764504098E+01  0.15677313923E+01  0.14403720030E+02  0.17534799838E+02  0.51100000000E-03 0.  1.
<mgrwt>
<rscale>  0 0.20000836E+02</rscale>
<asrwt>0</asrwt>
<pdfrwt beam="1">  1        1 0.49529497E-02 0.20000836E+02</pdfrwt>
<pdfrwt beam="2">  1       -1 0.47790952E-03 0.20000836E+02</pdfrwt>
<totfact> 0.40602000E+06</totfact>
</mgrwt>
</event>
<event>
 5    1  0.9645904E-007  0.2000104E+02  0.7818608E-02  0.1745307E+00
          1   -1    0    0  501    0  0.00000000000E+00  0.00000000000E+00  0.84222675575E+01  0.84222688522E+01  0.46700000000E-02 0.  1.
         -1   -1    0    0    0  501 -0.00000000000E+00 -0.00000000000E+00 -0.11874518543E+02  0.11874519461E+02  0.46700000000E-02 0. -1.
       1023    2    1    2    0    0  0.00000000000E+00  0.00000000000E+00 -0.34522509854E+01  0.20296788313E+02  0.20001039447E+02 0.  0.
        -11    1    3    3    0    0 -0.51429241060E+01  0.85766506073E+01 -0.17690652819E+01  0.10155697723E+02  0.51100000000E-03 0. -1.
         11    1    3    3    0    0  0.51429241060E+01 -0.85766506073E+01 -0.16831857036E+01  0.10141090591E+02  0.51100000000E-03 0.  1.
<mgrwt>
<rscale>  0 0.20001039E+02</rscale>
<asrwt>0</asrwt>
<pdfrwt beam="1">  1        1 0.12957336E-02 0.20001039E+02</pdfrwt>
<pdfrwt beam="2">  1       -1 0.18268492E-02 0.20001039E+02</pdfrwt>
<totfact> 0.38348414E+06</totfact>
</mgrwt>
</event>
<event>
 5    1  0.9583198E-007  0.2000190E+02  0.7818608E-02  0.1745290E+00
          1   -1    0    0  501    0  0.00000000000E+00  0.00000000000E+00  0.32436669043E+02  0.32436669379E+02  0.46700000000E-02 0. -1.
         -1   -1    0    0    0  501 -0.00000000000E+00 -0.00000000000E+00 -0.30835134183E+01  0.30835169546E+01  0.46700000000E-02 0.  1.
       1023    2    1    2    0    0  0.00000000000E+00  0.00000000000E+00  0.29353155624E+02  0.35520186333E+02  0.20001897211E+02 0.  0.
        -11    1    3    3    0    0  0.99036984305E+01 -0.13901699337E+01  0.14776368452E+02  0.17842558111E+02  0.51100000000E-03 0. -1.
         11    1    3    3    0    0 -0.99036984305E+01  0.13901699337E+01  0.14576787173E+02  0.17677628223E+02  0.51100000000E-03 0.  1.
<mgrwt>
<rscale>  0 0.20001897E+02</rscale>
<asrwt>0</asrwt>
<pdfrwt beam="1">  1        1 0.49902572E-02 0.20001897E+02</pdfrwt>
<pdfrwt beam="2">  1       -1 0.47438697E-03 0.20001897E+02</pdfrwt>
<totfact> 0.40613437E+06</totfact>
</mgrwt>
</event>
<event>
 5    1  0.9583198E-007  0.2000716E+02  0.7818608E-02  0.1745186E+00
         -1   -1    0    0    0  501 -0.00000000000E+00  0.00000000000E+00  0.47368317500E+02  0.47368317731E+02  0.46700000000E-02 0.  1.
          1   -1    0    0  501    0  0.00000000000E+00 -0.00000000000E+00 -0.21126257868E+01  0.21126309484E+01  0.46700000000E-02 0. -1.
       1023    2    1    2    0    0  0.00000000000E+00  0.00000000000E+00  0.45255691714E+02  0.49480948679E+02  0.20007164959E+02 0.  0.
        -11    1    3    3    0    0 -0.10444436143E+01 -0.99468815933E+01  0.22131077237E+02  0.24286125583E+02  0.51100000000E-03 0. -1.
         11    1    3    3    0    0  0.10444436143E+01  0.99468815933E+01  0.23124614477E+02  0.25194823096E+02  0.51100000000E-03 0.  1.
<mgrwt>
<rscale>  0 0.20007165E+02</rscale>
<asrwt>0</asrwt>
<pdfrwt beam="2">  1        1 0.32501976E-03 0.20007165E+02</pdfrwt>
<pdfrwt beam="1">  1       -1 0.72874340E-02 0.20007165E+02</pdfrwt>
<totfact> 0.35091170E+06</totfact>
</mgrwt>
</event>
<event>
 5    1  0.9583198E-007  0.2000035E+02  0.7818608E-02  0.1745321E+00
          1   -1    0    0  501    0  0.00000000000E+00  0.00000000000E+00  0.76986469332E+02  0.76986469473E+02  0.46700000000E-02 0.  1.
         -1   -1    0    0    0  501 -0.00000000000E+00 -0.00000000000E+00 -0.12989710919E+01  0.12989794866E+01  0.46700000000E-02 0. -1.
       1023    2    1    2    0    0  0.00000000000E+00  0.00000000000E+00  0.75687498240E+02  0.78285448960E+02  0.20000353223E+02 0.  0.
        -11    1    3    3    0    0  0.91692734301E+01 -0.39909163745E+01  0.37752517223E+02  0.39054520170E+02  0.51100000000E-03 0. -1.
         11    1    3    3    0    0 -0.91692734301E+01  0.39909163745E+01  0.37934981016E+02  0.39230928790E+02  0.51100000000E-03 0.  1.
<mgrwt>
<rscale>  0 0.20000353E+02</rscale>
<asrwt>0</asrwt>
<pdfrwt beam="1">  1        1 0.11844073E-01 0.20000353E+02</pdfrwt>
<pdfrwt beam="2">  1       -1 0.19984235E-03 0.20000353E+02</pdfrwt>
<totfact> 0.43201392E+06</totfact>
</mgrwt>
</event>
<event>
 5    1  0.9583198E-007  0.2000028E+02  0.7818608E-02  0.1745323E+00
         -1   -1    0    0    0  501 -0.00000000000E+00  0.00000000000E+00  0.14439457913E+02  0.14439458668E+02  0.46700000000E-02 0. -1.
          1   -1    0    0  501    0  0.00000000000E+00 -0.00000000000E+00 -0.69256596089E+01  0.69256611834E+01  0.46700000000E-02 0.  1.
       1023    2    1    2    0    0  0.00000000000E+00  0.00000000000E+00  0.75137983038E+01  0.21365119851E+02  0.20000279531E+02 0.  0.
        -11    1    3    3    0    0  0.94567951466E+01  0.32510908254E+01  0.37064642915E+01  0.10664822727E+02  0.51100000000E-03 0. -1.
         11    1    3    3    0    0 -0.94567951466E+01 -0.32510908254E+01  0.38073340123E+01  0.10700297124E+02  0.51100000000E-03 0.  1.
<mgrwt>
<rscale>  0 0.20000280E+02</rscale>
<asrwt>0</asrwt>
<pdfrwt beam="2">  1        1 0.10654863E-02 0.20000280E+02</pdfrwt>
<pdfrwt beam="1">  1       -1 0.22214552E-02 0.20000280E+02</pdfrwt>
<totfact> 0.38025182E+06</totfact>
</mgrwt>
</event>
<event>
 5    1  0.9583198E-007  0.2000017E+02  0.7818608E-02  0.1745325E+00
         -1   -1    0    0    0  501 -0.00000000000E+00  0.00000000000E+00  0.60119870960E+01  0.60119889098E+01  0.46700000000E-02 0.  1.
          1   -1    0    0  501    0  0.00000000000E+00 -0.00000000000E+00 -0.16633712006E+02  0.16633712662E+02  0.46700000000E-02 0. -1.
       1023    2    1    2    0    0  0.00000000000E+00  0.00000000000E+00 -0.10621724910E+02  0.22645701572E+02  0.20000168989E+02 0.  0.
        -11    1    3    3    0    0  0.59844929154E+01  0.80117121682E+01 -0.53091386066E+01  0.11322042233E+02  0.51100000000E-03 0. -1.
         11    1    3    3    0    0 -0.59844929154E+01 -0.80117121682E+01 -0.53125863037E+01  0.11323659339E+02  0.51100000000E-03 0.  1.
<mgrwt>
<rscale>  0 0.20000169E+02</rscale>
<asrwt>0</asrwt>
<pdfrwt beam="2">  1        1 0.25590328E-02 0.20000169E+02</pdfrwt>
<pdfrwt beam="1">  1       -1 0.92492129E-03 0.20000169E+02</pdfrwt>
<totfact> 0.39405502E+06</totfact>
</mgrwt>
</event>
<event>
 5    1  0.9583198E-007  0.2000048E+02  0.7818608E-02  0.1745318E+00
          1   -1    0    0  501    0  0.00000000000E+00  0.00000000000E+00  0.25520575252E+01  0.25520617980E+01  0.46700000000E-02 0. -1.
         -1   -1    0    0    0  501 -0.00000000000E+00 -0.00000000000E+00 -0.39185929983E+02  0.39185930261E+02  0.46700000000E-02 0.  1.
       1023    2    1    2    0    0  0.00000000000E+00  0.00000000000E+00 -0.36633872458E+02  0.41737992059E+02  0.20000484241E+02 0.  0.
        -11    1    3    3    0    0  0.90390174708E+01  0.42778164429E+01 -0.18241929947E+02  0.20803162231E+02  0.51100000000E-03 0. -1.
         11    1    3    3    0    0 -0.90390174708E+01 -0.42778164429E+01 -0.18391942511E+02  0.20934829828E+02  0.51100000000E-03 0.  1.
<mgrwt>
<rscale>  0 0.20000484E+02</rscale>
<asrwt>0</asrwt>
<pdfrwt beam="1">  1        1 0.39262461E-03 0.20000484E+02</pdfrwt>
<pdfrwt beam="2">  1       -1 0.60286045E-02 0.20000484E+02</pdfrwt>
<totfact> 0.35732489E+06</totfact>
</mgrwt>
</event>
<event>
 4    1  0.9583198E-007  0.2002104E+02  0.7818608E-02  0.1744910E+00
         -1   -1    0    0    0  501 -0.00000000000E+00  0.00000000000E+00  0.25435706993E+01  0.25435749864E+01  0.46700000000E-02 0.  1.
          1   -1    0    0  501    0  0.00000000000E+00 -0.00000000000E+00 -0.39397529936E+02  0.39397530213E+02  0.46700000000E-02 0. -1.
        -11    1    1    2    0    0  0.98941420977E+01 -0.15193040689E+01 -0.18237682079E+02  0.20804215452E+02  0.51100000000E-03 0. -1.
         11    1    1    2    0    0 -0.98941420977E+01  0.15193040689E+01 -0.18616277157E+02  0.21136889747E+02  0.51100000000E-03 0.  1.
<mgrwt>
<rscale>  0 0.20021039E+02</rscale>
<asrwt>0</asrwt>
<pdfrwt beam="2">  1        1 0.60611584E-02 0.20021039E+02</pdfrwt>
<pdfrwt beam="1">  1       -1 0.39131895E-03 0.20021039E+02</pdfrwt>
<totfact> 0.40976546E+06</totfact>
</mgrwt>
</event>
<event>
 5    1  0.9583198E-007  0.2000028E+02  0.7818608E-02  0.1745322E+00
          1   -1    0    0  501    0  0.00000000000E+00  0.00000000000E+00  0.42615634111E+02  0.42615634367E+02  0.46700000000E-02 0.  1.
         -1   -1    0    0    0  501 -0.00000000000E+00 -0.00000000000E+00 -0.23466202861E+01  0.23466249330E+01  0.46700000000E-02 0. -1.
       1023    2    1    2    0    0  0.00000000000E+00  0.00000000000E+00  0.40269013825E+02  0.44962259300E+02  0.20000282171E+02 0.  0.
        -11    1    3    3    0    0  0.36917406062E+01 -0.92936451566E+01  0.20235857003E+02  0.22571900627E+02  0.51100000000E-03 0. -1.
         11    1    3    3    0    0 -0.36917406062E+01  0.92936451566E+01  0.20033156822E+02  0.22390358673E+02  0.51100000000E-03 0.  1.
<mgrwt>
<rscale>  0 0.20000282E+02</rscale>
<asrwt>0</asrwt>
<pdfrwt beam="1">  1        1 0.65562516E-02 0.20000282E+02</pdfrwt>
<pdfrwt beam="2">  1       -1 0.36101890E-03 0.20000282E+02</pdfrwt>
<totfact> 0.41271040E+06</totfact>
</mgrwt>
</event>
<event>
 5    1  0.1001583E-006  0.2000207E+02  0.7818608E-02  0.1745287E+00
         -1   -1    0    0    0  501 -0.00000000000E+00  0.00000000000E+00  0.65518181794E+01  0.65518198438E+01  0.46700000000E-02 0. -1.
          1   -1    0    0  501    0  0.00000000000E+00 -0.00000000000E+00 -0.15266101045E+02  0.15266101759E+02  0.46700000000E-02 0.  1.
       1023    2    1    2    0    0  0.00000000000E+00  0.00000000000E+00 -0.87142828653E+01  0.21817921603E+02  0.20002074323E+02 0.  0.
        -11    1    3    3    0    0  0.81693498871E+01 -0.57678635503E+01 -0.44871988419E+01  0.10960906953E+02  0.51100000000E-03 0.  1.
         11    1    3    3    0    0 -0.81693498871E+01  0.57678635503E+01 -0.42270840234E+01  0.10857014650E+02  0.51100000000E-03 0. -1.
<mgrwt>
<rscale>  0 0.20002074E+02</rscale>
<asrwt>0</asrwt>
<pdfrwt beam="2">  1        1 0.23486311E-02 0.20002074E+02</pdfrwt>
<pdfrwt beam="1">  1       -1 0.10079722E-02 0.20002074E+02</pdfrwt>
<totfact> 0.39262735E+06</totfact>
</mgrwt>
</event>
<event>
 5    1  0.9583198E-007  0.2000031E+02  0.7818608E-02  0.1745322E+00
          1   -1    0    0  501    0  0.00000000000E+00  0.00000000000E+00  0.81803613678E+01  0.81803627008E+01  0.46700000000E-02 0.  1.
         -1   -1    0    0    0  501 -0.00000000000E+00 -0.00000000000E+00 -0.12224777184E+02  0.12224778076E+02  0.46700000000E-02 0. -1.
       1023    2    1    2    0    0  0.00000000000E+00  0.00000000000E+00 -0.40444158163E+01  0.20405140777E+02  0.20000311768E+02 0.  0.
        -11    1    3    3    0    0 -0.82159279819E+01 -0.57009799467E+01 -0.20443847110E+01  0.10206965958E+02  0.51100000000E-03 0. -1.
         11    1    3    3    0    0  0.82159279819E+01  0.57009799467E+01 -0.20000311053E+01  0.10198174819E+02  0.51100000000E-03 0.  1.
<mgrwt>
<rscale>  0 0.20000312E+02</rscale>
<asrwt>0</asrwt>
<pdfrwt beam="1">  1        1 0.12585173E-02 0.20000312E+02</pdfrwt>
<pdfrwt beam="2">  1       -1 0.18807351E-02 0.20000312E+02</pdfrwt>
<totfact> 0.38304354E+06</totfact>
</mgrwt>
</event>
<event>
 5    1  0.9583198E-007  0.2000129E+02  0.7818608E-02  0.1745302E+00
          1   -1    0    0  501    0  0.00000000000E+00  0.00000000000E+00  0.88719328002E+00  0.88720557088E+00  0.46700000000E-02 0. -1.
         -1   -1    0    0    0  501 -0.00000000000E+00 -0.00000000000E+00 -0.11272875531E+03  0.11272875540E+03  0.46700000000E-02 0.  1.
       1023    2    1    2    0    0  0.00000000000E+00  0.00000000000E+00 -0.11184156203E+03  0.11361596097E+03  0.20001289747E+02 0.  0.
        -11    1    3    3    0    0 -0.92844786470E+01  0.37150578663E+01 -0.55361354273E+02  0.56257290602E+02  0.51100000000E-03 0. -1.
         11    1    3    3    0    0  0.92844786470E+01 -0.37150578663E+01 -0.56480207753E+02  0.57358670371E+02  0.51100000000E-03 0.  1.
<mgrwt>
<rscale>  0 0.20001290E+02</rscale>
<asrwt>0</asrwt>
<pdfrwt beam="1">  1        1 0.13649232E-03 0.20001290E+02</pdfrwt>
<pdfrwt beam="2">  1       -1 0.17342875E-01 0.20001290E+02</pdfrwt>
<totfact> 0.31197399E+06</totfact>
</mgrwt>
</event>
<event>
 5    1  0.9583198E-007  0.2000031E+02  0.7818608E-02  0.1745322E+00
          1   -1    0    0  501    0  0.00000000000E+00  0.00000000000E+00  0.12770132722E+01  0.12770218112E+01  0.46700000000E-02 0. -1.
         -1   -1    0    0    0  501 -0.00000000000E+00 -0.00000000000E+00 -0.78309847012E+02  0.78309847151E+02  0.46700000000E-02 0.  1.
       1023    2    1    2    0    0  0.00000000000E+00  0.00000000000E+00 -0.77032833740E+02  0.79586868962E+02  0.20000305929E+02 0.  0.
        -11    1    3    3    0    0  0.99702130385E+01 -0.77276468757E+00 -0.38625085261E+02  0.39898615577E+02  0.51100000000E-03 0.  1.
         11    1    3    3    0    0 -0.99702130385E+01  0.77276468757E+00 -0.38407748479E+02  0.39688253386E+02  0.51100000000E-03 0. -1.
<mgrwt>
<rscale>  0 0.20000306E+02</rscale>
<asrwt>0</asrwt>
<pdfrwt beam="1">  1        1 0.19646431E-03 0.20000306E+02</pdfrwt>
<pdfrwt beam="2">  1       -1 0.12047666E-01 0.20000306E+02</pdfrwt>
<totfact> 0.33092608E+06</totfact>
</mgrwt>
</event>
<event>
 5    1  0.9627815E-007  0.2000100E+02  0.7818608E-02  0.1745308E+00
          1   -1    0    0  501    0  0.00000000000E+00  0.00000000000E+00  0.35536223463E+02  0.35536223770E+02  0.46700000000E-02 0.  1.
         -1   -1    0    0    0  501 -0.00000000000E+00 -0.00000000000E+00 -0.28143083717E+01  0.28143122463E+01  0.46700000000E-02 0. -1.
       1023    2    1    2    0    0  0.00000000000E+00  0.00000000000E+00  0.32721915091E+02  0.38350536016E+02  0.20000997112E+02 0.  0.
        -11    1    3    3    0    0  0.89208417270E+01 -0.45196504169E+01  0.16291449672E+02  0.19115961647E+02  0.51100000000E-03 0. -1.
         11    1    3    3    0    0 -0.89208417270E+01  0.45196504169E+01  0.16430465419E+02  0.19234574369E+02  0.51100000000E-03 0.  1.
<mgrwt>
<rscale>  0 0.20000997E+02</rscale>
<asrwt>0</asrwt>
<pdfrwt beam="1">  1        1 0.54671119E-02 0.20000997E+02</pdfrwt>
<pdfrwt beam="2">  1       -1 0.43297082E-03 0.20000997E+02</pdfrwt>
<totfact> 0.40821673E+06</totfact>
</mgrwt>
</event>
<event>
 5    1  0.9583198E-007  0.2000059E+02  0.7818608E-02  0.1745316E+00
          1   -1    0    0  501    0  0.00000000000E+00  0.00000000000E+00  0.61581122297E+01  0.61581140005E+01  0.46700000000E-02 0. -1.
         -1   -1    0    0    0  501 -0.00000000000E+00 -0.00000000000E+00 -0.16239691385E+02  0.16239692057E+02  0.46700000000E-02 0.  1.
       1023    2    1    2    0    0  0.00000000000E+00  0.00000000000E+00 -0.10081579156E+02  0.22397806057E+02  0.20000586939E+02 0.  0.
        -11    1    3    3    0    0 -0.21593960226E+00  0.99978579818E+01 -0.49897766544E+01  0.11175941368E+02  0.51100000000E-03 0. -1.
         11    1    3    3    0    0  0.21593960226E+00 -0.99978579818E+01 -0.50918025012E+01  0.11221864689E+02  0.51100000000E-03 0.  1.
<mgrwt>
<rscale>  0 0.20000587E+02</rscale>
<asrwt>0</asrwt>
<pdfrwt beam="1">  1        1 0.94740208E-03 0.20000587E+02</pdfrwt>
<pdfrwt beam="2">  1       -1 0.24984142E-02 0.20000587E+02</pdfrwt>
<totfact> 0.37815167E+06</totfact>
</mgrwt>
</event>
<event>
 4    1  0.9583198E-007  0.2001252E+02  0.7818608E-02  0.1745079E+00
         -1   -1    0    0    0  501 -0.00000000000E+00  0.00000000000E+00  0.94662322280E+01  0.94662333799E+01  0.46700000000E-02 0.  1.
          1   -1    0    0  501    0  0.00000000000E+00 -0.00000000000E+00 -0.10577094115E+02  0.10577095146E+02  0.46700000000E-02 0. -1.
        -11    1    1    2    0    0  0.10001725841E+02 -0.10123016490E+00 -0.83956373010E+00  0.10037411761E+02  0.51100000000E-03 0.  1.
         11    1    1    2    0    0 -0.10001725841E+02  0.10123016490E+00 -0.27129815703E+00  0.10005916765E+02  0.51100000000E-03 0. -1.
<mgrwt>
<rscale>  0 0.20012521E+02</rscale>
<asrwt>0</asrwt>
<pdfrwt beam="2">  1        1 0.16272454E-02 0.20012521E+02</pdfrwt>
<pdfrwt beam="1">  1       -1 0.14563436E-02 0.20012521E+02</pdfrwt>
<totfact> 0.38655748E+06</totfact>
</mgrwt>
</event>
<event>
 4    1  0.9851648E-007  0.2006689E+02  0.7818608E-02  0.1744001E+00
         -1   -1    0    0    0  501 -0.00000000000E+00  0.00000000000E+00  0.81765642570E+01  0.81765655907E+01  0.46700000000E-02 0. -1.
          1   -1    0    0  501    0  0.00000000000E+00 -0.00000000000E+00 -0.12312011887E+02  0.12312012773E+02  0.46700000000E-02 0.  1.
        -11    1    1    2    0    0 -0.95733110209E+01  0.29028048688E+01 -0.28555730340E+01  0.10403309936E+02  0.51100000000E-03 0.  1.
         11    1    1    2    0    0  0.95733110209E+01 -0.29028048688E+01 -0.12798745959E+01  0.10085268427E+02  0.51100000000E-03 0. -1.
<mgrwt>
<rscale>  0 0.20066886E+02</rscale>
<asrwt>0</asrwt>
<pdfrwt beam="2">  1        1 0.18941558E-02 0.20066886E+02</pdfrwt>
<pdfrwt beam="1">  1       -1 0.12579331E-02 0.20066886E+02</pdfrwt>
<totfact> 0.38650047E+06</totfact>
</mgrwt>
</event>
<event>
 5    1  0.9583198E-007  0.2000054E+02  0.7818608E-02  0.1745317E+00
         -1   -1    0    0    0  501 -0.00000000000E+00  0.00000000000E+00  0.21696881613E+01  0.21696931871E+01  0.46700000000E-02 0.  1.
          1   -1    0    0  501    0  0.00000000000E+00 -0.00000000000E+00 -0.46091997798E+02  0.46091998035E+02  0.46700000000E-02 0. -1.
       1023    2    1    2    0    0  0.00000000000E+00  0.00000000000E+00 -0.43922309637E+02  0.48261691222E+02  0.20000538887E+02 0.  0.
        -11    1    3    3    0    0  0.98734595847E+01  0.15874547213E+01 -0.21929506983E+02  0.24102043346E+02  0.51100000000E-03 0.  1.
         11    1    3    3    0    0 -0.98734595847E+01 -0.15874547213E+01 -0.21992802653E+02  0.24159647876E+02  0.51100000000E-03 0. -1.
<mgrwt>
<rscale>  0 0.20000539E+02</rscale>
<asrwt>0</asrwt>
<pdfrwt beam="2">  1        1 0.70910762E-02 0.20000539E+02</pdfrwt>
<pdfrwt beam="1">  1       -1 0.33379862E-03 0.20000539E+02</pdfrwt>
<totfact> 0.41480661E+06</totfact>
</mgrwt>
</event>
<event>
 5    1  0.9583198E-007  0.2000110E+02  0.7818608E-02  0.1745306E+00
         -1   -1    0    0    0  501 -0.00000000000E+00  0.00000000000E+00  0.16653723799E+02  0.16653724453E+02  0.46700000000E-02 0.  1.
          1   -1    0    0  501    0  0.00000000000E+00 -0.00000000000E+00 -0.60053244401E+01  0.60053262559E+01  0.46700000000E-02 0. -1.
       1023    2    1    2    0    0  0.00000000000E+00  0.00000000000E+00  0.10648399359E+02  0.22659050709E+02  0.20001104223E+02 0.  0.
        -11    1    3    3    0    0 -0.55283961102E+01  0.83334562154E+01  0.52820197930E+01  0.11309703329E+02  0.51100000000E-03 0.  1.
         11    1    3    3    0    0  0.55283961102E+01 -0.83334562154E+01  0.53663795655E+01  0.11349347380E+02  0.51100000000E-03 0. -1.
<mgrwt>
<rscale>  0 0.20001104E+02</rscale>
<asrwt>0</asrwt>
<pdfrwt beam="2">  1        1 0.92389626E-03 0.20001104E+02</pdfrwt>
<pdfrwt beam="1">  1       -1 0.25621115E-02 0.20001104E+02</pdfrwt>
<totfact> 0.37766801E+06</totfact>
</mgrwt>
</event>
<event>
 5    1  0.9583198E-007  0.2000698E+02  0.7818608E-02  0.1745189E+00
         -1   -1    0    0    0  501 -0.00000000000E+00  0.00000000000E+00  0.37936422588E+02  0.37936422876E+02  0.46700000000E-02 0.  1.
          1   -1    0    0  501    0  0.00000000000E+00 -0.00000000000E+00 -0.26378274180E+01  0.26378315519E+01  0.46700000000E-02 0. -1.
       1023    2    1    2    0    0  0.00000000000E+00  0.00000000000E+00  0.35298595170E+02  0.40574254428E+02  0.20006981316E+02 0.  0.
        -11    1    3    3    0    0 -0.74419911726E+00 -0.99738519257E+01  0.17252561997E+02  0.19941977091E+02  0.51100000000E-03 0. -1.
         11    1    3    3    0    0  0.74419911726E+00  0.99738519257E+01  0.18046033173E+02  0.20632277337E+02  0.51100000000E-03 0.  1.
<mgrwt>
<rscale>  0 0.20006981E+02</rscale>
<asrwt>0</asrwt>
<pdfrwt beam="2">  1        1 0.40581999E-03 0.20006981E+02</pdfrwt>
<pdfrwt beam="1">  1       -1 0.58363724E-02 0.20006981E+02</pdfrwt>
<totfact> 0.35804917E+06</totfact>
</mgrwt>
</event>
<event>
 5    1  0.9615817E-007  0.2000179E+02  0.7818608E-02  0.1745293E+00
          1   -1    0    0  501    0  0.00000000000E+00  0.00000000000E+00  0.41808337871E+02  0.41808338132E+02  0.46700000000E-02 0. -1.
         -1   -1    0    0    0  501 -0.00000000000E+00 -0.00000000000E+00 -0.23922919060E+01  0.23922964642E+01  0.46700000000E-02 0.  1.
       1023    2    1    2    0    0  0.00000000000E+00  0.00000000000E+00  0.39416045965E+02  0.44200634596E+02  0.20001785400E+02 0.  0.
        -11    1    3    3    0    0  0.27583595911E+01 -0.96128503699E+01  0.19599433411E+02  0.22003482228E+02  0.51100000000E-03 0.  1.
         11    1    3    3    0    0 -0.27583595911E+01  0.96128503699E+01  0.19816612554E+02  0.22197152368E+02  0.51100000000E-03 0. -1.
<mgrwt>
<rscale>  0 0.20001785E+02</rscale>
<asrwt>0</asrwt>
<pdfrwt beam="1">  1        1 0.64320522E-02 0.20001785E+02</pdfrwt>
<pdfrwt beam="2">  1       -1 0.36804529E-03 0.20001785E+02</pdfrwt>
<totfact> 0.41214483E+06</totfact>
</mgrwt>
</event>
<event>
 5    1  0.9583198E-007  0.2000073E+02  0.7818608E-02  0.1745314E+00
         -1   -1    0    0    0  501 -0.00000000000E+00  0.00000000000E+00  0.25092781412E+02  0.25092781847E+02  0.46700000000E-02 0.  1.
          1   -1    0    0  501    0  0.00000000000E+00 -0.00000000000E+00 -0.39854985268E+01  0.39855012629E+01  0.46700000000E-02 0. -1.
       1023    2    1    2    0    0  0.00000000000E+00  0.00000000000E+00  0.21107282885E+02  0.29078283109E+02  0.20000728932E+02 0.  0.
        -11    1    3    3    0    0  0.28508813234E+01  0.95853879566E+01  0.10568367081E+02  0.14549830570E+02  0.51100000000E-03 0.  1.
         11    1    3    3    0    0 -0.28508813234E+01 -0.95853879566E+01  0.10538915804E+02  0.14528452539E+02  0.51100000000E-03 0. -1.
<mgrwt>
<rscale>  0 0.20000729E+02</rscale>
<asrwt>0</asrwt>
<pdfrwt beam="2">  1        1 0.61315387E-03 0.20000729E+02</pdfrwt>
<pdfrwt beam="1">  1       -1 0.38604281E-02 0.20000729E+02</pdfrwt>
<totfact> 0.36921230E+06</totfact>
</mgrwt>
</event>
<event>
 5    1  0.9583198E-007  0.2000025E+02  0.7818608E-02  0.1745323E+00
          1   -1    0    0  501    0  0.00000000000E+00  0.00000000000E+00  0.95670535841E+02  0.95670535955E+02  0.46700000000E-02 0.  1.
         -1   -1    0    0    0  501 -0.00000000000E+00 -0.00000000000E+00 -0.10452745177E+01  0.10452849498E+01  0.46700000000E-02 0. -1.
       1023    2    1    2    0    0  0.00000000000E+00  0.00000000000E+00  0.94625261324E+02  0.96715820905E+02  0.20000248318E+02 0.  0.
        -11    1    3    3    0    0 -0.58485760279E+00 -0.99829932296E+01  0.47392192816E+02  0.48435752832E+02  0.51100000000E-03 0.  1.
         11    1    3    3    0    0  0.58485760279E+00  0.99829932296E+01  0.47233068507E+02  0.48280068073E+02  0.51100000000E-03 0. -1.
<mgrwt>
<rscale>  0 0.20000248E+02</rscale>
<asrwt>0</asrwt>
<pdfrwt beam="1">  1        1 0.14718553E-01 0.20000248E+02</pdfrwt>
<pdfrwt beam="2">  1       -1 0.16081219E-03 0.20000248E+02</pdfrwt>
<totfact> 0.44148020E+06</totfact>
</mgrwt>
</event>
<event>
 4    1  0.9583198E-007  0.2006191E+02  0.7818608E-02  0.1744100E+00
          1   -1    0    0  501    0  0.00000000000E+00  0.00000000000E+00  0.98493413650E+02  0.98493413761E+02  0.46700000000E-02 0. -1.
         -1   -1    0    0    0  501 -0.00000000000E+00 -0.00000000000E+00 -0.10215858218E+01  0.10215964958E+01  0.46700000000E-02 0.  1.
        -11    1    1    2    0    0  0.10024007476E+02 -0.32213527519E+00  0.49670712129E+02  0.50673110628E+02  0.51100000000E-03 0.  1.
         11    1    1    2    0    0 -0.10024007476E+02  0.32213527519E+00  0.47801115700E+02  0.48841899629E+02  0.51100000000E-03 0. -1.
<mgrwt>
<rscale>  0 0.20061905E+02</rscale>
<asrwt>0</asrwt>
<pdfrwt beam="1">  1        1 0.15152838E-01 0.20061905E+02</pdfrwt>
<pdfrwt beam="2">  1       -1 0.15716783E-03 0.20061905E+02</pdfrwt>
<totfact> 0.43986351E+06</totfact>
</mgrwt>
</event>
<event>
 5    1  0.9583198E-007  0.2000620E+02  0.7818608E-02  0.1745205E+00
         -1   -1    0    0    0  501 -0.00000000000E+00  0.00000000000E+00  0.28965642905E+02  0.28965643282E+02  0.46700000000E-02 0.  1.
          1   -1    0    0  501    0  0.00000000000E+00 -0.00000000000E+00 -0.34545043031E+01  0.34545074597E+01  0.46700000000E-02 0. -1.
       1023    2    1    2    0    0  0.00000000000E+00  0.00000000000E+00  0.25511138602E+02  0.32420150741E+02  0.20006198572E+02 0.  0.
        -11    1    3    3    0    0 -0.50185211545E+01 -0.86526037531E+01  0.12602787530E+02  0.16089852705E+02  0.51100000000E-03 0.  1.
         11    1    3    3    0    0  0.50185211545E+01  0.86526037531E+01  0.12908351073E+02  0.16330298036E+02  0.51100000000E-03 0. -1.
<mgrwt>
<rscale>  0 0.20006199E+02</rscale>
<asrwt>0</asrwt>
<pdfrwt beam="2">  1        1 0.53146248E-03 0.20006199E+02</pdfrwt>
<pdfrwt beam="1">  1       -1 0.44562530E-02 0.20006199E+02</pdfrwt>
<totfact> 0.36551478E+06</totfact>
</mgrwt>
</event>
<event>
 5    1  0.9583198E-007  0.2000020E+02  0.7818608E-02  0.1745324E+00
         -1   -1    0    0    0  501 -0.00000000000E+00  0.00000000000E+00  0.29141190221E+01  0.29141227640E+01  0.46700000000E-02 0.  1.
          1   -1    0    0  501    0  0.00000000000E+00 -0.00000000000E+00 -0.34316341773E+02  0.34316342091E+02  0.46700000000E-02 0. -1.
       1023    2    1    2    0    0  0.00000000000E+00  0.00000000000E+00 -0.31402222751E+02  0.37230464855E+02  0.20000197989E+02 0.  0.
        -11    1    3    3    0    0  0.74632575535E+01 -0.66558522204E+01 -0.15631521148E+02  0.18556536201E+02  0.51100000000E-03 0. -1.
         11    1    3    3    0    0 -0.74632575535E+01  0.66558522204E+01 -0.15770701603E+02  0.18673928655E+02  0.51100000000E-03 0.  1.
<mgrwt>
<rscale>  0 0.20000198E+02</rscale>
<asrwt>0</asrwt>
<pdfrwt beam="2">  1        1 0.52794372E-02 0.20000198E+02</pdfrwt>
<pdfrwt beam="1">  1       -1 0.44832634E-03 0.20000198E+02</pdfrwt>
<totfact> 0.40745677E+06</totfact>
</mgrwt>
</event>
<event>
 5    1  0.9583198E-007  0.2001015E+02  0.7818608E-02  0.1745126E+00
         -1   -1    0    0    0  501 -0.00000000000E+00  0.00000000000E+00  0.17448350145E+01  0.17448412641E+01  0.46700000000E-02 0.  1.
          1   -1    0    0  501    0  0.00000000000E+00 -0.00000000000E+00 -0.57370109075E+02  0.57370109265E+02  0.46700000000E-02 0. -1.
       1023    2    1    2    0    0  0.00000000000E+00  0.00000000000E+00 -0.55625274061E+02  0.59114950529E+02  0.20010153966E+02 0.  0.
        -11    1    3    3    0    0  0.92807402972E+01  0.37363767399E+01 -0.27533721428E+02  0.29295024621E+02  0.51100000000E-03 0.  1.
         11    1    3    3    0    0 -0.92807402972E+01 -0.37363767399E+01 -0.28091552633E+02  0.29819925909E+02  0.51100000000E-03 0. -1.
<mgrwt>
<rscale>  0 0.20010154E+02</rscale>
<asrwt>0</asrwt>
<pdfrwt beam="2">  1        1 0.88261697E-02 0.20010154E+02</pdfrwt>
<pdfrwt beam="1">  1       -1 0.26843670E-03 0.20010154E+02</pdfrwt>
<totfact> 0.42091337E+06</totfact>
</mgrwt>
</event>
<event>
 5    1  0.9583198E-007  0.2000122E+02  0.7818608E-02  0.1745304E+00
         -1   -1    0    0    0  501 -0.00000000000E+00  0.00000000000E+00  0.47373713160E+02  0.47373713391E+02  0.46700000000E-02 0.  1.
          1   -1    0    0  501    0  0.00000000000E+00 -0.00000000000E+00 -0.21111299923E+01  0.21111351575E+01  0.46700000000E-02 0. -1.
       1023    2    1    2    0    0  0.00000000000E+00  0.00000000000E+00  0.45262583168E+02  0.49484848548E+02  0.20001219982E+02 0.  0.
        -11    1    3    3    0    0  0.45193092656E+01  0.89209424886E+01  0.22803215301E+02  0.24899678701E+02  0.51100000000E-03 0.  1.
         11    1    3    3    0    0 -0.45193092656E+01 -0.89209424886E+01  0.22459367868E+02  0.24585169847E+02  0.51100000000E-03 0. -1.
<mgrwt>
<rscale>  0 0.20001220E+02</rscale>
<asrwt>0</asrwt>
<pdfrwt beam="2">  1        1 0.32478966E-03 0.20001220E+02</pdfrwt>
<pdfrwt beam="1">  1       -1 0.72882636E-02 0.20001220E+02</pdfrwt>
<totfact> 0.35113713E+06</totfact>
</mgrwt>
</event>
<event>
 5    1  0.9583198E-007  0.2000013E+02  0.7818608E-02  0.1745325E+00
         -1   -1    0    0    0  501 -0.00000000000E+00  0.00000000000E+00  0.86654959906E+00  0.86656218273E+00  0.46700000000E-02 0.  1.
          1   -1    0    0  501    0  0.00000000000E+00 -0.00000000000E+00 -0.11540090028E+03  0.11540090038E+03  0.46700000000E-02 0. -1.
       1023    2    1    2    0    0  0.00000000000E+00  0.00000000000E+00 -0.11453435069E+03  0.11626746256E+03  0.20000134090E+02 0.  0.
        -11    1    3    3    0    0 -0.59637790570E+00 -0.99822530553E+01 -0.57367524613E+02  0.58232584719E+02  0.51100000000E-03 0.  1.
         11    1    3    3    0    0  0.59637790570E+00  0.99822530553E+01 -0.57166826073E+02  0.58034877842E+02  0.51100000000E-03 0. -1.
<mgrwt>
<rscale>  0 0.20000134E+02</rscale>
<asrwt>0</asrwt>
<pdfrwt beam="2">  1        1 0.17753974E-01 0.20000134E+02</pdfrwt>
<pdfrwt beam="1">  1       -1 0.13331639E-03 0.20000134E+02</pdfrwt>
<totfact> 0.45088498E+06</totfact>
</mgrwt>
</event>
<event>
 5    1  0.9583198E-007  0.2000364E+02  0.7818608E-02  0.1745256E+00
         -1   -1    0    0    0  501 -0.00000000000E+00  0.00000000000E+00  0.14003926198E+02  0.14003926977E+02  0.46700000000E-02 0.  1.
          1   -1    0    0  501    0  0.00000000000E+00 -0.00000000000E+00 -0.71434539993E+01  0.71434555258E+01  0.46700000000E-02 0. -1.
       1023    2    1    2    0    0  0.00000000000E+00  0.00000000000E+00  0.68604721987E+01  0.21147382503E+02  0.20003642366E+02 0.  0.
        -11    1    3    3    0    0  0.68149248494E+01 -0.73206570022E+01  0.34669655160E+01  0.10585606728E+02  0.51100000000E-03 0. -1.
         11    1    3    3    0    0 -0.68149248494E+01  0.73206570022E+01  0.33935066828E+01  0.10561775775E+02  0.51100000000E-03 0.  1.
<mgrwt>
<rscale>  0 0.20003642E+02</rscale>
<asrwt>0</asrwt>
<pdfrwt beam="2">  1        1 0.10989931E-02 0.20003642E+02</pdfrwt>
<pdfrwt beam="1">  1       -1 0.21544504E-02 0.20003642E+02</pdfrwt>
<totfact> 0.38063873E+06</totfact>
</mgrwt>
</event>
<event>
 5    1  0.9583198E-007  0.2000147E+02  0.7818608E-02  0.1745299E+00
          1   -1    0    0  501    0  0.00000000000E+00  0.00000000000E+00  0.37724325229E+01  0.37724354135E+01  0.46700000000E-02 0.  1.
         -1   -1    0    0    0  501 -0.00000000000E+00 -0.00000000000E+00 -0.26511988693E+02  0.26511989105E+02  0.46700000000E-02 0. -1.
       1023    2    1    2    0    0  0.00000000000E+00  0.00000000000E+00 -0.22739556170E+02  0.30284424518E+02  0.20001473785E+02 0.  0.
        -11    1    3    3    0    0 -0.74922252325E+01  0.66242545072E+01 -0.11334223282E+02  0.15115515353E+02  0.51100000000E-03 0.  1.
         11    1    3    3    0    0  0.74922252325E+01 -0.66242545072E+01 -0.11405332888E+02  0.15168909165E+02  0.51100000000E-03 0. -1.
<mgrwt>
<rscale>  0 0.20001474E+02</rscale>
<asrwt>0</asrwt>
<pdfrwt beam="1">  1        1 0.58037450E-03 0.20001474E+02</pdfrwt>
<pdfrwt beam="2">  1       -1 0.40787676E-02 0.20001474E+02</pdfrwt>
<totfact> 0.36788598E+06</totfact>
</mgrwt>
</event>
<event>
 5    1  0.9583198E-007  0.2000239E+02  0.7818608E-02  0.1745281E+00
         -1   -1    0    0    0  501 -0.00000000000E+00  0.00000000000E+00  0.32063645278E+01  0.32063679287E+01  0.46700000000E-02 0.  1.
          1   -1    0    0  501    0  0.00000000000E+00 -0.00000000000E+00 -0.31195403541E+02  0.31195403890E+02  0.46700000000E-02 0. -1.
       1023    2    1    2    0    0  0.00000000000E+00  0.00000000000E+00 -0.27989039013E+02  0.34401771819E+02  0.20002389843E+02 0.  0.
        -11    1    3    3    0    0 -0.40983397545E+01 -0.91222046627E+01 -0.13799231776E+02  0.17042001188E+02  0.51100000000E-03 0. -1.
         11    1    3    3    0    0  0.40983397545E+01  0.91222046627E+01 -0.14189807237E+02  0.17359770631E+02  0.51100000000E-03 0.  1.
<mgrwt>
<rscale>  0 0.20002390E+02</rscale>
<asrwt>0</asrwt>
<pdfrwt beam="2">  1        1 0.47992929E-02 0.20002390E+02</pdfrwt>
<pdfrwt beam="1">  1       -1 0.49328716E-03 0.20002390E+02</pdfrwt>
<totfact> 0.40527590E+06</totfact>
</mgrwt>
</event>
<event>
 5    1  0.9583198E-007  0.2000161E+02  0.7818608E-02  0.1745296E+00
          1   -1    0    0  501    0  0.00000000000E+00  0.00000000000E+00  0.72314843883E+01  0.72314858962E+01  0.46700000000E-02 0.  1.
         -1   -1    0    0    0  501 -0.00000000000E+00 -0.00000000000E+00 -0.13830636408E+02  0.13830637196E+02  0.46700000000E-02 0. -1.
       1023    2    1    2    0    0  0.00000000000E+00  0.00000000000E+00 -0.65991520194E+01  0.21062123092E+02  0.20001605480E+02 0.  0.
        -11    1    3    3    0    0  0.96627262609E+01 -0.25780110697E+01 -0.33421591795E+01  0.10544403639E+02  0.51100000000E-03 0. -1.
         11    1    3    3    0    0 -0.96627262609E+01  0.25780110697E+01 -0.32569928400E+01  0.10517719453E+02  0.51100000000E-03 0.  1.
<mgrwt>
<rscale>  0 0.20001605E+02</rscale>
<asrwt>0</asrwt>
<pdfrwt beam="1">  1        1 0.11125362E-02 0.20001605E+02</pdfrwt>
<pdfrwt beam="2">  1       -1 0.21277904E-02 0.20001605E+02</pdfrwt>
<totfact> 0.38093625E+06</totfact>
</mgrwt>
</event>
<event>
 5    1  0.9943462E-007  0.2000148E+02  0.7818608E-02  0.1745299E+00
         -1   -1    0    0    0  501 -0.00000000000E+00  0.00000000000E+00  0.21758971501E+01  0.21759021615E+01  0.46700000000E-02 0.  1.
          1   -1    0    0  501    0  0.00000000000E+00 -0.00000000000E+00 -0.45964786730E+02  0.45964786968E+02  0.46700000000E-02 0. -1.
       1023    2    1    2    0    0  0.00000000000E+00  0.00000000000E+00 -0.43788889580E+02  0.48140689129E+02  0.20001477424E+02 0.  0.
        -11    1    3    3    0    0  0.20975846333E+01  0.97782770009E+01 -0.21859389894E+02  0.24038458545E+02  0.51100000000E-03 0. -1.
         11    1    3    3    0    0 -0.20975846333E+01 -0.97782770009E+01 -0.21929499686E+02  0.24102230585E+02  0.51100000000E-03 0.  1.
<mgrwt>
<rscale>  0 0.20001477E+02</rscale>
<asrwt>0</asrwt>
<pdfrwt beam="2">  1        1 0.70715053E-02 0.20001477E+02</pdfrwt>
<pdfrwt beam="1">  1       -1 0.33475384E-03 0.20001477E+02</pdfrwt>
<totfact> 0.41468702E+06</totfact>
</mgrwt>
</event>
<event>
 5    1  0.9583198E-007  0.2000282E+02  0.7818608E-02  0.1745272E+00
         -1   -1    0    0    0  501 -0.00000000000E+00  0.00000000000E+00  0.47977850498E+01  0.47977873226E+01  0.46700000000E-02 0.  1.
          1   -1    0    0  501    0  0.00000000000E+00 -0.00000000000E+00 -0.20848823236E+02  0.20848823759E+02  0.46700000000E-02 0. -1.
       1023    2    1    2    0    0  0.00000000000E+00  0.00000000000E+00 -0.16051038186E+02  0.25646611082E+02  0.20002820629E+02 0.  0.
        -11    1    3    3    0    0 -0.64475742485E+01  0.76448656950E+01 -0.78792032025E+01  0.12731733132E+02  0.51100000000E-03 0.  1.
         11    1    3    3    0    0  0.64475742485E+01 -0.76448656950E+01 -0.81718349836E+01  0.12914877949E+02  0.51100000000E-03 0. -1.
<mgrwt>
<rscale>  0 0.20002821E+02</rscale>
<asrwt>0</asrwt>
<pdfrwt beam="2">  1        1 0.32075114E-02 0.20002821E+02</pdfrwt>
<pdfrwt beam="1">  1       -1 0.73812100E-03 0.20002821E+02</pdfrwt>
<totfact> 0.39763614E+06</totfact>
</mgrwt>
</event>
<event>
 5    1  0.9583198E-007  0.2000054E+02  0.7818608E-02  0.1745317E+00
         -1   -1    0    0    0  501 -0.00000000000E+00  0.00000000000E+00  0.47726293255E+01  0.47726316103E+01  0.46700000000E-02 0.  1.
          1   -1    0    0  501    0  0.00000000000E+00 -0.00000000000E+00 -0.20953934008E+02  0.20953934528E+02  0.46700000000E-02 0. -1.
       1023    2    1    2    0    0  0.00000000000E+00  0.00000000000E+00 -0.16181304683E+02  0.25726566139E+02  0.20000539594E+02 0.  0.
        -11    1    3    3    0    0  0.49788496729E+01 -0.86726944840E+01 -0.80537718767E+01  0.12840086268E+02  0.51100000000E-03 0. -1.
         11    1    3    3    0    0 -0.49788496729E+01  0.86726944840E+01 -0.81275328058E+01  0.12886479870E+02  0.51100000000E-03 0.  1.
<mgrwt>
<rscale>  0 0.20000540E+02</rscale>
<asrwt>0</asrwt>
<pdfrwt beam="2">  1        1 0.32236823E-02 0.20000540E+02</pdfrwt>
<pdfrwt beam="1">  1       -1 0.73425089E-03 0.20000540E+02</pdfrwt>
<totfact> 0.39782366E+06</totfact>
</mgrwt>
</event>
<event>
 5    1  0.9603115E-007  0.2000160E+02  0.7818608E-02  0.1745296E+00
         -1   -1    0    0    0  501 -0.00000000000E+00  0.00000000000E+00  0.83525881967E+01  0.83525895022E+01  0.46700000000E-02 0. -1.
          1   -1    0    0  501    0  0.00000000000E+00 -0.00000000000E+00 -0.11974245125E+02  0.11974246036E+02  0.46700000000E-02 0.  1.
       1023    2    1    2    0    0  0.00000000000E+00  0.00000000000E+00 -0.36216569288E+01  0.20326835538E+02  0.20001596039E+02 0.  0.
        -11    1    3    3    0    0 -0.89748296573E+01  0.44121941183E+01 -0.17797294401E+01  0.10157876818E+02  0.51100000000E-03 0.  1.
         11    1    3    3    0    0  0.89748296573E+01 -0.44121941183E+01 -0.18419274886E+01  0.10168958720E+02  0.51100000000E-03 0. -1.
<mgrwt>
<rscale>  0 0.20001596E+02</rscale>
<asrwt>0</asrwt>
<pdfrwt beam="2">  1        1 0.18421917E-02 0.20001596E+02</pdfrwt>
<pdfrwt beam="1">  1       -1 0.12850137E-02 0.20001596E+02</pdfrwt>
<totfact> 0.38893160E+06</totfact>
</mgrwt>
</event>
<event>
 5    1  0.9583198E-007  0.2000126E+02  0.7818608E-02  0.1745303E+00
          1   -1    0    0  501    0  0.00000000000E+00  0.00000000000E+00  0.10554619822E+02  0.10554620855E+02  0.46700000000E-02 0.  1.
         -1   -1    0    0    0  501 -0.00000000000E+00 -0.00000000000E+00 -0.94757169737E+01  0.94757181245E+01  0.46700000000E-02 0. -1.
       1023    2    1    2    0    0  0.00000000000E+00  0.00000000000E+00  0.10789028483E+01  0.20030338980E+02  0.20001261167E+02 0.  0.
        -11    1    3    3    0    0 -0.24834028502E+01  0.96870107018E+01  0.62410688816E+00  0.10019729324E+02  0.51100000000E-03 0. -1.
         11    1    3    3    0    0  0.24834028502E+01 -0.96870107018E+01  0.45479596012E+00  0.10010609656E+02  0.51100000000E-03 0.  1.
<mgrwt>
<rscale>  0 0.20001261E+02</rscale>
<asrwt>0</asrwt>
<pdfrwt beam="1">  1        1 0.16237878E-02 0.20001261E+02</pdfrwt>
<pdfrwt beam="2">  1       -1 0.14578028E-02 0.20001261E+02</pdfrwt>
<totfact> 0.38701752E+06</totfact>
</mgrwt>
</event>
<event>
 4    1  0.9583198E-007  0.2002705E+02  0.7818608E-02  0.1744791E+00
          1   -1    0    0  501    0  0.00000000000E+00  0.00000000000E+00  0.62907300877E+02  0.62907301050E+02  0.46700000000E-02 0.  1.
         -1   -1    0    0    0  501 -0.00000000000E+00 -0.00000000000E+00 -0.15939392033E+01  0.15939460445E+01  0.46700000000E-02 0. -1.
        -11    1    1    2    0    0 -0.73978310345E+01 -0.67346440695E+01  0.29262801961E+02  0.30925635218E+02  0.51100000000E-03 0.  1.
         11    1    1    2    0    0  0.73978310345E+01  0.67346440695E+01  0.32050559713E+02  0.33575611877E+02  0.51100000000E-03 0. -1.
<mgrwt>
<rscale>  0 0.20027046E+02</rscale>
<asrwt>0</asrwt>
<pdfrwt beam="1">  1        1 0.96780470E-02 0.20027046E+02</pdfrwt>
<pdfrwt beam="2">  1       -1 0.24522195E-03 0.20027046E+02</pdfrwt>
<totfact> 0.42321097E+06</totfact>
</mgrwt>
</event>
<event>
 5    1  0.9583198E-007  0.2000021E+02  0.7818608E-02  0.1745324E+00
          1   -1    0    0  501    0  0.00000000000E+00  0.00000000000E+00  0.12716836211E+01  0.12716921959E+01  0.46700000000E-02 0. -1.
         -1   -1    0    0    0  501 -0.00000000000E+00 -0.00000000000E+00 -0.78637284299E+02  0.78637284437E+02  0.46700000000E-02 0.  1.
       1023    2    1    2    0    0  0.00000000000E+00  0.00000000000E+00 -0.77365600677E+02  0.79908976633E+02  0.20000209458E+02 0.  0.
        -11    1    3    3    0    0 -0.96925915079E+01 -0.24608419653E+01 -0.38664483614E+02  0.39936754585E+02  0.51100000000E-03 0. -1.
         11    1    3    3    0    0  0.96925915079E+01  0.24608419653E+01 -0.38701117063E+02  0.39972222049E+02  0.51100000000E-03 0.  1.
<mgrwt>
<rscale>  0 0.20000209E+02</rscale>
<asrwt>0</asrwt>
<pdfrwt beam="1">  1        1 0.19564437E-03 0.20000209E+02</pdfrwt>
<pdfrwt beam="2">  1       -1 0.12098041E-01 0.20000209E+02</pdfrwt>
<totfact> 0.33073457E+06</totfact>
</mgrwt>
</event>
<event>
 5    1  0.9583198E-007  0.2000035E+02  0.7818608E-02  0.1745321E+00
          1   -1    0    0  501    0  0.00000000000E+00  0.00000000000E+00  0.13662930729E+01  0.13663010540E+01  0.46700000000E-02 0. -1.
         -1   -1    0    0    0  501 -0.00000000000E+00 -0.00000000000E+00 -0.73193063315E+02  0.73193063464E+02  0.46700000000E-02 0.  1.
       1023    2    1    2    0    0  0.00000000000E+00  0.00000000000E+00 -0.71826770242E+02  0.74559364518E+02  0.20000347845E+02 0.  0.
        -11    1    3    3    0    0  0.74583634018E+01  0.66613842042E+01 -0.36090374946E+02  0.37450185423E+02  0.51100000000E-03 0.  1.
         11    1    3    3    0    0 -0.74583634018E+01 -0.66613842042E+01 -0.35736395296E+02  0.37109179096E+02  0.51100000000E-03 0. -1.
<mgrwt>
<rscale>  0 0.20000348E+02</rscale>
<asrwt>0</asrwt>
<pdfrwt beam="1">  1        1 0.21019962E-03 0.20000348E+02</pdfrwt>
<pdfrwt beam="2">  1       -1 0.11260469E-01 0.20000348E+02</pdfrwt>
<totfact> 0.33401738E+06</totfact>
</mgrwt>
</event>
<event>
 5    1  0.9583198E-007  0.2000030E+02  0.7818608E-02  0.1745322E+00
         -1   -1    0    0    0  501 -0.00000000000E+00  0.00000000000E+00  0.34503988583E+02  0.34503988899E+02  0.46700000000E-02 0.  1.
          1   -1    0    0  501    0  0.00000000000E+00 -0.00000000000E+00 -0.28982997040E+01  0.28983034664E+01  0.46700000000E-02 0. -1.
       1023    2    1    2    0    0  0.00000000000E+00  0.00000000000E+00  0.31605688879E+02  0.37402292365E+02  0.20000297615E+02 0.  0.
        -11    1    3    3    0    0 -0.30920193674E+01  0.95100869916E+01  0.15850063681E+02  0.18741047391E+02  0.51100000000E-03 0. -1.
         11    1    3    3    0    0  0.30920193674E+01 -0.95100869916E+01  0.15755625198E+02  0.18661244974E+02  0.51100000000E-03 0.  1.
<mgrwt>
<rscale>  0 0.20000298E+02</rscale>
<asrwt>0</asrwt>
<pdfrwt beam="2">  1        1 0.44589258E-03 0.20000298E+02</pdfrwt>
<pdfrwt beam="1">  1       -1 0.53083062E-02 0.20000298E+02</pdfrwt>
<totfact> 0.36106980E+06</totfact>
</mgrwt>
</event>
<event>
 5    1  0.9873283E-007  0.2000171E+02  0.7818608E-02  0.1745294E+00
          1   -1    0    0  501    0  0.00000000000E+00  0.00000000000E+00  0.17439654347E+02  0.17439654972E+02  0.46700000000E-02 0. -1.
         -1   -1    0    0    0  501 -0.00000000000E+00 -0.00000000000E+00 -0.57350375456E+01  0.57350394469E+01  0.46700000000E-02 0.  1.
       1023    2    1    2    0    0  0.00000000000E+00  0.00000000000E+00  0.11704616801E+02  0.23174694419E+02  0.20001710101E+02 0.  0.
        -11    1    3    3    0    0 -0.55750019591E+01 -0.83021508689E+01  0.57322031866E+01  0.11526686841E+02  0.51100000000E-03 0. -1.
         11    1    3    3    0    0  0.55750019591E+01  0.83021508689E+01  0.59724136147E+01  0.11648007578E+02  0.51100000000E-03 0.  1.
<mgrwt>
<rscale>  0 0.20001710E+02</rscale>
<asrwt>0</asrwt>
<pdfrwt beam="1">  1        1 0.26830239E-02 0.20001710E+02</pdfrwt>
<pdfrwt beam="2">  1       -1 0.88231366E-03 0.20001710E+02</pdfrwt>
<totfact> 0.39473977E+06</totfact>
</mgrwt>
</event>
<event>
 5    1  0.9617831E-007  0.2000112E+02  0.7818608E-02  0.1745306E+00
          1   -1    0    0  501    0  0.00000000000E+00  0.00000000000E+00  0.11928145653E+02  0.11928146567E+02  0.46700000000E-02 0. -1.
         -1   -1    0    0    0  501 -0.00000000000E+00 -0.00000000000E+00 -0.83844725839E+01  0.83844738844E+01  0.46700000000E-02 0.  1.
       1023    2    1    2    0    0  0.00000000000E+00  0.00000000000E+00  0.35436730690E+01  0.20312620451E+02  0.20001123238E+02 0.  0.
        -11    1    3    3    0    0  0.35993678055E+01  0.93300845259E+01  0.18458172883E+01  0.10169216665E+02  0.51100000000E-03 0. -1.
         11    1    3    3    0    0 -0.35993678055E+01 -0.93300845259E+01  0.16978557808E+01  0.10143403786E+02  0.51100000000E-03 0.  1.
<mgrwt>
<rscale>  0 0.20001123E+02</rscale>
<asrwt>0</asrwt>
<pdfrwt beam="1">  1        1 0.18350995E-02 0.20001123E+02</pdfrwt>
<pdfrwt beam="2">  1       -1 0.12899190E-02 0.20001123E+02</pdfrwt>
<totfact> 0.38889363E+06</totfact>
</mgrwt>
</event>
<event>
 5    1  0.9583198E-007  0.2000266E+02  0.7818608E-02  0.1745275E+00
          1   -1    0    0  501    0  0.00000000000E+00  0.00000000000E+00  0.14391172333E+02  0.14391173091E+02  0.46700000000E-02 0.  1.
         -1   -1    0    0    0  501 -0.00000000000E+00 -0.00000000000E+00 -0.69505531494E+01  0.69505547183E+01  0.46700000000E-02 0. -1.
       1023    2    1    2    0    0  0.00000000000E+00  0.00000000000E+00  0.74406191837E+01  0.21341727809E+02  0.20002663124E+02 0.  0.
        -11    1    3    3    0    0 -0.62125539972E+01 -0.78376114085E+01  0.36653542894E+01  0.10651704187E+02  0.51100000000E-03 0.  1.
         11    1    3    3    0    0  0.62125539972E+01  0.78376114085E+01  0.37752648943E+01  0.10690023622E+02  0.51100000000E-03 0. -1.
<mgrwt>
<rscale>  0 0.20002663E+02</rscale>
<asrwt>0</asrwt>
<pdfrwt beam="1">  1        1 0.22140266E-02 0.20002663E+02</pdfrwt>
<pdfrwt beam="2">  1       -1 0.10693161E-02 0.20002663E+02</pdfrwt>
<totfact> 0.39169024E+06</totfact>
</mgrwt>
</event>
<event>
 5    1  0.9583198E-007  0.2000112E+02  0.7818608E-02  0.1745306E+00
          1   -1    0    0  501    0  0.00000000000E+00  0.00000000000E+00  0.46714078195E+01  0.46714101538E+01  0.46700000000E-02 0.  1.
         -1   -1    0    0    0  501 -0.00000000000E+00 -0.00000000000E+00 -0.21409203084E+02  0.21409203593E+02  0.46700000000E-02 0. -1.
       1023    2    1    2    0    0  0.00000000000E+00  0.00000000000E+00 -0.16737795264E+02  0.26080613747E+02  0.20001115547E+02 0.  0.
        -11    1    3    3    0    0 -0.81494944445E+01  0.57958138522E+01 -0.84650516665E+01  0.13102015795E+02  0.51100000000E-03 0.  1.
         11    1    3    3    0    0  0.81494944445E+01 -0.57958138522E+01 -0.82727435980E+01  0.12978597952E+02  0.51100000000E-03 0. -1.
<mgrwt>
<rscale>  0 0.20001116E+02</rscale>
<asrwt>0</asrwt>
<pdfrwt beam="1">  1        1 0.71867835E-03 0.20001116E+02</pdfrwt>
<pdfrwt beam="2">  1       -1 0.32937237E-02 0.20001116E+02</pdfrwt>
<totfact> 0.37270985E+06</totfact>
</mgrwt>
</event>
<event>
 5    1  0.9890460E-007  0.2000075E+02  0.7818608E-02  0.1745313E+00
          1   -1    0    0  501    0  0.00000000000E+00  0.00000000000E+00  0.70270983883E+01  0.70270999401E+01  0.46700000000E-02 0. -1.
         -1   -1    0    0    0  501 -0.00000000000E+00 -0.00000000000E+00 -0.14231691249E+02  0.14231692015E+02  0.46700000000E-02 0.  1.
       1023    2    1    2    0    0  0.00000000000E+00  0.00000000000E+00 -0.72045928607E+01  0.21258791955E+02  0.20000751914E+02 0.  0.
        -11    1    3    3    0    0  0.58405588803E+00 -0.99832105117E+01 -0.35558973056E+01  0.10613671340E+02  0.51100000000E-03 0. -1.
         11    1    3    3    0    0 -0.58405588803E+00  0.99832105117E+01 -0.36486955550E+01  0.10645120615E+02  0.51100000000E-03 0.  1.
<mgrwt>
<rscale>  0 0.20000752E+02</rscale>
<asrwt>0</asrwt>
<pdfrwt beam="1">  1        1 0.10810922E-02 0.20000752E+02</pdfrwt>
<pdfrwt beam="2">  1       -1 0.21894911E-02 0.20000752E+02</pdfrwt>
<totfact> 0.38048243E+06</totfact>
</mgrwt>
</event>
<event>
 5    1  0.9583198E-007  0.2000024E+02  0.7818608E-02  0.1745323E+00
          1   -1    0    0  501    0  0.00000000000E+00  0.00000000000E+00  0.38342468401E+02  0.38342468685E+02  0.46700000000E-02 0. -1.
         -1   -1    0    0    0  501 -0.00000000000E+00 -0.00000000000E+00 -0.26081352013E+01  0.26081393823E+01  0.46700000000E-02 0.  1.
       1023    2    1    2    0    0  0.00000000000E+00  0.00000000000E+00  0.35734333199E+02  0.40950608067E+02  0.20000243296E+02 0.  0.
        -11    1    3    3    0    0  0.13975815790E+01  0.99019788484E+01  0.17859692066E+02  0.20468781604E+02  0.51100000000E-03 0.  1.
         11    1    3    3    0    0 -0.13975815790E+01 -0.99019788484E+01  0.17874641133E+02  0.20481826464E+02  0.51100000000E-03 0. -1.
<mgrwt>
<rscale>  0 0.20000243E+02</rscale>
<asrwt>0</asrwt>
<pdfrwt beam="1">  1        1 0.58988414E-02 0.20000243E+02</pdfrwt>
<pdfrwt beam="2">  1       -1 0.40125193E-03 0.20000243E+02</pdfrwt>
<totfact> 0.41004978E+06</totfact>
</mgrwt>
</event>
<event>
 4    1  0.9583198E-007  0.2015311E+02  0.7818608E-02  0.1742300E+00
          1   -1    0    0  501    0  0.00000000000E+00  0.00000000000E+00  0.62129409517E+02  0.62129409692E+02  0.46700000000E-02 0.  1.
         -1   -1    0    0    0  501 -0.00000000000E+00 -0.00000000000E+00 -0.16342775315E+01  0.16342842038E+01  0.46700000000E-02 0. -1.
        -11    1    1    2    0    0 -0.56035404176E+01 -0.83612153206E+01  0.28739018009E+02  0.30450627961E+02  0.51100000000E-03 0.  1.
         11    1    1    2    0    0  0.56035404176E+01  0.83612153206E+01  0.31756113976E+02  0.33313065935E+02  0.51100000000E-03 0. -1.
<mgrwt>
<rscale>  0 0.20153106E+02</rscale>
<asrwt>0</asrwt>
<pdfrwt beam="1">  1        1 0.95583708E-02 0.20153106E+02</pdfrwt>
<pdfrwt beam="2">  1       -1 0.25142785E-03 0.20153106E+02</pdfrwt>
<totfact> 0.41693593E+06</totfact>
</mgrwt>
</event>
<event>
 5    1  0.9583198E-007  0.2000093E+02  0.7818608E-02  0.1745310E+00
         -1   -1    0    0    0  501 -0.00000000000E+00  0.00000000000E+00  0.49772549472E+02  0.49772549691E+02  0.46700000000E-02 0.  1.
          1   -1    0    0  501    0  0.00000000000E+00 -0.00000000000E+00 -0.20093227949E+01  0.20093282218E+01  0.46700000000E-02 0. -1.
       1023    2    1    2    0    0  0.00000000000E+00  0.00000000000E+00  0.47763226677E+02  0.51781877913E+02  0.20000926418E+02 0.  0.
        -11    1    3    3    0    0  0.45160256415E+01 -0.89224686636E+01  0.23711261940E+02  0.25733808068E+02  0.51100000000E-03 0. -1.
         11    1    3    3    0    0 -0.45160256415E+01  0.89224686636E+01  0.24051964738E+02  0.26048069845E+02  0.51100000000E-03 0.  1.
<mgrwt>
<rscale>  0 0.20000926E+02</rscale>
<asrwt>0</asrwt>
<pdfrwt beam="2">  1        1 0.30912703E-03 0.20000926E+02</pdfrwt>
<pdfrwt beam="1">  1       -1 0.76573155E-02 0.20000926E+02</pdfrwt>
<totfact> 0.34942250E+06</totfact>
</mgrwt>
</event>
<event>
 5    1  0.9583198E-007  0.2000046E+02  0.7818608E-02  0.1745319E+00
          1   -1    0    0  501    0  0.00000000000E+00  0.00000000000E+00  0.21479768479E+02  0.21479768986E+02  0.46700000000E-02 0. -1.
         -1   -1    0    0    0  501 -0.00000000000E+00 -0.00000000000E+00 -0.46557580959E+01  0.46557604380E+01  0.46700000000E-02 0.  1.
       1023    2    1    2    0    0  0.00000000000E+00  0.00000000000E+00  0.16824010383E+02  0.26135529424E+02  0.20000464318E+02 0.  0.
        -11    1    3    3    0    0 -0.94644078520E+01 -0.32294204248E+01  0.83836544318E+01  0.13049514710E+02  0.51100000000E-03 0.  1.
         11    1    3    3    0    0  0.94644078520E+01  0.32294204248E+01  0.84403559509E+01  0.13086014714E+02  0.51100000000E-03 0. -1.
<mgrwt>
<rscale>  0 0.20000464E+02</rscale>
<asrwt>0</asrwt>
<pdfrwt beam="1">  1        1 0.33045799E-02 0.20000464E+02</pdfrwt>
<pdfrwt beam="2">  1       -1 0.71627071E-03 0.20000464E+02</pdfrwt>
<totfact> 0.39825290E+06</totfact>
</mgrwt>
</event>
<event>
 5    1  0.9619705E-007  0.2000110E+02  0.7818608E-02  0.1745306E+00
         -1   -1    0    0    0  501 -0.00000000000E+00  0.00000000000E+00  0.13011425039E+02  0.13011425877E+02  0.46700000000E-02 0.  1.
          1   -1    0    0  501    0  0.00000000000E+00 -0.00000000000E+00 -0.76863972697E+01  0.76863986884E+01  0.46700000000E-02 0. -1.
       1023    2    1    2    0    0  0.00000000000E+00  0.00000000000E+00  0.53250277690E+01  0.20697824565E+02  0.20001100494E+02 0.  0.
        -11    1    3    3    0    0 -0.82853138132E+00 -0.99661694511E+01  0.26597353527E+01  0.10348197437E+02  0.51100000000E-03 0. -1.
         11    1    3    3    0    0  0.82853138132E+00  0.99661694511E+01  0.26652924163E+01  0.10349627129E+02  0.51100000000E-03 0.  1.
<mgrwt>
<rscale>  0 0.20001100E+02</rscale>
<asrwt>0</asrwt>
<pdfrwt beam="2">  1        1 0.11825228E-02 0.20001100E+02</pdfrwt>
<pdfrwt beam="1">  1       -1 0.20017579E-02 0.20001100E+02</pdfrwt>
<totfact> 0.38198511E+06</totfact>
</mgrwt>
</event>
<event>
 5    1  0.9583198E-007  0.2000122E+02  0.7818608E-02  0.1745304E+00
          1   -1    0    0  501    0  0.00000000000E+00  0.00000000000E+00  0.12456308286E+02  0.12456309161E+02  0.46700000000E-02 0. -1.
         -1   -1    0    0    0  501 -0.00000000000E+00 -0.00000000000E+00 -0.80290352536E+01  0.80290366117E+01  0.46700000000E-02 0.  1.
       1023    2    1    2    0    0  0.00000000000E+00  0.00000000000E+00  0.44272730324E+01  0.20485345773E+02  0.20001216087E+02 0.  0.
        -11    1    3    3    0    0 -0.15509365253E+01  0.98795449607E+01  0.22512436576E+01  0.10250800505E+02  0.51100000000E-03 0. -1.
         11    1    3    3    0    0  0.15509365253E+01 -0.98795449607E+01  0.21760293748E+01  0.10234545268E+02  0.51100000000E-03 0.  1.
<mgrwt>
<rscale>  0 0.20001216E+02</rscale>
<asrwt>0</asrwt>
<pdfrwt beam="1">  1        1 0.19163553E-02 0.20001216E+02</pdfrwt>
<pdfrwt beam="2">  1       -1 0.12352364E-02 0.20001216E+02</pdfrwt>
<totfact> 0.38954927E+06</totfact>
</mgrwt>
</event>
<event>
 5    1  0.9583198E-007  0.2000020E+02  0.7818608E-02  0.1745324E+00
         -1   -1    0    0    0  501 -0.00000000000E+00  0.00000000000E+00  0.21382156402E+01  0.21382207399E+01  0.46700000000E-02 0.  1.
          1   -1    0    0  501    0  0.00000000000E+00 -0.00000000000E+00 -0.46768822527E+02  0.46768822760E+02  0.46700000000E-02 0. -1.
       1023    2    1    2    0    0  0.00000000000E+00  0.00000000000E+00 -0.44630606887E+02  0.48907043500E+02  0.20000195820E+02 0.  0.
        -11    1    3    3    0    0  0.66975250502E+01 -0.74258795222E+01 -0.22222849670E+02  0.24369152143E+02  0.51100000000E-03 0.  1.
         11    1    3    3    0    0 -0.66975250502E+01  0.74258795222E+01 -0.22407757217E+02  0.24537891357E+02  0.51100000000E-03 0. -1.
<mgrwt>
<rscale>  0 0.20000196E+02</rscale>
<asrwt>0</asrwt>
<pdfrwt beam="2">  1        1 0.71952031E-02 0.20000196E+02</pdfrwt>
<pdfrwt beam="1">  1       -1 0.32895670E-03 0.20000196E+02</pdfrwt>
<totfact> 0.41522750E+06</totfact>
</mgrwt>
</event>
<event>
 5    1  0.9583198E-007  0.2001120E+02  0.7818608E-02  0.1745105E+00
         -1   -1    0    0    0  501 -0.00000000000E+00  0.00000000000E+00  0.11036143214E+02  0.11036144202E+02  0.46700000000E-02 0.  1.
          1   -1    0    0  501    0  0.00000000000E+00 -0.00000000000E+00 -0.90712835859E+01  0.90712847880E+01  0.46700000000E-02 0. -1.
       1023    2    1    2    0    0  0.00000000000E+00  0.00000000000E+00  0.19648596277E+01  0.20107428990E+02  0.20011197546E+02 0.  0.
        -11    1    3    3    0    0  0.38778069776E+01  0.92227820698E+01  0.85973412797E+00  0.10041724906E+02  0.51100000000E-03 0. -1.
         11    1    3    3    0    0 -0.38778069776E+01 -0.92227820698E+01  0.11051254997E+01  0.10065704083E+02  0.51100000000E-03 0.  1.
<mgrwt>
<rscale>  0 0.20011198E+02</rscale>
<asrwt>0</asrwt>
<pdfrwt beam="2">  1        1 0.13955823E-02 0.20011198E+02</pdfrwt>
<pdfrwt beam="1">  1       -1 0.16978684E-02 0.20011198E+02</pdfrwt>
<totfact> 0.38422676E+06</totfact>
</mgrwt>
</event>
<event>
 5    1  0.9583198E-007  0.2000057E+02  0.7818608E-02  0.1745317E+00
         -1   -1    0    0    0  501 -0.00000000000E+00  0.00000000000E+00  0.21398877358E+02  0.21398877868E+02  0.46700000000E-02 0. -1.
          1   -1    0    0  501    0  0.00000000000E+00 -0.00000000000E+00 -0.46734083944E+01  0.46734107277E+01  0.46700000000E-02 0.  1.
       1023    2    1    2    0    0  0.00000000000E+00  0.00000000000E+00  0.16725468964E+02  0.26072288596E+02  0.20000573005E+02 0.  0.
        -11    1    3    3    0    0  0.99870929491E+01 -0.50973617452E+00  0.84438640546E+01  0.13088189217E+02  0.51100000000E-03 0.  1.
         11    1    3    3    0    0 -0.99870929491E+01  0.50973617452E+00  0.82816049092E+01  0.12984099379E+02  0.51100000000E-03 0. -1.
<mgrwt>
<rscale>  0 0.20000573E+02</rscale>
<asrwt>0</asrwt>
<pdfrwt beam="2">  1        1 0.71898612E-03 0.20000573E+02</pdfrwt>
<pdfrwt beam="1">  1       -1 0.32921352E-02 0.20000573E+02</pdfrwt>
<totfact> 0.37274227E+06</totfact>
</mgrwt>
</event>
<event>
 5    1  0.9583198E-007  0.2000530E+02  0.7818608E-02  0.1745223E+00
         -1   -1    0    0    0  501 -0.00000000000E+00  0.00000000000E+00  0.43952169519E+02  0.43952169767E+02  0.46700000000E-02 0.  1.
          1   -1    0    0  501    0  0.00000000000E+00 -0.00000000000E+00 -0.22764037852E+01  0.22764085754E+01  0.46700000000E-02 0. -1.
       1023    2    1    2    0    0  0.00000000000E+00  0.00000000000E+00  0.41675765734E+02  0.46228578343E+02  0.20005299450E+02 0.  0.
        -11    1    3    3    0    0  0.74905499342E+01 -0.66280089171E+01  0.21112867467E+02  0.23362191966E+02  0.51100000000E-03 0. -1.
         11    1    3    3    0    0 -0.74905499342E+01  0.66280089171E+01  0.20562898267E+02  0.22866386377E+02  0.51100000000E-03 0.  1.
<mgrwt>
<rscale>  0 0.20005299E+02</rscale>
<asrwt>0</asrwt>
<pdfrwt beam="2">  1        1 0.35021635E-03 0.20005299E+02</pdfrwt>
<pdfrwt beam="1">  1       -1 0.67618726E-02 0.20005299E+02</pdfrwt>
<totfact> 0.35349912E+06</totfact>
</mgrwt>
</event>
<event>
 5    1  0.9583198E-007  0.2000047E+02  0.7818608E-02  0.1745319E+00
          1   -1    0    0  501    0  0.00000000000E+00  0.00000000000E+00  0.47448577643E+02  0.47448577872E+02  0.46700000000E-02 0.  1.
         -1   -1    0    0    0  501 -0.00000000000E+00 -0.00000000000E+00 -0.21076406726E+01  0.21076458463E+01  0.46700000000E-02 0. -1.
       1023    2    1    2    0    0  0.00000000000E+00  0.00000000000E+00  0.45340936970E+02  0.49556223719E+02  0.20000468593E+02 0.  0.
        -11    1    3    3    0    0 -0.11186330963E+01  0.99374673743E+01  0.22693699394E+02  0.24799366731E+02  0.51100000000E-03 0.  1.
         11    1    3    3    0    0  0.11186330963E+01 -0.99374673743E+01  0.22647237576E+02  0.24756856988E+02  0.51100000000E-03 0. -1.
<mgrwt>
<rscale>  0 0.20000469E+02</rscale>
<asrwt>0</asrwt>
<pdfrwt beam="1">  1        1 0.72997812E-02 0.20000469E+02</pdfrwt>
<pdfrwt beam="2">  1       -1 0.32425284E-03 0.20000469E+02</pdfrwt>
<totfact> 0.41562005E+06</totfact>
</mgrwt>
</event>
<event>
 5    1  0.9583198E-007  0.2000031E+02  0.7818608E-02  0.1745322E+00
         -1   -1    0    0    0  501 -0.00000000000E+00  0.00000000000E+00  0.14340592563E+01  0.14340668601E+01  0.46700000000E-02 0.  1.
          1   -1    0    0  501    0  0.00000000000E+00 -0.00000000000E+00 -0.69734084192E+02  0.69734084349E+02  0.46700000000E-02 0. -1.
       1023    2    1    2    0    0  0.00000000000E+00  0.00000000000E+00 -0.68300024936E+02  0.71168151209E+02  0.20000308503E+02 0.  0.
        -11    1    3    3    0    0  0.81666807023E+01 -0.57713412183E+01 -0.34170028671E+02  0.35603285140E+02  0.51100000000E-03 0. -1.
         11    1    3    3    0    0 -0.81666807023E+01  0.57713412183E+01 -0.34129996265E+02  0.35564866069E+02  0.51100000000E-03 0.  1.
<mgrwt>
<rscale>  0 0.20000309E+02</rscale>
<asrwt>0</asrwt>
<pdfrwt beam="2">  1        1 0.10728319E-01 0.20000309E+02</pdfrwt>
<pdfrwt beam="1">  1       -1 0.22062515E-03 0.20000309E+02</pdfrwt>
<totfact> 0.42818152E+06</totfact>
</mgrwt>
</event>
<event>
 5    1  0.9583198E-007  0.2000043E+02  0.7818608E-02  0.1745320E+00
         -1   -1    0    0    0  501 -0.00000000000E+00  0.00000000000E+00  0.12170391889E+01  0.12170481487E+01  0.46700000000E-02 0.  1.
          1   -1    0    0  501    0  0.00000000000E+00 -0.00000000000E+00 -0.82169842651E+02  0.82169842783E+02  0.46700000000E-02 0. -1.
       1023    2    1    2    0    0  0.00000000000E+00  0.00000000000E+00 -0.80952803462E+02  0.83386890932E+02  0.20000429770E+02 0.  0.
        -11    1    3    3    0    0 -0.31962295360E+01  0.94755436967E+01 -0.40268528076E+02  0.41491639703E+02  0.51100000000E-03 0. -1.
         11    1    3    3    0    0  0.31962295360E+01 -0.94755436967E+01 -0.40684275386E+02  0.41895251229E+02  0.51100000000E-03 0.  1.
<mgrwt>
<rscale>  0 0.20000430E+02</rscale>
<asrwt>0</asrwt>
<pdfrwt beam="2">  1        1 0.12641511E-01 0.20000430E+02</pdfrwt>
<pdfrwt beam="1">  1       -1 0.18723756E-03 0.20000430E+02</pdfrwt>
<totfact> 0.43468902E+06</totfact>
</mgrwt>
</event>
<event>
 5    1  0.9583198E-007  0.2000095E+02  0.7818608E-02  0.1745309E+00
          1   -1    0    0  501    0  0.00000000000E+00  0.00000000000E+00  0.17368538682E+01  0.17368601465E+01  0.46700000000E-02 0.  1.
         -1   -1    0    0    0  501 -0.00000000000E+00 -0.00000000000E+00 -0.57580730932E+02  0.57580731121E+02  0.46700000000E-02 0. -1.
       1023    2    1    2    0    0  0.00000000000E+00  0.00000000000E+00 -0.55843877064E+02  0.59317591268E+02  0.20000950685E+02 0.  0.
        -11    1    3    3    0    0  0.55671324152E+01  0.83072125703E+01 -0.28165829733E+02  0.29888404254E+02  0.51100000000E-03 0. -1.
         11    1    3    3    0    0 -0.55671324152E+01 -0.83072125703E+01 -0.27678047330E+02  0.29429187014E+02  0.51100000000E-03 0.  1.
<mgrwt>
<rscale>  0 0.20000951E+02</rscale>
<asrwt>0</asrwt>
<pdfrwt beam="1">  1        1 0.26720883E-03 0.20000951E+02</pdfrwt>
<pdfrwt beam="2">  1       -1 0.88585730E-02 0.20000951E+02</pdfrwt>
<totfact> 0.34401331E+06</totfact>
</mgrwt>
</event>
<event>
 5    1  0.9827949E-007  0.2000079E+02  0.7818608E-02  0.1745312E+00
         -1   -1    0    0    0  501 -0.00000000000E+00  0.00000000000E+00  0.50371946099E+01  0.50371967747E+01  0.46700000000E-02 0. -1.
          1   -1    0    0  501    0  0.00000000000E+00 -0.00000000000E+00 -0.19853877470E+02  0.19853878019E+02  0.46700000000E-02 0.  1.
       1023    2    1    2    0    0  0.00000000000E+00  0.00000000000E+00 -0.14816682860E+02  0.24891074794E+02  0.20000787820E+02 0.  0.
        -11    1    3    3    0    0  0.82144239076E+01 -0.57034958013E+01 -0.73642781828E+01  0.12419308270E+02  0.51100000000E-03 0. -1.
         11    1    3    3    0    0 -0.82144239076E+01  0.57034958013E+01 -0.74524046771E+01  0.12471766524E+02  0.51100000000E-03 0.  1.
<mgrwt>
<rscale>  0 0.20000788E+02</rscale>
<asrwt>0</asrwt>
<pdfrwt beam="2">  1        1 0.30544428E-02 0.20000788E+02</pdfrwt>
<pdfrwt beam="1">  1       -1 0.77495324E-03 0.20000788E+02</pdfrwt>
<totfact> 0.39690118E+06</totfact>
</mgrwt>
</event>
<event>
 5    1  0.9583198E-007  0.2000202E+02  0.7818608E-02  0.1745288E+00
          1   -1    0    0  501    0  0.00000000000E+00  0.00000000000E+00  0.53824128663E+01  0.53824148923E+01  0.46700000000E-02 0.  1.
         -1   -1    0    0    0  501 -0.00000000000E+00 -0.00000000000E+00 -0.18582783900E+02  0.18582784486E+02  0.46700000000E-02 0. -1.
       1023    2    1    2    0    0  0.00000000000E+00  0.00000000000E+00 -0.13200371033E+02  0.23965199379E+02  0.20002024544E+02 0.  0.
        -11    1    3    3    0    0  0.46634184511E+01  0.88468345675E+01 -0.66952296042E+01  0.12034951318E+02  0.51100000000E-03 0. -1.
         11    1    3    3    0    0 -0.46634184511E+01 -0.88468345675E+01 -0.65051414291E+01  0.11930248061E+02  0.51100000000E-03 0.  1.
<mgrwt>
<rscale>  0 0.20002025E+02</rscale>
<asrwt>0</asrwt>
<pdfrwt beam="1">  1        1 0.82806373E-03 0.20002025E+02</pdfrwt>
<pdfrwt beam="2">  1       -1 0.28588900E-02 0.20002025E+02</pdfrwt>
<totfact> 0.37555011E+06</totfact>
</mgrwt>
</event>
<event>
 5    1  0.9583198E-007  0.2000037E+02  0.7818608E-02  0.1745321E+00
         -1   -1    0    0    0  501 -0.00000000000E+00  0.00000000000E+00  0.58126239249E+02  0.58126239437E+02  0.46700000000E-02 0. -1.
          1   -1    0    0  501    0  0.00000000000E+00 -0.00000000000E+00 -0.17204528731E+01  0.17204592112E+01  0.46700000000E-02 0.  1.
       1023    2    1    2    0    0  0.00000000000E+00  0.00000000000E+00  0.56405786376E+02  0.59846698648E+02  0.20000365055E+02 0.  0.
        -11    1    3    3    0    0 -0.97335130346E+01 -0.22937309975E+01  0.28100434700E+02  0.29826781732E+02  0.51100000000E-03 0.  1.
         11    1    3    3    0    0  0.97335130346E+01  0.22937309975E+01  0.28305351676E+02  0.30019916916E+02  0.51100000000E-03 0. -1.
<mgrwt>
<rscale>  0 0.20000365E+02</rscale>
<asrwt>0</asrwt>
<pdfrwt beam="2">  1        1 0.26468558E-03 0.20000365E+02</pdfrwt>
<pdfrwt beam="1">  1       -1 0.89424980E-02 0.20000365E+02</pdfrwt>
<totfact> 0.34366854E+06</totfact>
</mgrwt>
</event>
<event>
 5    1  0.9929736E-007  0.2000105E+02  0.7818608E-02  0.1745307E+00
          1   -1    0    0  501    0  0.00000000000E+00  0.00000000000E+00  0.31687107117E+02  0.31687107462E+02  0.46700000000E-02 0.  1.
         -1   -1    0    0    0  501 -0.00000000000E+00 -0.00000000000E+00 -0.31561880299E+01  0.31561914848E+01  0.46700000000E-02 0. -1.
       1023    2    1    2    0    0  0.00000000000E+00  0.00000000000E+00  0.28530919088E+02  0.34843298946E+02  0.20001053409E+02 0.  0.
        -11    1    3    3    0    0  0.22471916741E+01 -0.97446263555E+01  0.14359610188E+02  0.17498743333E+02  0.51100000000E-03 0.  1.
         11    1    3    3    0    0 -0.22471916741E+01  0.97446263555E+01  0.14171308899E+02  0.17344555613E+02  0.51100000000E-03 0. -1.
<mgrwt>
<rscale>  0 0.20001053E+02</rscale>
<asrwt>0</asrwt>
<pdfrwt beam="1">  1        1 0.48749397E-02 0.20001053E+02</pdfrwt>
<pdfrwt beam="2">  1       -1 0.48556770E-03 0.20001053E+02</pdfrwt>
<totfact> 0.40566904E+06</totfact>
</mgrwt>
</event>
<event>
 4    1  0.9583198E-007  0.2008387E+02  0.7818608E-02  0.1743665E+00
          1   -1    0    0  501    0  0.00000000000E+00  0.00000000000E+00  0.11169484206E+01  0.11169581833E+01  0.46700000000E-02 0.  1.
         -1   -1    0    0    0  501 -0.00000000000E+00 -0.00000000000E+00 -0.90281663086E+02  0.90281663207E+02  0.46700000000E-02 0. -1.
        -11    1    1    2    0    0  0.20814837550E+01  0.98047543271E+01 -0.41796917205E+02  0.42981950515E+02  0.51100000000E-03 0.  1.
         11    1    1    2    0    0 -0.20814837550E+01 -0.98047543271E+01 -0.47367797461E+02  0.48416670875E+02  0.51100000000E-03 0. -1.
<mgrwt>
<rscale>  0 0.20083865E+02</rscale>
<asrwt>0</asrwt>
<pdfrwt beam="1">  1        1 0.17183905E-03 0.20083865E+02</pdfrwt>
<pdfrwt beam="2">  1       -1 0.13889482E-01 0.20083865E+02</pdfrwt>
<totfact> 0.32105462E+06</totfact>
</mgrwt>
</event>
<event>
 5    1  0.9583198E-007  0.2000026E+02  0.7818608E-02  0.1745323E+00
          1   -1    0    0  501    0  0.00000000000E+00  0.00000000000E+00  0.70120706382E+02  0.70120706538E+02  0.46700000000E-02 0. -1.
         -1   -1    0    0    0  501 -0.00000000000E+00 -0.00000000000E+00 -0.14261449818E+01  0.14261526279E+01  0.46700000000E-02 0.  1.
       1023    2    1    2    0    0  0.00000000000E+00  0.00000000000E+00  0.68694561401E+02  0.71546859166E+02  0.20000257260E+02 0.  0.
        -11    1    3    3    0    0 -0.95527887973E+01  0.29571558388E+01  0.34508374033E+02  0.35928100745E+02  0.51100000000E-03 0.  1.
         11    1    3    3    0    0  0.95527887973E+01 -0.29571558388E+01  0.34186187368E+02  0.35618758421E+02  0.51100000000E-03 0. -1.
<mgrwt>
<rscale>  0 0.20000257E+02</rscale>
<asrwt>0</asrwt>
<pdfrwt beam="1">  1        1 0.10787803E-01 0.20000257E+02</pdfrwt>
<pdfrwt beam="2">  1       -1 0.21940750E-03 0.20000257E+02</pdfrwt>
<totfact> 0.42839131E+06</totfact>
</mgrwt>
</event>
<event>
 4    1  0.9583198E-007  0.2006309E+02  0.7818608E-02  0.1744076E+00
         -1   -1    0    0    0  501 -0.00000000000E+00  0.00000000000E+00  0.96543678155E+01  0.96543689450E+01  0.46700000000E-02 0.  1.
          1   -1    0    0  501    0  0.00000000000E+00 -0.00000000000E+00 -0.10423453232E+02  0.10423454278E+02  0.46700000000E-02 0. -1.
        -11    1    1    2    0    0 -0.99591451379E+01 -0.11075283280E+01 -0.85465587751E+00  0.10056919399E+02  0.51100000000E-03 0.  1.
         11    1    1    2    0    0  0.99591451379E+01  0.11075283280E+01  0.85570461284E-01  0.10020903824E+02  0.51100000000E-03 0. -1.
<mgrwt>
<rscale>  0 0.20063088E+02</rscale>
<asrwt>0</asrwt>
<pdfrwt beam="2">  1        1 0.16036084E-02 0.20063088E+02</pdfrwt>
<pdfrwt beam="1">  1       -1 0.14852875E-02 0.20063088E+02</pdfrwt>
<totfact> 0.38413082E+06</totfact>
</mgrwt>
</event>
<event>
 5    1  0.1009395E-006  0.2000133E+02  0.7818608E-02  0.1745302E+00
         -1   -1    0    0    0  501 -0.00000000000E+00  0.00000000000E+00  0.53415895411E+01  0.53415915825E+01  0.46700000000E-02 0. -1.
          1   -1    0    0  501    0  0.00000000000E+00 -0.00000000000E+00 -0.18723506729E+02  0.18723507312E+02  0.46700000000E-02 0.  1.
       1023    2    1    2    0    0  0.00000000000E+00  0.00000000000E+00 -0.13381917188E+02  0.24065098894E+02  0.20001331885E+02 0.  0.
        -11    1    3    3    0    0 -0.73496451613E+01  0.67816770548E+01 -0.67751065055E+01  0.12079341708E+02  0.51100000000E-03 0.  1.
         11    1    3    3    0    0  0.73496451613E+01 -0.67816770548E+01 -0.66068106828E+01  0.11985757186E+02  0.51100000000E-03 0. -1.
<mgrwt>
<rscale>  0 0.20001332E+02</rscale>
<asrwt>0</asrwt>
<pdfrwt beam="2">  1        1 0.28805397E-02 0.20001332E+02</pdfrwt>
<pdfrwt beam="1">  1       -1 0.82178322E-03 0.20001332E+02</pdfrwt>
<totfact> 0.39590733E+06</totfact>
</mgrwt>
</event>
<event>
 5    1  0.9583198E-007  0.2000359E+02  0.7818608E-02  0.1745257E+00
         -1   -1    0    0    0  501 -0.00000000000E+00  0.00000000000E+00  0.23338288382E+02  0.23338288849E+02  0.46700000000E-02 0. -1.
          1   -1    0    0  501    0  0.00000000000E+00 -0.00000000000E+00 -0.42863414725E+01  0.42863440165E+01  0.46700000000E-02 0.  1.
       1023    2    1    2    0    0  0.00000000000E+00  0.00000000000E+00  0.19051946910E+02  0.27624632866E+02  0.20003591176E+02 0.  0.
        -11    1    3    3    0    0 -0.96682117238E+01  0.25607418094E+01  0.94364949915E+01  0.13750605606E+02  0.51100000000E-03 0. -1.
         11    1    3    3    0    0  0.96682117238E+01 -0.25607418094E+01  0.96154519180E+01  0.13874027260E+02  0.51100000000E-03 0.  1.
<mgrwt>
<rscale>  0 0.20003591E+02</rscale>
<asrwt>0</asrwt>
<pdfrwt beam="2">  1        1 0.65943740E-03 0.20003591E+02</pdfrwt>
<pdfrwt beam="1">  1       -1 0.35905060E-02 0.20003591E+02</pdfrwt>
<totfact> 0.37073994E+06</totfact>
</mgrwt>
</event>
<event>
 4    1  0.9583198E-007  0.2002315E+02  0.7818608E-02  0.1744868E+00
          1   -1    0    0  501    0  0.00000000000E+00  0.00000000000E+00  0.14449813672E+02  0.14449814427E+02  0.46700000000E-02 0.  1.
         -1   -1    0    0    0  501 -0.00000000000E+00 -0.00000000000E+00 -0.69365351297E+01  0.69365367017E+01  0.46700000000E-02 0. -1.
        -11    1    1    2    0    0  0.99862379901E+01 -0.65500071844E+00  0.40543440291E+01  0.10797762773E+02  0.51100000000E-03 0. -1.
         11    1    1    2    0    0 -0.99862379901E+01  0.65500071844E+00  0.34589345135E+01  0.10588588356E+02  0.51100000000E-03 0.  1.
<mgrwt>
<rscale>  0 0.20023153E+02</rscale>
<asrwt>0</asrwt>
<pdfrwt beam="1">  1        1 0.22230484E-02 0.20023153E+02</pdfrwt>
<pdfrwt beam="2">  1       -1 0.10671594E-02 0.20023153E+02</pdfrwt>
<totfact> 0.39085046E+06</totfact>
</mgrwt>
</event>
<event>
 5    1  0.9590916E-007  0.2000081E+02  0.7818608E-02  0.1745312E+00
          1   -1    0    0  501    0  0.00000000000E+00  0.00000000000E+00  0.87412966062E+01  0.87412978536E+01  0.46700000000E-02 0. -1.
         -1   -1    0    0    0  501 -0.00000000000E+00 -0.00000000000E+00 -0.11440873797E+02  0.11440874751E+02  0.46700000000E-02 0.  1.
       1023    2    1    2    0    0  0.00000000000E+00  0.00000000000E+00 -0.26995771913E+01  0.20182172604E+02  0.20000809334E+02 0.  0.
        -11    1    3    3    0    0 -0.69034103374E+00  0.99762241828E+01 -0.12686006087E+01  0.10080226558E+02  0.51100000000E-03 0.  1.
         11    1    3    3    0    0  0.69034103374E+00 -0.99762241828E+01 -0.14309765826E+01  0.10101946047E+02  0.51100000000E-03 0. -1.
<mgrwt>
<rscale>  0 0.20000809E+02</rscale>
<asrwt>0</asrwt>
<pdfrwt beam="1">  1        1 0.13448150E-02 0.20000809E+02</pdfrwt>
<pdfrwt beam="2">  1       -1 0.17601346E-02 0.20000809E+02</pdfrwt>
<totfact> 0.38409104E+06</totfact>
</mgrwt>
</event>
<event>
 5    1  0.9583198E-007  0.2000064E+02  0.7818608E-02  0.1745315E+00
          1   -1    0    0  501    0  0.00000000000E+00  0.00000000000E+00  0.98347922673E+00  0.98349031429E+00  0.46700000000E-02 0.  1.
         -1   -1    0    0    0  501 -0.00000000000E+00 -0.00000000000E+00 -0.10168579601E+03  0.10168579612E+03  0.46700000000E-02 0. -1.
       1023    2    1    2    0    0  0.00000000000E+00  0.00000000000E+00 -0.10070231678E+03  0.10266928643E+03  0.20000644261E+02 0.  0.
        -11    1    3    3    0    0 -0.97478395183E+01  0.22329201913E+01 -0.50410712308E+02  0.51393056180E+02  0.51100000000E-03 0. -1.
         11    1    3    3    0    0  0.97478395183E+01 -0.22329201913E+01 -0.50291604476E+02  0.51276230252E+02  0.51100000000E-03 0.  1.
<mgrwt>
<rscale>  0 0.20000644E+02</rscale>
<asrwt>0</asrwt>
<pdfrwt beam="1">  1        1 0.15130544E-03 0.20000644E+02</pdfrwt>
<pdfrwt beam="2">  1       -1 0.15643961E-01 0.20000644E+02</pdfrwt>
<totfact> 0.31775368E+06</totfact>
</mgrwt>
</event>
<event>
 5    1  0.9776150E-007  0.2000089E+02  0.7818608E-02  0.1745310E+00
          1   -1    0    0  501    0  0.00000000000E+00  0.00000000000E+00  0.51988941788E+02  0.51988941998E+02  0.46700000000E-02 0.  1.
         -1   -1    0    0    0  501 -0.00000000000E+00 -0.00000000000E+00 -0.19236546387E+01  0.19236603073E+01  0.46700000000E-02 0. -1.
       1023    2    1    2    0    0  0.00000000000E+00  0.00000000000E+00  0.50065287149E+02  0.53912602305E+02  0.20000892729E+02 0.  0.
        -11    1    3    3    0    0  0.47366381304E+01  0.88075194546E+01  0.25108286480E+02  0.27026546023E+02  0.51100000000E-03 0.  1.
         11    1    3    3    0    0 -0.47366381304E+01 -0.88075194546E+01  0.24957000669E+02  0.26886056281E+02  0.51100000000E-03 0. -1.
<mgrwt>
<rscale>  0 0.20000893E+02</rscale>
<asrwt>0</asrwt>
<pdfrwt beam="1">  1        1 0.79982985E-02 0.20000893E+02</pdfrwt>
<pdfrwt beam="2">  1       -1 0.29594735E-03 0.20000893E+02</pdfrwt>
<totfact> 0.41826664E+06</totfact>
</mgrwt>
</event>
<event>
 4    1  0.9583198E-007  0.2003261E+02  0.7818608E-02  0.1744680E+00
          1   -1    0    0  501    0  0.00000000000E+00  0.00000000000E+00  0.53958225838E+02  0.53958226040E+02  0.46700000000E-02 0.  1.
         -1   -1    0    0    0  501 -0.00000000000E+00 -0.00000000000E+00 -0.18593302196E+01  0.18593360843E+01  0.46700000000E-02 0. -1.
        -11    1    1    2    0    0  0.97749180338E+01  0.21844854450E+01  0.26252864124E+02  0.28098645416E+02  0.51100000000E-03 0.  1.
         11    1    1    2    0    0 -0.97749180338E+01 -0.21844854450E+01  0.25846031495E+02  0.27718916709E+02  0.51100000000E-03 0. -1.
<mgrwt>
<rscale>  0 0.20032606E+02</rscale>
<asrwt>0</asrwt>
<pdfrwt beam="1">  1        1 0.83012648E-02 0.20032606E+02</pdfrwt>
<pdfrwt beam="2">  1       -1 0.28605131E-03 0.20032606E+02</pdfrwt>
<totfact> 0.41792992E+06</totfact>
</mgrwt>
</event>
<event>
 5    1  0.9583198E-007  0.2001020E+02  0.7818608E-02  0.1745125E+00
          1   -1    0    0  501    0  0.00000000000E+00  0.00000000000E+00  0.39513353374E+01  0.39513380971E+01  0.46700000000E-02 0. -1.
         -1   -1    0    0    0  501 -0.00000000000E+00 -0.00000000000E+00 -0.25333698323E+02  0.25333698754E+02  0.46700000000E-02 0.  1.
       1023    2    1    2    0    0  0.00000000000E+00  0.00000000000E+00 -0.21382362986E+02  0.29285036851E+02  0.20010195813E+02 0.  0.
        -11    1    3    3    0    0  0.42841633358E+01 -0.90413401535E+01 -0.10758193487E+02  0.14691446989E+02  0.51100000000E-03 0.  1.
         11    1    3    3    0    0 -0.42841633358E+01  0.90413401535E+01 -0.10624169499E+02  0.14593589862E+02  0.51100000000E-03 0. -1.
<mgrwt>
<rscale>  0 0.20010196E+02</rscale>
<asrwt>0</asrwt>
<pdfrwt beam="1">  1        1 0.60789801E-03 0.20010196E+02</pdfrwt>
<pdfrwt beam="2">  1       -1 0.38974922E-02 0.20010196E+02</pdfrwt>
<totfact> 0.36860645E+06</totfact>
</mgrwt>
</event>
<event>
 5    1  0.9944894E-007  0.2000154E+02  0.7818608E-02  0.1745297E+00
         -1   -1    0    0    0  501 -0.00000000000E+00  0.00000000000E+00  0.15084885834E+01  0.15084958121E+01  0.46700000000E-02 0.  1.
          1   -1    0    0  501    0  0.00000000000E+00 -0.00000000000E+00 -0.66301579881E+02  0.66301580046E+02  0.46700000000E-02 0. -1.
       1023    2    1    2    0    0  0.00000000000E+00  0.00000000000E+00 -0.64793091298E+02  0.67810075858E+02  0.20001542638E+02 0.  0.
        -11    1    3    3    0    0  0.98858371585E+01  0.15100448862E+01 -0.32646018531E+02  0.34143411342E+02  0.51100000000E-03 0. -1.
         11    1    3    3    0    0 -0.98858371585E+01 -0.15100448862E+01 -0.32147072766E+02  0.33666664515E+02  0.51100000000E-03 0.  1.
<mgrwt>
<rscale>  0 0.20001543E+02</rscale>
<asrwt>0</asrwt>
<pdfrwt beam="2">  1        1 0.10200241E-01 0.20001543E+02</pdfrwt>
<pdfrwt beam="1">  1       -1 0.23207579E-03 0.20001543E+02</pdfrwt>
<totfact> 0.42626828E+06</totfact>
</mgrwt>
</event>
<event>
 5    1  0.9583198E-007  0.2000621E+02  0.7818608E-02  0.1745205E+00
         -1   -1    0    0    0  501 -0.00000000000E+00  0.00000000000E+00  0.86293838684E+01  0.86293851320E+01  0.46700000000E-02 0. -1.
          1   -1    0    0  501    0  0.00000000000E+00 -0.00000000000E+00 -0.11595510968E+02  0.11595511909E+02  0.46700000000E-02 0.  1.
       1023    2    1    2    0    0  0.00000000000E+00  0.00000000000E+00 -0.29661270997E+01  0.20224897041E+02  0.20006212793E+02 0.  0.
        -11    1    3    3    0    0 -0.87136489198E+01 -0.49075288636E+01 -0.17105123730E+01  0.10145805532E+02  0.51100000000E-03 0. -1.
         11    1    3    3    0    0  0.87136489198E+01  0.49075288636E+01 -0.12556147267E+01  0.10079091509E+02  0.51100000000E-03 0.  1.
<mgrwt>
<rscale>  0 0.20006213E+02</rscale>
<asrwt>0</asrwt>
<pdfrwt beam="2">  1        1 0.17839249E-02 0.20006213E+02</pdfrwt>
<pdfrwt beam="1">  1       -1 0.13275977E-02 0.20006213E+02</pdfrwt>
<totfact> 0.38823947E+06</totfact>
</mgrwt>
</event>
<event>
 5    1  0.9583198E-007  0.2000385E+02  0.7818608E-02  0.1745251E+00
          1   -1    0    0  501    0  0.00000000000E+00  0.00000000000E+00  0.29234750816E+01  0.29234788115E+01  0.46700000000E-02 0.  1.
         -1   -1    0    0    0  501 -0.00000000000E+00 -0.00000000000E+00 -0.34219022269E+02  0.34219022587E+02  0.46700000000E-02 0. -1.
       1023    2    1    2    0    0  0.00000000000E+00  0.00000000000E+00 -0.31295547187E+02  0.37142501399E+02  0.20003853039E+02 0.  0.
        -11    1    3    3    0    0  0.99134441143E+01  0.13274130237E+01 -0.15626255781E+02  0.18553120211E+02  0.51100000000E-03 0.  1.
         11    1    3    3    0    0 -0.99134441143E+01 -0.13274130237E+01 -0.15669291406E+02  0.18589381188E+02  0.51100000000E-03 0. -1.
<mgrwt>
<rscale>  0 0.20003853E+02</rscale>
<asrwt>0</asrwt>
<pdfrwt beam="1">  1        1 0.44976573E-03 0.20003853E+02</pdfrwt>
<pdfrwt beam="2">  1       -1 0.52644650E-02 0.20003853E+02</pdfrwt>
<totfact> 0.36116205E+06</totfact>
</mgrwt>
</event>
<event>
 5    1  0.9583198E-007  0.2000204E+02  0.7818608E-02  0.1745288E+00
         -1   -1    0    0    0  501 -0.00000000000E+00  0.00000000000E+00  0.44239224187E+02  0.44239224434E+02  0.46700000000E-02 0. -1.
          1   -1    0    0  501    0  0.00000000000E+00 -0.00000000000E+00 -0.22608952935E+01  0.22609001166E+01  0.46700000000E-02 0.  1.
       1023    2    1    2    0    0  0.00000000000E+00  0.00000000000E+00  0.41978328893E+02  0.46500124550E+02  0.20002037058E+02 0.  0.
        -11    1    3    3    0    0  0.99860528432E+01 -0.53874489014E+00  0.20770167751E+02  0.23052361400E+02  0.51100000000E-03 0. -1.
         11    1    3    3    0    0 -0.99860528432E+01  0.53874489014E+00  0.21208161143E+02  0.23447763151E+02  0.51100000000E-03 0.  1.
<mgrwt>
<rscale>  0 0.20002037E+02</rscale>
<asrwt>0</asrwt>
<pdfrwt beam="2">  1        1 0.34783045E-03 0.20002037E+02</pdfrwt>
<pdfrwt beam="1">  1       -1 0.68060346E-02 0.20002037E+02</pdfrwt>
<totfact> 0.35341168E+06</totfact>
</mgrwt>
</event>
<event>
 5    1  0.9860100E-007  0.2000148E+02  0.7818608E-02  0.1745299E+00
          1   -1    0    0  501    0  0.00000000000E+00  0.00000000000E+00  0.41734975346E+02  0.41734975607E+02  0.46700000000E-02 0. -1.
         -1   -1    0    0    0  501 -0.00000000000E+00 -0.00000000000E+00 -0.23964229230E+01  0.23964274733E+01  0.46700000000E-02 0.  1.
       1023    2    1    2    0    0  0.00000000000E+00  0.00000000000E+00  0.39338552423E+02  0.44131403081E+02  0.20001475724E+02 0.  0.
        -11    1    3    3    0    0 -0.76343515718E+01  0.64594762243E+01  0.19848532491E+02  0.22225489855E+02  0.51100000000E-03 0. -1.
         11    1    3    3    0    0  0.76343515718E+01 -0.64594762243E+01  0.19490019932E+02  0.21905913225E+02  0.51100000000E-03 0.  1.
<mgrwt>
<rscale>  0 0.20001476E+02</rscale>
<asrwt>0</asrwt>
<pdfrwt beam="1">  1        1 0.64207654E-02 0.20001476E+02</pdfrwt>
<pdfrwt beam="2">  1       -1 0.36868084E-03 0.20001476E+02</pdfrwt>
<totfact> 0.41211378E+06</totfact>
</mgrwt>
</event>
<event>
 5    1  0.9583198E-007  0.2000091E+02  0.7818608E-02  0.1745310E+00
          1   -1    0    0  501    0  0.00000000000E+00  0.00000000000E+00  0.91452936033E+00  0.91454128382E+00  0.46700000000E-02 0.  1.
         -1   -1    0    0    0  501 -0.00000000000E+00 -0.00000000000E+00 -0.10935505633E+03  0.10935505643E+03  0.46700000000E-02 0. -1.
       1023    2    1    2    0    0  0.00000000000E+00  0.00000000000E+00 -0.10844052697E+03  0.11026959772E+03  0.20000907241E+02 0.  0.
        -11    1    3    3    0    0 -0.65557328310E+01  0.75517253809E+01 -0.53924229514E+02  0.54843675279E+02  0.51100000000E-03 0. -1.
         11    1    3    3    0    0  0.65557328310E+01 -0.75517253809E+01 -0.54516297460E+02  0.55425922439E+02  0.51100000000E-03 0.  1.
<mgrwt>
<rscale>  0 0.20000907E+02</rscale>
<asrwt>0</asrwt>
<pdfrwt beam="1">  1        1 0.14069784E-03 0.20000907E+02</pdfrwt>
<pdfrwt beam="2">  1       -1 0.16823845E-01 0.20000907E+02</pdfrwt>
<totfact> 0.31371834E+06</totfact>
</mgrwt>
</event>
<event>
 5    1  0.9583198E-007  0.2000304E+02  0.7818608E-02  0.1745268E+00
         -1   -1    0    0    0  501 -0.00000000000E+00  0.00000000000E+00  0.10516373734E+01  0.10516477424E+01  0.46700000000E-02 0. -1.
          1   -1    0    0  501    0  0.00000000000E+00 -0.00000000000E+00 -0.95118205289E+02  0.95118205403E+02  0.46700000000E-02 0.  1.
       1023    2    1    2    0    0  0.00000000000E+00  0.00000000000E+00 -0.94066567915E+02  0.96169853146E+02  0.20003036137E+02 0.  0.
        -11    1    3    3    0    0  0.90278105076E+01  0.43041504183E+01 -0.46757516608E+02  0.47815190400E+02  0.51100000000E-03 0.  1.
         11    1    3    3    0    0 -0.90278105076E+01 -0.43041504183E+01 -0.47309051307E+02  0.48354662746E+02  0.51100000000E-03 0. -1.
<mgrwt>
<rscale>  0 0.20003036E+02</rscale>
<asrwt>0</asrwt>
<pdfrwt beam="2">  1        1 0.14633564E-01 0.20003036E+02</pdfrwt>
<pdfrwt beam="1">  1       -1 0.16179125E-03 0.20003036E+02</pdfrwt>
<totfact> 0.44107260E+06</totfact>
</mgrwt>
</event>
<event>
 5    1  0.9583198E-007  0.2000032E+02  0.7818608E-02  0.1745322E+00
         -1   -1    0    0    0  501 -0.00000000000E+00  0.00000000000E+00  0.97841886809E+01  0.97841897954E+01  0.46700000000E-02 0. -1.
          1   -1    0    0  501    0  0.00000000000E+00 -0.00000000000E+00 -0.10220896236E+02  0.10220897303E+02  0.46700000000E-02 0.  1.
       1023    2    1    2    0    0  0.00000000000E+00  0.00000000000E+00 -0.43670755498E+00  0.20005087098E+02  0.20000319905E+02 0.  0.
        -11    1    3    3    0    0  0.97869780890E+01  0.20537307194E+01 -0.23954455378E+00  0.10003006140E+02  0.51100000000E-03 0. -1.
         11    1    3    3    0    0 -0.97869780890E+01 -0.20537307194E+01 -0.19716300120E+00  0.10002080958E+02  0.51100000000E-03 0.  1.
<mgrwt>
<rscale>  0 0.20000320E+02</rscale>
<asrwt>0</asrwt>
<pdfrwt beam="2">  1        1 0.15724457E-02 0.20000320E+02</pdfrwt>
<pdfrwt beam="1">  1       -1 0.15052600E-02 0.20000320E+02</pdfrwt>
<totfact> 0.38656361E+06</totfact>
</mgrwt>
</event>
<event>
 5    1  0.9583198E-007  0.2000017E+02  0.7818608E-02  0.1745325E+00
         -1   -1    0    0    0  501 -0.00000000000E+00  0.00000000000E+00  0.21325509026E+01  0.21325560159E+01  0.46700000000E-02 0.  1.
          1   -1    0    0  501    0  0.00000000000E+00 -0.00000000000E+00 -0.46892931595E+02  0.46892931828E+02  0.46700000000E-02 0. -1.
       1023    2    1    2    0    0  0.00000000000E+00  0.00000000000E+00 -0.44760380693E+02  0.49025487844E+02  0.20000169463E+02 0.  0.
        -11    1    3    3    0    0  0.67010859237E+01 -0.74227432899E+01 -0.22368213301E+02  0.24501808852E+02  0.51100000000E-03 0.  1.
         11    1    3    3    0    0 -0.67010859237E+01  0.74227432899E+01 -0.22392167392E+02  0.24523678992E+02  0.51100000000E-03 0. -1.
<mgrwt>
<rscale>  0 0.20000169E+02</rscale>
<asrwt>0</asrwt>
<pdfrwt beam="2">  1        1 0.72142968E-02 0.20000169E+02</pdfrwt>
<pdfrwt beam="1">  1       -1 0.32808520E-03 0.20000169E+02</pdfrwt>
<totfact> 0.41530281E+06</totfact>
</mgrwt>
</event>
<event>
 5    1  0.1001704E-006  0.2000419E+02  0.7818608E-02  0.1745245E+00
          1   -1    0    0  501    0  0.00000000000E+00  0.00000000000E+00  0.10727484291E+03  0.10727484302E+03  0.46700000000E-02 0.  1.
         -1   -1    0    0    0  501 -0.00000000000E+00 -0.00000000000E+00 -0.93257005310E+00  0.93258174593E+00  0.46700000000E-02 0. -1.
       1023    2    1    2    0    0  0.00000000000E+00  0.00000000000E+00  0.10634227286E+03  0.10820742476E+03  0.20004193968E+02 0.  0.
        -11    1    3    3    0    0 -0.11157450655E+01 -0.99395432282E+01  0.53443601991E+02  0.54371481502E+02  0.51100000000E-03 0. -1.
         11    1    3    3    0    0  0.11157450655E+01  0.99395432282E+01  0.52898670869E+02  0.53835943260E+02  0.51100000000E-03 0.  1.
<mgrwt>
<rscale>  0 0.20004194E+02</rscale>
<asrwt>0</asrwt>
<pdfrwt beam="1">  1        1 0.16503825E-01 0.20004194E+02</pdfrwt>
<pdfrwt beam="2">  1       -1 0.14347320E-03 0.20004194E+02</pdfrwt>
<totfact> 0.44688536E+06</totfact>
</mgrwt>
</event>
<event>
 5    1  0.9583198E-007  0.2000395E+02  0.7818608E-02  0.1745249E+00
          1   -1    0    0  501    0  0.00000000000E+00  0.00000000000E+00  0.44994877176E+01  0.44994901411E+01  0.46700000000E-02 0. -1.
         -1   -1    0    0    0  501 -0.00000000000E+00 -0.00000000000E+00 -0.22233531933E+02  0.22233532423E+02  0.46700000000E-02 0.  1.
       1023    2    1    2    0    0  0.00000000000E+00  0.00000000000E+00 -0.17734044215E+02  0.26733022564E+02  0.20003953889E+02 0.  0.
        -11    1    3    3    0    0 -0.67954989845E+01 -0.73387719109E+01 -0.89421804427E+01  0.13416369514E+02  0.51100000000E-03 0. -1.
         11    1    3    3    0    0  0.67954989845E+01  0.73387719109E+01 -0.87918637725E+01  0.13316653050E+02  0.51100000000E-03 0.  1.
<mgrwt>
<rscale>  0 0.20003954E+02</rscale>
<asrwt>0</asrwt>
<pdfrwt beam="1">  1        1 0.69222912E-03 0.20003954E+02</pdfrwt>
<pdfrwt beam="2">  1       -1 0.34205435E-02 0.20003954E+02</pdfrwt>
<totfact> 0.37178673E+06</totfact>
</mgrwt>
</event>
<event>
 5    1  0.9583198E-007  0.2000353E+02  0.7818608E-02  0.1745258E+00
         -1   -1    0    0    0  501 -0.00000000000E+00  0.00000000000E+00  0.22263277227E+01  0.22263326206E+01  0.46700000000E-02 0. -1.
          1   -1    0    0  501    0  0.00000000000E+00 -0.00000000000E+00 -0.44932804174E+02  0.44932804417E+02  0.46700000000E-02 0.  1.
       1023    2    1    2    0    0  0.00000000000E+00  0.00000000000E+00 -0.42706476451E+02  0.47159137037E+02  0.20003526570E+02 0.  0.
        -11    1    3    3    0    0  0.76590957413E+01  0.64306915120E+01 -0.21684367003E+02  0.23879432855E+02  0.51100000000E-03 0.  1.
         11    1    3    3    0    0 -0.76590957413E+01 -0.64306915120E+01 -0.21022109449E+02  0.23279704183E+02  0.51100000000E-03 0. -1.
<mgrwt>
<rscale>  0 0.20003527E+02</rscale>
<asrwt>0</asrwt>
<pdfrwt beam="2">  1        1 0.69127388E-02 0.20003527E+02</pdfrwt>
<pdfrwt beam="1">  1       -1 0.34251239E-03 0.20003527E+02</pdfrwt>
<totfact> 0.41397137E+06</totfact>
</mgrwt>
</event>
<event>
 4    1  0.9583198E-007  0.2002181E+02  0.7818608E-02  0.1744895E+00
          1   -1    0    0  501    0  0.00000000000E+00  0.00000000000E+00  0.41708508833E+02  0.41708509095E+02  0.46700000000E-02 0.  1.
         -1   -1    0    0    0  501 -0.00000000000E+00 -0.00000000000E+00 -0.24028215950E+01  0.24028261332E+01  0.46700000000E-02 0. -1.
        -11    1    1    2    0    0  0.10239442674E+01 -0.99580897645E+01  0.19479398507E+02  0.21901118238E+02  0.51100000000E-03 0. -1.
         11    1    1    2    0    0 -0.10239442674E+01  0.99580897645E+01  0.19826288732E+02  0.22210216990E+02  0.51100000000E-03 0.  1.
<mgrwt>
<rscale>  0 0.20021809E+02</rscale>
<asrwt>0</asrwt>
<pdfrwt beam="1">  1        1 0.64166940E-02 0.20021809E+02</pdfrwt>
<pdfrwt beam="2">  1       -1 0.36966523E-03 0.20021809E+02</pdfrwt>
<totfact> 0.41116622E+06</totfact>
</mgrwt>
</event>
<event>
 5    1  0.9583326E-007  0.2000190E+02  0.7818608E-02  0.1745290E+00
          1   -1    0    0  501    0  0.00000000000E+00  0.00000000000E+00  0.36376094192E+02  0.36376094492E+02  0.46700000000E-02 0.  1.
         -1   -1    0    0    0  501 -0.00000000000E+00 -0.00000000000E+00 -0.27495785833E+01  0.27495825491E+01  0.46700000000E-02 0. -1.
       1023    2    1    2    0    0  0.00000000000E+00  0.00000000000E+00  0.33626515609E+02  0.39125677041E+02  0.20001901208E+02 0.  0.
        -11    1    3    3    0    0 -0.59071630826E+01 -0.80699594023E+01  0.16840382183E+02  0.19586150534E+02  0.51100000000E-03 0. -1.
         11    1    3    3    0    0  0.59071630826E+01  0.80699594023E+01  0.16786133426E+02  0.19539526507E+02  0.51100000000E-03 0.  1.
<mgrwt>
<rscale>  0 0.20001901E+02</rscale>
<asrwt>0</asrwt>
<pdfrwt beam="1">  1        1 0.55963227E-02 0.20001901E+02</pdfrwt>
<pdfrwt beam="2">  1       -1 0.42301241E-03 0.20001901E+02</pdfrwt>
<totfact> 0.40871850E+06</totfact>
</mgrwt>
</event>
<event>
 4    1  0.1128396E-006  0.2022098E+02  0.7818608E-02  0.1740969E+00
         -1   -1    0    0    0  501 -0.00000000000E+00  0.00000000000E+00  0.13283524139E+02  0.13283524959E+02  0.46700000000E-02 0.  1.
          1   -1    0    0  501    0  0.00000000000E+00 -0.00000000000E+00 -0.76953969517E+01  0.76953983687E+01  0.46700000000E-02 0. -1.
        -11    1    1    2    0    0 -0.33378686543E+01 -0.94294676104E+01  0.43208874397E+01  0.10896159649E+02  0.51100000000E-03 0. -1.
         11    1    1    2    0    0  0.33378686543E+01  0.94294676104E+01  0.12672397471E+01  0.10082763679E+02  0.51100000000E-03 0.  1.
<mgrwt>
<rscale>  0 0.20220981E+02</rscale>
<asrwt>0</asrwt>
<pdfrwt beam="2">  1        1 0.11839074E-02 0.20220981E+02</pdfrwt>
<pdfrwt beam="1">  1       -1 0.20436192E-02 0.20220981E+02</pdfrwt>
<totfact> 0.37259657E+06</totfact>
</mgrwt>
</event>
<event>
 5    1  0.1005119E-006  0.2000123E+02  0.7818608E-02  0.1745304E+00
         -1   -1    0    0    0  501 -0.00000000000E+00  0.00000000000E+00  0.62640335906E+01  0.62640353314E+01  0.46700000000E-02 0. -1.
          1   -1    0    0  501    0  0.00000000000E+00 -0.00000000000E+00 -0.15966111918E+02  0.15966112601E+02  0.46700000000E-02 0.  1.
       1023    2    1    2    0    0  0.00000000000E+00  0.00000000000E+00 -0.97020783273E+01  0.22230147932E+02  0.20001228793E+02 0.  0.
        -11    1    3    3    0    0  0.97259886948E+01 -0.23261309585E+01 -0.47611106445E+01  0.11075825755E+02  0.51100000000E-03 0.  1.
         11    1    3    3    0    0 -0.97259886948E+01  0.23261309585E+01 -0.49409676828E+01  0.11154322177E+02  0.51100000000E-03 0. -1.
<mgrwt>
<rscale>  0 0.20001229E+02</rscale>
<asrwt>0</asrwt>
<pdfrwt beam="2">  1        1 0.24563251E-02 0.20001229E+02</pdfrwt>
<pdfrwt beam="1">  1       -1 0.96369767E-03 0.20001229E+02</pdfrwt>
<totfact> 0.39336356E+06</totfact>
</mgrwt>
</event>
<event>
 5    1  0.9583198E-007  0.2000039E+02  0.7818608E-02  0.1745320E+00
          1   -1    0    0  501    0  0.00000000000E+00  0.00000000000E+00  0.67094454528E+02  0.67094454690E+02  0.46700000000E-02 0.  1.
         -1   -1    0    0    0  501 -0.00000000000E+00 -0.00000000000E+00 -0.14904902795E+01  0.14904975955E+01  0.46700000000E-02 0. -1.
       1023    2    1    2    0    0  0.00000000000E+00  0.00000000000E+00  0.65603964248E+02  0.68584952286E+02  0.20000388870E+02 0.  0.
        -11    1    3    3    0    0  0.99547242958E+01 -0.95242351700E+00  0.32748623772E+02  0.34241436967E+02  0.51100000000E-03 0.  1.
         11    1    3    3    0    0 -0.99547242958E+01  0.95242351700E+00  0.32855340477E+02  0.34343515319E+02  0.51100000000E-03 0. -1.
<mgrwt>
<rscale>  0 0.20000389E+02</rscale>
<asrwt>0</asrwt>
<pdfrwt beam="1">  1        1 0.10322224E-01 0.20000389E+02</pdfrwt>
<pdfrwt beam="2">  1       -1 0.22930678E-03 0.20000389E+02</pdfrwt>
<totfact> 0.42675353E+06</totfact>
</mgrwt>
</event>
<event>
 5    1  0.9583198E-007  0.2000020E+02  0.7818608E-02  0.1745324E+00
          1   -1    0    0  501    0  0.00000000000E+00  0.00000000000E+00  0.33362851553E+02  0.33362851880E+02  0.46700000000E-02 0. -1.
         -1   -1    0    0    0  501 -0.00000000000E+00 -0.00000000000E+00 -0.29974042807E+01  0.29974079187E+01  0.46700000000E-02 0.  1.
       1023    2    1    2    0    0  0.00000000000E+00  0.00000000000E+00  0.30365447272E+02  0.36360259799E+02  0.20000202613E+02 0.  0.
        -11    1    3    3    0    0  0.72120961168E+01 -0.69272278178E+01  0.15245969067E+02  0.18232947888E+02  0.51100000000E-03 0. -1.
         11    1    3    3    0    0 -0.72120961168E+01  0.69272278178E+01  0.15119478205E+02  0.18127311910E+02  0.51100000000E-03 0.  1.
<mgrwt>
<rscale>  0 0.20000203E+02</rscale>
<asrwt>0</asrwt>
<pdfrwt beam="1">  1        1 0.51327463E-02 0.20000203E+02</pdfrwt>
<pdfrwt beam="2">  1       -1 0.46113946E-03 0.20000203E+02</pdfrwt>
<totfact> 0.40682775E+06</totfact>
</mgrwt>
</event>
<event>
 5    1  0.9583198E-007  0.2000046E+02  0.7818608E-02  0.1745319E+00
          1   -1    0    0  501    0  0.00000000000E+00  0.00000000000E+00  0.80693537416E+02  0.80693537551E+02  0.46700000000E-02 0.  1.
         -1   -1    0    0    0  501 -0.00000000000E+00 -0.00000000000E+00 -0.12393088496E+01  0.12393176484E+01  0.46700000000E-02 0. -1.
       1023    2    1    2    0    0  0.00000000000E+00  0.00000000000E+00  0.79454228566E+02  0.81932855199E+02  0.20000458097E+02 0.  0.
        -11    1    3    3    0    0 -0.99076316506E+01 -0.13577232034E+01  0.39719410374E+02  0.40958956749E+02  0.51100000000E-03 0. -1.
         11    1    3    3    0    0  0.99076316506E+01  0.13577232034E+01  0.39734818192E+02  0.40973898451E+02  0.51100000000E-03 0.  1.
<mgrwt>
<rscale>  0 0.20000458E+02</rscale>
<asrwt>0</asrwt>
<pdfrwt beam="1">  1        1 0.12414393E-01 0.20000458E+02</pdfrwt>
<pdfrwt beam="2">  1       -1 0.19066356E-03 0.20000458E+02</pdfrwt>
<totfact> 0.43392960E+06</totfact>
</mgrwt>
</event>
<event>
 5    1  0.9583198E-007  0.2000170E+02  0.7818608E-02  0.1745294E+00
         -1   -1    0    0    0  501 -0.00000000000E+00  0.00000000000E+00  0.12915587726E+02  0.12915588571E+02  0.46700000000E-02 0.  1.
          1   -1    0    0  501    0  0.00000000000E+00 -0.00000000000E+00 -0.77438979455E+01  0.77438993536E+01  0.46700000000E-02 0. -1.
       1023    2    1    2    0    0  0.00000000000E+00  0.00000000000E+00  0.51716897808E+01  0.20659487924E+02  0.20001701580E+02 0.  0.
        -11    1    3    3    0    0  0.85930101180E+01 -0.51161120966E+01  0.26384145560E+01  0.10342903727E+02  0.51100000000E-03 0.  1.
         11    1    3    3    0    0 -0.85930101180E+01  0.51161120966E+01  0.25332752248E+01  0.10316584197E+02  0.51100000000E-03 0. -1.
<mgrwt>
<rscale>  0 0.20001702E+02</rscale>
<asrwt>0</asrwt>
<pdfrwt beam="2">  1        1 0.11913691E-02 0.20001702E+02</pdfrwt>
<pdfrwt beam="1">  1       -1 0.19870137E-02 0.20001702E+02</pdfrwt>
<totfact> 0.38208262E+06</totfact>
</mgrwt>
</event>
<event>
 5    1  0.9583198E-007  0.2000028E+02  0.7818608E-02  0.1745323E+00
          1   -1    0    0  501    0  0.00000000000E+00  0.00000000000E+00  0.11968071529E+03  0.11968071538E+03  0.46700000000E-02 0. -1.
         -1   -1    0    0    0  501 -0.00000000000E+00 -0.00000000000E+00 -0.83557311575E+00  0.83558616592E+00  0.46700000000E-02 0.  1.
       1023    2    1    2    0    0  0.00000000000E+00  0.00000000000E+00  0.11884514217E+03  0.12051630155E+03  0.20000278002E+02 0.  0.
        -11    1    3    3    0    0 -0.66183547562E+01 -0.74966129254E+01  0.59608760026E+02  0.60441757892E+02  0.51100000000E-03 0.  1.
         11    1    3    3    0    0  0.66183547562E+01  0.74966129254E+01  0.59236382149E+02  0.60074543655E+02  0.51100000000E-03 0. -1.
<mgrwt>
<rscale>  0 0.20000278E+02</rscale>
<asrwt>0</asrwt>
<pdfrwt beam="1">  1        1 0.18412421E-01 0.20000278E+02</pdfrwt>
<pdfrwt beam="2">  1       -1 0.12855071E-03 0.20000278E+02</pdfrwt>
<totfact> 0.45284355E+06</totfact>
</mgrwt>
</event>
<event>
 5    1  0.9583198E-007  0.2000003E+02  0.7818608E-02  0.1745327E+00
          1   -1    0    0  501    0  0.00000000000E+00  0.00000000000E+00  0.10629533751E+03  0.10629533762E+03  0.46700000000E-02 0. -1.
         -1   -1    0    0    0  501 -0.00000000000E+00 -0.00000000000E+00 -0.94077221380E+00  0.94078380468E+00  0.46700000000E-02 0.  1.
       1023    2    1    2    0    0  0.00000000000E+00  0.00000000000E+00  0.10535456530E+03  0.10723612142E+03  0.20000032697E+02 0.  0.
        -11    1    3    3    0    0 -0.84904895765E-01 -0.99996418679E+01  0.52767063896E+02  0.53706266662E+02  0.51100000000E-03 0. -1.
         11    1    3    3    0    0  0.84904895765E-01  0.99996418679E+01  0.52587501404E+02  0.53529854759E+02  0.51100000000E-03 0.  1.
<mgrwt>
<rscale>  0 0.20000033E+02</rscale>
<asrwt>0</asrwt>
<pdfrwt beam="1">  1        1 0.16353123E-01 0.20000033E+02</pdfrwt>
<pdfrwt beam="2">  1       -1 0.14473514E-03 0.20000033E+02</pdfrwt>
<totfact> 0.44662611E+06</totfact>
</mgrwt>
</event>
<event>
 5    1  0.9583198E-007  0.2000249E+02  0.7818608E-02  0.1745278E+00
         -1   -1    0    0    0  501 -0.00000000000E+00  0.00000000000E+00  0.49741118598E+02  0.49741118817E+02  0.46700000000E-02 0. -1.
          1   -1    0    0  501    0  0.00000000000E+00 -0.00000000000E+00 -0.20109076746E+01  0.20109130972E+01  0.46700000000E-02 0.  1.
       1023    2    1    2    0    0  0.00000000000E+00  0.00000000000E+00  0.47730210923E+02  0.51752031914E+02  0.20002494156E+02 0.  0.
        -11    1    3    3    0    0  0.70148897353E+01  0.71282744491E+01  0.24028088360E+02  0.26026332917E+02  0.51100000000E-03 0. -1.
         11    1    3    3    0    0 -0.70148897353E+01 -0.71282744491E+01  0.23702122563E+02  0.25725698997E+02  0.51100000000E-03 0.  1.
<mgrwt>
<rscale>  0 0.20002494E+02</rscale>
<asrwt>0</asrwt>
<pdfrwt beam="2">  1        1 0.30937088E-03 0.20002494E+02</pdfrwt>
<pdfrwt beam="1">  1       -1 0.76524794E-02 0.20002494E+02</pdfrwt>
<totfact> 0.34938471E+06</totfact>
</mgrwt>
</event>
<event>
 5    1  0.9884872E-007  0.2000208E+02  0.7818608E-02  0.1745287E+00
         -1   -1    0    0    0  501 -0.00000000000E+00  0.00000000000E+00  0.22132738271E+01  0.22132787539E+01  0.46700000000E-02 0.  1.
          1   -1    0    0  501    0  0.00000000000E+00 -0.00000000000E+00 -0.45191284654E+02  0.45191284896E+02  0.46700000000E-02 0. -1.
       1023    2    1    2    0    0  0.00000000000E+00  0.00000000000E+00 -0.42978010827E+02  0.47404563650E+02  0.20002080895E+02 0.  0.
        -11    1    3    3    0    0 -0.42844491839E+01 -0.90359665187E+01 -0.21785149149E+02  0.23970772191E+02  0.51100000000E-03 0. -1.
         11    1    3    3    0    0  0.42844491839E+01  0.90359665187E+01 -0.21192861678E+02  0.23433791458E+02  0.51100000000E-03 0.  1.
<mgrwt>
<rscale>  0 0.20002081E+02</rscale>
<asrwt>0</asrwt>
<pdfrwt beam="2">  1        1 0.69525050E-02 0.20002081E+02</pdfrwt>
<pdfrwt beam="1">  1       -1 0.34050410E-03 0.20002081E+02</pdfrwt>
<totfact> 0.41419392E+06</totfact>
</mgrwt>
</event>
<event>
 5    1  0.9583198E-007  0.2000048E+02  0.7818608E-02  0.1745318E+00
         -1   -1    0    0    0  501 -0.00000000000E+00  0.00000000000E+00  0.18451358208E+01  0.18451417306E+01  0.46700000000E-02 0.  1.
          1   -1    0    0  501    0  0.00000000000E+00 -0.00000000000E+00 -0.54199075072E+02  0.54199075273E+02  0.46700000000E-02 0. -1.
       1023    2    1    2    0    0  0.00000000000E+00  0.00000000000E+00 -0.52353939251E+02  0.56044217004E+02  0.20000482605E+02 0.  0.
        -11    1    3    3    0    0 -0.89566406944E+01 -0.44478393106E+01 -0.26143957980E+02  0.27991270536E+02  0.51100000000E-03 0. -1.
         11    1    3    3    0    0  0.89566406944E+01  0.44478393106E+01 -0.26209981271E+02  0.28052946468E+02  0.51100000000E-03 0.  1.
<mgrwt>
<rscale>  0 0.20000483E+02</rscale>
<asrwt>0</asrwt>
<pdfrwt beam="2">  1        1 0.83383185E-02 0.20000483E+02</pdfrwt>
<pdfrwt beam="1">  1       -1 0.28386756E-03 0.20000483E+02</pdfrwt>
<totfact> 0.41956039E+06</totfact>
</mgrwt>
</event>
<event>
 5    1  0.9583198E-007  0.2000031E+02  0.7818608E-02  0.1745322E+00
          1   -1    0    0  501    0  0.00000000000E+00  0.00000000000E+00  0.41673632498E+02  0.41673632759E+02  0.46700000000E-02 0.  1.
         -1   -1    0    0    0  501 -0.00000000000E+00 -0.00000000000E+00 -0.23996700962E+01  0.23996746404E+01  0.46700000000E-02 0. -1.
       1023    2    1    2    0    0  0.00000000000E+00  0.00000000000E+00  0.39273962402E+02  0.44073307400E+02  0.20000307559E+02 0.  0.
        -11    1    3    3    0    0 -0.96871994736E+01 -0.24818612296E+01  0.19548655819E+02  0.21957946475E+02  0.51100000000E-03 0.  1.
         11    1    3    3    0    0  0.96871994736E+01  0.24818612296E+01  0.19725306583E+02  0.22115360925E+02  0.51100000000E-03 0. -1.
<mgrwt>
<rscale>  0 0.20000308E+02</rscale>
<asrwt>0</asrwt>
<pdfrwt beam="1">  1        1 0.64113285E-02 0.20000308E+02</pdfrwt>
<pdfrwt beam="2">  1       -1 0.36918038E-03 0.20000308E+02</pdfrwt>
<totfact> 0.41212950E+06</totfact>
</mgrwt>
</event>
<event>
 5    1  0.9583198E-007  0.2000027E+02  0.7818608E-02  0.1745323E+00
         -1   -1    0    0    0  501 -0.00000000000E+00  0.00000000000E+00  0.10312542995E+01  0.10312648734E+01  0.46700000000E-02 0.  1.
          1   -1    0    0  501    0  0.00000000000E+00 -0.00000000000E+00 -0.96971372193E+02  0.96971372306E+02  0.46700000000E-02 0. -1.
       1023    2    1    2    0    0  0.00000000000E+00  0.00000000000E+00 -0.95940117894E+02  0.98002637179E+02  0.20000266813E+02 0.  0.
        -11    1    3    3    0    0  0.49624865173E+01  0.86819553447E+01 -0.48003597060E+02  0.49034150874E+02  0.51100000000E-03 0.  1.
         11    1    3    3    0    0 -0.49624865173E+01 -0.86819553447E+01 -0.47936520834E+02  0.48968486305E+02  0.51100000000E-03 0. -1.
<mgrwt>
<rscale>  0 0.20000267E+02</rscale>
<asrwt>0</asrwt>
<pdfrwt beam="2">  1        1 0.14918666E-01 0.20000267E+02</pdfrwt>
<pdfrwt beam="1">  1       -1 0.15865541E-03 0.20000267E+02</pdfrwt>
<totfact> 0.44211758E+06</totfact>
</mgrwt>
</event>
<event>
 5    1  0.9583198E-007  0.2000016E+02  0.7818608E-02  0.1745325E+00
         -1   -1    0    0    0  501 -0.00000000000E+00  0.00000000000E+00  0.56620361410E+01  0.56620380669E+01  0.46700000000E-02 0.  1.
          1   -1    0    0  501    0  0.00000000000E+00 -0.00000000000E+00 -0.17661771197E+02  0.17661771815E+02  0.46700000000E-02 0. -1.
       1023    2    1    2    0    0  0.00000000000E+00  0.00000000000E+00 -0.11999735056E+02  0.23323809881E+02  0.20000161649E+02 0.  0.
        -11    1    3    3    0    0  0.99198130253E+01 -0.12642641674E+01 -0.60275109132E+01  0.11676127030E+02  0.51100000000E-03 0. -1.
         11    1    3    3    0    0 -0.99198130253E+01  0.12642641674E+01 -0.59722241430E+01  0.11647682852E+02  0.51100000000E-03 0.  1.
<mgrwt>
<rscale>  0 0.20000162E+02</rscale>
<asrwt>0</asrwt>
<pdfrwt beam="2">  1        1 0.27171958E-02 0.20000162E+02</pdfrwt>
<pdfrwt beam="1">  1       -1 0.87108268E-03 0.20000162E+02</pdfrwt>
<totfact> 0.39501159E+06</totfact>
</mgrwt>
</event>
<event>
 5    1  0.1000728E-006  0.2000067E+02  0.7818608E-02  0.1745315E+00
          1   -1    0    0  501    0  0.00000000000E+00  0.00000000000E+00  0.21144929604E+02  0.21144930119E+02  0.46700000000E-02 0.  1.
         -1   -1    0    0    0  501 -0.00000000000E+00 -0.00000000000E+00 -0.47295807109E+01  0.47295830165E+01  0.46700000000E-02 0. -1.
       1023    2    1    2    0    0  0.00000000000E+00  0.00000000000E+00  0.16415348893E+02  0.25874513136E+02  0.20000668757E+02 0.  0.
        -11    1    3    3    0    0 -0.79562559088E+01 -0.60579858391E+01  0.83035022732E+01  0.12998051807E+02  0.51100000000E-03 0. -1.
         11    1    3    3    0    0  0.79562559088E+01  0.60579858391E+01  0.81118466194E+01  0.12876461329E+02  0.51100000000E-03 0.  1.
<mgrwt>
<rscale>  0 0.20000669E+02</rscale>
<asrwt>0</asrwt>
<pdfrwt beam="1">  1        1 0.32530663E-02 0.20000669E+02</pdfrwt>
<pdfrwt beam="2">  1       -1 0.72762802E-03 0.20000669E+02</pdfrwt>
<totfact> 0.39797328E+06</totfact>
</mgrwt>
</event>
<event>
 5    1  0.9583198E-007  0.2000023E+02  0.7818608E-02  0.1745323E+00
          1   -1    0    0  501    0  0.00000000000E+00  0.00000000000E+00  0.29479898708E+01  0.29479935698E+01  0.46700000000E-02 0.  1.
         -1   -1    0    0    0  501 -0.00000000000E+00 -0.00000000000E+00 -0.33922189602E+02  0.33922189924E+02  0.46700000000E-02 0. -1.
       1023    2    1    2    0    0  0.00000000000E+00  0.00000000000E+00 -0.30974199732E+02  0.36870183494E+02  0.20000234545E+02 0.  0.
        -11    1    3    3    0    0 -0.53268879660E+01 -0.84632480145E+01 -0.15475033564E+02  0.18424954991E+02  0.51100000000E-03 0.  1.
         11    1    3    3    0    0  0.53268879660E+01  0.84632480145E+01 -0.15499166168E+02  0.18445228503E+02  0.51100000000E-03 0. -1.
<mgrwt>
<rscale>  0 0.20000235E+02</rscale>
<asrwt>0</asrwt>
<pdfrwt beam="1">  1        1 0.45353724E-03 0.20000235E+02</pdfrwt>
<pdfrwt beam="2">  1       -1 0.52187984E-02 0.20000235E+02</pdfrwt>
<totfact> 0.36154979E+06</totfact>
</mgrwt>
</event>
<event>
 5    1  0.9583198E-007  0.2000387E+02  0.7818608E-02  0.1745251E+00
         -1   -1    0    0    0  501 -0.00000000000E+00  0.00000000000E+00  0.84460888148E+01  0.84460901059E+01  0.46700000000E-02 0. -1.
          1   -1    0    0  501    0  0.00000000000E+00 -0.00000000000E+00 -0.11844376897E+02  0.11844377818E+02  0.46700000000E-02 0.  1.
       1023    2    1    2    0    0  0.00000000000E+00  0.00000000000E+00 -0.33982880821E+01  0.20290467923E+02  0.20003867793E+02 0.  0.
        -11    1    3    3    0    0  0.57129899164E+01 -0.82087171778E+01 -0.18329042107E+01  0.10167636382E+02  0.51100000000E-03 0. -1.
         11    1    3    3    0    0 -0.57129899164E+01  0.82087171778E+01 -0.15653838713E+01  0.10122831541E+02  0.51100000000E-03 0.  1.
<mgrwt>
<rscale>  0 0.20003868E+02</rscale>
<asrwt>0</asrwt>
<pdfrwt beam="2">  1        1 0.18222120E-02 0.20003868E+02</pdfrwt>
<pdfrwt beam="1">  1       -1 0.12993984E-02 0.20003868E+02</pdfrwt>
<totfact> 0.38866581E+06</totfact>
</mgrwt>
</event>
<event>
 5    1  0.9781558E-007  0.2000010E+02  0.7818608E-02  0.1745326E+00
          1   -1    0    0  501    0  0.00000000000E+00  0.00000000000E+00  0.13690002852E+02  0.13690003648E+02  0.46700000000E-02 0.  1.
         -1   -1    0    0    0  501 -0.00000000000E+00 -0.00000000000E+00 -0.73046735514E+01  0.73046750442E+01  0.46700000000E-02 0. -1.
       1023    2    1    2    0    0  0.00000000000E+00  0.00000000000E+00  0.63853293006E+01  0.20994678693E+02  0.20000102578E+02 0.  0.
        -11    1    3    3    0    0 -0.99901894628E+01 -0.44399811430E+00  0.31901600201E+01  0.10496577587E+02  0.51100000000E-03 0. -1.
         11    1    3    3    0    0  0.99901894628E+01  0.44399811430E+00  0.31951692805E+01  0.10498101105E+02  0.51100000000E-03 0.  1.
<mgrwt>
<rscale>  0 0.20000103E+02</rscale>
<asrwt>0</asrwt>
<pdfrwt beam="1">  1        1 0.21061544E-02 0.20000103E+02</pdfrwt>
<pdfrwt beam="2">  1       -1 0.11237961E-02 0.20000103E+02</pdfrwt>
<totfact> 0.39103792E+06</totfact>
</mgrwt>
</event>
<event>
 5    1  0.9583198E-007  0.2000130E+02  0.7818608E-02  0.1745302E+00
         -1   -1    0    0    0  501 -0.00000000000E+00  0.00000000000E+00  0.64262947825E+02  0.64262947995E+02  0.46700000000E-02 0. -1.
          1   -1    0    0  501    0  0.00000000000E+00 -0.00000000000E+00 -0.15563050796E+01  0.15563120862E+01  0.46700000000E-02 0.  1.
       1023    2    1    2    0    0  0.00000000000E+00  0.00000000000E+00  0.62706642746E+02  0.65819260081E+02  0.20001298788E+02 0.  0.
        -11    1    3    3    0    0 -0.62954136588E+00  0.99805665016E+01  0.31121609317E+02  0.32688875734E+02  0.51100000000E-03 0. -1.
         11    1    3    3    0    0  0.62954136588E+00 -0.99805665016E+01  0.31585033429E+02  0.33130384347E+02  0.51100000000E-03 0.  1.
<mgrwt>
<rscale>  0 0.20001299E+02</rscale>
<asrwt>0</asrwt>
<pdfrwt beam="2">  1        1 0.23943209E-03 0.20001299E+02</pdfrwt>
<pdfrwt beam="1">  1       -1 0.98866085E-02 0.20001299E+02</pdfrwt>
<totfact> 0.33959487E+06</totfact>
</mgrwt>
</event>
<event>
 4    1  0.9583198E-007  0.2006353E+02  0.7818608E-02  0.1744068E+00
          1   -1    0    0  501    0  0.00000000000E+00  0.00000000000E+00  0.58787090932E+01  0.58787109481E+01  0.46700000000E-02 0. -1.
         -1   -1    0    0    0  501 -0.00000000000E+00 -0.00000000000E+00 -0.17118770727E+02  0.17118771364E+02  0.46700000000E-02 0.  1.
        -11    1    1    2    0    0  0.82471746853E+01 -0.56847920469E+01 -0.62515528795E+01  0.11807398722E+02  0.51100000000E-03 0. -1.
         11    1    1    2    0    0 -0.82471746853E+01  0.56847920469E+01 -0.49885087543E+01  0.11190083590E+02  0.51100000000E-03 0.  1.
<mgrwt>
<rscale>  0 0.20063529E+02</rscale>
<asrwt>0</asrwt>
<pdfrwt beam="1">  1        1 0.90441699E-03 0.20063529E+02</pdfrwt>
<pdfrwt beam="2">  1       -1 0.26336572E-02 0.20063529E+02</pdfrwt>
<totfact> 0.37458372E+06</totfact>
</mgrwt>
</event>
<event>
 4    1  0.1167984E-006  0.2019183E+02  0.7818608E-02  0.1741540E+00
         -1   -1    0    0    0  501 -0.00000000000E+00  0.00000000000E+00  0.11388474593E+01  0.11388570343E+01  0.46700000000E-02 0.  1.
          1   -1    0    0  501    0  0.00000000000E+00 -0.00000000000E+00 -0.89500155337E+02  0.89500155459E+02  0.46700000000E-02 0. -1.
        -11    1    1    2    0    0  0.66042382734E+01 -0.75761292480E+01 -0.39889667974E+02  0.41136350214E+02  0.51100000000E-03 0. -1.
         11    1    1    2    0    0 -0.66042382734E+01  0.75761292480E+01 -0.48471639903E+02  0.49502662279E+02  0.51100000000E-03 0.  1.
<mgrwt>
<rscale>  0 0.20191826E+02</rscale>
<asrwt>0</asrwt>
<pdfrwt beam="2">  1        1 0.13769250E-01 0.20191826E+02</pdfrwt>
<pdfrwt beam="1">  1       -1 0.17520812E-03 0.20191826E+02</pdfrwt>
<totfact> 0.42927367E+06</totfact>
</mgrwt>
</event>
<event>
 5    1  0.9583198E-007  0.2000061E+02  0.7818608E-02  0.1745316E+00
         -1   -1    0    0    0  501 -0.00000000000E+00  0.00000000000E+00  0.52543920130E+02  0.52543920338E+02  0.46700000000E-02 0. -1.
          1   -1    0    0  501    0  0.00000000000E+00 -0.00000000000E+00 -0.19032833434E+01  0.19032890727E+01  0.46700000000E-02 0.  1.
       1023    2    1    2    0    0  0.00000000000E+00  0.00000000000E+00  0.50640636787E+02  0.54447209411E+02  0.20000612951E+02 0.  0.
        -11    1    3    3    0    0  0.56896796867E+00  0.99839237098E+01  0.25155353138E+02  0.27070172680E+02  0.51100000000E-03 0. -1.
         11    1    3    3    0    0 -0.56896796867E+00 -0.99839237098E+01  0.25485283649E+02  0.27377036730E+02  0.51100000000E-03 0.  1.
<mgrwt>
<rscale>  0 0.20000613E+02</rscale>
<asrwt>0</asrwt>
<pdfrwt beam="2">  1        1 0.29281330E-03 0.20000613E+02</pdfrwt>
<pdfrwt beam="1">  1       -1 0.80836799E-02 0.20000613E+02</pdfrwt>
<totfact> 0.34747962E+06</totfact>
</mgrwt>
</event>
<event>
 5    1  0.9583198E-007  0.2000031E+02  0.7818608E-02  0.1745322E+00
          1   -1    0    0  501    0  0.00000000000E+00  0.00000000000E+00  0.63037260126E+01  0.63037277424E+01  0.46700000000E-02 0.  1.
         -1   -1    0    0    0  501 -0.00000000000E+00 -0.00000000000E+00 -0.15864120338E+02  0.15864121026E+02  0.46700000000E-02 0. -1.
       1023    2    1    2    0    0  0.00000000000E+00  0.00000000000E+00 -0.95603943255E+01  0.22167848768E+02  0.20000309481E+02 0.  0.
        -11    1    3    3    0    0 -0.82922639871E+01 -0.55893832186E+01 -0.47976440515E+01  0.11091448756E+02  0.51100000000E-03 0.  1.
         11    1    3    3    0    0  0.82922639871E+01  0.55893832186E+01 -0.47627502740E+01  0.11076400012E+02  0.51100000000E-03 0. -1.
<mgrwt>
<rscale>  0 0.20000309E+02</rscale>
<asrwt>0</asrwt>
<pdfrwt beam="1">  1        1 0.96980419E-03 0.20000309E+02</pdfrwt>
<pdfrwt beam="2">  1       -1 0.24406341E-02 0.20000309E+02</pdfrwt>
<totfact> 0.37858771E+06</totfact>
</mgrwt>
</event>
<event>
 5    1  0.9583198E-007  0.2000040E+02  0.7818608E-02  0.1745320E+00
          1   -1    0    0  501    0  0.00000000000E+00  0.00000000000E+00  0.44133903546E+01  0.44133928254E+01  0.46700000000E-02 0. -1.
         -1   -1    0    0    0  501 -0.00000000000E+00 -0.00000000000E+00 -0.22659209332E+02  0.22659209813E+02  0.46700000000E-02 0.  1.
       1023    2    1    2    0    0  0.00000000000E+00  0.00000000000E+00 -0.18245818977E+02  0.27072602639E+02  0.20000397583E+02 0.  0.
        -11    1    3    3    0    0 -0.33735006571E+01  0.94138115400E+01 -0.92043646042E+01  0.13591198712E+02  0.51100000000E-03 0.  1.
         11    1    3    3    0    0  0.33735006571E+01 -0.94138115400E+01 -0.90414543731E+01  0.13481403927E+02  0.51100000000E-03 0. -1.
<mgrwt>
<rscale>  0 0.20000398E+02</rscale>
<asrwt>0</asrwt>
<pdfrwt beam="1">  1        1 0.67898337E-03 0.20000398E+02</pdfrwt>
<pdfrwt beam="2">  1       -1 0.34860324E-02 0.20000398E+02</pdfrwt>
<totfact> 0.37152029E+06</totfact>
</mgrwt>
</event>
<event>
 5    1  0.9583198E-007  0.2000059E+02  0.7818608E-02  0.1745316E+00
          1   -1    0    0  501    0  0.00000000000E+00  0.00000000000E+00  0.29583200002E+02  0.29583200371E+02  0.46700000000E-02 0.  1.
         -1   -1    0    0    0  501 -0.00000000000E+00 -0.00000000000E+00 -0.33804944293E+01  0.33804976550E+01  0.46700000000E-02 0. -1.
       1023    2    1    2    0    0  0.00000000000E+00  0.00000000000E+00  0.26202705573E+02  0.32963698026E+02  0.20000590196E+02 0.  0.
        -11    1    3    3    0    0  0.89650740754E+01 -0.44309125562E+01  0.13132733610E+02  0.16506793498E+02  0.51100000000E-03 0.  1.
         11    1    3    3    0    0 -0.89650740754E+01  0.44309125562E+01  0.13069971963E+02  0.16456904528E+02  0.51100000000E-03 0. -1.
<mgrwt>
<rscale>  0 0.20000590E+02</rscale>
<asrwt>0</asrwt>
<pdfrwt beam="1">  1        1 0.45512618E-02 0.20000590E+02</pdfrwt>
<pdfrwt beam="2">  1       -1 0.52007635E-03 0.20000590E+02</pdfrwt>
<totfact> 0.40425237E+06</totfact>
</mgrwt>
</event>
<event>
 5    1  0.9583198E-007  0.2000125E+02  0.7818608E-02  0.1745303E+00
          1   -1    0    0  501    0  0.00000000000E+00  0.00000000000E+00  0.34251143170E+01  0.34251175006E+01  0.46700000000E-02 0.  1.
         -1   -1    0    0    0  501 -0.00000000000E+00 -0.00000000000E+00 -0.29199745211E+02  0.29199745584E+02  0.46700000000E-02 0. -1.
       1023    2    1    2    0    0  0.00000000000E+00  0.00000000000E+00 -0.25774630894E+02  0.32624863085E+02  0.20001252301E+02 0.  0.
        -11    1    3    3    0    0 -0.97243907143E+01 -0.23342341196E+01 -0.12871049203E+02  0.16299580717E+02  0.51100000000E-03 0. -1.
         11    1    3    3    0    0  0.97243907143E+01  0.23342341196E+01 -0.12903581690E+02  0.16325282368E+02  0.51100000000E-03 0.  1.
<mgrwt>
<rscale>  0 0.20001252E+02</rscale>
<asrwt>0</asrwt>
<pdfrwt beam="1">  1        1 0.52694096E-03 0.20001252E+02</pdfrwt>
<pdfrwt beam="2">  1       -1 0.44922686E-02 0.20001252E+02</pdfrwt>
<totfact> 0.36550913E+06</totfact>
</mgrwt>
</event>
<event>
 5    1  0.1026210E-006  0.2000145E+02  0.7818608E-02  0.1745299E+00
          1   -1    0    0  501    0  0.00000000000E+00  0.00000000000E+00  0.10201344026E+03  0.10201344037E+03  0.46700000000E-02 0.  1.
         -1   -1    0    0    0  501 -0.00000000000E+00 -0.00000000000E+00 -0.98039957621E+00  0.98041069860E+00  0.46700000000E-02 0. -1.
       1023    2    1    2    0    0  0.00000000000E+00  0.00000000000E+00  0.10103304068E+03  0.10299385107E+03  0.20001451135E+02 0.  0.
        -11    1    3    3    0    0  0.30585368584E+00  0.99959616493E+01  0.50729819066E+02  0.51706163448E+02  0.51100000000E-03 0.  1.
         11    1    3    3    0    0 -0.30585368584E+00 -0.99959616493E+01  0.50303221618E+02  0.51287687618E+02  0.51100000000E-03 0. -1.
<mgrwt>
<rscale>  0 0.20001451E+02</rscale>
<asrwt>0</asrwt>
<pdfrwt beam="1">  1        1 0.15694368E-01 0.20001451E+02</pdfrwt>
<pdfrwt beam="2">  1       -1 0.15083165E-03 0.20001451E+02</pdfrwt>
<totfact> 0.44450918E+06</totfact>
</mgrwt>
</event>
<event>
 5    1  0.9801034E-007  0.2000182E+02  0.7818608E-02  0.1745292E+00
          1   -1    0    0  501    0  0.00000000000E+00  0.00000000000E+00  0.15528959150E+02  0.15528959853E+02  0.46700000000E-02 0. -1.
         -1   -1    0    0    0  501 -0.00000000000E+00 -0.00000000000E+00 -0.64407551752E+01  0.64407568683E+01  0.46700000000E-02 0.  1.
       1023    2    1    2    0    0  0.00000000000E+00  0.00000000000E+00  0.90882039751E+01  0.21969716721E+02  0.20001824949E+02 0.  0.
        -11    1    3    3    0    0  0.21043853212E+01  0.97769470127E+01  0.45808543473E+01  0.11000061694E+02  0.51100000000E-03 0.  1.
         11    1    3    3    0    0 -0.21043853212E+01 -0.97769470127E+01  0.45073496278E+01  0.10969655026E+02  0.51100000000E-03 0. -1.
<mgrwt>
<rscale>  0 0.20001825E+02</rscale>
<asrwt>0</asrwt>
<pdfrwt beam="1">  1        1 0.23890708E-02 0.20001825E+02</pdfrwt>
<pdfrwt beam="2">  1       -1 0.99088560E-03 0.20001825E+02</pdfrwt>
<totfact> 0.39290370E+06</totfact>
</mgrwt>
</event>
<event>
 5    1  0.9583198E-007  0.2000013E+02  0.7818608E-02  0.1745325E+00
         -1   -1    0    0    0  501 -0.00000000000E+00  0.00000000000E+00  0.47040273327E+01  0.47040296509E+01  0.46700000000E-02 0.  1.
          1   -1    0    0  501    0  0.00000000000E+00 -0.00000000000E+00 -0.21258658942E+02  0.21258659455E+02  0.46700000000E-02 0. -1.
       1023    2    1    2    0    0  0.00000000000E+00  0.00000000000E+00 -0.16554631609E+02  0.25962689106E+02  0.20000134947E+02 0.  0.
        -11    1    3    3    0    0 -0.45840266248E+01 -0.88874573233E+01 -0.83213649097E+01  0.13009431655E+02  0.51100000000E-03 0. -1.
         11    1    3    3    0    0  0.45840266248E+01  0.88874573233E+01 -0.82332666994E+01  0.12953257450E+02  0.51100000000E-03 0.  1.
<mgrwt>
<rscale>  0 0.20000135E+02</rscale>
<asrwt>0</asrwt>
<pdfrwt beam="2">  1        1 0.32705631E-02 0.20000135E+02</pdfrwt>
<pdfrwt beam="1">  1       -1 0.72369674E-03 0.20000135E+02</pdfrwt>
<totfact> 0.39808923E+06</totfact>
</mgrwt>
</event>
<event>
 5    1  0.9583198E-007  0.2000939E+02  0.7818608E-02  0.1745141E+00
         -1   -1    0    0    0  501 -0.00000000000E+00  0.00000000000E+00  0.12964960263E+01  0.12965044370E+01  0.46700000000E-02 0.  1.
          1   -1    0    0  501    0  0.00000000000E+00 -0.00000000000E+00 -0.77203170892E+02  0.77203171033E+02  0.46700000000E-02 0. -1.
       1023    2    1    2    0    0  0.00000000000E+00  0.00000000000E+00 -0.75906674866E+02  0.78499675470E+02  0.20009391789E+02 0.  0.
        -11    1    3    3    0    0 -0.34764004888E+01 -0.93804758241E+01 -0.38437851541E+02  0.39718347377E+02  0.51100000000E-03 0. -1.
         11    1    3    3    0    0  0.34764004888E+01  0.93804758241E+01 -0.37468823325E+02  0.38781328093E+02  0.51100000000E-03 0.  1.
<mgrwt>
<rscale>  0 0.20009392E+02</rscale>
<asrwt>0</asrwt>
<pdfrwt beam="2">  1        1 0.11877408E-01 0.20009392E+02</pdfrwt>
<pdfrwt beam="1">  1       -1 0.19946165E-03 0.20009392E+02</pdfrwt>
<totfact> 0.43169519E+06</totfact>
</mgrwt>
</event>
<event>
 5    1  0.9803193E-007  0.2000031E+02  0.7818608E-02  0.1745322E+00
          1   -1    0    0  501    0  0.00000000000E+00  0.00000000000E+00  0.10792569942E+03  0.10792569952E+03  0.46700000000E-02 0.  1.
         -1   -1    0    0    0  501 -0.00000000000E+00 -0.00000000000E+00 -0.92658627401E+00  0.92659804235E+00  0.46700000000E-02 0. -1.
       1023    2    1    2    0    0  0.00000000000E+00  0.00000000000E+00  0.10699911315E+03  0.10885229756E+03  0.20000311768E+02 0.  0.
        -11    1    3    3    0    0 -0.87190579642E+01  0.48968135487E+01  0.53764106476E+02  0.54686194786E+02  0.51100000000E-03 0. -1.
         11    1    3    3    0    0  0.87190579642E+01 -0.48968135487E+01  0.53235006672E+02  0.54166102779E+02  0.51100000000E-03 0.  1.
<mgrwt>
<rscale>  0 0.20000312E+02</rscale>
<asrwt>0</asrwt>
<pdfrwt beam="1">  1        1 0.16603951E-01 0.20000312E+02</pdfrwt>
<pdfrwt beam="2">  1       -1 0.14255268E-03 0.20000312E+02</pdfrwt>
<totfact> 0.44738426E+06</totfact>
</mgrwt>
</event>
<event>
 5    1  0.9589355E-007  0.2000165E+02  0.7818608E-02  0.1745295E+00
          1   -1    0    0  501    0  0.00000000000E+00  0.00000000000E+00  0.26146069744E+01  0.26146111450E+01  0.46700000000E-02 0. -1.
         -1   -1    0    0    0  501 -0.00000000000E+00 -0.00000000000E+00 -0.38252924691E+02  0.38252924976E+02  0.46700000000E-02 0.  1.
       1023    2    1    2    0    0  0.00000000000E+00  0.00000000000E+00 -0.35638317717E+02  0.40867536122E+02  0.20001645406E+02 0.  0.
        -11    1    3    3    0    0 -0.93313252404E+01  0.35957365490E+01 -0.18056579374E+02  0.20640809360E+02  0.51100000000E-03 0.  1.
         11    1    3    3    0    0  0.93313252404E+01 -0.35957365490E+01 -0.17581738343E+02  0.20226726762E+02  0.51100000000E-03 0. -1.
<mgrwt>
<rscale>  0 0.20001645E+02</rscale>
<asrwt>0</asrwt>
<pdfrwt beam="1">  1        1 0.40224760E-03 0.20001645E+02</pdfrwt>
<pdfrwt beam="2">  1       -1 0.58850653E-02 0.20001645E+02</pdfrwt>
<totfact> 0.35800992E+06</totfact>
</mgrwt>
</event>
<event>
 5    1  0.9583198E-007  0.2000352E+02  0.7818608E-02  0.1745258E+00
         -1   -1    0    0    0  501 -0.00000000000E+00  0.00000000000E+00  0.11189327961E+01  0.11189425415E+01  0.46700000000E-02 0. -1.
          1   -1    0    0  501    0  0.00000000000E+00 -0.00000000000E+00 -0.89401909347E+02  0.89401909469E+02  0.46700000000E-02 0.  1.
       1023    2    1    2    0    0  0.00000000000E+00  0.00000000000E+00 -0.88282976551E+02  0.90520852010E+02  0.20003517191E+02 0.  0.
        -11    1    3    3    0    0 -0.87025695938E+00 -0.99638255853E+01 -0.44129285146E+02  0.45248524564E+02  0.51100000000E-03 0.  1.
         11    1    3    3    0    0  0.87025695938E+00  0.99638255853E+01 -0.44153691405E+02  0.45272327447E+02  0.51100000000E-03 0. -1.
<mgrwt>
<rscale>  0 0.20003517E+02</rscale>
<asrwt>0</asrwt>
<pdfrwt beam="2">  1        1 0.13754135E-01 0.20003517E+02</pdfrwt>
<pdfrwt beam="1">  1       -1 0.17214434E-03 0.20003517E+02</pdfrwt>
<totfact> 0.43820845E+06</totfact>
</mgrwt>
</event>
<event>
 5    1  0.9699997E-007  0.2000335E+02  0.7818608E-02  0.1745261E+00
          1   -1    0    0  501    0  0.00000000000E+00  0.00000000000E+00  0.15724591690E+02  0.15724592384E+02  0.46700000000E-02 0.  1.
         -1   -1    0    0    0  501 -0.00000000000E+00 -0.00000000000E+00 -0.63615965862E+01  0.63615983003E+01  0.46700000000E-02 0. -1.
       1023    2    1    2    0    0  0.00000000000E+00  0.00000000000E+00  0.93629951041E+01  0.22086190684E+02  0.20003353259E+02 0.  0.
        -11    1    3    3    0    0  0.12342421677E+01  0.99244009131E+01  0.45398941697E+01  0.10983065444E+02  0.51100000000E-03 0. -1.
         11    1    3    3    0    0 -0.12342421677E+01 -0.99244009131E+01  0.48231009344E+01  0.11103125240E+02  0.51100000000E-03 0.  1.
<mgrwt>
<rscale>  0 0.20003353E+02</rscale>
<asrwt>0</asrwt>
<pdfrwt beam="1">  1        1 0.24191681E-02 0.20003353E+02</pdfrwt>
<pdfrwt beam="2">  1       -1 0.97870736E-03 0.20003353E+02</pdfrwt>
<totfact> 0.39303131E+06</totfact>
</mgrwt>
</event>
<event>
 5    1  0.9583198E-007  0.2000241E+02  0.7818608E-02  0.1745280E+00
         -1   -1    0    0    0  501 -0.00000000000E+00  0.00000000000E+00  0.95533459737E+01  0.95533471152E+01  0.46700000000E-02 0.  1.
          1   -1    0    0  501    0  0.00000000000E+00 -0.00000000000E+00 -0.10470055838E+02  0.10470056879E+02  0.46700000000E-02 0. -1.
       1023    2    1    2    0    0  0.00000000000E+00  0.00000000000E+00 -0.91670986413E+00  0.20023403995E+02  0.20002408619E+02 0.  0.
        -11    1    3    3    0    0 -0.96967407586E+01 -0.24480983017E+01 -0.39409454641E+00  0.10008760033E+02  0.51100000000E-03 0.  1.
         11    1    3    3    0    0  0.96967407586E+01  0.24480983017E+01 -0.52261531772E+00  0.10014643961E+02  0.51100000000E-03 0. -1.
<mgrwt>
<rscale>  0 0.20002409E+02</rscale>
<asrwt>0</asrwt>
<pdfrwt beam="2">  1        1 0.16107780E-02 0.20002409E+02</pdfrwt>
<pdfrwt beam="1">  1       -1 0.14697457E-02 0.20002409E+02</pdfrwt>
<totfact> 0.38684351E+06</totfact>
</mgrwt>
</event>
<event>
 5    1  0.9583198E-007  0.2000045E+02  0.7818608E-02  0.1745319E+00
          1   -1    0    0  501    0  0.00000000000E+00  0.00000000000E+00  0.36635044479E+02  0.36635044776E+02  0.46700000000E-02 0. -1.
         -1   -1    0    0    0  501 -0.00000000000E+00 -0.00000000000E+00 -0.27297460885E+01  0.27297500831E+01  0.46700000000E-02 0.  1.
       1023    2    1    2    0    0  0.00000000000E+00  0.00000000000E+00  0.33905298390E+02  0.39364794860E+02  0.20000445380E+02 0.  0.
        -11    1    3    3    0    0 -0.10654138996E+01 -0.99432911806E+01  0.16987152110E+02  0.19712115141E+02  0.51100000000E-03 0.  1.
         11    1    3    3    0    0  0.10654138996E+01  0.99432911806E+01  0.16918146281E+02  0.19652679718E+02  0.51100000000E-03 0. -1.
<mgrwt>
<rscale>  0 0.20000445E+02</rscale>
<asrwt>0</asrwt>
<pdfrwt beam="1">  1        1 0.56361610E-02 0.20000445E+02</pdfrwt>
<pdfrwt beam="2">  1       -1 0.41996127E-03 0.20000445E+02</pdfrwt>
<totfact> 0.40895141E+06</totfact>
</mgrwt>
</event>
<event>
 5    1  0.9693134E-007  0.2000116E+02  0.7818608E-02  0.1745305E+00
         -1   -1    0    0    0  501 -0.00000000000E+00  0.00000000000E+00  0.23115032488E+02  0.23115032959E+02  0.46700000000E-02 0. -1.
          1   -1    0    0  501    0  0.00000000000E+00 -0.00000000000E+00 -0.43266894594E+01  0.43266919797E+01  0.46700000000E-02 0.  1.
       1023    2    1    2    0    0  0.00000000000E+00  0.00000000000E+00  0.18788343028E+02  0.27441724939E+02  0.20001160813E+02 0.  0.
        -11    1    3    3    0    0 -0.46301705149E+01  0.88641125552E+01  0.93595213171E+01  0.13697138750E+02  0.51100000000E-03 0.  1.
         11    1    3    3    0    0  0.46301705149E+01 -0.88641125552E+01  0.94288217109E+01  0.13744586189E+02  0.51100000000E-03 0. -1.
<mgrwt>
<rscale>  0 0.20001161E+02</rscale>
<asrwt>0</asrwt>
<pdfrwt beam="2">  1        1 0.66564475E-03 0.20001161E+02</pdfrwt>
<pdfrwt beam="1">  1       -1 0.35561591E-02 0.20001161E+02</pdfrwt>
<totfact> 0.37105184E+06</totfact>
</mgrwt>
</event>
<event>
 5    1  0.9659557E-007  0.2000134E+02  0.7818608E-02  0.1745301E+00
         -1   -1    0    0    0  501 -0.00000000000E+00  0.00000000000E+00  0.14796802958E+02  0.14796803695E+02  0.46700000000E-02 0. -1.
          1   -1    0    0  501    0  0.00000000000E+00 -0.00000000000E+00 -0.67591190266E+01  0.67591206399E+01  0.46700000000E-02 0.  1.
       1023    2    1    2    0    0  0.00000000000E+00  0.00000000000E+00  0.80376839316E+01  0.21555924335E+02  0.20001337729E+02 0.  0.
        -11    1    3    3    0    0 -0.89771451182E+01  0.44063028503E+01  0.39180981360E+01  0.10740397225E+02  0.51100000000E-03 0.  1.
         11    1    3    3    0    0  0.89771451182E+01 -0.44063028503E+01  0.41195857955E+01  0.10815527110E+02  0.51100000000E-03 0. -1.
<mgrwt>
<rscale>  0 0.20001338E+02</rscale>
<asrwt>0</asrwt>
<pdfrwt beam="2">  1        1 0.10398647E-02 0.20001338E+02</pdfrwt>
<pdfrwt beam="1">  1       -1 0.22764314E-02 0.20001338E+02</pdfrwt>
<totfact> 0.37978215E+06</totfact>
</mgrwt>
</event>
<event>
 5    1  0.9583198E-007  0.2000018E+02  0.7818608E-02  0.1745324E+00
          1   -1    0    0  501    0  0.00000000000E+00  0.00000000000E+00  0.27023593325E+01  0.27023633676E+01  0.46700000000E-02 0.  1.
         -1   -1    0    0    0  501 -0.00000000000E+00 -0.00000000000E+00 -0.37005339149E+02  0.37005339444E+02  0.46700000000E-02 0. -1.
       1023    2    1    2    0    0  0.00000000000E+00  0.00000000000E+00 -0.34302979816E+02  0.39707702811E+02  0.20000180956E+02 0.  0.
        -11    1    3    3    0    0  0.22653585379E+01 -0.97400901159E+01 -0.17102675217E+02  0.19811681014E+02  0.51100000000E-03 0. -1.
         11    1    3    3    0    0 -0.22653585379E+01  0.97400901159E+01 -0.17200304600E+02  0.19896021797E+02  0.51100000000E-03 0.  1.
<mgrwt>
<rscale>  0 0.20000181E+02</rscale>
<asrwt>0</asrwt>
<pdfrwt beam="1">  1        1 0.41574795E-03 0.20000181E+02</pdfrwt>
<pdfrwt beam="2">  1       -1 0.56931291E-02 0.20000181E+02</pdfrwt>
<totfact> 0.35905532E+06</totfact>
</mgrwt>
</event>
<event>
 5    1  0.9960186E-007  0.2000129E+02  0.7818608E-02  0.1745303E+00
         -1   -1    0    0    0  501 -0.00000000000E+00  0.00000000000E+00  0.25147030270E+01  0.25147073632E+01  0.46700000000E-02 0.  1.
          1   -1    0    0  501    0  0.00000000000E+00 -0.00000000000E+00 -0.39771201544E+02  0.39771201818E+02  0.46700000000E-02 0. -1.
       1023    2    1    2    0    0  0.00000000000E+00  0.00000000000E+00 -0.37256498517E+02  0.42285909181E+02  0.20001285797E+02 0.  0.
        -11    1    3    3    0    0  0.66677424116E+01 -0.74531501464E+01 -0.18484515117E+02  0.21016315932E+02  0.51100000000E-03 0. -1.
         11    1    3    3    0    0 -0.66677424116E+01  0.74531501464E+01 -0.18771983400E+02  0.21269593250E+02  0.51100000000E-03 0.  1.
<mgrwt>
<rscale>  0 0.20001286E+02</rscale>
<asrwt>0</asrwt>
<pdfrwt beam="2">  1        1 0.61186463E-02 0.20001286E+02</pdfrwt>
<pdfrwt beam="1">  1       -1 0.38687777E-03 0.20001286E+02</pdfrwt>
<totfact> 0.41090181E+06</totfact>
</mgrwt>
</event>
<event>
 5    1  0.9583198E-007  0.2000329E+02  0.7818608E-02  0.1745263E+00
          1   -1    0    0  501    0  0.00000000000E+00  0.00000000000E+00  0.36156233032E+01  0.36156263191E+01  0.46700000000E-02 0. -1.
         -1   -1    0    0    0  501 -0.00000000000E+00 -0.00000000000E+00 -0.27666824299E+02  0.27666824693E+02  0.46700000000E-02 0.  1.
       1023    2    1    2    0    0  0.00000000000E+00  0.00000000000E+00 -0.24051200996E+02  0.31282451012E+02  0.20003286530E+02 0.  0.
        -11    1    3    3    0    0 -0.45953132697E+01  0.88832764945E+01 -0.12116283316E+02  0.15710946088E+02  0.51100000000E-03 0. -1.
         11    1    3    3    0    0  0.45953132697E+01 -0.88832764945E+01 -0.11934917680E+02  0.15571504925E+02  0.51100000000E-03 0.  1.
<mgrwt>
<rscale>  0 0.20003287E+02</rscale>
<asrwt>0</asrwt>
<pdfrwt beam="1">  1        1 0.55625002E-03 0.20003287E+02</pdfrwt>
<pdfrwt beam="2">  1       -1 0.42564346E-02 0.20003287E+02</pdfrwt>
<totfact> 0.36677799E+06</totfact>
</mgrwt>
</event>
<event>
 5    1  0.9583198E-007  0.2000050E+02  0.7818608E-02  0.1745318E+00
          1   -1    0    0  501    0  0.00000000000E+00  0.00000000000E+00  0.11382666945E+02  0.11382667903E+02  0.46700000000E-02 0. -1.
         -1   -1    0    0    0  501 -0.00000000000E+00 -0.00000000000E+00 -0.87857264986E+01  0.87857277398E+01  0.46700000000E-02 0.  1.
       1023    2    1    2    0    0  0.00000000000E+00  0.00000000000E+00  0.25969404468E+01  0.20168395643E+02  0.20000502072E+02 0.  0.
        -11    1    3    3    0    0  0.96372687224E+01 -0.26691957355E+01  0.12391013773E+01  0.10076553319E+02  0.51100000000E-03 0.  1.
         11    1    3    3    0    0 -0.96372687224E+01  0.26691957355E+01  0.13578390696E+01  0.10091842324E+02  0.51100000000E-03 0. -1.
<mgrwt>
<rscale>  0 0.20000502E+02</rscale>
<asrwt>0</asrwt>
<pdfrwt beam="1">  1        1 0.17511797E-02 0.20000502E+02</pdfrwt>
<pdfrwt beam="2">  1       -1 0.13516504E-02 0.20000502E+02</pdfrwt>
<totfact> 0.38820750E+06</totfact>
</mgrwt>
</event>
<event>
 5    1  0.9583198E-007  0.2000054E+02  0.7818608E-02  0.1745317E+00
         -1   -1    0    0    0  501 -0.00000000000E+00  0.00000000000E+00  0.10673117241E+02  0.10673118263E+02  0.46700000000E-02 0. -1.
          1   -1    0    0  501    0  0.00000000000E+00 -0.00000000000E+00 -0.93698377819E+01  0.93698389457E+01  0.46700000000E-02 0.  1.
       1023    2    1    2    0    0  0.00000000000E+00  0.00000000000E+00  0.13032794590E+01  0.20042957208E+02  0.20000539900E+02 0.  0.
        -11    1    3    3    0    0 -0.52507551888E+01 -0.85108632375E+01  0.63835588988E+00  0.10020614832E+02  0.51100000000E-03 0.  1.
         11    1    3    3    0    0  0.52507551888E+01  0.85108632375E+01  0.66492356916E+00  0.10022342377E+02  0.51100000000E-03 0. -1.
<mgrwt>
<rscale>  0 0.20000540E+02</rscale>
<asrwt>0</asrwt>
<pdfrwt beam="2">  1        1 0.14415137E-02 0.20000540E+02</pdfrwt>
<pdfrwt beam="1">  1       -1 0.16420182E-02 0.20000540E+02</pdfrwt>
<totfact> 0.38520148E+06</totfact>
</mgrwt>
</event>
<event>
 5    1  0.9583198E-007  0.2000296E+02  0.7818608E-02  0.1745269E+00
         -1   -1    0    0    0  501 -0.00000000000E+00  0.00000000000E+00  0.20620977782E+02  0.20620978310E+02  0.46700000000E-02 0.  1.
          1   -1    0    0  501    0  0.00000000000E+00 -0.00000000000E+00 -0.48508667720E+01  0.48508690200E+01  0.46700000000E-02 0. -1.
       1023    2    1    2    0    0  0.00000000000E+00  0.00000000000E+00  0.15770111010E+02  0.25471847330E+02  0.20002964909E+02 0.  0.
        -11    1    3    3    0    0 -0.70202530940E+00  0.99765875862E+01  0.77995226682E+01  0.12682968640E+02  0.51100000000E-03 0. -1.
         11    1    3    3    0    0  0.70202530940E+00 -0.99765875862E+01  0.79705883415E+01  0.12788878691E+02  0.51100000000E-03 0.  1.
<mgrwt>
<rscale>  0 0.20002965E+02</rscale>
<asrwt>0</asrwt>
<pdfrwt beam="2">  1        1 0.74628742E-03 0.20002965E+02</pdfrwt>
<pdfrwt beam="1">  1       -1 0.31724583E-02 0.20002965E+02</pdfrwt>
<totfact> 0.37341857E+06</totfact>
</mgrwt>
</event>
<event>
 5    1  0.9583198E-007  0.2001108E+02  0.7818608E-02  0.1745108E+00
         -1   -1    0    0    0  501 -0.00000000000E+00  0.00000000000E+00  0.24780015157E+01  0.24780059162E+01  0.46700000000E-02 0.  1.
          1   -1    0    0  501    0  0.00000000000E+00 -0.00000000000E+00 -0.40399777175E+02  0.40399777445E+02  0.46700000000E-02 0. -1.
       1023    2    1    2    0    0  0.00000000000E+00  0.00000000000E+00 -0.37921775660E+02  0.42877783361E+02  0.20011077852E+02 0.  0.
        -11    1    3    3    0    0  0.96210858754E+01 -0.27443055379E+01 -0.18704634302E+02  0.21212257092E+02  0.51100000000E-03 0. -1.
         11    1    3    3    0    0 -0.96210858754E+01  0.27443055379E+01 -0.19217141358E+02  0.21665526269E+02  0.51100000000E-03 0.  1.
<mgrwt>
<rscale>  0 0.20011078E+02</rscale>
<asrwt>0</asrwt>
<pdfrwt beam="2">  1        1 0.62153502E-02 0.20011078E+02</pdfrwt>
<pdfrwt beam="1">  1       -1 0.38123139E-03 0.20011078E+02</pdfrwt>
<totfact> 0.41084639E+06</totfact>
</mgrwt>
</event>
<event>
 5    1  0.9583198E-007  0.2000104E+02  0.7818608E-02  0.1745307E+00
         -1   -1    0    0    0  501 -0.00000000000E+00  0.00000000000E+00  0.89153360558E+02  0.89153360680E+02  0.46700000000E-02 0. -1.
          1   -1    0    0  501    0  0.00000000000E+00 -0.00000000000E+00 -0.11217746021E+01  0.11217843228E+01  0.46700000000E-02 0.  1.
       1023    2    1    2    0    0  0.00000000000E+00  0.00000000000E+00  0.88031585956E+02  0.90275145003E+02  0.20001041958E+02 0.  0.
        -11    1    3    3    0    0  0.99938175458E+01 -0.35947991267E+00  0.43702935626E+02  0.44832490423E+02  0.51100000000E-03 0.  1.
         11    1    3    3    0    0 -0.99938175458E+01  0.35947991267E+00  0.44328650330E+02  0.45442654580E+02  0.51100000000E-03 0. -1.
<mgrwt>
<rscale>  0 0.20001042E+02</rscale>
<asrwt>0</asrwt>
<pdfrwt beam="2">  1        1 0.17258145E-03 0.20001042E+02</pdfrwt>
<pdfrwt beam="1">  1       -1 0.13715904E-01 0.20001042E+02</pdfrwt>
<totfact> 0.32461166E+06</totfact>
</mgrwt>
</event>
<event>
 5    1  0.9583198E-007  0.2000567E+02  0.7818608E-02  0.1745215E+00
          1   -1    0    0  501    0  0.00000000000E+00  0.00000000000E+00  0.11000650039E+03  0.11000650049E+03  0.46700000000E-02 0. -1.
         -1   -1    0    0    0  501 -0.00000000000E+00 -0.00000000000E+00 -0.90954703476E+00  0.90955902356E+00  0.46700000000E-02 0.  1.
       1023    2    1    2    0    0  0.00000000000E+00  0.00000000000E+00  0.10909695336E+03  0.11091605952E+03  0.20005674856E+02 0.  0.
        -11    1    3    3    0    0 -0.99444487010E+01 -0.10771848401E+01  0.54914949992E+02  0.55818492635E+02  0.51100000000E-03 0.  1.
         11    1    3    3    0    0  0.99444487010E+01  0.10771848401E+01  0.54182003368E+02  0.55097566882E+02  0.51100000000E-03 0. -1.
<mgrwt>
<rscale>  0 0.20005675E+02</rscale>
<asrwt>0</asrwt>
<pdfrwt beam="1">  1        1 0.16924069E-01 0.20005675E+02</pdfrwt>
<pdfrwt beam="2">  1       -1 0.13993132E-03 0.20005675E+02</pdfrwt>
<totfact> 0.44809910E+06</totfact>
</mgrwt>
</event>
<event>
 5    1  0.9583198E-007  0.2000283E+02  0.7818608E-02  0.1745272E+00
          1   -1    0    0  501    0  0.00000000000E+00  0.00000000000E+00  0.91239044892E+00  0.91240240035E+00  0.46700000000E-02 0.  1.
         -1   -1    0    0    0  501 -0.00000000000E+00 -0.00000000000E+00 -0.10963247290E+03  0.10963247300E+03  0.46700000000E-02 0. -1.
       1023    2    1    2    0    0  0.00000000000E+00  0.00000000000E+00 -0.10872008245E+03  0.11054487540E+03  0.20002828525E+02 0.  0.
        -11    1    3    3    0    0 -0.54778926712E+01  0.83662969924E+01 -0.55252072882E+02  0.56149744359E+02  0.51100000000E-03 0.  1.
         11    1    3    3    0    0  0.54778926712E+01 -0.83662969924E+01 -0.53468009569E+02  0.54395131041E+02  0.51100000000E-03 0. -1.
<mgrwt>
<rscale>  0 0.20002829E+02</rscale>
<asrwt>0</asrwt>
<pdfrwt beam="1">  1        1 0.14036877E-03 0.20002829E+02</pdfrwt>
<pdfrwt beam="2">  1       -1 0.16866525E-01 0.20002829E+02</pdfrwt>
<totfact> 0.31350914E+06</totfact>
</mgrwt>
</event>
<event>
 5    1  0.9614576E-007  0.2000041E+02  0.7818608E-02  0.1745320E+00
         -1   -1    0    0    0  501 -0.00000000000E+00  0.00000000000E+00  0.13327315200E+01  0.13327397020E+01  0.46700000000E-02 0.  1.
          1   -1    0    0  501    0  0.00000000000E+00 -0.00000000000E+00 -0.75036679110E+02  0.75036679256E+02  0.46700000000E-02 0. -1.
       1023    2    1    2    0    0  0.00000000000E+00  0.00000000000E+00 -0.73703947590E+02  0.76369418958E+02  0.20000406534E+02 0.  0.
        -11    1    3    3    0    0 -0.98460103843E+01 -0.17490623215E+01 -0.36968145221E+02  0.38296826250E+02  0.51100000000E-03 0. -1.
         11    1    3    3    0    0  0.98460103843E+01  0.17490623215E+01 -0.36735802370E+02  0.38072592708E+02  0.51100000000E-03 0.  1.
<mgrwt>
<rscale>  0 0.20000407E+02</rscale>
<asrwt>0</asrwt>
<pdfrwt beam="2">  1        1 0.11544102E-01 0.20000407E+02</pdfrwt>
<pdfrwt beam="1">  1       -1 0.20503632E-03 0.20000407E+02</pdfrwt>
<totfact> 0.43099097E+06</totfact>
</mgrwt>
</event>
<event>
 5    1  0.9583198E-007  0.2000104E+02  0.7818608E-02  0.1745307E+00
         -1   -1    0    0    0  501 -0.00000000000E+00  0.00000000000E+00  0.81859515258E+02  0.81859515391E+02  0.46700000000E-02 0.  1.
          1   -1    0    0  501    0  0.00000000000E+00 -0.00000000000E+00 -0.12217277989E+01  0.12217367243E+01  0.46700000000E-02 0. -1.
       1023    2    1    2    0    0  0.00000000000E+00  0.00000000000E+00  0.80637787459E+02  0.83081252115E+02  0.20001042142E+02 0.  0.
        -11    1    3    3    0    0  0.99864133674E+01 -0.53046674323E+00  0.40418458130E+02  0.41637262216E+02  0.51100000000E-03 0.  1.
         11    1    3    3    0    0 -0.99864133674E+01  0.53046674323E+00  0.40219329328E+02  0.41443989900E+02  0.51100000000E-03 0. -1.
<mgrwt>
<rscale>  0 0.20001042E+02</rscale>
<asrwt>0</asrwt>
<pdfrwt beam="2">  1        1 0.18795880E-03 0.20001042E+02</pdfrwt>
<pdfrwt beam="1">  1       -1 0.12593774E-01 0.20001042E+02</pdfrwt>
<totfact> 0.32880323E+06</totfact>
</mgrwt>
</event>
<event>
 4    1  0.9583198E-007  0.2067674E+02  0.7818608E-02  0.1732196E+00
          1   -1    0    0  501    0  0.00000000000E+00  0.00000000000E+00  0.28127587695E+01  0.28127626462E+01  0.46700000000E-02 0.  1.
         -1   -1    0    0    0  501 -0.00000000000E+00 -0.00000000000E+00 -0.37998915326E+02  0.37998915613E+02  0.46700000000E-02 0. -1.
        -11    1    1    2    0    0 -0.39058038960E+01 -0.95598820955E+01 -0.18550353985E+02  0.21231163015E+02  0.51100000000E-03 0.  1.
         11    1    1    2    0    0  0.39058038960E+01  0.95598820955E+01 -0.16635802571E+02  0.19580515243E+02  0.51100000000E-03 0. -1.
<mgrwt>
<rscale>  0 0.20676737E+02</rscale>
<asrwt>0</asrwt>
<pdfrwt beam="1">  1        1 0.43273247E-03 0.20676737E+02</pdfrwt>
<pdfrwt beam="2">  1       -1 0.58459869E-02 0.20676737E+02</pdfrwt>
<totfact> 0.33289900E+06</totfact>
</mgrwt>
</event>
<event>
 5    1  0.9583198E-007  0.2000889E+02  0.7818608E-02  0.1745151E+00
         -1   -1    0    0    0  501 -0.00000000000E+00  0.00000000000E+00  0.28876501058E+01  0.28876538820E+01  0.46700000000E-02 0.  1.
          1   -1    0    0  501    0  0.00000000000E+00 -0.00000000000E+00 -0.34661007344E+02  0.34661007658E+02  0.46700000000E-02 0. -1.
       1023    2    1    2    0    0  0.00000000000E+00  0.00000000000E+00 -0.31773357238E+02  0.37548661540E+02  0.20008891856E+02 0.  0.
        -11    1    3    3    0    0  0.10003340099E+02  0.36203191502E-01 -0.15615939016E+02  0.18545233226E+02  0.51100000000E-03 0.  1.
         11    1    3    3    0    0 -0.10003340099E+02 -0.36203191502E-01 -0.16157418222E+02  0.19003428314E+02  0.51100000000E-03 0. -1.
<mgrwt>
<rscale>  0 0.20008892E+02</rscale>
<asrwt>0</asrwt>
<pdfrwt beam="2">  1        1 0.53324627E-02 0.20008892E+02</pdfrwt>
<pdfrwt beam="1">  1       -1 0.44425420E-03 0.20008892E+02</pdfrwt>
<totfact> 0.40728775E+06</totfact>
</mgrwt>
</event>
<event>
 5    1  0.9583198E-007  0.2000013E+02  0.7818608E-02  0.1745325E+00
         -1   -1    0    0    0  501 -0.00000000000E+00  0.00000000000E+00  0.99121031248E+00  0.99122131357E+00  0.46700000000E-02 0. -1.
          1   -1    0    0  501    0  0.00000000000E+00 -0.00000000000E+00 -0.10088751209E+03  0.10088751220E+03  0.46700000000E-02 0.  1.
       1023    2    1    2    0    0  0.00000000000E+00  0.00000000000E+00 -0.99896301775E+02  0.10187873351E+03  0.20000130827E+02 0.  0.
        -11    1    3    3    0    0  0.99911557854E+01 -0.42184272065E+00 -0.50013146904E+02  0.51003098030E+02  0.51100000000E-03 0.  1.
         11    1    3    3    0    0 -0.99911557854E+01  0.42184272065E+00 -0.49883154871E+02  0.50875635479E+02  0.51100000000E-03 0. -1.
<mgrwt>
<rscale>  0 0.20000131E+02</rscale>
<asrwt>0</asrwt>
<pdfrwt beam="2">  1        1 0.15521148E-01 0.20000131E+02</pdfrwt>
<pdfrwt beam="1">  1       -1 0.15249483E-03 0.20000131E+02</pdfrwt>
<totfact> 0.44403022E+06</totfact>
</mgrwt>
</event>
<event>
 5    1  0.9627524E-007  0.2000136E+02  0.7818608E-02  0.1745301E+00
          1   -1    0    0  501    0  0.00000000000E+00  0.00000000000E+00  0.11472090375E+02  0.11472091325E+02  0.46700000000E-02 0.  1.
         -1   -1    0    0    0  501 -0.00000000000E+00 -0.00000000000E+00 -0.87179945290E+01  0.87179957797E+01  0.46700000000E-02 0. -1.
       1023    2    1    2    0    0  0.00000000000E+00  0.00000000000E+00  0.27540958458E+01  0.20190087105E+02  0.20001364288E+02 0.  0.
        -11    1    3    3    0    0  0.53462377855E+01 -0.84516802911E+01  0.13992757241E+01  0.10098075609E+02  0.51100000000E-03 0. -1.
         11    1    3    3    0    0 -0.53462377855E+01  0.84516802911E+01  0.13548201217E+01  0.10092011495E+02  0.51100000000E-03 0.  1.
<mgrwt>
<rscale>  0 0.20001364E+02</rscale>
<asrwt>0</asrwt>
<pdfrwt beam="1">  1        1 0.17649371E-02 0.20001364E+02</pdfrwt>
<pdfrwt beam="2">  1       -1 0.13412301E-02 0.20001364E+02</pdfrwt>
<totfact> 0.38828903E+06</totfact>
</mgrwt>
</event>
<event>
 5    1  0.9583198E-007  0.2000080E+02  0.7818608E-02  0.1745312E+00
          1   -1    0    0  501    0  0.00000000000E+00  0.00000000000E+00  0.19274528237E+01  0.19274584812E+01  0.46700000000E-02 0. -1.
         -1   -1    0    0    0  501 -0.00000000000E+00 -0.00000000000E+00 -0.51886013244E+02  0.51886013454E+02  0.46700000000E-02 0.  1.
       1023    2    1    2    0    0  0.00000000000E+00  0.00000000000E+00 -0.49958560420E+02  0.53813471936E+02  0.20000800046E+02 0.  0.
        -11    1    3    3    0    0  0.72134383777E+01 -0.69263329718E+01 -0.24939491513E+02  0.26869797522E+02  0.51100000000E-03 0. -1.
         11    1    3    3    0    0 -0.72134383777E+01  0.69263329718E+01 -0.25019068907E+02  0.26943674414E+02  0.51100000000E-03 0.  1.
<mgrwt>
<rscale>  0 0.20000800E+02</rscale>
<asrwt>0</asrwt>
<pdfrwt beam="1">  1        1 0.29653169E-03 0.20000800E+02</pdfrwt>
<pdfrwt beam="2">  1       -1 0.79824630E-02 0.20000800E+02</pdfrwt>
<totfact> 0.34793288E+06</totfact>
</mgrwt>
</event>
<event>
 5    1  0.9935760E-007  0.2000114E+02  0.7818608E-02  0.1745306E+00
          1   -1    0    0  501    0  0.00000000000E+00  0.00000000000E+00  0.35438008735E+02  0.35438009043E+02  0.46700000000E-02 0. -1.
         -1   -1    0    0    0  501 -0.00000000000E+00 -0.00000000000E+00 -0.28221471257E+01  0.28221509896E+01  0.46700000000E-02 0.  1.
       1023    2    1    2    0    0  0.00000000000E+00  0.00000000000E+00  0.32615861609E+02  0.38260160032E+02  0.20001135397E+02 0.  0.
        -11    1    3    3    0    0 -0.62822852814E+01 -0.77804222789E+01  0.16123707192E+02  0.18973033839E+02  0.51100000000E-03 0.  1.
         11    1    3    3    0    0  0.62822852814E+01  0.77804222789E+01  0.16492154417E+02  0.19287126193E+02  0.51100000000E-03 0. -1.
<mgrwt>
<rscale>  0 0.20001135E+02</rscale>
<asrwt>0</asrwt>
<pdfrwt beam="1">  1        1 0.54520018E-02 0.20001135E+02</pdfrwt>
<pdfrwt beam="2">  1       -1 0.43417679E-03 0.20001135E+02</pdfrwt>
<totfact> 0.40814667E+06</totfact>
</mgrwt>
</event>
<event>
 5    1  0.9583198E-007  0.2000107E+02  0.7818608E-02  0.1745307E+00
          1   -1    0    0  501    0  0.00000000000E+00  0.00000000000E+00  0.41308299312E+01  0.41308325710E+01  0.46700000000E-02 0. -1.
         -1   -1    0    0    0  501 -0.00000000000E+00 -0.00000000000E+00 -0.24210781536E+02  0.24210781986E+02  0.46700000000E-02 0.  1.
       1023    2    1    2    0    0  0.00000000000E+00  0.00000000000E+00 -0.20079951604E+02  0.28341614557E+02  0.20001066453E+02 0.  0.
        -11    1    3    3    0    0 -0.97146848261E+01 -0.23722345727E+01 -0.10167241612E+02  0.14260974735E+02  0.51100000000E-03 0.  1.
         11    1    3    3    0    0  0.97146848261E+01  0.23722345727E+01 -0.99127099929E+01  0.14080639822E+02  0.51100000000E-03 0. -1.
<mgrwt>
<rscale>  0 0.20001066E+02</rscale>
<asrwt>0</asrwt>
<pdfrwt beam="1">  1        1 0.63551255E-03 0.20001066E+02</pdfrwt>
<pdfrwt beam="2">  1       -1 0.37247358E-02 0.20001066E+02</pdfrwt>
<totfact> 0.37001904E+06</totfact>
</mgrwt>
</event>
<event>
 5    1  0.9684000E-007  0.2000172E+02  0.7818608E-02  0.1745294E+00
          1   -1    0    0  501    0  0.00000000000E+00  0.00000000000E+00  0.11148846386E+02  0.11148847364E+02  0.46700000000E-02 0. -1.
         -1   -1    0    0    0  501 -0.00000000000E+00 -0.00000000000E+00 -0.89710775941E+01  0.89710788096E+01  0.46700000000E-02 0.  1.
       1023    2    1    2    0    0  0.00000000000E+00  0.00000000000E+00  0.21777687916E+01  0.20119926173E+02  0.20001718734E+02 0.  0.
        -11    1    3    3    0    0  0.23799065546E+01 -0.97126981531E+01  0.12189824016E+01  0.10074044817E+02  0.51100000000E-03 0.  1.
         11    1    3    3    0    0 -0.23799065546E+01  0.97126981531E+01  0.95878639004E+00  0.10045881356E+02  0.51100000000E-03 0. -1.
<mgrwt>
<rscale>  0 0.20001719E+02</rscale>
<asrwt>0</asrwt>
<pdfrwt beam="1">  1        1 0.17152073E-02 0.20001719E+02</pdfrwt>
<pdfrwt beam="2">  1       -1 0.13801660E-02 0.20001719E+02</pdfrwt>
<totfact> 0.38783728E+06</totfact>
</mgrwt>
</event>
<event>
 5    1  0.9883636E-007  0.2000155E+02  0.7818608E-02  0.1745297E+00
          1   -1    0    0  501    0  0.00000000000E+00  0.00000000000E+00  0.10272944308E+03  0.10272944318E+03  0.46700000000E-02 0. -1.
         -1   -1    0    0    0  501 -0.00000000000E+00 -0.00000000000E+00 -0.97357610750E+00  0.97358730784E+00  0.46700000000E-02 0.  1.
       1023    2    1    2    0    0  0.00000000000E+00  0.00000000000E+00  0.10175586697E+03  0.10370303049E+03  0.20001551697E+02 0.  0.
        -11    1    3    3    0    0  0.92622831110E+01 -0.37715620822E+01  0.51037598869E+02  0.52008182698E+02  0.51100000000E-03 0. -1.
         11    1    3    3    0    0 -0.92622831110E+01  0.37715620822E+01  0.50718268100E+02  0.51694847792E+02  0.51100000000E-03 0.  1.
<mgrwt>
<rscale>  0 0.20001552E+02</rscale>
<asrwt>0</asrwt>
<pdfrwt beam="1">  1        1 0.15804520E-01 0.20001552E+02</pdfrwt>
<pdfrwt beam="2">  1       -1 0.14978191E-03 0.20001552E+02</pdfrwt>
<totfact> 0.44484895E+06</totfact>
</mgrwt>
</event>
<event>
 5    1  0.9583198E-007  0.2000205E+02  0.7818608E-02  0.1745287E+00
         -1   -1    0    0    0  501 -0.00000000000E+00  0.00000000000E+00  0.94770824929E+01  0.94770836435E+01  0.46700000000E-02 0.  1.
          1   -1    0    0  501    0  0.00000000000E+00 -0.00000000000E+00 -0.10553932039E+02  0.10553933072E+02  0.46700000000E-02 0. -1.
       1023    2    1    2    0    0  0.00000000000E+00  0.00000000000E+00 -0.10768495459E+01  0.20031016715E+02  0.20002050538E+02 0.  0.
        -11    1    3    3    0    0  0.34958402276E+01  0.93696346017E+01 -0.44053506700E+00  0.10010245895E+02  0.51100000000E-03 0.  1.
         11    1    3    3    0    0 -0.34958402276E+01 -0.93696346017E+01 -0.63631447888E+00  0.10020770821E+02  0.51100000000E-03 0. -1.
<mgrwt>
<rscale>  0 0.20002051E+02</rscale>
<asrwt>0</asrwt>
<pdfrwt beam="2">  1        1 0.16236820E-02 0.20002051E+02</pdfrwt>
<pdfrwt beam="1">  1       -1 0.14580128E-02 0.20002051E+02</pdfrwt>
<totfact> 0.38698195E+06</totfact>
</mgrwt>
</event>
<event>
 5    1  0.9583198E-007  0.2000007E+02  0.7818608E-02  0.1745327E+00
          1   -1    0    0  501    0  0.00000000000E+00  0.00000000000E+00  0.43470728350E+01  0.43470753434E+01  0.46700000000E-02 0.  1.
         -1   -1    0    0    0  501 -0.00000000000E+00 -0.00000000000E+00 -0.23004138438E+02  0.23004138912E+02  0.46700000000E-02 0. -1.
       1023    2    1    2    0    0  0.00000000000E+00  0.00000000000E+00 -0.18657065603E+02  0.27351214255E+02  0.20000070608E+02 0.  0.
        -11    1    3    3    0    0  0.46574747491E+01  0.88491875102E+01 -0.92974921756E+01  0.13654433406E+02  0.51100000000E-03 0.  1.
         11    1    3    3    0    0 -0.46574747491E+01 -0.88491875102E+01 -0.93595734274E+01  0.13696780849E+02  0.51100000000E-03 0. -1.
<mgrwt>
<rscale>  0 0.20000071E+02</rscale>
<asrwt>0</asrwt>
<pdfrwt beam="1">  1        1 0.66878068E-03 0.20000071E+02</pdfrwt>
<pdfrwt beam="2">  1       -1 0.35390984E-02 0.20000071E+02</pdfrwt>
<totfact> 0.37120237E+06</totfact>
</mgrwt>
</event>
<event>
 5    1  0.9583198E-007  0.2000046E+02  0.7818608E-02  0.1745319E+00
         -1   -1    0    0    0  501 -0.00000000000E+00  0.00000000000E+00  0.98456603619E+02  0.98456603730E+02  0.46700000000E-02 0.  1.
          1   -1    0    0  501    0  0.00000000000E+00 -0.00000000000E+00 -0.10157169258E+01  0.10157276615E+01  0.46700000000E-02 0. -1.
       1023    2    1    2    0    0  0.00000000000E+00  0.00000000000E+00  0.97440886694E+02  0.99472331392E+02  0.20000457816E+02 0.  0.
        -11    1    3    3    0    0 -0.50712318332E+01 -0.86189935692E+01  0.48778336846E+02  0.49792876882E+02  0.51100000000E-03 0.  1.
         11    1    3    3    0    0  0.50712318332E+01  0.86189935692E+01  0.48662549848E+02  0.49679454510E+02  0.51100000000E-03 0. -1.
<mgrwt>
<rscale>  0 0.20000458E+02</rscale>
<asrwt>0</asrwt>
<pdfrwt beam="2">  1        1 0.15626500E-03 0.20000458E+02</pdfrwt>
<pdfrwt beam="1">  1       -1 0.15147168E-01 0.20000458E+02</pdfrwt>
<totfact> 0.31949368E+06</totfact>
</mgrwt>
</event>
<event>
 5    1  0.9583198E-007  0.2000035E+02  0.7818608E-02  0.1745321E+00
          1   -1    0    0  501    0  0.00000000000E+00  0.00000000000E+00  0.43613676025E+01  0.43613701027E+01  0.46700000000E-02 0.  1.
         -1   -1    0    0    0  501 -0.00000000000E+00 -0.00000000000E+00 -0.22929379236E+02  0.22929379712E+02  0.46700000000E-02 0. -1.
       1023    2    1    2    0    0  0.00000000000E+00  0.00000000000E+00 -0.18568011634E+02  0.27290749814E+02  0.20000349232E+02 0.  0.
        -11    1    3    3    0    0 -0.68191714759E+01 -0.73144963122E+01 -0.92524099860E+01  0.13623877815E+02  0.51100000000E-03 0. -1.
         11    1    3    3    0    0  0.68191714759E+01  0.73144963122E+01 -0.93156016475E+01  0.13666871999E+02  0.51100000000E-03 0.  1.
<mgrwt>
<rscale>  0 0.20000349E+02</rscale>
<asrwt>0</asrwt>
<pdfrwt beam="1">  1        1 0.67097987E-03 0.20000349E+02</pdfrwt>
<pdfrwt beam="2">  1       -1 0.35275970E-02 0.20000349E+02</pdfrwt>
<totfact> 0.37126262E+06</totfact>
</mgrwt>
</event>
<event>
 5    1  0.9583198E-007  0.2000063E+02  0.7818608E-02  0.1745316E+00
         -1   -1    0    0    0  501 -0.00000000000E+00  0.00000000000E+00  0.11394179760E+03  0.11394179769E+03  0.46700000000E-02 0. -1.
          1   -1    0    0  501    0  0.00000000000E+00 -0.00000000000E+00 -0.87769017930E+00  0.87770260324E+00  0.46700000000E-02 0.  1.
       1023    2    1    2    0    0  0.00000000000E+00  0.00000000000E+00  0.11306410742E+03  0.11481950030E+03  0.20000631541E+02 0.  0.
        -11    1    3    3    0    0 -0.87224252295E+01 -0.48911274978E+01  0.56245866742E+02  0.57127938488E+02  0.51100000000E-03 0.  1.
         11    1    3    3    0    0  0.87224252295E+01  0.48911274978E+01  0.56818240677E+02  0.57691561809E+02  0.51100000000E-03 0. -1.
<mgrwt>
<rscale>  0 0.20000632E+02</rscale>
<asrwt>0</asrwt>
<pdfrwt beam="2">  1        1 0.13503023E-03 0.20000632E+02</pdfrwt>
<pdfrwt beam="1">  1       -1 0.17529508E-01 0.20000632E+02</pdfrwt>
<totfact> 0.31137971E+06</totfact>
</mgrwt>
</event>
<event>
 5    1  0.9947915E-007  0.2000107E+02  0.7818608E-02  0.1745307E+00
          1   -1    0    0  501    0  0.00000000000E+00  0.00000000000E+00  0.50169567422E+02  0.50169567639E+02  0.46700000000E-02 0. -1.
         -1   -1    0    0    0  501 -0.00000000000E+00 -0.00000000000E+00 -0.19934501866E+01  0.19934556568E+01  0.46700000000E-02 0.  1.
       1023    2    1    2    0    0  0.00000000000E+00  0.00000000000E+00  0.48176117235E+02  0.52163023296E+02  0.20001068159E+02 0.  0.
        -11    1    3    3    0    0  0.67926896806E+01 -0.73395136424E+01  0.24191987553E+02  0.26177497123E+02  0.51100000000E-03 0. -1.
         11    1    3    3    0    0 -0.67926896806E+01  0.73395136424E+01  0.23984129682E+02  0.25985526172E+02  0.51100000000E-03 0.  1.
<mgrwt>
<rscale>  0 0.20001068E+02</rscale>
<asrwt>0</asrwt>
<pdfrwt beam="1">  1        1 0.77183948E-02 0.20001068E+02</pdfrwt>
<pdfrwt beam="2">  1       -1 0.30668511E-03 0.20001068E+02</pdfrwt>
<totfact> 0.41719815E+06</totfact>
</mgrwt>
</event>
<event>
 5    1  0.9583198E-007  0.2000009E+02  0.7818608E-02  0.1745326E+00
         -1   -1    0    0    0  501 -0.00000000000E+00  0.00000000000E+00  0.88800232728E+00  0.88801460695E+00  0.46700000000E-02 0.  1.
          1   -1    0    0  501    0  0.00000000000E+00 -0.00000000000E+00 -0.11261250318E+03  0.11261250327E+03  0.46700000000E-02 0. -1.
       1023    2    1    2    0    0  0.00000000000E+00  0.00000000000E+00 -0.11172450085E+03  0.11350051788E+03  0.20000086727E+02 0.  0.
        -11    1    3    3    0    0 -0.43484597208E+01 -0.90050561990E+01 -0.55709139038E+02  0.56599543388E+02  0.51100000000E-03 0.  1.
         11    1    3    3    0    0  0.43484597208E+01  0.90050561990E+01 -0.56015361810E+02  0.56900974491E+02  0.51100000000E-03 0. -1.
<mgrwt>
<rscale>  0 0.20000087E+02</rscale>
<asrwt>0</asrwt>
<pdfrwt beam="2">  1        1 0.17324990E-01 0.20000087E+02</pdfrwt>
<pdfrwt beam="1">  1       -1 0.13661678E-03 0.20000087E+02</pdfrwt>
<totfact> 0.44959364E+06</totfact>
</mgrwt>
</event>
<event>
 5    1  0.9654316E-007  0.2000124E+02  0.7818608E-02  0.1745303E+00
         -1   -1    0    0    0  501 -0.00000000000E+00  0.00000000000E+00  0.86096330036E+01  0.86096342701E+01  0.46700000000E-02 0. -1.
          1   -1    0    0  501    0  0.00000000000E+00 -0.00000000000E+00 -0.11616338178E+02  0.11616339117E+02  0.46700000000E-02 0.  1.
       1023    2    1    2    0    0  0.00000000000E+00  0.00000000000E+00 -0.30067051744E+01  0.20225973387E+02  0.20001243047E+02 0.  0.
        -11    1    3    3    0    0 -0.96880365758E+01 -0.24805043744E+01 -0.14645027839E+01  0.10107211451E+02  0.51100000000E-03 0. -1.
         11    1    3    3    0    0  0.96880365758E+01  0.24805043744E+01 -0.15422023905E+01  0.10118761936E+02  0.51100000000E-03 0.  1.
<mgrwt>
<rscale>  0 0.20001243E+02</rscale>
<asrwt>0</asrwt>
<pdfrwt beam="2">  1        1 0.17871291E-02 0.20001243E+02</pdfrwt>
<pdfrwt beam="1">  1       -1 0.13245591E-02 0.20001243E+02</pdfrwt>
<totfact> 0.38848484E+06</totfact>
</mgrwt>
</event>
<event>
 5    1  0.9583198E-007  0.2001018E+02  0.7818608E-02  0.1745126E+00
          1   -1    0    0  501    0  0.00000000000E+00  0.00000000000E+00  0.12450319311E+01  0.12450406895E+01  0.46700000000E-02 0.  1.
         -1   -1    0    0    0  501 -0.00000000000E+00 -0.00000000000E+00 -0.80400679360E+02  0.80400679495E+02  0.46700000000E-02 0. -1.
       1023    2    1    2    0    0  0.00000000000E+00  0.00000000000E+00 -0.79155647429E+02  0.81645720185E+02  0.20010175028E+02 0.  0.
        -11    1    3    3    0    0 -0.69087547819E+01 -0.72315618329E+01 -0.40698186759E+02  0.41909053734E+02  0.51100000000E-03 0. -1.
         11    1    3    3    0    0  0.69087547819E+01  0.72315618329E+01 -0.38457460670E+02  0.39736666451E+02  0.51100000000E-03 0.  1.
<mgrwt>
<rscale>  0 0.20010175E+02</rscale>
<asrwt>0</asrwt>
<pdfrwt beam="1">  1        1 0.19154412E-03 0.20010175E+02</pdfrwt>
<pdfrwt beam="2">  1       -1 0.12369332E-01 0.20010175E+02</pdfrwt>
<totfact> 0.32933013E+06</totfact>
</mgrwt>
</event>
<event>
 4    1  0.9583198E-007  0.2020119E+02  0.7818608E-02  0.1741357E+00
         -1   -1    0    0    0  501 -0.00000000000E+00  0.00000000000E+00  0.11565803590E+03  0.11565803600E+03  0.46700000000E-02 0.  1.
          1   -1    0    0  501    0  0.00000000000E+00 -0.00000000000E+00 -0.88209413210E+00  0.88210649402E+00  0.46700000000E-02 0. -1.
        -11    1    1    2    0    0 -0.91992977027E+01  0.41386510878E+01  0.54409876003E+02  0.55337059173E+02  0.51100000000E-03 0.  1.
         11    1    1    2    0    0  0.91992977027E+01 -0.41386510878E+01  0.60366065768E+02  0.61203083318E+02  0.51100000000E-03 0. -1.
<mgrwt>
<rscale>  0 0.20201188E+02</rscale>
<asrwt>0</asrwt>
<pdfrwt beam="2">  1        1 0.13570773E-03 0.20201188E+02</pdfrwt>
<pdfrwt beam="1">  1       -1 0.17793547E-01 0.20201188E+02</pdfrwt>
<totfact> 0.30379986E+06</totfact>
</mgrwt>
</event>
<event>
 4    1  0.9583198E-007  0.2004253E+02  0.7818608E-02  0.1744484E+00
         -1   -1    0    0    0  501 -0.00000000000E+00  0.00000000000E+00  0.16579107111E+01  0.16579172883E+01  0.46700000000E-02 0. -1.
          1   -1    0    0  501    0  0.00000000000E+00 -0.00000000000E+00 -0.60573534966E+02  0.60573535146E+02  0.46700000000E-02 0.  1.
        -11    1    1    2    0    0  0.27753904805E+00 -0.10011577244E+02 -0.28395678137E+02  0.30110185054E+02  0.51100000000E-03 0. -1.
         11    1    1    2    0    0 -0.27753904805E+00  0.10011577244E+02 -0.30519946118E+02  0.32121267380E+02  0.51100000000E-03 0.  1.
<mgrwt>
<rscale>  0 0.20042527E+02</rscale>
<asrwt>0</asrwt>
<pdfrwt beam="2">  1        1 0.93190042E-02 0.20042527E+02</pdfrwt>
<pdfrwt beam="1">  1       -1 0.25506375E-03 0.20042527E+02</pdfrwt>
<totfact> 0.42119701E+06</totfact>
</mgrwt>
</event>
<event>
 4    1  0.9583198E-007  0.2001570E+02  0.7818608E-02  0.1745016E+00
          1   -1    0    0  501    0  0.00000000000E+00  0.00000000000E+00  0.49833580268E+01  0.49833602150E+01  0.46700000000E-02 0.  1.
         -1   -1    0    0    0  501 -0.00000000000E+00 -0.00000000000E+00 -0.20098304347E+02  0.20098304890E+02  0.46700000000E-02 0. -1.
        -11    1    1    2    0    0 -0.96815824117E+01  0.25108897389E+01 -0.79906089484E+01  0.12801852870E+02  0.51100000000E-03 0.  1.
         11    1    1    2    0    0  0.96815824117E+01 -0.25108897389E+01 -0.71243373721E+01  0.12279812235E+02  0.51100000000E-03 0. -1.
<mgrwt>
<rscale>  0 0.20015702E+02</rscale>
<asrwt>0</asrwt>
<pdfrwt beam="1">  1        1 0.76667069E-03 0.20015702E+02</pdfrwt>
<pdfrwt beam="2">  1       -1 0.30920470E-02 0.20015702E+02</pdfrwt>
<totfact> 0.37342342E+06</totfact>
</mgrwt>
</event>
<event>
 5    1  0.9583198E-007  0.2000018E+02  0.7818608E-02  0.1745324E+00
         -1   -1    0    0    0  501 -0.00000000000E+00  0.00000000000E+00  0.39716737748E+02  0.39716738022E+02  0.46700000000E-02 0. -1.
          1   -1    0    0  501    0  0.00000000000E+00 -0.00000000000E+00 -0.25178731664E+01  0.25178774973E+01  0.46700000000E-02 0.  1.
       1023    2    1    2    0    0  0.00000000000E+00  0.00000000000E+00  0.37198864581E+02  0.42234615520E+02  0.20000180548E+02 0.  0.
        -11    1    3    3    0    0  0.24180686010E+01 -0.97033238306E+01  0.18565637957E+02  0.21087542818E+02  0.51100000000E-03 0.  1.
         11    1    3    3    0    0 -0.24180686010E+01  0.97033238306E+01  0.18633226625E+02  0.21147072701E+02  0.51100000000E-03 0. -1.
<mgrwt>
<rscale>  0 0.20000181E+02</rscale>
<asrwt>0</asrwt>
<pdfrwt beam="2">  1        1 0.38736548E-03 0.20000181E+02</pdfrwt>
<pdfrwt beam="1">  1       -1 0.61102674E-02 0.20000181E+02</pdfrwt>
<totfact> 0.35692399E+06</totfact>
</mgrwt>
</event>
<event>
 5    1  0.9583198E-007  0.2000062E+02  0.7818608E-02  0.1745316E+00
         -1   -1    0    0    0  501 -0.00000000000E+00  0.00000000000E+00  0.58662657249E+01  0.58662675838E+01  0.46700000000E-02 0.  1.
          1   -1    0    0  501    0  0.00000000000E+00 -0.00000000000E+00 -0.17047664783E+02  0.17047665423E+02  0.46700000000E-02 0. -1.
       1023    2    1    2    0    0  0.00000000000E+00  0.00000000000E+00 -0.11181399059E+02  0.22913933007E+02  0.20000616014E+02 0.  0.
        -11    1    3    3    0    0  0.89770728196E+01 -0.44064547711E+01 -0.55466263126E+01  0.11435459928E+02  0.51100000000E-03 0. -1.
         11    1    3    3    0    0 -0.89770728196E+01  0.44064547711E+01 -0.56347727459E+01  0.11478473079E+02  0.51100000000E-03 0.  1.
<mgrwt>
<rscale>  0 0.20000616E+02</rscale>
<asrwt>0</asrwt>
<pdfrwt beam="2">  1        1 0.26227178E-02 0.20000616E+02</pdfrwt>
<pdfrwt beam="1">  1       -1 0.90250262E-03 0.20000616E+02</pdfrwt>
<totfact> 0.39442522E+06</totfact>
</mgrwt>
</event>
<event>
 5    1  0.9583198E-007  0.2000489E+02  0.7818608E-02  0.1745231E+00
         -1   -1    0    0    0  501 -0.00000000000E+00  0.00000000000E+00  0.12027367485E+02  0.12027368391E+02  0.46700000000E-02 0.  1.
          1   -1    0    0  501    0  0.00000000000E+00 -0.00000000000E+00 -0.83184341317E+01  0.83184354425E+01  0.46700000000E-02 0. -1.
       1023    2    1    2    0    0  0.00000000000E+00  0.00000000000E+00  0.37089333531E+01  0.20345803834E+02  0.20004888078E+02 0.  0.
        -11    1    3    3    0    0 -0.70465576245E+01  0.70987287336E+01  0.19098231587E+01  0.10182993113E+02  0.51100000000E-03 0. -1.
         11    1    3    3    0    0  0.70465576245E+01 -0.70987287336E+01  0.17991101944E+01  0.10162810721E+02  0.51100000000E-03 0.  1.
<mgrwt>
<rscale>  0 0.20004888E+02</rscale>
<asrwt>0</asrwt>
<pdfrwt beam="2">  1        1 0.12797593E-02 0.20004888E+02</pdfrwt>
<pdfrwt beam="1">  1       -1 0.18503644E-02 0.20004888E+02</pdfrwt>
<totfact> 0.38311592E+06</totfact>
</mgrwt>
</event>
<event>
 5    1  0.9583198E-007  0.2000029E+02  0.7818608E-02  0.1745322E+00
         -1   -1    0    0    0  501 -0.00000000000E+00  0.00000000000E+00  0.38817918823E+01  0.38817946914E+01  0.46700000000E-02 0. -1.
          1   -1    0    0  501    0  0.00000000000E+00 -0.00000000000E+00 -0.25762029640E+02  0.25762030063E+02  0.46700000000E-02 0.  1.
       1023    2    1    2    0    0  0.00000000000E+00  0.00000000000E+00 -0.21880237757E+02  0.29643824754E+02  0.20000288542E+02 0.  0.
        -11    1    3    3    0    0  0.90706142573E+01 -0.42103206109E+01 -0.10949784266E+02  0.14829046443E+02  0.51100000000E-03 0. -1.
         11    1    3    3    0    0 -0.90706142573E+01  0.42103206109E+01 -0.10930453491E+02  0.14814778312E+02  0.51100000000E-03 0.  1.
<mgrwt>
<rscale>  0 0.20000289E+02</rscale>
<asrwt>0</asrwt>
<pdfrwt beam="2">  1        1 0.39633893E-02 0.20000289E+02</pdfrwt>
<pdfrwt beam="1">  1       -1 0.59719902E-03 0.20000289E+02</pdfrwt>
<totfact> 0.40154409E+06</totfact>
</mgrwt>
</event>
<event>
 5    1  0.1002834E-006  0.2000117E+02  0.7818608E-02  0.1745305E+00
          1   -1    0    0  501    0  0.00000000000E+00  0.00000000000E+00  0.54918192903E+02  0.54918193101E+02  0.46700000000E-02 0. -1.
         -1   -1    0    0    0  501 -0.00000000000E+00 -0.00000000000E+00 -0.18211004664E+01  0.18211064542E+01  0.46700000000E-02 0.  1.
       1023    2    1    2    0    0  0.00000000000E+00  0.00000000000E+00  0.53097092436E+02  0.56739299555E+02  0.20001172187E+02 0.  0.
        -11    1    3    3    0    0 -0.52991671324E+01  0.84806207206E+01  0.26270281704E+02  0.28109247609E+02  0.51100000000E-03 0.  1.
         11    1    3    3    0    0  0.52991671324E+01 -0.84806207206E+01  0.26826810733E+02  0.28630051946E+02  0.51100000000E-03 0. -1.
<mgrwt>
<rscale>  0 0.20001172E+02</rscale>
<asrwt>0</asrwt>
<pdfrwt beam="1">  1        1 0.84489530E-02 0.20001172E+02</pdfrwt>
<pdfrwt beam="2">  1       -1 0.28016979E-03 0.20001172E+02</pdfrwt>
<totfact> 0.41993996E+06</totfact>
</mgrwt>
</event>
<event>
 5    1  0.9583198E-007  0.2000101E+02  0.7818608E-02  0.1745308E+00
          1   -1    0    0  501    0  0.00000000000E+00  0.00000000000E+00  0.91840397709E+00  0.91841585027E+00  0.46700000000E-02 0. -1.
         -1   -1    0    0    0  501 -0.00000000000E+00 -0.00000000000E+00 -0.10889481729E+03  0.10889481739E+03  0.46700000000E-02 0.  1.
       1023    2    1    2    0    0  0.00000000000E+00  0.00000000000E+00 -0.10797641331E+03  0.10981323324E+03  0.20001009044E+02 0.  0.
        -11    1    3    3    0    0  0.90214396915E+01 -0.43153556055E+01 -0.53781143972E+02  0.54703017425E+02  0.51100000000E-03 0.  1.
         11    1    3    3    0    0 -0.90214396915E+01  0.43153556055E+01 -0.54195269336E+02  0.55110215811E+02  0.51100000000E-03 0. -1.
<mgrwt>
<rscale>  0 0.20001009E+02</rscale>
<asrwt>0</asrwt>
<pdfrwt beam="1">  1        1 0.14129393E-03 0.20001009E+02</pdfrwt>
<pdfrwt beam="2">  1       -1 0.16753040E-01 0.20001009E+02</pdfrwt>
<totfact> 0.31395289E+06</totfact>
</mgrwt>
</event>
<event>
 5    1  0.9583198E-007  0.2000634E+02  0.7818608E-02  0.1745202E+00
         -1   -1    0    0    0  501 -0.00000000000E+00  0.00000000000E+00  0.41399756730E+01  0.41399783069E+01  0.46700000000E-02 0. -1.
          1   -1    0    0  501    0  0.00000000000E+00 -0.00000000000E+00 -0.24170037859E+02  0.24170038310E+02  0.46700000000E-02 0.  1.
       1023    2    1    2    0    0  0.00000000000E+00  0.00000000000E+00 -0.20030062186E+02  0.28310016617E+02  0.20006340237E+02 0.  0.
        -11    1    3    3    0    0  0.35328135830E+01 -0.93585585822E+01 -0.10021609473E+02  0.14159662681E+02  0.51100000000E-03 0.  1.
         11    1    3    3    0    0 -0.35328135830E+01  0.93585585822E+01 -0.10008452713E+02  0.14150353936E+02  0.51100000000E-03 0. -1.
<mgrwt>
<rscale>  0 0.20006340E+02</rscale>
<asrwt>0</asrwt>
<pdfrwt beam="2">  1        1 0.37184675E-02 0.20006340E+02</pdfrwt>
<pdfrwt beam="1">  1       -1 0.63691958E-03 0.20006340E+02</pdfrwt>
<totfact> 0.40008626E+06</totfact>
</mgrwt>
</event>
<event>
 5    1  0.9583198E-007  0.2000381E+02  0.7818608E-02  0.1745252E+00
          1   -1    0    0  501    0  0.00000000000E+00  0.00000000000E+00  0.23867622281E+01  0.23867667968E+01  0.46700000000E-02 0.  1.
         -1   -1    0    0    0  501 -0.00000000000E+00 -0.00000000000E+00 -0.41913664862E+02  0.41913665122E+02  0.46700000000E-02 0. -1.
       1023    2    1    2    0    0  0.00000000000E+00  0.00000000000E+00 -0.39526902634E+02  0.44300431919E+02  0.20003805547E+02 0.  0.
        -11    1    3    3    0    0  0.18412838544E+01  0.98305259234E+01 -0.19967539288E+02  0.22332312725E+02  0.51100000000E-03 0. -1.
         11    1    3    3    0    0 -0.18412838544E+01 -0.98305259234E+01 -0.19559363346E+02  0.21968119194E+02  0.51100000000E-03 0.  1.
<mgrwt>
<rscale>  0 0.20003806E+02</rscale>
<asrwt>0</asrwt>
<pdfrwt beam="1">  1        1 0.36719459E-03 0.20003806E+02</pdfrwt>
<pdfrwt beam="2">  1       -1 0.64482560E-02 0.20003806E+02</pdfrwt>
<totfact> 0.35509385E+06</totfact>
</mgrwt>
</event>
<event>
 5    1  0.9592644E-007  0.2000154E+02  0.7818608E-02  0.1745297E+00
          1   -1    0    0  501    0  0.00000000000E+00  0.00000000000E+00  0.66025707506E+01  0.66025724022E+01  0.46700000000E-02 0.  1.
         -1   -1    0    0    0  501 -0.00000000000E+00 -0.00000000000E+00 -0.15147949666E+02  0.15147950386E+02  0.46700000000E-02 0. -1.
       1023    2    1    2    0    0  0.00000000000E+00  0.00000000000E+00 -0.85453789157E+01  0.21750522788E+02  0.20001543459E+02 0.  0.
        -11    1    3    3    0    0  0.69454492154E+01  0.71953895623E+01 -0.42178930408E+01  0.10853732893E+02  0.51100000000E-03 0. -1.
         11    1    3    3    0    0 -0.69454492154E+01 -0.71953895623E+01 -0.43274858750E+01  0.10896789895E+02  0.51100000000E-03 0.  1.
<mgrwt>
<rscale>  0 0.20001543E+02</rscale>
<asrwt>0</asrwt>
<pdfrwt beam="1">  1        1 0.10157803E-02 0.20001543E+02</pdfrwt>
<pdfrwt beam="2">  1       -1 0.23304540E-02 0.20001543E+02</pdfrwt>
<totfact> 0.37936117E+06</totfact>
</mgrwt>
</event>
<event>
 5    1  0.9583198E-007  0.2000003E+02  0.7818608E-02  0.1745327E+00
         -1   -1    0    0    0  501 -0.00000000000E+00  0.00000000000E+00  0.24251424158E+01  0.24251469122E+01  0.46700000000E-02 0.  1.
          1   -1    0    0  501    0  0.00000000000E+00 -0.00000000000E+00 -0.41234786165E+02  0.41234786430E+02  0.46700000000E-02 0. -1.
       1023    2    1    2    0    0  0.00000000000E+00  0.00000000000E+00 -0.38809643750E+02  0.43659933342E+02  0.20000033287E+02 0.  0.
        -11    1    3    3    0    0 -0.30602866415E+01  0.95202384731E+01 -0.19418223945E+02  0.21841879872E+02  0.51100000000E-03 0. -1.
         11    1    3    3    0    0  0.30602866415E+01 -0.95202384731E+01 -0.19391419804E+02  0.21818053470E+02  0.51100000000E-03 0.  1.
<mgrwt>
<rscale>  0 0.20000033E+02</rscale>
<asrwt>0</asrwt>
<pdfrwt beam="2">  1        1 0.63438131E-02 0.20000033E+02</pdfrwt>
<pdfrwt beam="1">  1       -1 0.37309923E-03 0.20000033E+02</pdfrwt>
<totfact> 0.41187066E+06</totfact>
</mgrwt>
</event>
<event>
 4    1  0.9583198E-007  0.2001777E+02  0.7818608E-02  0.1744975E+00
         -1   -1    0    0    0  501 -0.00000000000E+00  0.00000000000E+00  0.19651801818E+02  0.19651802373E+02  0.46700000000E-02 0.  1.
          1   -1    0    0  501    0  0.00000000000E+00 -0.00000000000E+00 -0.50976376543E+01  0.50976397934E+01  0.46700000000E-02 0. -1.
        -11    1    1    2    0    0 -0.72169226295E+01  0.69240985285E+01  0.77570201049E+01  0.12656953577E+02  0.51100000000E-03 0.  1.
         11    1    1    2    0    0  0.72169226295E+01 -0.69240985285E+01  0.67971440586E+01  0.12092488590E+02  0.51100000000E-03 0. -1.
<mgrwt>
<rscale>  0 0.20017772E+02</rscale>
<asrwt>0</asrwt>
<pdfrwt beam="2">  1        1 0.78425216E-03 0.20017772E+02</pdfrwt>
<pdfrwt beam="1">  1       -1 0.30233543E-02 0.20017772E+02</pdfrwt>
<totfact> 0.37379350E+06</totfact>
</mgrwt>
</event>
<event>
 5    1  0.9583198E-007  0.2000013E+02  0.7818608E-02  0.1745326E+00
         -1   -1    0    0    0  501 -0.00000000000E+00  0.00000000000E+00  0.12351152543E+02  0.12351153426E+02  0.46700000000E-02 0.  1.
          1   -1    0    0  501    0  0.00000000000E+00 -0.00000000000E+00 -0.80965123412E+01  0.80965136880E+01  0.46700000000E-02 0. -1.
       1023    2    1    2    0    0  0.00000000000E+00  0.00000000000E+00  0.42546402023E+01  0.20447667114E+02  0.20000128179E+02 0.  0.
        -11    1    3    3    0    0  0.98833077394E+01  0.15236333768E+01  0.21346207291E+01  0.10225352632E+02  0.51100000000E-03 0. -1.
         11    1    3    3    0    0 -0.98833077394E+01 -0.15236333768E+01  0.21200194731E+01  0.10222314482E+02  0.51100000000E-03 0.  1.
<mgrwt>
<rscale>  0 0.20000128E+02</rscale>
<asrwt>0</asrwt>
<pdfrwt beam="2">  1        1 0.12456175E-02 0.20000128E+02</pdfrwt>
<pdfrwt beam="1">  1       -1 0.19001775E-02 0.20000128E+02</pdfrwt>
<totfact> 0.38288356E+06</totfact>
</mgrwt>
</event>
<event>
 4    1  0.1441228E-006  0.2016328E+02  0.7818608E-02  0.1742100E+00
         -1   -1    0    0    0  501 -0.00000000000E+00  0.00000000000E+00  0.13161811022E+01  0.13161893871E+01  0.46700000000E-02 0. -1.
          1   -1    0    0  501    0  0.00000000000E+00 -0.00000000000E+00 -0.77222763269E+02  0.77222763411E+02  0.46700000000E-02 0.  1.
        -11    1    1    2    0    0  0.68633928652E+01 -0.73041122899E+01 -0.33716247202E+02  0.35174444468E+02  0.51100000000E-03 0.  1.
         11    1    1    2    0    0 -0.68633928652E+01  0.73041122899E+01 -0.42190334965E+02  0.43364508330E+02  0.51100000000E-03 0. -1.
<mgrwt>
<rscale>  0 0.20163281E+02</rscale>
<asrwt>0</asrwt>
<pdfrwt beam="2">  1        1 0.11880422E-01 0.20163281E+02</pdfrwt>
<pdfrwt beam="1">  1       -1 0.20249011E-03 0.20163281E+02</pdfrwt>
<totfact> 0.42444549E+06</totfact>
</mgrwt>
</event>
<event>
 5    1  0.9583198E-007  0.2000267E+02  0.7818608E-02  0.1745275E+00
          1   -1    0    0  501    0  0.00000000000E+00  0.00000000000E+00  0.73773661694E+01  0.73773676474E+01  0.46700000000E-02 0.  1.
         -1   -1    0    0    0  501 -0.00000000000E+00 -0.00000000000E+00 -0.13558587667E+02  0.13558588471E+02  0.46700000000E-02 0. -1.
       1023    2    1    2    0    0  0.00000000000E+00  0.00000000000E+00 -0.61812214972E+01  0.20935956118E+02  0.20002668807E+02 0.  0.
        -11    1    3    3    0    0  0.83571037831E+01  0.54937808650E+01 -0.31557878169E+01  0.10487221216E+02  0.51100000000E-03 0.  1.
         11    1    3    3    0    0 -0.83571037831E+01 -0.54937808650E+01 -0.30254336804E+01  0.10448734902E+02  0.51100000000E-03 0. -1.
<mgrwt>
<rscale>  0 0.20002669E+02</rscale>
<asrwt>0</asrwt>
<pdfrwt beam="1">  1        1 0.11349796E-02 0.20002669E+02</pdfrwt>
<pdfrwt beam="2">  1       -1 0.20859367E-02 0.20002669E+02</pdfrwt>
<totfact> 0.38122880E+06</totfact>
</mgrwt>
</event>
<event>
 5    1  0.9583198E-007  0.2000011E+02  0.7818608E-02  0.1745326E+00
          1   -1    0    0  501    0  0.00000000000E+00  0.00000000000E+00  0.46706008757E+01  0.46706032104E+01  0.46700000000E-02 0.  1.
         -1   -1    0    0    0  501 -0.00000000000E+00 -0.00000000000E+00 -0.21410758605E+02  0.21410759114E+02  0.46700000000E-02 0. -1.
       1023    2    1    2    0    0  0.00000000000E+00  0.00000000000E+00 -0.16740157729E+02  0.26081362325E+02  0.20000114498E+02 0.  0.
        -11    1    3    3    0    0 -0.99827077361E+01  0.58808394011E+00 -0.83320984122E+01  0.13016303649E+02  0.51100000000E-03 0.  1.
         11    1    3    3    0    0  0.99827077361E+01 -0.58808394011E+00 -0.84080593171E+01  0.13065058676E+02  0.51100000000E-03 0. -1.
<mgrwt>
<rscale>  0 0.20000114E+02</rscale>
<asrwt>0</asrwt>
<pdfrwt beam="1">  1        1 0.71855421E-03 0.20000114E+02</pdfrwt>
<pdfrwt beam="2">  1       -1 0.32939630E-02 0.20000114E+02</pdfrwt>
<totfact> 0.37274932E+06</totfact>
</mgrwt>
</event>
<event>
 5    1  0.9583198E-007  0.2000284E+02  0.7818608E-02  0.1745272E+00
         -1   -1    0    0    0  501 -0.00000000000E+00  0.00000000000E+00  0.66132247862E+01  0.66132264350E+01  0.46700000000E-02 0.  1.
          1   -1    0    0  501    0  0.00000000000E+00 -0.00000000000E+00 -0.15125504393E+02  0.15125505114E+02  0.46700000000E-02 0. -1.
       1023    2    1    2    0    0  0.00000000000E+00  0.00000000000E+00 -0.85122796068E+01  0.21738731549E+02  0.20002838430E+02 0.  0.
        -11    1    3    3    0    0 -0.81293253606E+01  0.58260123275E+01 -0.42496559677E+01  0.10866826886E+02  0.51100000000E-03 0.  1.
         11    1    3    3    0    0  0.81293253606E+01 -0.58260123275E+01 -0.42626236392E+01  0.10871904663E+02  0.51100000000E-03 0. -1.
<mgrwt>
<rscale>  0 0.20002838E+02</rscale>
<asrwt>0</asrwt>
<pdfrwt beam="2">  1        1 0.23270009E-02 0.20002838E+02</pdfrwt>
<pdfrwt beam="1">  1       -1 0.10174194E-02 0.20002838E+02</pdfrwt>
<totfact> 0.39245016E+06</totfact>
</mgrwt>
</event>
<event>
 5    1  0.9583198E-007  0.2000136E+02  0.7818608E-02  0.1745301E+00
          1   -1    0    0  501    0  0.00000000000E+00  0.00000000000E+00  0.11334189418E+03  0.11334189428E+03  0.46700000000E-02 0. -1.
         -1   -1    0    0    0  501 -0.00000000000E+00 -0.00000000000E+00 -0.88240002425E+00  0.88241238188E+00  0.46700000000E-02 0.  1.
       1023    2    1    2    0    0  0.00000000000E+00  0.00000000000E+00  0.11245949416E+03  0.11422430666E+03  0.20001360098E+02 0.  0.
        -11    1    3    3    0    0 -0.95779472961E+01 -0.28767405244E+01  0.56059307203E+02  0.56944346820E+02  0.51100000000E-03 0.  1.
         11    1    3    3    0    0  0.95779472961E+01  0.28767405244E+01  0.56400186953E+02  0.57279959838E+02  0.51100000000E-03 0. -1.
<mgrwt>
<rscale>  0 0.20001360E+02</rscale>
<asrwt>0</asrwt>
<pdfrwt beam="1">  1        1 0.17437193E-01 0.20001360E+02</pdfrwt>
<pdfrwt beam="2">  1       -1 0.13575498E-03 0.20001360E+02</pdfrwt>
<totfact> 0.44986991E+06</totfact>
</mgrwt>
</event>
<event>
 5    1  0.9583198E-007  0.2000088E+02  0.7818608E-02  0.1745311E+00
          1   -1    0    0  501    0  0.00000000000E+00  0.00000000000E+00  0.88153258309E+01  0.88153270679E+01  0.46700000000E-02 0. -1.
         -1   -1    0    0    0  501 -0.00000000000E+00 -0.00000000000E+00 -0.11344875883E+02  0.11344876844E+02  0.46700000000E-02 0.  1.
       1023    2    1    2    0    0  0.00000000000E+00  0.00000000000E+00 -0.25295500523E+01  0.20160203912E+02  0.20000879939E+02 0.  0.
        -11    1    3    3    0    0  0.98939072276E+01  0.14554669577E+01 -0.12326617601E+01  0.10076072626E+02  0.51100000000E-03 0. -1.
         11    1    3    3    0    0 -0.98939072276E+01 -0.14554669577E+01 -0.12968882922E+01  0.10084131286E+02  0.51100000000E-03 0.  1.
<mgrwt>
<rscale>  0 0.20000880E+02</rscale>
<asrwt>0</asrwt>
<pdfrwt beam="1">  1        1 0.13562042E-02 0.20000880E+02</pdfrwt>
<pdfrwt beam="2">  1       -1 0.17453657E-02 0.20000880E+02</pdfrwt>
<totfact> 0.38422252E+06</totfact>
</mgrwt>
</event>
<event>
 5    1  0.9583198E-007  0.2000237E+02  0.7818608E-02  0.1745281E+00
          1   -1    0    0  501    0  0.00000000000E+00  0.00000000000E+00  0.12249562030E+01  0.12249651048E+01  0.46700000000E-02 0. -1.
         -1   -1    0    0    0  501 -0.00000000000E+00 -0.00000000000E+00 -0.81654582508E+02  0.81654582642E+02  0.46700000000E-02 0.  1.
       1023    2    1    2    0    0  0.00000000000E+00  0.00000000000E+00 -0.80429626305E+02  0.82879547747E+02  0.20002366037E+02 0.  0.
        -11    1    3    3    0    0 -0.10000454723E+02  0.10784799583E+00 -0.39990311855E+02  0.41221908840E+02  0.51100000000E-03 0.  1.
         11    1    3    3    0    0  0.10000454723E+02 -0.10784799583E+00 -0.40439314450E+02  0.41657638907E+02  0.51100000000E-03 0. -1.
<mgrwt>
<rscale>  0 0.20002366E+02</rscale>
<asrwt>0</asrwt>
<pdfrwt beam="1">  1        1 0.18845556E-03 0.20002366E+02</pdfrwt>
<pdfrwt beam="2">  1       -1 0.12562240E-01 0.20002366E+02</pdfrwt>
<totfact> 0.32887548E+06</totfact>
</mgrwt>
</event>
<event>
 5    1  0.9583198E-007  0.2000025E+02  0.7818608E-02  0.1745323E+00
          1   -1    0    0  501    0  0.00000000000E+00  0.00000000000E+00  0.10464648789E+01  0.10464752991E+01  0.46700000000E-02 0. -1.
         -1   -1    0    0    0  501 -0.00000000000E+00 -0.00000000000E+00 -0.95561769786E+02  0.95561769901E+02  0.46700000000E-02 0.  1.
       1023    2    1    2    0    0  0.00000000000E+00  0.00000000000E+00 -0.94515304908E+02  0.96608245200E+02  0.20000254468E+02 0.  0.
        -11    1    3    3    0    0 -0.55491278822E+01  0.83191622712E+01 -0.47429336660E+02  0.48472087406E+02  0.51100000000E-03 0.  1.
         11    1    3    3    0    0  0.55491278822E+01 -0.83191622712E+01 -0.47085968247E+02  0.48136157794E+02  0.51100000000E-03 0. -1.
<mgrwt>
<rscale>  0 0.20000254E+02</rscale>
<asrwt>0</asrwt>
<pdfrwt beam="1">  1        1 0.16099548E-03 0.20000254E+02</pdfrwt>
<pdfrwt beam="2">  1       -1 0.14701805E-01 0.20000254E+02</pdfrwt>
<totfact> 0.32107626E+06</totfact>
</mgrwt>
</event>
<event>
 4    1  0.9583198E-007  0.2002457E+02  0.7818608E-02  0.1744840E+00
         -1   -1    0    0    0  501 -0.00000000000E+00  0.00000000000E+00  0.56721248283E+01  0.56721267508E+01  0.46700000000E-02 0. -1.
          1   -1    0    0  501    0  0.00000000000E+00 -0.00000000000E+00 -0.17673416731E+02  0.17673417348E+02  0.46700000000E-02 0.  1.
        -11    1    1    2    0    0  0.35756833302E+01  0.93407009152E+01 -0.54642934727E+01  0.11397048227E+02  0.51100000000E-03 0.  1.
         11    1    1    2    0    0 -0.35756833302E+01 -0.93407009152E+01 -0.65369984297E+01  0.11948495872E+02  0.51100000000E-03 0. -1.
<mgrwt>
<rscale>  0 0.20024570E+02</rscale>
<asrwt>0</asrwt>
<pdfrwt beam="2">  1        1 0.27189874E-02 0.20024570E+02</pdfrwt>
<pdfrwt beam="1">  1       -1 0.87263479E-03 0.20024570E+02</pdfrwt>
<totfact> 0.39394148E+06</totfact>
</mgrwt>
</event>
<event>
 4    1  0.9583198E-007  0.2001603E+02  0.7818608E-02  0.1745010E+00
         -1   -1    0    0    0  501 -0.00000000000E+00  0.00000000000E+00  0.31472106243E+02  0.31472106589E+02  0.46700000000E-02 0.  1.
          1   -1    0    0  501    0  0.00000000000E+00 -0.00000000000E+00 -0.31825099601E+01  0.31825133864E+01  0.46700000000E-02 0. -1.
        -11    1    1    2    0    0  0.94149618502E+01 -0.33888896183E+01  0.14465340867E+02  0.17588978542E+02  0.51100000000E-03 0. -1.
         11    1    1    2    0    0 -0.94149618502E+01  0.33888896183E+01  0.13824255415E+02  0.17065641433E+02  0.51100000000E-03 0.  1.
<mgrwt>
<rscale>  0 0.20016029E+02</rscale>
<asrwt>0</asrwt>
<pdfrwt beam="2">  1        1 0.48961722E-03 0.20016029E+02</pdfrwt>
<pdfrwt beam="1">  1       -1 0.48418627E-02 0.20016029E+02</pdfrwt>
<totfact> 0.36296570E+06</totfact>
</mgrwt>
</event>
<event>
 5    1  0.9697513E-007  0.2000100E+02  0.7818608E-02  0.1745308E+00
         -1   -1    0    0    0  501 -0.00000000000E+00  0.00000000000E+00  0.41710450737E+01  0.41710476880E+01  0.46700000000E-02 0. -1.
          1   -1    0    0  501    0  0.00000000000E+00 -0.00000000000E+00 -0.23977204354E+02  0.23977204808E+02  0.46700000000E-02 0.  1.
       1023    2    1    2    0    0  0.00000000000E+00  0.00000000000E+00 -0.19806159280E+02  0.28148252496E+02  0.20001004304E+02 0.  0.
        -11    1    3    3    0    0  0.96293254914E+01  0.26990097005E+01 -0.98489335194E+01  0.14036027020E+02  0.51100000000E-03 0. -1.
         11    1    3    3    0    0 -0.96293254914E+01 -0.26990097005E+01 -0.99572257604E+01  0.14112225476E+02  0.51100000000E-03 0.  1.
<mgrwt>
<rscale>  0 0.20001004E+02</rscale>
<asrwt>0</asrwt>
<pdfrwt beam="2">  1        1 0.36888008E-02 0.20001004E+02</pdfrwt>
<pdfrwt beam="1">  1       -1 0.64169949E-03 0.20001004E+02</pdfrwt>
<totfact> 0.40017895E+06</totfact>
</mgrwt>
</event>
<event>
 5    1  0.9583198E-007  0.2000397E+02  0.7818608E-02  0.1745249E+00
          1   -1    0    0  501    0  0.00000000000E+00  0.00000000000E+00  0.84109112627E+01  0.84109125592E+01  0.46700000000E-02 0.  1.
         -1   -1    0    0    0  501 -0.00000000000E+00 -0.00000000000E+00 -0.11894040810E+02  0.11894041727E+02  0.46700000000E-02 0. -1.
       1023    2    1    2    0    0  0.00000000000E+00  0.00000000000E+00 -0.34831295475E+01  0.20304954286E+02  0.20003974033E+02 0.  0.
        -11    1    3    3    0    0  0.20702688312E+01 -0.97852667698E+01 -0.17900881026E+01  0.10160800877E+02  0.51100000000E-03 0.  1.
         11    1    3    3    0    0 -0.20702688312E+01  0.97852667698E+01 -0.16930414450E+01  0.10144153409E+02  0.51100000000E-03 0. -1.
<mgrwt>
<rscale>  0 0.20003974E+02</rscale>
<asrwt>0</asrwt>
<pdfrwt beam="1">  1        1 0.12939865E-02 0.20003974E+02</pdfrwt>
<pdfrwt beam="2">  1       -1 0.18298526E-02 0.20003974E+02</pdfrwt>
<totfact> 0.38333447E+06</totfact>
</mgrwt>
</event>
<event>
 4    1  0.9583198E-007  0.2002602E+02  0.7818608E-02  0.1744811E+00
          1   -1    0    0  501    0  0.00000000000E+00  0.00000000000E+00  0.26136104576E+01  0.26136146298E+01  0.46700000000E-02 0. -1.
         -1   -1    0    0    0  501 -0.00000000000E+00 -0.00000000000E+00 -0.38360848751E+02  0.38360849036E+02  0.46700000000E-02 0.  1.
        -11    1    1    2    0    0 -0.88081163412E+00  0.99740049502E+01 -0.17999790221E+02  0.20597306915E+02  0.51100000000E-03 0. -1.
         11    1    1    2    0    0  0.88081163412E+00 -0.99740049502E+01 -0.17747448073E+02  0.20377156750E+02  0.51100000000E-03 0.  1.
<mgrwt>
<rscale>  0 0.20026024E+02</rscale>
<asrwt>0</asrwt>
<pdfrwt beam="1">  1        1 0.40209429E-03 0.20026024E+02</pdfrwt>
<pdfrwt beam="2">  1       -1 0.59016689E-02 0.20026024E+02</pdfrwt>
<totfact> 0.35696734E+06</totfact>
</mgrwt>
</event>
<event>
 4    1  0.9583198E-007  0.2004023E+02  0.7818608E-02  0.1744529E+00
          1   -1    0    0  501    0  0.00000000000E+00  0.00000000000E+00  0.90650061817E+01  0.90650073846E+01  0.46700000000E-02 0.  1.
         -1   -1    0    0    0  501 -0.00000000000E+00 -0.00000000000E+00 -0.11075850166E+02  0.11075851151E+02  0.46700000000E-02 0. -1.
        -11    1    1    2    0    0  0.98200392317E+01  0.19816164837E+01 -0.12130935556E+01  0.10091162997E+02  0.51100000000E-03 0. -1.
         11    1    1    2    0    0 -0.98200392317E+01 -0.19816164837E+01 -0.79775042882E+00  0.10049695538E+02  0.51100000000E-03 0.  1.
<mgrwt>
<rscale>  0 0.20040227E+02</rscale>
<asrwt>0</asrwt>
<pdfrwt beam="1">  1        1 0.13946165E-02 0.20040227E+02</pdfrwt>
<pdfrwt beam="2">  1       -1 0.17039771E-02 0.20040227E+02</pdfrwt>
<totfact> 0.38295327E+06</totfact>
</mgrwt>
</event>
<event>
 5    1  0.9591576E-007  0.2000084E+02  0.7818608E-02  0.1745311E+00
          1   -1    0    0  501    0  0.00000000000E+00  0.00000000000E+00  0.45292213568E+01  0.45292237644E+01  0.46700000000E-02 0.  1.
         -1   -1    0    0    0  501 -0.00000000000E+00 -0.00000000000E+00 -0.22080692705E+02  0.22080693199E+02  0.46700000000E-02 0. -1.
       1023    2    1    2    0    0  0.00000000000E+00  0.00000000000E+00 -0.17551471348E+02  0.26609916963E+02  0.20000838340E+02 0.  0.
        -11    1    3    3    0    0 -0.94408451982E+01 -0.32978499654E+01 -0.87027326662E+01  0.13256806877E+02  0.51100000000E-03 0.  1.
         11    1    3    3    0    0  0.94408451982E+01  0.32978499654E+01 -0.88487386817E+01  0.13353110086E+02  0.51100000000E-03 0. -1.
<mgrwt>
<rscale>  0 0.20000838E+02</rscale>
<asrwt>0</asrwt>
<pdfrwt beam="1">  1        1 0.69680352E-03 0.20000838E+02</pdfrwt>
<pdfrwt beam="2">  1       -1 0.33970298E-02 0.20000838E+02</pdfrwt>
<totfact> 0.37206271E+06</totfact>
</mgrwt>
</event>
<event>
 5    1  0.1031590E-006  0.2000105E+02  0.7818608E-02  0.1745307E+00
         -1   -1    0    0    0  501 -0.00000000000E+00  0.00000000000E+00  0.10860791067E+01  0.10860891469E+01  0.46700000000E-02 0. -1.
          1   -1    0    0  501    0  0.00000000000E+00 -0.00000000000E+00 -0.92083580368E+02  0.92083580486E+02  0.46700000000E-02 0.  1.
       1023    2    1    2    0    0  0.00000000000E+00  0.00000000000E+00 -0.90997501261E+02  0.93169669633E+02  0.20001052567E+02 0.  0.
        -11    1    3    3    0    0  0.99243950168E+01 -0.12282542795E+01 -0.45074348059E+02  0.46170326815E+02  0.51100000000E-03 0.  1.
         11    1    3    3    0    0 -0.99243950168E+01  0.12282542795E+01 -0.45923153202E+02  0.46999342818E+02  0.51100000000E-03 0. -1.
<mgrwt>
<rscale>  0 0.20001053E+02</rscale>
<asrwt>0</asrwt>
<pdfrwt beam="2">  1        1 0.14166699E-01 0.20001053E+02</pdfrwt>
<pdfrwt beam="1">  1       -1 0.16708995E-03 0.20001053E+02</pdfrwt>
<totfact> 0.43966722E+06</totfact>
</mgrwt>
</event>
<event>
 5    1  0.9583198E-007  0.2000331E+02  0.7818608E-02  0.1745262E+00
          1   -1    0    0  501    0  0.00000000000E+00  0.00000000000E+00  0.38447338253E+01  0.38447366615E+01  0.46700000000E-02 0. -1.
         -1   -1    0    0    0  501 -0.00000000000E+00 -0.00000000000E+00 -0.26018197108E+02  0.26018197528E+02  0.46700000000E-02 0.  1.
       1023    2    1    2    0    0  0.00000000000E+00  0.00000000000E+00 -0.22173463283E+02  0.29862934189E+02  0.20003308837E+02 0.  0.
        -11    1    3    3    0    0  0.25382437585E+01 -0.96741217047E+01 -0.11023769002E+02  0.14884716840E+02  0.51100000000E-03 0. -1.
         11    1    3    3    0    0 -0.25382437585E+01  0.96741217047E+01 -0.11149694281E+02  0.14978217349E+02  0.51100000000E-03 0.  1.
<mgrwt>
<rscale>  0 0.20003309E+02</rscale>
<asrwt>0</asrwt>
<pdfrwt beam="1">  1        1 0.59149778E-03 0.20003309E+02</pdfrwt>
<pdfrwt beam="2">  1       -1 0.40027997E-02 0.20003309E+02</pdfrwt>
<totfact> 0.36825941E+06</totfact>
</mgrwt>
</event>
<event>
 5    1  0.9806902E-007  0.2000159E+02  0.7818608E-02  0.1745296E+00
          1   -1    0    0  501    0  0.00000000000E+00  0.00000000000E+00  0.50001162108E+01  0.50001183916E+01  0.46700000000E-02 0.  1.
         -1   -1    0    0    0  501 -0.00000000000E+00 -0.00000000000E+00 -0.20002716325E+02  0.20002716870E+02  0.46700000000E-02 0. -1.
       1023    2    1    2    0    0  0.00000000000E+00  0.00000000000E+00 -0.15002600114E+02  0.25002835262E+02  0.20001593960E+02 0.  0.
        -11    1    3    3    0    0  0.98044750744E+01  0.19697609374E+01 -0.76148431105E+01  0.12569547545E+02  0.51100000000E-03 0. -1.
         11    1    3    3    0    0 -0.98044750744E+01 -0.19697609374E+01 -0.73877570040E+01  0.12433287717E+02  0.51100000000E-03 0.  1.
<mgrwt>
<rscale>  0 0.20001594E+02</rscale>
<asrwt>0</asrwt>
<pdfrwt beam="1">  1        1 0.76924887E-03 0.20001594E+02</pdfrwt>
<pdfrwt beam="2">  1       -1 0.30773411E-02 0.20001594E+02</pdfrwt>
<totfact> 0.37409962E+06</totfact>
</mgrwt>
</event>
<event>
 5    1  0.9583198E-007  0.2000465E+02  0.7818608E-02  0.1745236E+00
          1   -1    0    0  501    0  0.00000000000E+00  0.00000000000E+00  0.49614471454E+02  0.49614471674E+02  0.46700000000E-02 0. -1.
         -1   -1    0    0    0  501 -0.00000000000E+00 -0.00000000000E+00 -0.20164755200E+01  0.20164809277E+01  0.46700000000E-02 0.  1.
       1023    2    1    2    0    0  0.00000000000E+00  0.00000000000E+00  0.47597995934E+02  0.51630952602E+02  0.20004650699E+02 0.  0.
        -11    1    3    3    0    0  0.34097680093E+01  0.94028568655E+01  0.24003480535E+02  0.26003986486E+02  0.51100000000E-03 0.  1.
         11    1    3    3    0    0 -0.34097680093E+01 -0.94028568655E+01  0.23594515399E+02  0.25626966115E+02  0.51100000000E-03 0. -1.
<mgrwt>
<rscale>  0 0.20004651E+02</rscale>
<asrwt>0</asrwt>
<pdfrwt beam="1">  1        1 0.76329952E-02 0.20004651E+02</pdfrwt>
<pdfrwt beam="2">  1       -1 0.31022747E-03 0.20004651E+02</pdfrwt>
<totfact> 0.41670665E+06</totfact>
</mgrwt>
</event>
<event>
 5    1  0.9583198E-007  0.2000001E+02  0.7818608E-02  0.1745328E+00
         -1   -1    0    0    0  501 -0.00000000000E+00  0.00000000000E+00  0.86519082955E+01  0.86519095559E+01  0.46700000000E-02 0.  1.
          1   -1    0    0  501    0  0.00000000000E+00 -0.00000000000E+00 -0.11558153110E+02  0.11558154054E+02  0.46700000000E-02 0. -1.
       1023    2    1    2    0    0  0.00000000000E+00  0.00000000000E+00 -0.29062448147E+01  0.20210063610E+02  0.20000010304E+02 0.  0.
        -11    1    3    3    0    0  0.98845151155E+01 -0.15153814850E+01 -0.14439345604E+01  0.10103710575E+02  0.51100000000E-03 0.  1.
         11    1    3    3    0    0 -0.98845151155E+01  0.15153814850E+01 -0.14623102543E+01  0.10106353034E+02  0.51100000000E-03 0. -1.
<mgrwt>
<rscale>  0 0.20000010E+02</rscale>
<asrwt>0</asrwt>
<pdfrwt beam="2">  1        1 0.17781776E-02 0.20000010E+02</pdfrwt>
<pdfrwt beam="1">  1       -1 0.13310630E-02 0.20000010E+02</pdfrwt>
<totfact> 0.38846241E+06</totfact>
</mgrwt>
</event>
<event>
 5    1  0.9627479E-007  0.2000104E+02  0.7818608E-02  0.1745307E+00
         -1   -1    0    0    0  501 -0.00000000000E+00  0.00000000000E+00  0.72879845396E+01  0.72879860358E+01  0.46700000000E-02 0.  1.
          1   -1    0    0  501    0  0.00000000000E+00 -0.00000000000E+00 -0.13722634135E+02  0.13722634929E+02  0.46700000000E-02 0. -1.
       1023    2    1    2    0    0  0.00000000000E+00  0.00000000000E+00 -0.64346495949E+01  0.21010620965E+02  0.20001036921E+02 0.  0.
        -11    1    3    3    0    0  0.94120765698E+01  0.33793545645E+01 -0.32762507486E+01  0.10523356967E+02  0.51100000000E-03 0.  1.
         11    1    3    3    0    0 -0.94120765698E+01 -0.33793545645E+01 -0.31583988464E+01  0.10487263998E+02  0.51100000000E-03 0. -1.
<mgrwt>
<rscale>  0 0.20001037E+02</rscale>
<asrwt>0</asrwt>
<pdfrwt beam="2">  1        1 0.21111747E-02 0.20001037E+02</pdfrwt>
<pdfrwt beam="1">  1       -1 0.11212286E-02 0.20001037E+02</pdfrwt>
<totfact> 0.39103313E+06</totfact>
</mgrwt>
</event>
<event>
 5    1  0.9583198E-007  0.2000400E+02  0.7818608E-02  0.1745249E+00
         -1   -1    0    0    0  501 -0.00000000000E+00  0.00000000000E+00  0.40816726524E+01  0.40816753240E+01  0.46700000000E-02 0. -1.
          1   -1    0    0  501    0  0.00000000000E+00 -0.00000000000E+00 -0.24509551944E+02  0.24509552389E+02  0.46700000000E-02 0.  1.
       1023    2    1    2    0    0  0.00000000000E+00  0.00000000000E+00 -0.20427879291E+02  0.28591227713E+02  0.20004000844E+02 0.  0.
        -11    1    3    3    0    0 -0.82648020252E+01  0.56329298942E+01 -0.10294290782E+02  0.14353023190E+02  0.51100000000E-03 0.  1.
         11    1    3    3    0    0  0.82648020252E+01 -0.56329298942E+01 -0.10133588509E+02  0.14238204523E+02  0.51100000000E-03 0. -1.
<mgrwt>
<rscale>  0 0.20004001E+02</rscale>
<asrwt>0</asrwt>
<pdfrwt beam="2">  1        1 0.37707004E-02 0.20004001E+02</pdfrwt>
<pdfrwt beam="1">  1       -1 0.62794990E-03 0.20004001E+02</pdfrwt>
<totfact> 0.40044704E+06</totfact>
</mgrwt>
</event>
<event>
 5    1  0.9583198E-007  0.2000021E+02  0.7818608E-02  0.1745324E+00
          1   -1    0    0  501    0  0.00000000000E+00  0.00000000000E+00  0.80342055393E+02  0.80342055529E+02  0.46700000000E-02 0. -1.
         -1   -1    0    0    0  501 -0.00000000000E+00 -0.00000000000E+00 -0.12446998203E+01  0.12447085810E+01  0.46700000000E-02 0.  1.
       1023    2    1    2    0    0  0.00000000000E+00  0.00000000000E+00  0.79097355573E+02  0.81586764110E+02  0.20000210482E+02 0.  0.
        -11    1    3    3    0    0  0.63104886235E+01 -0.77575046935E+01  0.39422362519E+02  0.40670920971E+02  0.51100000000E-03 0. -1.
         11    1    3    3    0    0 -0.63104886235E+01  0.77575046935E+01  0.39674993053E+02  0.40915843139E+02  0.51100000000E-03 0.  1.
<mgrwt>
<rscale>  0 0.20000210E+02</rscale>
<asrwt>0</asrwt>
<pdfrwt beam="1">  1        1 0.12360323E-01 0.20000210E+02</pdfrwt>
<pdfrwt beam="2">  1       -1 0.19149287E-03 0.20000210E+02</pdfrwt>
<totfact> 0.43376044E+06</totfact>
</mgrwt>
</event>
<event>
 5    1  0.9781748E-007  0.2000123E+02  0.7818608E-02  0.1745304E+00
         -1   -1    0    0    0  501 -0.00000000000E+00  0.00000000000E+00  0.82147766485E+01  0.82147779759E+01  0.46700000000E-02 0. -1.
          1   -1    0    0  501    0  0.00000000000E+00 -0.00000000000E+00 -0.12174680024E+02  0.12174680920E+02  0.46700000000E-02 0.  1.
       1023    2    1    2    0    0  0.00000000000E+00  0.00000000000E+00 -0.39599033758E+01  0.20389458896E+02  0.20001229945E+02 0.  0.
        -11    1    3    3    0    0 -0.98575776908E+01 -0.16836327386E+01 -0.20578711835E+01  0.10209862448E+02  0.51100000000E-03 0.  1.
         11    1    3    3    0    0  0.98575776908E+01  0.16836327386E+01 -0.19020321923E+01  0.10179596448E+02  0.51100000000E-03 0. -1.
<mgrwt>
<rscale>  0 0.20001230E+02</rscale>
<asrwt>0</asrwt>
<pdfrwt beam="2">  1        1 0.18730279E-02 0.20001230E+02</pdfrwt>
<pdfrwt beam="1">  1       -1 0.12638120E-02 0.20001230E+02</pdfrwt>
<totfact> 0.38920045E+06</totfact>
</mgrwt>
</event>
<event>
 5    1  0.9633582E-007  0.2000131E+02  0.7818608E-02  0.1745302E+00
         -1   -1    0    0    0  501 -0.00000000000E+00  0.00000000000E+00  0.27735562909E+02  0.27735563303E+02  0.46700000000E-02 0.  1.
          1   -1    0    0  501    0  0.00000000000E+00 -0.00000000000E+00 -0.36059514821E+01  0.36059545061E+01  0.46700000000E-02 0. -1.
       1023    2    1    2    0    0  0.00000000000E+00  0.00000000000E+00  0.24129611427E+02  0.31341517809E+02  0.20001314730E+02 0.  0.
        -11    1    3    3    0    0 -0.83223208068E+01  0.55454106514E+01  0.12101372450E+02  0.15698911375E+02  0.51100000000E-03 0.  1.
         11    1    3    3    0    0  0.83223208068E+01 -0.55454106514E+01  0.12028238977E+02  0.15642606434E+02  0.51100000000E-03 0. -1.
<mgrwt>
<rscale>  0 0.20001315E+02</rscale>
<asrwt>0</asrwt>
<pdfrwt beam="2">  1        1 0.55476202E-03 0.20001315E+02</pdfrwt>
<pdfrwt beam="1">  1       -1 0.42670100E-02 0.20001315E+02</pdfrwt>
<totfact> 0.36679633E+06</totfact>
</mgrwt>
</event>
<event>
 4    1  0.9583198E-007  0.2001536E+02  0.7818608E-02  0.1745023E+00
          1   -1    0    0  501    0  0.00000000000E+00  0.00000000000E+00  0.30155872180E+01  0.30155908340E+01  0.46700000000E-02 0. -1.
         -1   -1    0    0    0  501 -0.00000000000E+00 -0.00000000000E+00 -0.33211962111E+02  0.33211962440E+02  0.46700000000E-02 0.  1.
        -11    1    1    2    0    0 -0.59332152982E+01 -0.80591841067E+01 -0.15120160306E+02  0.18132091445E+02  0.51100000000E-03 0. -1.
         11    1    1    2    0    0  0.59332152982E+01  0.80591841067E+01 -0.15076214587E+02  0.18095461828E+02  0.51100000000E-03 0.  1.
<mgrwt>
<rscale>  0 0.20015358E+02</rscale>
<asrwt>0</asrwt>
<pdfrwt beam="1">  1        1 0.46393682E-03 0.20015358E+02</pdfrwt>
<pdfrwt beam="2">  1       -1 0.51095327E-02 0.20015358E+02</pdfrwt>
<totfact> 0.36153548E+06</totfact>
</mgrwt>
</event>
<event>
 5    1  0.9583198E-007  0.2000035E+02  0.7818608E-02  0.1745321E+00
         -1   -1    0    0    0  501 -0.00000000000E+00  0.00000000000E+00  0.44266282302E+02  0.44266282548E+02  0.46700000000E-02 0. -1.
          1   -1    0    0  501    0  0.00000000000E+00 -0.00000000000E+00 -0.22591317775E+01  0.22591366043E+01  0.46700000000E-02 0.  1.
       1023    2    1    2    0    0  0.00000000000E+00  0.00000000000E+00  0.42007150525E+02  0.46525419153E+02  0.20000348300E+02 0.  0.
        -11    1    3    3    0    0 -0.93887760872E+01  0.34430144694E+01  0.21013368144E+02  0.23271551432E+02  0.51100000000E-03 0. -1.
         11    1    3    3    0    0  0.93887760872E+01 -0.34430144694E+01  0.20993782381E+02  0.23253867721E+02  0.51100000000E-03 0.  1.
<mgrwt>
<rscale>  0 0.20000348E+02</rscale>
<asrwt>0</asrwt>
<pdfrwt beam="2">  1        1 0.34755916E-03 0.20000348E+02</pdfrwt>
<pdfrwt beam="1">  1       -1 0.68101970E-02 0.20000348E+02</pdfrwt>
<totfact> 0.35345713E+06</totfact>
</mgrwt>
</event>
<event>
 5    1  0.9583198E-007  0.2000043E+02  0.7818608E-02  0.1745320E+00
         -1   -1    0    0    0  501 -0.00000000000E+00  0.00000000000E+00  0.22950531168E+01  0.22950578681E+01  0.46700000000E-02 0. -1.
          1   -1    0    0  501    0  0.00000000000E+00 -0.00000000000E+00 -0.43573801583E+02  0.43573801833E+02  0.46700000000E-02 0.  1.
       1023    2    1    2    0    0  0.00000000000E+00  0.00000000000E+00 -0.41278748466E+02  0.45868859701E+02  0.20000430380E+02 0.  0.
        -11    1    3    3    0    0  0.26625770740E+01  0.96390672509E+01 -0.20772498538E+02  0.23054232365E+02  0.51100000000E-03 0.  1.
         11    1    3    3    0    0 -0.26625770740E+01 -0.96390672509E+01 -0.20506249927E+02  0.22814627336E+02  0.51100000000E-03 0. -1.
<mgrwt>
<rscale>  0 0.20000430E+02</rscale>
<asrwt>0</asrwt>
<pdfrwt beam="2">  1        1 0.67036616E-02 0.20000430E+02</pdfrwt>
<pdfrwt beam="1">  1       -1 0.35308551E-03 0.20000430E+02</pdfrwt>
<totfact> 0.41328942E+06</totfact>
</mgrwt>
</event>
<event>
 5    1  0.9583198E-007  0.2000437E+02  0.7818608E-02  0.1745241E+00
         -1   -1    0    0    0  501 -0.00000000000E+00  0.00000000000E+00  0.21381383011E+02  0.21381383521E+02  0.46700000000E-02 0. -1.
          1   -1    0    0  501    0  0.00000000000E+00 -0.00000000000E+00 -0.46790066147E+01  0.46790089452E+01  0.46700000000E-02 0.  1.
       1023    2    1    2    0    0  0.00000000000E+00  0.00000000000E+00  0.16702376396E+02  0.26060392466E+02  0.20004366479E+02 0.  0.
        -11    1    3    3    0    0 -0.75931865160E+01  0.65102119261E+01  0.82654794990E+01  0.12975264637E+02  0.51100000000E-03 0. -1.
         11    1    3    3    0    0  0.75931865160E+01 -0.65102119261E+01  0.84368968973E+01  0.13085127829E+02  0.51100000000E-03 0.  1.
<mgrwt>
<rscale>  0 0.20004366E+02</rscale>
<asrwt>0</asrwt>
<pdfrwt beam="2">  1        1 0.71984738E-03 0.20004366E+02</pdfrwt>
<pdfrwt beam="1">  1       -1 0.32894438E-02 0.20004366E+02</pdfrwt>
<totfact> 0.37260420E+06</totfact>
</mgrwt>
</event>
<event>
 5    1  0.9583198E-007  0.2000076E+02  0.7818608E-02  0.1745313E+00
         -1   -1    0    0    0  501 -0.00000000000E+00  0.00000000000E+00  0.46570836861E+02  0.46570837095E+02  0.46700000000E-02 0.  1.
          1   -1    0    0  501    0  0.00000000000E+00 -0.00000000000E+00 -0.21474269812E+01  0.21474320591E+01  0.46700000000E-02 0. -1.
       1023    2    1    2    0    0  0.00000000000E+00  0.00000000000E+00  0.44423409880E+02  0.48718269154E+02  0.20000760086E+02 0.  0.
        -11    1    3    3    0    0  0.17138645956E+01  0.98524150122E+01  0.22245043034E+02  0.24389533683E+02  0.51100000000E-03 0.  1.
         11    1    3    3    0    0 -0.17138645956E+01 -0.98524150122E+01  0.22178366846E+02  0.24328735472E+02  0.51100000000E-03 0. -1.
<mgrwt>
<rscale>  0 0.20000760E+02</rscale>
<asrwt>0</asrwt>
<pdfrwt beam="2">  1        1 0.33037378E-03 0.20000760E+02</pdfrwt>
<pdfrwt beam="1">  1       -1 0.71647447E-02 0.20000760E+02</pdfrwt>
<totfact> 0.35173997E+06</totfact>
</mgrwt>
</event>
<event>
 5    1  0.9583198E-007  0.2001206E+02  0.7818608E-02  0.1745088E+00
         -1   -1    0    0    0  501 -0.00000000000E+00  0.00000000000E+00  0.91791287170E+01  0.91791299049E+01  0.46700000000E-02 0.  1.
          1   -1    0    0  501    0  0.00000000000E+00 -0.00000000000E+00 -0.10907421543E+02  0.10907422543E+02  0.46700000000E-02 0. -1.
       1023    2    1    2    0    0  0.00000000000E+00  0.00000000000E+00 -0.17282928262E+01  0.20086552448E+02  0.20012061192E+02 0.  0.
        -11    1    3    3    0    0  0.63085122870E+01 -0.77664430090E+01 -0.78847520875E+00  0.10036765301E+02  0.51100000000E-03 0. -1.
         11    1    3    3    0    0 -0.63085122870E+01  0.77664430090E+01 -0.93981761741E+00  0.10049787147E+02  0.51100000000E-03 0.  1.
<mgrwt>
<rscale>  0 0.20012061E+02</rscale>
<asrwt>0</asrwt>
<pdfrwt beam="2">  1        1 0.16780650E-02 0.20012061E+02</pdfrwt>
<pdfrwt beam="1">  1       -1 0.14121738E-02 0.20012061E+02</pdfrwt>
<totfact> 0.38704928E+06</totfact>
</mgrwt>
</event>
<event>
 5    1  0.9583198E-007  0.2000064E+02  0.7818608E-02  0.1745315E+00
          1   -1    0    0  501    0  0.00000000000E+00  0.00000000000E+00  0.11835831123E+03  0.11835831133E+03  0.46700000000E-02 0. -1.
         -1   -1    0    0    0  501 -0.00000000000E+00 -0.00000000000E+00 -0.84493968074E+00  0.84495258624E+00  0.46700000000E-02 0.  1.
       1023    2    1    2    0    0  0.00000000000E+00  0.00000000000E+00  0.11751337155E+03  0.11920326391E+03  0.20000640828E+02 0.  0.
        -11    1    3    3    0    0 -0.99998351411E+01 -0.68742215431E-01  0.58336104924E+02  0.59187013493E+02  0.51100000000E-03 0.  1.
         11    1    3    3    0    0  0.99998351411E+01  0.68742215431E-01  0.59177266630E+02  0.60016250420E+02  0.51100000000E-03 0. -1.
<mgrwt>
<rscale>  0 0.20000641E+02</rscale>
<asrwt>0</asrwt>
<pdfrwt beam="1">  1        1 0.18208954E-01 0.20000641E+02</pdfrwt>
<pdfrwt beam="2">  1       -1 0.12999185E-03 0.20000641E+02</pdfrwt>
<totfact> 0.45222059E+06</totfact>
</mgrwt>
</event>
<event>
 5    1  0.9947450E-007  0.2000057E+02  0.7818608E-02  0.1745317E+00
         -1   -1    0    0    0  501 -0.00000000000E+00  0.00000000000E+00  0.10982291657E+01  0.10982390948E+01  0.46700000000E-02 0.  1.
          1   -1    0    0  501    0  0.00000000000E+00 -0.00000000000E+00 -0.91060412692E+02  0.91060412812E+02  0.46700000000E-02 0. -1.
       1023    2    1    2    0    0  0.00000000000E+00  0.00000000000E+00 -0.89962183526E+02  0.92158651906E+02  0.20000566402E+02 0.  0.
        -11    1    3    3    0    0 -0.90855146021E+01 -0.41780420881E+01 -0.44726510524E+02  0.45830812290E+02  0.51100000000E-03 0.  1.
         11    1    3    3    0    0  0.90855146021E+01  0.41780420881E+01 -0.45235673002E+02  0.46327839616E+02  0.51100000000E-03 0. -1.
<mgrwt>
<rscale>  0 0.20000566E+02</rscale>
<asrwt>0</asrwt>
<pdfrwt beam="2">  1        1 0.14009289E-01 0.20000566E+02</pdfrwt>
<pdfrwt beam="1">  1       -1 0.16895918E-03 0.20000566E+02</pdfrwt>
<totfact> 0.43918109E+06</totfact>
</mgrwt>
</event>
<event>
 5    1  0.9583198E-007  0.2000190E+02  0.7818608E-02  0.1745290E+00
          1   -1    0    0  501    0  0.00000000000E+00  0.00000000000E+00  0.14862782063E+01  0.14862855430E+01  0.46700000000E-02 0.  1.
         -1   -1    0    0    0  501 -0.00000000000E+00 -0.00000000000E+00 -0.67294790224E+02  0.67294790386E+02  0.46700000000E-02 0. -1.
       1023    2    1    2    0    0  0.00000000000E+00  0.00000000000E+00 -0.65808512018E+02  0.68781075929E+02  0.20001903709E+02 0.  0.
        -11    1    3    3    0    0  0.73597502519E+01  0.67704552080E+01 -0.32496651014E+02  0.34000548744E+02  0.51100000000E-03 0. -1.
         11    1    3    3    0    0 -0.73597502519E+01 -0.67704552080E+01 -0.33311861004E+02  0.34780527186E+02  0.51100000000E-03 0.  1.
<mgrwt>
<rscale>  0 0.20001904E+02</rscale>
<asrwt>0</asrwt>
<pdfrwt beam="1">  1        1 0.22865881E-03 0.20001904E+02</pdfrwt>
<pdfrwt beam="2">  1       -1 0.10353043E-01 0.20001904E+02</pdfrwt>
<totfact> 0.33763416E+06</totfact>
</mgrwt>
</event>
<event>
 5    1  0.9583198E-007  0.2000013E+02  0.7818608E-02  0.1745325E+00
         -1   -1    0    0    0  501 -0.00000000000E+00  0.00000000000E+00  0.18972983372E+02  0.18972983946E+02  0.46700000000E-02 0. -1.
          1   -1    0    0  501    0  0.00000000000E+00 -0.00000000000E+00 -0.52707202151E+01  0.52707222839E+01  0.46700000000E-02 0.  1.
       1023    2    1    2    0    0  0.00000000000E+00  0.00000000000E+00  0.13702263157E+02  0.24243706230E+02  0.20000131904E+02 0.  0.
        -11    1    3    3    0    0 -0.50784299376E+01  0.86145251773E+01  0.68163330309E+01  0.12102185378E+02  0.51100000000E-03 0. -1.
         11    1    3    3    0    0  0.50784299376E+01 -0.86145251773E+01  0.68859301257E+01  0.12141520853E+02  0.51100000000E-03 0.  1.
<mgrwt>
<rscale>  0 0.20000132E+02</rscale>
<asrwt>0</asrwt>
<pdfrwt beam="2">  1        1 0.81088023E-03 0.20000132E+02</pdfrwt>
<pdfrwt beam="1">  1       -1 0.29189207E-02 0.20000132E+02</pdfrwt>
<totfact> 0.37522039E+06</totfact>
</mgrwt>
</event>
<event>
 5    1  0.9845965E-007  0.2000112E+02  0.7818608E-02  0.1745306E+00
         -1   -1    0    0    0  501 -0.00000000000E+00  0.00000000000E+00  0.49012041800E+01  0.49012064049E+01  0.46700000000E-02 0.  1.
          1   -1    0    0  501    0  0.00000000000E+00 -0.00000000000E+00 -0.20405435541E+02  0.20405436076E+02  0.46700000000E-02 0. -1.
       1023    2    1    2    0    0  0.00000000000E+00  0.00000000000E+00 -0.15504231361E+02  0.25306642480E+02  0.20001124057E+02 0.  0.
        -11    1    3    3    0    0  0.49188240513E+01 -0.87071505077E+01 -0.76963779540E+01  0.12619173265E+02  0.51100000000E-03 0. -1.
         11    1    3    3    0    0 -0.49188240513E+01  0.87071505077E+01 -0.78078534071E+01  0.12687469216E+02  0.51100000000E-03 0.  1.
<mgrwt>
<rscale>  0 0.20001124E+02</rscale>
<asrwt>0</asrwt>
<pdfrwt beam="2">  1        1 0.31392979E-02 0.20001124E+02</pdfrwt>
<pdfrwt beam="1">  1       -1 0.75403164E-03 0.20001124E+02</pdfrwt>
<totfact> 0.39734681E+06</totfact>
</mgrwt>
</event>
<event>
 5    1  0.9583198E-007  0.2001020E+02  0.7818608E-02  0.1745125E+00
         -1   -1    0    0    0  501 -0.00000000000E+00  0.00000000000E+00  0.44840969729E+01  0.44840994048E+01  0.46700000000E-02 0. -1.
          1   -1    0    0  501    0  0.00000000000E+00 -0.00000000000E+00 -0.22323787518E+02  0.22323788007E+02  0.46700000000E-02 0.  1.
       1023    2    1    2    0    0  0.00000000000E+00  0.00000000000E+00 -0.17839690545E+02  0.26807887412E+02  0.20010204115E+02 0.  0.
        -11    1    3    3    0    0  0.94261396310E+00 -0.99601966476E+01 -0.90398864690E+01  0.13483826830E+02  0.51100000000E-03 0.  1.
         11    1    3    3    0    0 -0.94261396310E+00  0.99601966476E+01 -0.87998040764E+01  0.13324060582E+02  0.51100000000E-03 0. -1.
<mgrwt>
<rscale>  0 0.20010204E+02</rscale>
<asrwt>0</asrwt>
<pdfrwt beam="2">  1        1 0.34344290E-02 0.20010204E+02</pdfrwt>
<pdfrwt beam="1">  1       -1 0.68986131E-03 0.20010204E+02</pdfrwt>
<totfact> 0.39848978E+06</totfact>
</mgrwt>
</event>
<event>
 5    1  0.9583198E-007  0.2000067E+02  0.7818608E-02  0.1745315E+00
          1   -1    0    0  501    0  0.00000000000E+00  0.00000000000E+00  0.25533401555E+01  0.25533444261E+01  0.46700000000E-02 0. -1.
         -1   -1    0    0    0  501 -0.00000000000E+00 -0.00000000000E+00 -0.39166986079E+02  0.39166986358E+02  0.46700000000E-02 0.  1.
       1023    2    1    2    0    0  0.00000000000E+00  0.00000000000E+00 -0.36613645924E+02  0.41720330784E+02  0.20000673311E+02 0.  0.
        -11    1    3    3    0    0  0.86135788971E+01  0.50806289283E+01 -0.18336413673E+02  0.20886134118E+02  0.51100000000E-03 0.  1.
         11    1    3    3    0    0 -0.86135788971E+01 -0.50806289283E+01 -0.18277232251E+02  0.20834196666E+02  0.51100000000E-03 0. -1.
<mgrwt>
<rscale>  0 0.20000673E+02</rscale>
<asrwt>0</asrwt>
<pdfrwt beam="1">  1        1 0.39282194E-03 0.20000673E+02</pdfrwt>
<pdfrwt beam="2">  1       -1 0.60256901E-02 0.20000673E+02</pdfrwt>
<totfact> 0.35733223E+06</totfact>
</mgrwt>
</event>
<event>
 5    1  0.9583198E-007  0.2000143E+02  0.7818608E-02  0.1745300E+00
          1   -1    0    0  501    0  0.00000000000E+00  0.00000000000E+00  0.40583301170E+01  0.40583328039E+01  0.46700000000E-02 0. -1.
         -1   -1    0    0    0  501 -0.00000000000E+00 -0.00000000000E+00 -0.24644194703E+02  0.24644195146E+02  0.46700000000E-02 0.  1.
       1023    2    1    2    0    0  0.00000000000E+00  0.00000000000E+00 -0.20585864586E+02  0.28702527950E+02  0.20001432197E+02 0.  0.
        -11    1    3    3    0    0 -0.87222608624E+01 -0.48923114970E+01 -0.10353406040E+02  0.14394636613E+02  0.51100000000E-03 0. -1.
         11    1    3    3    0    0  0.87222608624E+01  0.48923114970E+01 -0.10232458546E+02  0.14307891337E+02  0.51100000000E-03 0.  1.
<mgrwt>
<rscale>  0 0.20001432E+02</rscale>
<asrwt>0</asrwt>
<pdfrwt beam="1">  1        1 0.62435873E-03 0.20001432E+02</pdfrwt>
<pdfrwt beam="2">  1       -1 0.37914147E-02 0.20001432E+02</pdfrwt>
<totfact> 0.36959952E+06</totfact>
</mgrwt>
</event>
<event>
 5    1  0.9583198E-007  0.2000223E+02  0.7818608E-02  0.1745284E+00
          1   -1    0    0  501    0  0.00000000000E+00  0.00000000000E+00  0.45424794640E+01  0.45424818645E+01  0.46700000000E-02 0. -1.
         -1   -1    0    0    0  501 -0.00000000000E+00 -0.00000000000E+00 -0.22019307664E+02  0.22019308159E+02  0.46700000000E-02 0.  1.
       1023    2    1    2    0    0  0.00000000000E+00  0.00000000000E+00 -0.17476828200E+02  0.26561790024E+02  0.20002229009E+02 0.  0.
        -11    1    3    3    0    0 -0.42881489563E+01  0.90345687283E+01 -0.88753756363E+01  0.13371011425E+02  0.51100000000E-03 0.  1.
         11    1    3    3    0    0  0.42881489563E+01 -0.90345687283E+01 -0.86014525638E+01  0.13190778599E+02  0.51100000000E-03 0. -1.
<mgrwt>
<rscale>  0 0.20002229E+02</rscale>
<asrwt>0</asrwt>
<pdfrwt beam="1">  1        1 0.69884323E-03 0.20002229E+02</pdfrwt>
<pdfrwt beam="2">  1       -1 0.33875860E-02 0.20002229E+02</pdfrwt>
<totfact> 0.37206568E+06</totfact>
</mgrwt>
</event>
<event>
 5    1  0.1005969E-006  0.2000142E+02  0.7818608E-02  0.1745300E+00
         -1   -1    0    0    0  501 -0.00000000000E+00  0.00000000000E+00  0.20380036467E+01  0.20380089973E+01  0.46700000000E-02 0.  1.
          1   -1    0    0  501    0  0.00000000000E+00 -0.00000000000E+00 -0.49074534268E+02  0.49074534490E+02  0.46700000000E-02 0. -1.
       1023    2    1    2    0    0  0.00000000000E+00  0.00000000000E+00 -0.47036530622E+02  0.51112543488E+02  0.20001422171E+02 0.  0.
        -11    1    3    3    0    0 -0.47887001774E+01  0.87796624486E+01 -0.23492729272E+02  0.25532772098E+02  0.51100000000E-03 0. -1.
         11    1    3    3    0    0  0.47887001774E+01 -0.87796624486E+01 -0.23543801349E+02  0.25579771389E+02  0.51100000000E-03 0.  1.
<mgrwt>
<rscale>  0 0.20001422E+02</rscale>
<asrwt>0</asrwt>
<pdfrwt beam="2">  1        1 0.75499279E-02 0.20001422E+02</pdfrwt>
<pdfrwt beam="1">  1       -1 0.31353949E-03 0.20001422E+02</pdfrwt>
<totfact> 0.41653850E+06</totfact>
</mgrwt>
</event>
<event>
 5    1  0.9583198E-007  0.2000031E+02  0.7818608E-02  0.1745322E+00
          1   -1    0    0  501    0  0.00000000000E+00  0.00000000000E+00  0.92406053882E+02  0.92406054000E+02  0.46700000000E-02 0.  1.
         -1   -1    0    0    0  501 -0.00000000000E+00 -0.00000000000E+00 -0.10822082255E+01  0.10822183016E+01  0.46700000000E-02 0. -1.
       1023    2    1    2    0    0  0.00000000000E+00  0.00000000000E+00  0.91323845656E+02  0.93488272301E+02  0.20000306809E+02 0.  0.
        -11    1    3    3    0    0 -0.95664492229E+01 -0.29128906871E+01  0.45822828904E+02  0.46901316953E+02  0.51100000000E-03 0. -1.
         11    1    3    3    0    0  0.95664492229E+01  0.29128906871E+01  0.45501016752E+02  0.46586955348E+02  0.51100000000E-03 0.  1.
<mgrwt>
<rscale>  0 0.20000307E+02</rscale>
<asrwt>0</asrwt>
<pdfrwt beam="1">  1        1 0.14216320E-01 0.20000307E+02</pdfrwt>
<pdfrwt beam="2">  1       -1 0.16649432E-03 0.20000307E+02</pdfrwt>
<totfact> 0.43986376E+06</totfact>
</mgrwt>
</event>
<event>
 5    1  0.9583198E-007  0.2000336E+02  0.7818608E-02  0.1745261E+00
         -1   -1    0    0    0  501 -0.00000000000E+00  0.00000000000E+00  0.75062889046E+02  0.75062889191E+02  0.46700000000E-02 0.  1.
          1   -1    0    0  501    0  0.00000000000E+00 -0.00000000000E+00 -0.13326598359E+01  0.13326680183E+01  0.46700000000E-02 0. -1.
       1023    2    1    2    0    0  0.00000000000E+00  0.00000000000E+00  0.73730229210E+02  0.76395557210E+02  0.20003361267E+02 0.  0.
        -11    1    3    3    0    0 -0.34749093006E+01  0.93776236967E+01  0.37388690044E+02  0.38703087271E+02  0.51100000000E-03 0. -1.
         11    1    3    3    0    0  0.34749093006E+01 -0.93776236967E+01  0.36341539166E+02  0.37692469939E+02  0.51100000000E-03 0.  1.
<mgrwt>
<rscale>  0 0.20003361E+02</rscale>
<asrwt>0</asrwt>
<pdfrwt beam="2">  1        1 0.20502525E-03 0.20003361E+02</pdfrwt>
<pdfrwt beam="1">  1       -1 0.11548137E-01 0.20003361E+02</pdfrwt>
<totfact> 0.33276710E+06</totfact>
</mgrwt>
</event>
<event>
 5    1  0.9583198E-007  0.2001044E+02  0.7818608E-02  0.1745120E+00
          1   -1    0    0  501    0  0.00000000000E+00  0.00000000000E+00  0.98275202613E+00  0.98276312190E+00  0.46700000000E-02 0. -1.
         -1   -1    0    0    0  501 -0.00000000000E+00 -0.00000000000E+00 -0.10186078459E+03  0.10186078470E+03  0.46700000000E-02 0.  1.
       1023    2    1    2    0    0  0.00000000000E+00  0.00000000000E+00 -0.10087803257E+03  0.10284354782E+03  0.20010444124E+02 0.  0.
        -11    1    3    3    0    0 -0.90127960521E+00  0.99612695994E+01 -0.49125965790E+02  0.50133818048E+02  0.51100000000E-03 0. -1.
         11    1    3    3    0    0  0.90127960521E+00 -0.99612695994E+01 -0.51752066778E+02  0.52709729776E+02  0.51100000000E-03 0.  1.
<mgrwt>
<rscale>  0 0.20010444E+02</rscale>
<asrwt>0</asrwt>
<pdfrwt beam="1">  1        1 0.15119356E-03 0.20010444E+02</pdfrwt>
<pdfrwt beam="2">  1       -1 0.15670882E-01 0.20010444E+02</pdfrwt>
<totfact> 0.31731979E+06</totfact>
</mgrwt>
</event>
<event>
 5    1  0.9583198E-007  0.2000044E+02  0.7818608E-02  0.1745319E+00
          1   -1    0    0  501    0  0.00000000000E+00  0.00000000000E+00  0.15900149732E+01  0.15900218313E+01  0.46700000000E-02 0. -1.
         -1   -1    0    0    0  501 -0.00000000000E+00 -0.00000000000E+00 -0.62895140540E+02  0.62895140713E+02  0.46700000000E-02 0.  1.
       1023    2    1    2    0    0  0.00000000000E+00  0.00000000000E+00 -0.61305125567E+02  0.64485162545E+02  0.20000444186E+02 0.  0.
        -11    1    3    3    0    0  0.42206416589E+01  0.90657428236E+01 -0.30477959038E+02  0.32076587979E+02  0.51100000000E-03 0. -1.
         11    1    3    3    0    0 -0.42206416589E+01 -0.90657428236E+01 -0.30827166529E+02  0.32408574566E+02  0.51100000000E-03 0.  1.
<mgrwt>
<rscale>  0 0.20000444E+02</rscale>
<asrwt>0</asrwt>
<pdfrwt beam="1">  1        1 0.24461828E-03 0.20000444E+02</pdfrwt>
<pdfrwt beam="2">  1       -1 0.96761741E-02 0.20000444E+02</pdfrwt>
<totfact> 0.34051323E+06</totfact>
</mgrwt>
</event>
<event>
 5    1  0.9583198E-007  0.2000029E+02  0.7818608E-02  0.1745322E+00
          1   -1    0    0  501    0  0.00000000000E+00  0.00000000000E+00  0.95917684300E+00  0.95918821148E+00  0.46700000000E-02 0. -1.
         -1   -1    0    0    0  501 -0.00000000000E+00 -0.00000000000E+00 -0.10425842398E+03  0.10425842408E+03  0.46700000000E-02 0.  1.
       1023    2    1    2    0    0  0.00000000000E+00  0.00000000000E+00 -0.10329924714E+03  0.10521761229E+03  0.20000286953E+02 0.  0.
        -11    1    3    3    0    0 -0.97512936459E+01 -0.22169842620E+01 -0.51707803547E+02  0.52665925369E+02  0.51100000000E-03 0. -1.
         11    1    3    3    0    0  0.97512936459E+01  0.22169842620E+01 -0.51591443588E+02  0.52551686926E+02  0.51100000000E-03 0.  1.
<mgrwt>
<rscale>  0 0.20000287E+02</rscale>
<asrwt>0</asrwt>
<pdfrwt beam="1">  1        1 0.14756663E-03 0.20000287E+02</pdfrwt>
<pdfrwt beam="2">  1       -1 0.16039750E-01 0.20000287E+02</pdfrwt>
<totfact> 0.31640182E+06</totfact>
</mgrwt>
</event>
<event>
 5    1  0.9583198E-007  0.2000094E+02  0.7818608E-02  0.1745309E+00
          1   -1    0    0  501    0  0.00000000000E+00  0.00000000000E+00  0.93961572233E+00  0.93962732748E+00  0.46700000000E-02 0. -1.
         -1   -1    0    0    0  501 -0.00000000000E+00 -0.00000000000E+00 -0.10643578201E+03  0.10643578212E+03  0.46700000000E-02 0.  1.
       1023    2    1    2    0    0  0.00000000000E+00  0.00000000000E+00 -0.10549616629E+03  0.10737540944E+03  0.20000936253E+02 0.  0.
        -11    1    3    3    0    0  0.97963807092E+01 -0.20100449404E+01 -0.52762113228E+02  0.53701489255E+02  0.51100000000E-03 0. -1.
         11    1    3    3    0    0 -0.97963807092E+01  0.20100449404E+01 -0.52734053063E+02  0.53673920188E+02  0.51100000000E-03 0.  1.
<mgrwt>
<rscale>  0 0.20000936E+02</rscale>
<asrwt>0</asrwt>
<pdfrwt beam="1">  1        1 0.14455725E-03 0.20000936E+02</pdfrwt>
<pdfrwt beam="2">  1       -1 0.16374727E-01 0.20000936E+02</pdfrwt>
<totfact> 0.31523508E+06</totfact>
</mgrwt>
</event>
<event>
 5    1  0.9583198E-007  0.2000303E+02  0.7818608E-02  0.1745268E+00
          1   -1    0    0  501    0  0.00000000000E+00  0.00000000000E+00  0.32345725698E+01  0.32345759410E+01  0.46700000000E-02 0.  1.
         -1   -1    0    0    0  501 -0.00000000000E+00 -0.00000000000E+00 -0.30925338213E+02  0.30925338565E+02  0.46700000000E-02 0. -1.
       1023    2    1    2    0    0  0.00000000000E+00  0.00000000000E+00 -0.27690765643E+02  0.34159914506E+02  0.20003031200E+02 0.  0.
        -11    1    3    3    0    0 -0.48640673891E+01  0.87377219610E+01 -0.13584275476E+02  0.16868297991E+02  0.51100000000E-03 0. -1.
         11    1    3    3    0    0  0.48640673891E+01 -0.87377219610E+01 -0.14106490166E+02  0.17291616515E+02  0.51100000000E-03 0.  1.
<mgrwt>
<rscale>  0 0.20003031E+02</rscale>
<asrwt>0</asrwt>
<pdfrwt beam="1">  1        1 0.49762686E-03 0.20003031E+02</pdfrwt>
<pdfrwt beam="2">  1       -1 0.47577444E-02 0.20003031E+02</pdfrwt>
<totfact> 0.36394955E+06</totfact>
</mgrwt>
</event>
<event>
 5    1  0.9583198E-007  0.2000025E+02  0.7818608E-02  0.1745323E+00
          1   -1    0    0  501    0  0.00000000000E+00  0.00000000000E+00  0.87500609993E+00  0.87501856198E+00  0.46700000000E-02 0.  1.
         -1   -1    0    0    0  501 -0.00000000000E+00 -0.00000000000E+00 -0.11428689320E+03  0.11428689330E+03  0.46700000000E-02 0. -1.
       1023    2    1    2    0    0  0.00000000000E+00  0.00000000000E+00 -0.11341188710E+03  0.11516191186E+03  0.20000245175E+02 0.  0.
        -11    1    3    3    0    0  0.99249529316E+01 -0.12238222920E+01 -0.56731570551E+02  0.57606193497E+02  0.51100000000E-03 0. -1.
         11    1    3    3    0    0 -0.99249529316E+01  0.12238222920E+01 -0.56680316552E+02  0.57555718364E+02  0.51100000000E-03 0.  1.
<mgrwt>
<rscale>  0 0.20000245E+02</rscale>
<asrwt>0</asrwt>
<pdfrwt beam="1">  1        1 0.13461738E-03 0.20000245E+02</pdfrwt>
<pdfrwt beam="2">  1       -1 0.17582588E-01 0.20000245E+02</pdfrwt>
<totfact> 0.31121801E+06</totfact>
</mgrwt>
</event>
<event>
 5    1  0.9767273E-007  0.2000190E+02  0.7818608E-02  0.1745290E+00
          1   -1    0    0  501    0  0.00000000000E+00  0.00000000000E+00  0.25473126835E+02  0.25473127263E+02  0.46700000000E-02 0.  1.
         -1   -1    0    0    0  501 -0.00000000000E+00 -0.00000000000E+00 -0.39264495164E+01  0.39264522936E+01  0.46700000000E-02 0. -1.
       1023    2    1    2    0    0  0.00000000000E+00  0.00000000000E+00  0.21546677319E+02  0.29399579557E+02  0.20001899276E+02 0.  0.
        -11    1    3    3    0    0 -0.61821832122E+01 -0.78603419469E+01  0.10595563373E+02  0.14569499931E+02  0.51100000000E-03 0. -1.
         11    1    3    3    0    0  0.61821832122E+01  0.78603419469E+01  0.10951113946E+02  0.14830079626E+02  0.51100000000E-03 0.  1.
<mgrwt>
<rscale>  0 0.20001899E+02</rscale>
<asrwt>0</asrwt>
<pdfrwt beam="1">  1        1 0.39189428E-02 0.20001899E+02</pdfrwt>
<pdfrwt beam="2">  1       -1 0.60406941E-03 0.20001899E+02</pdfrwt>
<totfact> 0.40125901E+06</totfact>
</mgrwt>
</event>
<event>
 5    1  0.9583198E-007  0.2000023E+02  0.7818608E-02  0.1745324E+00
          1   -1    0    0  501    0  0.00000000000E+00  0.00000000000E+00  0.98853444044E+01  0.98853455075E+01  0.46700000000E-02 0. -1.
         -1   -1    0    0    0  501 -0.00000000000E+00 -0.00000000000E+00 -0.10116214749E+02  0.10116215827E+02  0.46700000000E-02 0.  1.
       1023    2    1    2    0    0  0.00000000000E+00  0.00000000000E+00 -0.23087034494E+00  0.20001561335E+02  0.20000228867E+02 0.  0.
        -11    1    3    3    0    0 -0.24943602398E+01  0.96840063624E+01 -0.13725825501E+00  0.10001032563E+02  0.51100000000E-03 0. -1.
         11    1    3    3    0    0  0.24943602398E+01 -0.96840063624E+01 -0.93612089936E-01  0.10000528772E+02  0.51100000000E-03 0.  1.
<mgrwt>
<rscale>  0 0.20000229E+02</rscale>
<asrwt>0</asrwt>
<pdfrwt beam="1">  1        1 0.15208224E-02 0.20000229E+02</pdfrwt>
<pdfrwt beam="2">  1       -1 0.15563409E-02 0.20000229E+02</pdfrwt>
<totfact> 0.38605073E+06</totfact>
</mgrwt>
</event>
<event>
 5    1  0.9583198E-007  0.2000019E+02  0.7818608E-02  0.1745324E+00
          1   -1    0    0  501    0  0.00000000000E+00  0.00000000000E+00  0.55084336028E+01  0.55084355824E+01  0.46700000000E-02 0. -1.
         -1   -1    0    0    0  501 -0.00000000000E+00 -0.00000000000E+00 -0.18154319489E+02  0.18154320089E+02  0.46700000000E-02 0.  1.
       1023    2    1    2    0    0  0.00000000000E+00  0.00000000000E+00 -0.12645885886E+02  0.23662755672E+02  0.20000189403E+02 0.  0.
        -11    1    3    3    0    0  0.60658823483E+01 -0.79502732586E+01 -0.63099703121E+01  0.11824444983E+02  0.51100000000E-03 0. -1.
         11    1    3    3    0    0 -0.60658823483E+01  0.79502732586E+01 -0.63359155738E+01  0.11838310689E+02  0.51100000000E-03 0.  1.
<mgrwt>
<rscale>  0 0.20000189E+02</rscale>
<asrwt>0</asrwt>
<pdfrwt beam="1">  1        1 0.84745153E-03 0.20000189E+02</pdfrwt>
<pdfrwt beam="2">  1       -1 0.27929724E-02 0.20000189E+02</pdfrwt>
<totfact> 0.37607824E+06</totfact>
</mgrwt>
</event>
<event>
 5    1  0.9583198E-007  0.2000063E+02  0.7818608E-02  0.1745316E+00
          1   -1    0    0  501    0  0.00000000000E+00  0.00000000000E+00  0.19789634819E+02  0.19789635370E+02  0.46700000000E-02 0.  1.
         -1   -1    0    0    0  501 -0.00000000000E+00 -0.00000000000E+00 -0.50534656303E+01  0.50534677881E+01  0.46700000000E-02 0. -1.
       1023    2    1    2    0    0  0.00000000000E+00  0.00000000000E+00  0.14736169189E+02  0.24843103159E+02  0.20000627295E+02 0.  0.
        -11    1    3    3    0    0  0.90339089624E+01  0.42888315770E+01  0.73355670966E+01  0.12402263194E+02  0.51100000000E-03 0. -1.
         11    1    3    3    0    0 -0.90339089624E+01 -0.42888315770E+01  0.74006020926E+01  0.12440839965E+02  0.51100000000E-03 0.  1.
<mgrwt>
<rscale>  0 0.20000627E+02</rscale>
<asrwt>0</asrwt>
<pdfrwt beam="1">  1        1 0.30445594E-02 0.20000627E+02</pdfrwt>
<pdfrwt beam="2">  1       -1 0.77745645E-03 0.20000627E+02</pdfrwt>
<totfact> 0.39685418E+06</totfact>
</mgrwt>
</event>
<event>
 5    1  0.9973403E-007  0.2000082E+02  0.7818608E-02  0.1745312E+00
          1   -1    0    0  501    0  0.00000000000E+00  0.00000000000E+00  0.14900935358E+02  0.14900936090E+02  0.46700000000E-02 0. -1.
         -1   -1    0    0    0  501 -0.00000000000E+00 -0.00000000000E+00 -0.67115391190E+01  0.67115407437E+01  0.46700000000E-02 0.  1.
       1023    2    1    2    0    0  0.00000000000E+00  0.00000000000E+00  0.81893962389E+01  0.21612476833E+02  0.20000823586E+02 0.  0.
        -11    1    3    3    0    0 -0.43422631189E+01  0.90080832115E+01  0.40015948865E+01  0.10770959755E+02  0.51100000000E-03 0. -1.
         11    1    3    3    0    0  0.43422631189E+01 -0.90080832115E+01  0.41878013524E+01  0.10841517079E+02  0.51100000000E-03 0.  1.
<mgrwt>
<rscale>  0 0.20000824E+02</rscale>
<asrwt>0</asrwt>
<pdfrwt beam="1">  1        1 0.22924518E-02 0.20000824E+02</pdfrwt>
<pdfrwt beam="2">  1       -1 0.10325447E-02 0.20000824E+02</pdfrwt>
<totfact> 0.39230772E+06</totfact>
</mgrwt>
</event>
<event>
 5    1  0.9583198E-007  0.2000259E+02  0.7818608E-02  0.1745277E+00
          1   -1    0    0  501    0  0.00000000000E+00  0.00000000000E+00  0.19731833465E+01  0.19731888729E+01  0.46700000000E-02 0. -1.
         -1   -1    0    0    0  501 -0.00000000000E+00 -0.00000000000E+00 -0.50692589004E+02  0.50692589219E+02  0.46700000000E-02 0.  1.
       1023    2    1    2    0    0  0.00000000000E+00  0.00000000000E+00 -0.48719405657E+02  0.52665778092E+02  0.20002592192E+02 0.  0.
        -11    1    3    3    0    0 -0.17735750966E+01  0.98425511492E+01 -0.24537140736E+02  0.26497031108E+02  0.51100000000E-03 0. -1.
         11    1    3    3    0    0  0.17735750966E+01 -0.98425511492E+01 -0.24182264921E+02  0.26168746984E+02  0.51100000000E-03 0.  1.
<mgrwt>
<rscale>  0 0.20002592E+02</rscale>
<asrwt>0</asrwt>
<pdfrwt beam="1">  1        1 0.30356715E-03 0.20002592E+02</pdfrwt>
<pdfrwt beam="2">  1       -1 0.77988593E-02 0.20002592E+02</pdfrwt>
<totfact> 0.34870515E+06</totfact>
</mgrwt>
</event>
<event>
 5    1  0.9583198E-007  0.2001012E+02  0.7818608E-02  0.1745127E+00
         -1   -1    0    0    0  501 -0.00000000000E+00  0.00000000000E+00  0.97652893510E+01  0.97652904677E+01  0.46700000000E-02 0. -1.
          1   -1    0    0  501    0  0.00000000000E+00 -0.00000000000E+00 -0.10250717019E+02  0.10250718083E+02  0.46700000000E-02 0.  1.
       1023    2    1    2    0    0  0.00000000000E+00  0.00000000000E+00 -0.48542766824E+00  0.20016008551E+02  0.20010121396E+02 0.  0.
        -11    1    3    3    0    0  0.59909884617E+01 -0.80130641321E+01 -0.25270548537E+00  0.10008246593E+02  0.51100000000E-03 0. -1.
         11    1    3    3    0    0 -0.59909884617E+01  0.80130641321E+01 -0.23272218287E+00  0.10007761958E+02  0.51100000000E-03 0.  1.
<mgrwt>
<rscale>  0 0.20010121E+02</rscale>
<asrwt>0</asrwt>
<pdfrwt beam="2">  1        1 0.15770335E-02 0.20010121E+02</pdfrwt>
<pdfrwt beam="1">  1       -1 0.15023524E-02 0.20010121E+02</pdfrwt>
<totfact> 0.38617985E+06</totfact>
</mgrwt>
</event>
<event>
 5    1  0.9583198E-007  0.2000048E+02  0.7818608E-02  0.1745318E+00
         -1   -1    0    0    0  501 -0.00000000000E+00  0.00000000000E+00  0.30490971088E+02  0.30490971446E+02  0.46700000000E-02 0. -1.
          1   -1    0    0  501    0  0.00000000000E+00 -0.00000000000E+00 -0.32798159050E+01  0.32798192297E+01  0.46700000000E-02 0.  1.
       1023    2    1    2    0    0  0.00000000000E+00  0.00000000000E+00  0.27211155183E+02  0.33770790675E+02  0.20000483405E+02 0.  0.
        -11    1    3    3    0    0  0.79614776903E+01  0.60513984144E+01  0.13634035947E+02  0.16908325945E+02  0.51100000000E-03 0.  1.
         11    1    3    3    0    0 -0.79614776903E+01 -0.60513984144E+01  0.13577119236E+02  0.16862464730E+02  0.51100000000E-03 0. -1.
<mgrwt>
<rscale>  0 0.20000483E+02</rscale>
<asrwt>0</asrwt>
<pdfrwt beam="2">  1        1 0.50458736E-03 0.20000483E+02</pdfrwt>
<pdfrwt beam="1">  1       -1 0.46909187E-02 0.20000483E+02</pdfrwt>
<totfact> 0.36442315E+06</totfact>
</mgrwt>
</event>
<event>
 5    1  0.9583198E-007  0.2000059E+02  0.7818608E-02  0.1745316E+00
         -1   -1    0    0    0  501 -0.00000000000E+00  0.00000000000E+00  0.28860699288E+02  0.28860699666E+02  0.46700000000E-02 0.  1.
          1   -1    0    0  501    0  0.00000000000E+00 -0.00000000000E+00 -0.34651225094E+01  0.34651256563E+01  0.46700000000E-02 0. -1.
       1023    2    1    2    0    0  0.00000000000E+00  0.00000000000E+00  0.25395576779E+02  0.32325825322E+02  0.20000591562E+02 0.  0.
        -11    1    3    3    0    0  0.76120089062E+01 -0.64853953755E+01  0.12784565549E+02  0.16231085894E+02  0.51100000000E-03 0. -1.
         11    1    3    3    0    0 -0.76120089062E+01  0.64853953755E+01  0.12611011230E+02  0.16094739428E+02  0.51100000000E-03 0.  1.
<mgrwt>
<rscale>  0 0.20000592E+02</rscale>
<asrwt>0</asrwt>
<pdfrwt beam="2">  1        1 0.53309604E-03 0.20000592E+02</pdfrwt>
<pdfrwt beam="1">  1       -1 0.44401078E-02 0.20000592E+02</pdfrwt>
<totfact> 0.36583209E+06</totfact>
</mgrwt>
</event>
<event>
 5    1  0.9583198E-007  0.2000332E+02  0.7818608E-02  0.1745262E+00
         -1   -1    0    0    0  501 -0.00000000000E+00  0.00000000000E+00  0.13446559803E+01  0.13446640897E+01  0.46700000000E-02 0. -1.
          1   -1    0    0  501    0  0.00000000000E+00 -0.00000000000E+00 -0.74392928107E+02  0.74392928253E+02  0.46700000000E-02 0.  1.
       1023    2    1    2    0    0  0.00000000000E+00  0.00000000000E+00 -0.73048272127E+02  0.75737592343E+02  0.20003320556E+02 0.  0.
        -11    1    3    3    0    0 -0.56290961905E+01  0.82671138735E+01 -0.36661297302E+02  0.38001087035E+02  0.51100000000E-03 0.  1.
         11    1    3    3    0    0  0.56290961905E+01 -0.82671138735E+01 -0.36386974825E+02  0.37736505308E+02  0.51100000000E-03 0. -1.
<mgrwt>
<rscale>  0 0.20003321E+02</rscale>
<asrwt>0</asrwt>
<pdfrwt beam="2">  1        1 0.11445063E-01 0.20003321E+02</pdfrwt>
<pdfrwt beam="1">  1       -1 0.20687084E-03 0.20003321E+02</pdfrwt>
<totfact> 0.43051367E+06</totfact>
</mgrwt>
</event>
<event>
 5    1  0.9583198E-007  0.2000062E+02  0.7818608E-02  0.1745316E+00
         -1   -1    0    0    0  501 -0.00000000000E+00  0.00000000000E+00  0.86343413456E+02  0.86343413582E+02  0.46700000000E-02 0.  1.
          1   -1    0    0  501    0  0.00000000000E+00 -0.00000000000E+00 -0.11582326216E+01  0.11582420362E+01  0.46700000000E-02 0. -1.
       1023    2    1    2    0    0  0.00000000000E+00  0.00000000000E+00  0.85185180835E+02  0.87501655619E+02  0.20000617545E+02 0.  0.
        -11    1    3    3    0    0  0.87371447760E+01 -0.48648677150E+01  0.42420985117E+02  0.43583765501E+02  0.51100000000E-03 0.  1.
         11    1    3    3    0    0 -0.87371447760E+01  0.48648677150E+01  0.42764195718E+02  0.43917890118E+02  0.51100000000E-03 0. -1.
<mgrwt>
<rscale>  0 0.20000618E+02</rscale>
<asrwt>0</asrwt>
<pdfrwt beam="2">  1        1 0.17819037E-03 0.20000618E+02</pdfrwt>
<pdfrwt beam="1">  1       -1 0.13283603E-01 0.20000618E+02</pdfrwt>
<totfact> 0.32622392E+06</totfact>
</mgrwt>
</event>
<event>
 5    1  0.9956400E-007  0.2000092E+02  0.7818608E-02  0.1745310E+00
         -1   -1    0    0    0  501 -0.00000000000E+00  0.00000000000E+00  0.64141146461E+01  0.64141163462E+01  0.46700000000E-02 0.  1.
          1   -1    0    0  501    0  0.00000000000E+00 -0.00000000000E+00 -0.15592049540E+02  0.15592050239E+02  0.46700000000E-02 0. -1.
       1023    2    1    2    0    0  0.00000000000E+00  0.00000000000E+00 -0.91779348939E+01  0.22006166586E+02  0.20000921951E+02 0.  0.
        -11    1    3    3    0    0  0.47963423952E+01  0.87751119732E+01 -0.46347167674E+01  0.11022163594E+02  0.51100000000E-03 0. -1.
         11    1    3    3    0    0 -0.47963423952E+01 -0.87751119732E+01 -0.45432181265E+01  0.10984002992E+02  0.51100000000E-03 0.  1.
<mgrwt>
<rscale>  0 0.20000922E+02</rscale>
<asrwt>0</asrwt>
<pdfrwt beam="2">  1        1 0.23987770E-02 0.20000922E+02</pdfrwt>
<pdfrwt beam="1">  1       -1 0.98678705E-03 0.20000922E+02</pdfrwt>
<totfact> 0.39300676E+06</totfact>
</mgrwt>
</event>
<event>
 5    1  0.9583198E-007  0.2000344E+02  0.7818608E-02  0.1745260E+00
          1   -1    0    0  501    0  0.00000000000E+00  0.00000000000E+00  0.27425044239E+01  0.27425084000E+01  0.46700000000E-02 0. -1.
         -1   -1    0    0    0  501 -0.00000000000E+00 -0.00000000000E+00 -0.36475533911E+02  0.36475534210E+02  0.46700000000E-02 0.  1.
       1023    2    1    2    0    0  0.00000000000E+00  0.00000000000E+00 -0.33733029487E+02  0.39218042610E+02  0.20003439399E+02 0.  0.
        -11    1    3    3    0    0  0.19610905947E+01 -0.98074667684E+01 -0.16956699665E+02  0.19686593015E+02  0.51100000000E-03 0.  1.
         11    1    3    3    0    0 -0.19610905947E+01  0.98074667684E+01 -0.16776329822E+02  0.19531449595E+02  0.51100000000E-03 0. -1.
<mgrwt>
<rscale>  0 0.20003439E+02</rscale>
<asrwt>0</asrwt>
<pdfrwt beam="1">  1        1 0.42192411E-03 0.20003439E+02</pdfrwt>
<pdfrwt beam="2">  1       -1 0.56116206E-02 0.20003439E+02</pdfrwt>
<totfact> 0.35934978E+06</totfact>
</mgrwt>
</event>
<event>
 5    1  0.9583198E-007  0.2000014E+02  0.7818608E-02  0.1745325E+00
         -1   -1    0    0    0  501 -0.00000000000E+00  0.00000000000E+00  0.41784842671E+02  0.41784842932E+02  0.46700000000E-02 0.  1.
          1   -1    0    0  501    0  0.00000000000E+00 -0.00000000000E+00 -0.23932438533E+01  0.23932484096E+01  0.46700000000E-02 0. -1.
       1023    2    1    2    0    0  0.00000000000E+00  0.00000000000E+00  0.39391598818E+02  0.44178091342E+02  0.20000142429E+02 0.  0.
        -11    1    3    3    0    0  0.30139017904E+01 -0.95350834253E+01  0.19700274087E+02  0.22093035538E+02  0.51100000000E-03 0. -1.
         11    1    3    3    0    0 -0.30139017904E+01  0.95350834253E+01  0.19691324731E+02  0.22085055804E+02  0.51100000000E-03 0.  1.
<mgrwt>
<rscale>  0 0.20000142E+02</rscale>
<asrwt>0</asrwt>
<pdfrwt beam="2">  1        1 0.36819177E-03 0.20000142E+02</pdfrwt>
<pdfrwt beam="1">  1       -1 0.64284371E-02 0.20000142E+02</pdfrwt>
<totfact> 0.35533498E+06</totfact>
</mgrwt>
</event>
<event>
 5    1  0.9583198E-007  0.2000084E+02  0.7818608E-02  0.1745311E+00
          1   -1    0    0  501    0  0.00000000000E+00  0.00000000000E+00  0.11719819495E+01  0.11719912538E+01  0.46700000000E-02 0. -1.
         -1   -1    0    0    0  501 -0.00000000000E+00 -0.00000000000E+00 -0.85332365279E+02  0.85332365406E+02  0.46700000000E-02 0.  1.
       1023    2    1    2    0    0  0.00000000000E+00  0.00000000000E+00 -0.84160383329E+02  0.86504356660E+02  0.20000839960E+02 0.  0.
        -11    1    3    3    0    0  0.86851635222E+01 -0.49572498516E+01 -0.42274000216E+02  0.43440735330E+02  0.51100000000E-03 0. -1.
         11    1    3    3    0    0 -0.86851635222E+01  0.49572498516E+01 -0.41886383113E+02  0.43063621330E+02  0.51100000000E-03 0.  1.
<mgrwt>
<rscale>  0 0.20000840E+02</rscale>
<asrwt>0</asrwt>
<pdfrwt beam="1">  1        1 0.18030571E-03 0.20000840E+02</pdfrwt>
<pdfrwt beam="2">  1       -1 0.13128052E-01 0.20000840E+02</pdfrwt>
<totfact> 0.32679607E+06</totfact>
</mgrwt>
</event>
<event>
 5    1  0.9583198E-007  0.2000428E+02  0.7818608E-02  0.1745243E+00
         -1   -1    0    0    0  501 -0.00000000000E+00  0.00000000000E+00  0.17448810603E+01  0.17448873097E+01  0.46700000000E-02 0. -1.
          1   -1    0    0  501    0  0.00000000000E+00 -0.00000000000E+00 -0.57334902578E+02  0.57334902769E+02  0.46700000000E-02 0.  1.
       1023    2    1    2    0    0  0.00000000000E+00  0.00000000000E+00 -0.55590021518E+02  0.59079790078E+02  0.20004277126E+02 0.  0.
        -11    1    3    3    0    0  0.99184662880E+01 -0.12907146494E+01 -0.27708514369E+02  0.29458507882E+02  0.51100000000E-03 0. -1.
         11    1    3    3    0    0 -0.99184662880E+01  0.12907146494E+01 -0.27881507149E+02  0.29621282196E+02  0.51100000000E-03 0.  1.
<mgrwt>
<rscale>  0 0.20004277E+02</rscale>
<asrwt>0</asrwt>
<pdfrwt beam="2">  1        1 0.88207533E-02 0.20004277E+02</pdfrwt>
<pdfrwt beam="1">  1       -1 0.26844378E-03 0.20004277E+02</pdfrwt>
<totfact> 0.42116797E+06</totfact>
</mgrwt>
</event>
<event>
 5    1  0.9583198E-007  0.2000526E+02  0.7818608E-02  0.1745224E+00
          1   -1    0    0  501    0  0.00000000000E+00  0.00000000000E+00  0.83319184750E+01  0.83319197838E+01  0.46700000000E-02 0. -1.
         -1   -1    0    0    0  501 -0.00000000000E+00 -0.00000000000E+00 -0.12008347967E+02  0.12008348875E+02  0.46700000000E-02 0.  1.
       1023    2    1    2    0    0  0.00000000000E+00  0.00000000000E+00 -0.36764294920E+01  0.20340268659E+02  0.20005259191E+02 0.  0.
        -11    1    3    3    0    0 -0.99164115225E+01  0.13101628248E+01 -0.18084942141E+01  0.10164762452E+02  0.51100000000E-03 0.  1.
         11    1    3    3    0    0  0.99164115225E+01 -0.13101628248E+01 -0.18679352778E+01  0.10175506207E+02  0.51100000000E-03 0. -1.
<mgrwt>
<rscale>  0 0.20005259E+02</rscale>
<asrwt>0</asrwt>
<pdfrwt beam="1">  1        1 0.12818338E-02 0.20005259E+02</pdfrwt>
<pdfrwt beam="2">  1       -1 0.18474383E-02 0.20005259E+02</pdfrwt>
<totfact> 0.38312597E+06</totfact>
</mgrwt>
</event>
<event>
 5    1  0.9583198E-007  0.2000056E+02  0.7818608E-02  0.1745317E+00
         -1   -1    0    0    0  501 -0.00000000000E+00  0.00000000000E+00  0.16410041692E+02  0.16410042357E+02  0.46700000000E-02 0. -1.
          1   -1    0    0  501    0  0.00000000000E+00 -0.00000000000E+00 -0.60941674089E+01  0.60941691983E+01  0.46700000000E-02 0.  1.
       1023    2    1    2    0    0  0.00000000000E+00  0.00000000000E+00  0.10315874283E+02  0.22504211555E+02  0.20000556879E+02 0.  0.
        -11    1    3    3    0    0  0.29986761842E+01 -0.95400400108E+01  0.51198411509E+01  0.11234642671E+02  0.51100000000E-03 0.  1.
         11    1    3    3    0    0 -0.29986761842E+01  0.95400400108E+01  0.51960331324E+01  0.11269568884E+02  0.51100000000E-03 0. -1.
<mgrwt>
<rscale>  0 0.20000557E+02</rscale>
<asrwt>0</asrwt>
<pdfrwt beam="2">  1        1 0.93756441E-03 0.20000557E+02</pdfrwt>
<pdfrwt beam="1">  1       -1 0.25246220E-02 0.20000557E+02</pdfrwt>
<totfact> 0.37796200E+06</totfact>
</mgrwt>
</event>
<event>
 4    1  0.9583198E-007  0.2002048E+02  0.7818608E-02  0.1744921E+00
          1   -1    0    0  501    0  0.00000000000E+00  0.00000000000E+00  0.26312061489E+02  0.26312061903E+02  0.46700000000E-02 0. -1.
         -1   -1    0    0    0  501 -0.00000000000E+00 -0.00000000000E+00 -0.38083249093E+01  0.38083277726E+01  0.46700000000E-02 0.  1.
        -11    1    1    2    0    0  0.86072042867E+01  0.51068390224E+01  0.10946648708E+02  0.14832157248E+02  0.51100000000E-03 0.  1.
         11    1    1    2    0    0 -0.86072042867E+01 -0.51068390224E+01  0.11557087872E+02  0.15288232428E+02  0.51100000000E-03 0. -1.
<mgrwt>
<rscale>  0 0.20020482E+02</rscale>
<asrwt>0</asrwt>
<pdfrwt beam="1">  1        1 0.40480096E-02 0.20020482E+02</pdfrwt>
<pdfrwt beam="2">  1       -1 0.58589640E-03 0.20020482E+02</pdfrwt>
<totfact> 0.40104016E+06</totfact>
</mgrwt>
</event>
<event>
 5    1  0.9583198E-007  0.2000057E+02  0.7818608E-02  0.1745317E+00
          1   -1    0    0  501    0  0.00000000000E+00  0.00000000000E+00  0.10910346470E+02  0.10910347469E+02  0.46700000000E-02 0.  1.
         -1   -1    0    0    0  501 -0.00000000000E+00 -0.00000000000E+00 -0.91661291780E+01  0.91661303677E+01  0.46700000000E-02 0. -1.
       1023    2    1    2    0    0  0.00000000000E+00  0.00000000000E+00  0.17442172915E+01  0.20076477837E+02  0.20000566701E+02 0.  0.
        -11    1    3    3    0    0  0.54392845120E+01 -0.83915769610E+01  0.90811867834E+00  0.10041367421E+02  0.51100000000E-03 0.  1.
         11    1    3    3    0    0 -0.54392845120E+01  0.83915769610E+01  0.83609861318E+00  0.10035110415E+02  0.51100000000E-03 0. -1.
<mgrwt>
<rscale>  0 0.20000567E+02</rscale>
<asrwt>0</asrwt>
<pdfrwt beam="1">  1        1 0.16785150E-02 0.20000567E+02</pdfrwt>
<pdfrwt beam="2">  1       -1 0.14101739E-02 0.20000567E+02</pdfrwt>
<totfact> 0.38755678E+06</totfact>
</mgrwt>
</event>
<event>
 5    1  0.9792437E-007  0.2000209E+02  0.7818608E-02  0.1745287E+00
         -1   -1    0    0    0  501 -0.00000000000E+00  0.00000000000E+00  0.24570685440E+01  0.24570729820E+01  0.46700000000E-02 0. -1.
          1   -1    0    0  501    0  0.00000000000E+00 -0.00000000000E+00 -0.40707353134E+02  0.40707353402E+02  0.46700000000E-02 0.  1.
       1023    2    1    2    0    0  0.00000000000E+00  0.00000000000E+00 -0.38250284590E+02  0.43164426384E+02  0.20002085737E+02 0.  0.
        -11    1    3    3    0    0  0.53013333455E+01  0.84794598404E+01 -0.18856614615E+02  0.21344256591E+02  0.51100000000E-03 0. -1.
         11    1    3    3    0    0 -0.53013333455E+01 -0.84794598404E+01 -0.19393669975E+02  0.21820169793E+02  0.51100000000E-03 0.  1.
<mgrwt>
<rscale>  0 0.20002086E+02</rscale>
<asrwt>0</asrwt>
<pdfrwt beam="2">  1        1 0.62626696E-02 0.20002086E+02</pdfrwt>
<pdfrwt beam="1">  1       -1 0.37801094E-03 0.20002086E+02</pdfrwt>
<totfact> 0.41144929E+06</totfact>
</mgrwt>
</event>
<event>
 5    1  0.9672729E-007  0.2000199E+02  0.7818608E-02  0.1745288E+00
          1   -1    0    0  501    0  0.00000000000E+00  0.00000000000E+00  0.21608900221E+02  0.21608900726E+02  0.46700000000E-02 0. -1.
         -1   -1    0    0    0  501 -0.00000000000E+00 -0.00000000000E+00 -0.46286427172E+01  0.46286450730E+01  0.46700000000E-02 0.  1.
       1023    2    1    2    0    0  0.00000000000E+00  0.00000000000E+00  0.16980257504E+02  0.26237545799E+02  0.20001991517E+02 0.  0.
        -11    1    3    3    0    0  0.36702021576E+01  0.93027376030E+01  0.83684462191E+01  0.13040023128E+02  0.51100000000E-03 0.  1.
         11    1    3    3    0    0 -0.36702021576E+01 -0.93027376030E+01  0.86118112852E+01  0.13197522671E+02  0.51100000000E-03 0. -1.
<mgrwt>
<rscale>  0 0.20001992E+02</rscale>
<asrwt>0</asrwt>
<pdfrwt beam="1">  1        1 0.33244465E-02 0.20001992E+02</pdfrwt>
<pdfrwt beam="2">  1       -1 0.71209909E-03 0.20001992E+02</pdfrwt>
<totfact> 0.39828844E+06</totfact>
</mgrwt>
</event>
<event>
 4    1  0.9583198E-007  0.2004523E+02  0.7818608E-02  0.1744430E+00
         -1   -1    0    0    0  501 -0.00000000000E+00  0.00000000000E+00  0.23391819598E+02  0.23391820065E+02  0.46700000000E-02 0.  1.
          1   -1    0    0  501    0  0.00000000000E+00 -0.00000000000E+00 -0.42943531881E+01  0.42943557274E+01  0.46700000000E-02 0. -1.
        -11    1    1    2    0    0  0.25164966912E+01 -0.96848317142E+01  0.10334985072E+02  0.14385431437E+02  0.51100000000E-03 0. -1.
         11    1    1    2    0    0 -0.25164966912E+01  0.96848317142E+01  0.87624813380E+01  0.13300744355E+02  0.51100000000E-03 0.  1.
<mgrwt>
<rscale>  0 0.20045227E+02</rscale>
<asrwt>0</asrwt>
<pdfrwt beam="2">  1        1 0.66066997E-03 0.20045227E+02</pdfrwt>
<pdfrwt beam="1">  1       -1 0.35987416E-02 0.20045227E+02</pdfrwt>
<totfact> 0.36899809E+06</totfact>
</mgrwt>
</event>
<event>
 5    1  0.9860737E-007  0.2000149E+02  0.7818608E-02  0.1745298E+00
         -1   -1    0    0    0  501 -0.00000000000E+00  0.00000000000E+00  0.57015878156E+01  0.57015897281E+01  0.46700000000E-02 0.  1.
          1   -1    0    0  501    0  0.00000000000E+00 -0.00000000000E+00 -0.17541583537E+02  0.17541584159E+02  0.46700000000E-02 0. -1.
       1023    2    1    2    0    0  0.00000000000E+00  0.00000000000E+00 -0.11839995722E+02  0.23243173887E+02  0.20001490786E+02 0.  0.
        -11    1    3    3    0    0 -0.38129379146E+01 -0.92452480895E+01 -0.59693055407E+01  0.11646704112E+02  0.51100000000E-03 0. -1.
         11    1    3    3    0    0  0.38129379146E+01  0.92452480895E+01 -0.58706901810E+01  0.11596469775E+02  0.51100000000E-03 0.  1.
<mgrwt>
<rscale>  0 0.20001491E+02</rscale>
<asrwt>0</asrwt>
<pdfrwt beam="2">  1        1 0.26987053E-02 0.20001491E+02</pdfrwt>
<pdfrwt beam="1">  1       -1 0.87716756E-03 0.20001491E+02</pdfrwt>
<totfact> 0.39484294E+06</totfact>
</mgrwt>
</event>
<event>
 5    1  0.9583198E-007  0.2000029E+02  0.7818608E-02  0.1745322E+00
         -1   -1    0    0    0  501 -0.00000000000E+00  0.00000000000E+00  0.62842820473E+02  0.62842820647E+02  0.46700000000E-02 0. -1.
          1   -1    0    0  501    0  0.00000000000E+00 -0.00000000000E+00 -0.15913137335E+01  0.15913205860E+01  0.46700000000E-02 0.  1.
       1023    2    1    2    0    0  0.00000000000E+00  0.00000000000E+00  0.61251506740E+02  0.64434141233E+02  0.20000286961E+02 0.  0.
        -11    1    3    3    0    0 -0.55957202476E+01  0.82879601359E+01  0.30697868588E+02  0.32285623804E+02  0.51100000000E-03 0.  1.
         11    1    3    3    0    0  0.55957202476E+01 -0.82879601359E+01  0.30553638151E+02  0.32148517428E+02  0.51100000000E-03 0. -1.
<mgrwt>
<rscale>  0 0.20000287E+02</rscale>
<asrwt>0</asrwt>
<pdfrwt beam="2">  1        1 0.24481800E-03 0.20000287E+02</pdfrwt>
<pdfrwt beam="1">  1       -1 0.96681282E-02 0.20000287E+02</pdfrwt>
<totfact> 0.34055315E+06</totfact>
</mgrwt>
</event>
<event>
 5    1  0.1010911E-006  0.2000082E+02  0.7818608E-02  0.1745312E+00
         -1   -1    0    0    0  501 -0.00000000000E+00  0.00000000000E+00  0.26810455990E+01  0.26810496662E+01  0.46700000000E-02 0. -1.
          1   -1    0    0  501    0  0.00000000000E+00 -0.00000000000E+00 -0.37301894129E+02  0.37301894422E+02  0.46700000000E-02 0.  1.
       1023    2    1    2    0    0  0.00000000000E+00  0.00000000000E+00 -0.34620848530E+02  0.39982944088E+02  0.20000816608E+02 0.  0.
        -11    1    3    3    0    0 -0.17095720407E+01  0.98531571432E+01 -0.17253049676E+02  0.19941791937E+02  0.51100000000E-03 0.  1.
         11    1    3    3    0    0  0.17095720407E+01 -0.98531571432E+01 -0.17367798854E+02  0.20041152151E+02  0.51100000000E-03 0. -1.
<mgrwt>
<rscale>  0 0.20000817E+02</rscale>
<asrwt>0</asrwt>
<pdfrwt beam="2">  1        1 0.57387529E-02 0.20000817E+02</pdfrwt>
<pdfrwt beam="1">  1       -1 0.41246892E-03 0.20000817E+02</pdfrwt>
<totfact> 0.40936173E+06</totfact>
</mgrwt>
</event>
<event>
 5    1  0.9583198E-007  0.2000019E+02  0.7818608E-02  0.1745324E+00
         -1   -1    0    0    0  501 -0.00000000000E+00  0.00000000000E+00  0.21892487987E+02  0.21892488485E+02  0.46700000000E-02 0.  1.
          1   -1    0    0  501    0  0.00000000000E+00 -0.00000000000E+00 -0.45678604483E+01  0.45678628355E+01  0.46700000000E-02 0. -1.
       1023    2    1    2    0    0  0.00000000000E+00  0.00000000000E+00  0.17324627539E+02  0.26460351321E+02  0.20000186816E+02 0.  0.
        -11    1    3    3    0    0  0.96299222634E+01 -0.26952946982E+01  0.86053846529E+01  0.13192901940E+02  0.51100000000E-03 0. -1.
         11    1    3    3    0    0 -0.96299222634E+01  0.26952946982E+01  0.87192428858E+01  0.13267449381E+02  0.51100000000E-03 0.  1.
<mgrwt>
<rscale>  0 0.20000187E+02</rscale>
<asrwt>0</asrwt>
<pdfrwt beam="2">  1        1 0.70274799E-03 0.20000187E+02</pdfrwt>
<pdfrwt beam="1">  1       -1 0.33680753E-02 0.20000187E+02</pdfrwt>
<totfact> 0.37227304E+06</totfact>
</mgrwt>
</event>
<event>
 4    1  0.9583198E-007  0.2012690E+02  0.7818608E-02  0.1742816E+00
         -1   -1    0    0    0  501 -0.00000000000E+00  0.00000000000E+00  0.12300298782E+02  0.12300299669E+02  0.46700000000E-02 0. -1.
          1   -1    0    0  501    0  0.00000000000E+00 -0.00000000000E+00 -0.82333796735E+01  0.82333809979E+01  0.46700000000E-02 0.  1.
        -11    1    1    2    0    0  0.55548172338E+01 -0.83857434244E+01  0.23501608261E+01  0.10329566470E+02  0.51100000000E-03 0. -1.
         11    1    1    2    0    0 -0.55548172338E+01  0.83857434244E+01  0.17167582826E+01  0.10204114197E+02  0.51100000000E-03 0.  1.
<mgrwt>
<rscale>  0 0.20126903E+02</rscale>
<asrwt>0</asrwt>
<pdfrwt beam="2">  1        1 0.12666740E-02 0.20126903E+02</pdfrwt>
<pdfrwt beam="1">  1       -1 0.18923538E-02 0.20126903E+02</pdfrwt>
<totfact> 0.37768557E+06</totfact>
</mgrwt>
</event>
<event>
 5    1  0.9583198E-007  0.2000308E+02  0.7818608E-02  0.1745267E+00
          1   -1    0    0  501    0  0.00000000000E+00  0.00000000000E+00  0.19633340937E+01  0.19633396477E+01  0.46700000000E-02 0.  1.
         -1   -1    0    0    0  501 -0.00000000000E+00 -0.00000000000E+00 -0.50949355092E+02  0.50949355306E+02  0.46700000000E-02 0. -1.
       1023    2    1    2    0    0  0.00000000000E+00  0.00000000000E+00 -0.48986020998E+02  0.52912694953E+02  0.20003075614E+02 0.  0.
        -11    1    3    3    0    0 -0.40709027852E+01  0.91355580211E+01 -0.24517881101E+02  0.26479372420E+02  0.51100000000E-03 0.  1.
         11    1    3    3    0    0  0.40709027852E+01 -0.91355580211E+01 -0.24468139897E+02  0.26433322533E+02  0.51100000000E-03 0. -1.
<mgrwt>
<rscale>  0 0.20003076E+02</rscale>
<asrwt>0</asrwt>
<pdfrwt beam="1">  1        1 0.30205188E-03 0.20003076E+02</pdfrwt>
<pdfrwt beam="2">  1       -1 0.78383618E-02 0.20003076E+02</pdfrwt>
<totfact> 0.34850511E+06</totfact>
</mgrwt>
</event>
<event>
 5    1  0.9583198E-007  0.2000030E+02  0.7818608E-02  0.1745322E+00
         -1   -1    0    0    0  501 -0.00000000000E+00  0.00000000000E+00  0.10697642756E+01  0.10697744689E+01  0.46700000000E-02 0.  1.
          1   -1    0    0  501    0  0.00000000000E+00 -0.00000000000E+00 -0.93480888421E+02  0.93480888537E+02  0.46700000000E-02 0. -1.
       1023    2    1    2    0    0  0.00000000000E+00  0.00000000000E+00 -0.92411124145E+02  0.94550663006E+02  0.20000300227E+02 0.  0.
        -11    1    3    3    0    0 -0.87295785464E+01  0.48781820011E+01 -0.46071782848E+02  0.47144579500E+02  0.51100000000E-03 0.  1.
         11    1    3    3    0    0  0.87295785464E+01 -0.48781820011E+01 -0.46339341297E+02  0.47406083506E+02  0.51100000000E-03 0. -1.
<mgrwt>
<rscale>  0 0.20000300E+02</rscale>
<asrwt>0</asrwt>
<pdfrwt beam="2">  1        1 0.14381670E-01 0.20000300E+02</pdfrwt>
<pdfrwt beam="1">  1       -1 0.16457999E-03 0.20000300E+02</pdfrwt>
<totfact> 0.44039718E+06</totfact>
</mgrwt>
</event>
<event>
 5    1  0.9583198E-007  0.2000019E+02  0.7818608E-02  0.1745324E+00
         -1   -1    0    0    0  501 -0.00000000000E+00  0.00000000000E+00  0.91255147662E+00  0.91256342595E+00  0.46700000000E-02 0. -1.
          1   -1    0    0  501    0  0.00000000000E+00 -0.00000000000E+00 -0.10958417166E+03  0.10958417176E+03  0.46700000000E-02 0.  1.
       1023    2    1    2    0    0  0.00000000000E+00  0.00000000000E+00 -0.10867162019E+03  0.11049673519E+03  0.20000186334E+02 0.  0.
        -11    1    3    3    0    0  0.38587801316E+00 -0.99925716321E+01 -0.54547879884E+02  0.55456934551E+02  0.51100000000E-03 0. -1.
         11    1    3    3    0    0 -0.38587801316E+00  0.99925716321E+01 -0.54123740304E+02  0.55039800639E+02  0.51100000000E-03 0.  1.
<mgrwt>
<rscale>  0 0.20000186E+02</rscale>
<asrwt>0</asrwt>
<pdfrwt beam="2">  1        1 0.16859094E-01 0.20000186E+02</pdfrwt>
<pdfrwt beam="1">  1       -1 0.14039355E-03 0.20000186E+02</pdfrwt>
<totfact> 0.44817178E+06</totfact>
</mgrwt>
</event>
<event>
 5    1  0.9583198E-007  0.2000631E+02  0.7818608E-02  0.1745203E+00
         -1   -1    0    0    0  501 -0.00000000000E+00  0.00000000000E+00  0.10704098522E+01  0.10704200393E+01  0.46700000000E-02 0. -1.
          1   -1    0    0  501    0  0.00000000000E+00 -0.00000000000E+00 -0.93480698330E+02  0.93480698446E+02  0.46700000000E-02 0.  1.
       1023    2    1    2    0    0  0.00000000000E+00  0.00000000000E+00 -0.92410288477E+02  0.94551118486E+02  0.20006313763E+02 0.  0.
        -11    1    3    3    0    0 -0.61152136702E+01  0.79132949573E+01 -0.47230515250E+02  0.48277713764E+02  0.51100000000E-03 0. -1.
         11    1    3    3    0    0  0.61152136702E+01 -0.79132949573E+01 -0.45179773228E+02  0.46273404721E+02  0.51100000000E-03 0.  1.
<mgrwt>
<rscale>  0 0.20006314E+02</rscale>
<asrwt>0</asrwt>
<pdfrwt beam="2">  1        1 0.14381640E-01 0.20006314E+02</pdfrwt>
<pdfrwt beam="1">  1       -1 0.16467931E-03 0.20006314E+02</pdfrwt>
<totfact> 0.44010488E+06</totfact>
</mgrwt>
</event>
<event>
 5    1  0.9583198E-007  0.2000898E+02  0.7818608E-02  0.1745150E+00
          1   -1    0    0  501    0  0.00000000000E+00  0.00000000000E+00  0.30995599052E+01  0.30995634233E+01  0.46700000000E-02 0.  1.
         -1   -1    0    0    0  501 -0.00000000000E+00 -0.00000000000E+00 -0.32291604899E+02  0.32291605237E+02  0.46700000000E-02 0. -1.
       1023    2    1    2    0    0  0.00000000000E+00  0.00000000000E+00 -0.29192044994E+02  0.35391168660E+02  0.20008981189E+02 0.  0.
        -11    1    3    3    0    0 -0.71875901751E+00 -0.99757456276E+01 -0.15020954741E+02  0.18046085363E+02  0.51100000000E-03 0. -1.
         11    1    3    3    0    0  0.71875901751E+00  0.99757456276E+01 -0.14171090253E+02  0.17345083297E+02  0.51100000000E-03 0.  1.
<mgrwt>
<rscale>  0 0.20008981E+02</rscale>
<asrwt>0</asrwt>
<pdfrwt beam="1">  1        1 0.47685569E-03 0.20008981E+02</pdfrwt>
<pdfrwt beam="2">  1       -1 0.49679393E-02 0.20008981E+02</pdfrwt>
<totfact> 0.36255653E+06</totfact>
</mgrwt>
</event>
<event>
 4    1  0.9583198E-007  0.2002023E+02  0.7818608E-02  0.1744926E+00
         -1   -1    0    0    0  501 -0.00000000000E+00  0.00000000000E+00  0.84638967977E+00  0.84640256316E+00  0.46700000000E-02 0.  1.
          1   -1    0    0  501    0  0.00000000000E+00 -0.00000000000E+00 -0.11838706917E+03  0.11838706926E+03  0.46700000000E-02 0. -1.
        -11    1    1    2    0    0 -0.17174134766E+01  0.98607787848E+01 -0.59567141752E+02  0.60402225490E+02  0.51100000000E-03 0. -1.
         11    1    1    2    0    0  0.17174134766E+01 -0.98607787848E+01 -0.57973537733E+02  0.58831246331E+02  0.51100000000E-03 0.  1.
<mgrwt>
<rscale>  0 0.20020226E+02</rscale>
<asrwt>0</asrwt>
<pdfrwt beam="2">  1        1 0.18213383E-01 0.20020226E+02</pdfrwt>
<pdfrwt beam="1">  1       -1 0.13021489E-03 0.20020226E+02</pdfrwt>
<totfact> 0.45125990E+06</totfact>
</mgrwt>
</event>
<event>
 5    1  0.9583198E-007  0.2000039E+02  0.7818608E-02  0.1745320E+00
          1   -1    0    0  501    0  0.00000000000E+00  0.00000000000E+00  0.16776506967E+01  0.16776571965E+01  0.46700000000E-02 0. -1.
         -1   -1    0    0    0  501 -0.00000000000E+00 -0.00000000000E+00 -0.59609343869E+02  0.59609344052E+02  0.46700000000E-02 0.  1.
       1023    2    1    2    0    0  0.00000000000E+00  0.00000000000E+00 -0.57931693172E+02  0.61287001248E+02  0.20000386202E+02 0.  0.
        -11    1    3    3    0    0  0.92910192082E+01 -0.36986992207E+01 -0.29030701091E+02  0.30704804509E+02  0.51100000000E-03 0.  1.
         11    1    3    3    0    0 -0.92910192082E+01  0.36986992207E+01 -0.28900992081E+02  0.30582196739E+02  0.51100000000E-03 0. -1.
<mgrwt>
<rscale>  0 0.20000386E+02</rscale>
<asrwt>0</asrwt>
<pdfrwt beam="1">  1        1 0.25810067E-03 0.20000386E+02</pdfrwt>
<pdfrwt beam="2">  1       -1 0.91706671E-02 0.20000386E+02</pdfrwt>
<totfact> 0.34267680E+06</totfact>
</mgrwt>
</event>
<event>
 5    1  0.9583198E-007  0.2000083E+02  0.7818608E-02  0.1745312E+00
          1   -1    0    0  501    0  0.00000000000E+00  0.00000000000E+00  0.63123775384E+01  0.63123792659E+01  0.46700000000E-02 0. -1.
         -1   -1    0    0    0  501 -0.00000000000E+00 -0.00000000000E+00 -0.15843195529E+02  0.15843196217E+02  0.46700000000E-02 0.  1.
       1023    2    1    2    0    0  0.00000000000E+00  0.00000000000E+00 -0.95308179905E+01  0.22155575483E+02  0.20000825818E+02 0.  0.
        -11    1    3    3    0    0 -0.34608396266E+01  0.93822565319E+01 -0.46943969976E+01  0.11047240017E+02  0.51100000000E-03 0.  1.
         11    1    3    3    0    0  0.34608396266E+01 -0.93822565319E+01 -0.48364209929E+01  0.11108335466E+02  0.51100000000E-03 0. -1.
<mgrwt>
<rscale>  0 0.20000826E+02</rscale>
<asrwt>0</asrwt>
<pdfrwt beam="1">  1        1 0.97113520E-03 0.20000826E+02</pdfrwt>
<pdfrwt beam="2">  1       -1 0.24374149E-02 0.20000826E+02</pdfrwt>
<totfact> 0.37859006E+06</totfact>
</mgrwt>
</event>
<event>
 5    1  0.9583198E-007  0.2000009E+02  0.7818608E-02  0.1745326E+00
         -1   -1    0    0    0  501 -0.00000000000E+00  0.00000000000E+00  0.13411160824E+01  0.13411242132E+01  0.46700000000E-02 0.  1.
          1   -1    0    0  501    0  0.00000000000E+00 -0.00000000000E+00 -0.74565204705E+02  0.74565204851E+02  0.46700000000E-02 0. -1.
       1023    2    1    2    0    0  0.00000000000E+00  0.00000000000E+00 -0.73224088623E+02  0.75906329064E+02  0.20000090935E+02 0.  0.
        -11    1    3    3    0    0  0.88418253669E+01  0.46714917371E+01 -0.36558609150E+02  0.37901617566E+02  0.51100000000E-03 0. -1.
         11    1    3    3    0    0 -0.88418253669E+01 -0.46714917371E+01 -0.36665479473E+02  0.38004711499E+02  0.51100000000E-03 0.  1.
<mgrwt>
<rscale>  0 0.20000091E+02</rscale>
<asrwt>0</asrwt>
<pdfrwt beam="2">  1        1 0.11471567E-01 0.20000091E+02</pdfrwt>
<pdfrwt beam="1">  1       -1 0.20632625E-03 0.20000091E+02</pdfrwt>
<totfact> 0.43075819E+06</totfact>
</mgrwt>
</event>
<event>
 5    1  0.9583198E-007  0.2000010E+02  0.7818608E-02  0.1745326E+00
          1   -1    0    0  501    0  0.00000000000E+00  0.00000000000E+00  0.10813790246E+03  0.10813790256E+03  0.46700000000E-02 0. -1.
         -1   -1    0    0    0  501 -0.00000000000E+00 -0.00000000000E+00 -0.92474814445E+00  0.92475993618E+00  0.46700000000E-02 0.  1.
       1023    2    1    2    0    0  0.00000000000E+00  0.00000000000E+00  0.10721315432E+03  0.10906266250E+03  0.20000097316E+02 0.  0.
        -11    1    3    3    0    0  0.34054857883E+01  0.94023209201E+01  0.53601807798E+02  0.54526642769E+02  0.51100000000E-03 0.  1.
         11    1    3    3    0    0 -0.34054857883E+01 -0.94023209201E+01  0.53611346521E+02  0.54536019732E+02  0.51100000000E-03 0. -1.
<mgrwt>
<rscale>  0 0.20000097E+02</rscale>
<asrwt>0</asrwt>
<pdfrwt beam="1">  1        1 0.16636605E-01 0.20000097E+02</pdfrwt>
<pdfrwt beam="2">  1       -1 0.14226983E-03 0.20000097E+02</pdfrwt>
<totfact> 0.44749505E+06</totfact>
</mgrwt>
</event>
<event>
 5    1  0.9583198E-007  0.2000060E+02  0.7818608E-02  0.1745316E+00
         -1   -1    0    0    0  501 -0.00000000000E+00  0.00000000000E+00  0.28836268218E+02  0.28836268596E+02  0.46700000000E-02 0.  1.
          1   -1    0    0  501    0  0.00000000000E+00 -0.00000000000E+00 -0.34680601429E+01  0.34680632871E+01  0.46700000000E-02 0. -1.
       1023    2    1    2    0    0  0.00000000000E+00  0.00000000000E+00  0.25368208075E+02  0.32304331883E+02  0.20000596928E+02 0.  0.
        -11    1    3    3    0    0  0.81872375139E+01  0.57422938758E+01  0.12739399535E+02  0.16195588839E+02  0.51100000000E-03 0.  1.
         11    1    3    3    0    0 -0.81872375139E+01 -0.57422938758E+01  0.12628808540E+02  0.16108743044E+02  0.51100000000E-03 0. -1.
<mgrwt>
<rscale>  0 0.20000597E+02</rscale>
<asrwt>0</asrwt>
<pdfrwt beam="2">  1        1 0.53354797E-03 0.20000597E+02</pdfrwt>
<pdfrwt beam="1">  1       -1 0.44363493E-02 0.20000597E+02</pdfrwt>
<totfact> 0.36585329E+06</totfact>
</mgrwt>
</event>
<event>
 5    1  0.9583198E-007  0.2000068E+02  0.7818608E-02  0.1745315E+00
         -1   -1    0    0    0  501 -0.00000000000E+00  0.00000000000E+00  0.18208260888E+02  0.18208261487E+02  0.46700000000E-02 0.  1.
          1   -1    0    0  501    0  0.00000000000E+00 -0.00000000000E+00 -0.54923856913E+01  0.54923876767E+01  0.46700000000E-02 0. -1.
       1023    2    1    2    0    0  0.00000000000E+00  0.00000000000E+00  0.12715875197E+02  0.23700649163E+02  0.20000682207E+02 0.  0.
        -11    1    3    3    0    0 -0.60587689592E+01  0.79559697409E+01  0.63268983189E+01  0.11833671384E+02  0.51100000000E-03 0. -1.
         11    1    3    3    0    0  0.60587689592E+01 -0.79559697409E+01  0.63889768777E+01  0.11866977780E+02  0.51100000000E-03 0.  1.
<mgrwt>
<rscale>  0 0.20000682E+02</rscale>
<asrwt>0</asrwt>
<pdfrwt beam="2">  1        1 0.84498261E-03 0.20000682E+02</pdfrwt>
<pdfrwt beam="1">  1       -1 0.28012711E-02 0.20000682E+02</pdfrwt>
<totfact> 0.37600065E+06</totfact>
</mgrwt>
</event>
<event>
 5    1  0.9583198E-007  0.2000205E+02  0.7818608E-02  0.1745287E+00
         -1   -1    0    0    0  501 -0.00000000000E+00  0.00000000000E+00  0.57404677550E+02  0.57404677740E+02  0.46700000000E-02 0. -1.
          1   -1    0    0  501    0  0.00000000000E+00 -0.00000000000E+00 -0.17423726599E+01  0.17423789183E+01  0.46700000000E-02 0.  1.
       1023    2    1    2    0    0  0.00000000000E+00  0.00000000000E+00  0.55662304890E+02  0.59147056658E+02  0.20002053036E+02 0.  0.
        -11    1    3    3    0    0  0.73042204653E+01 -0.68314337338E+01  0.27771445876E+02  0.29517339476E+02  0.51100000000E-03 0. -1.
         11    1    3    3    0    0 -0.73042204653E+01  0.68314337338E+01  0.27890859014E+02  0.29629717182E+02  0.51100000000E-03 0.  1.
<mgrwt>
<rscale>  0 0.20002053E+02</rscale>
<asrwt>0</asrwt>
<pdfrwt beam="2">  1        1 0.26805789E-03 0.20002053E+02</pdfrwt>
<pdfrwt beam="1">  1       -1 0.88314874E-02 0.20002053E+02</pdfrwt>
<totfact> 0.34409032E+06</totfact>
</mgrwt>
</event>
<event>
 5    1  0.9583198E-007  0.2000384E+02  0.7818608E-02  0.1745252E+00
          1   -1    0    0  501    0  0.00000000000E+00  0.00000000000E+00  0.47779207854E+02  0.47779208083E+02  0.46700000000E-02 0.  1.
         -1   -1    0    0    0  501 -0.00000000000E+00 -0.00000000000E+00 -0.20937625606E+01  0.20937677686E+01  0.46700000000E-02 0. -1.
       1023    2    1    2    0    0  0.00000000000E+00  0.00000000000E+00  0.45685445294E+02  0.49872975851E+02  0.20003844845E+02 0.  0.
        -11    1    3    3    0    0 -0.88089718308E+01  0.47358500514E+01  0.22567439544E+02  0.24684318671E+02  0.51100000000E-03 0. -1.
         11    1    3    3    0    0  0.88089718308E+01 -0.47358500514E+01  0.23118005750E+02  0.25188657180E+02  0.51100000000E-03 0.  1.
<mgrwt>
<rscale>  0 0.20003845E+02</rscale>
<asrwt>0</asrwt>
<pdfrwt beam="1">  1        1 0.73506464E-02 0.20003845E+02</pdfrwt>
<pdfrwt beam="2">  1       -1 0.32211780E-03 0.20003845E+02</pdfrwt>
<totfact> 0.41566050E+06</totfact>
</mgrwt>
</event>
<event>
 5    1  0.9583198E-007  0.2000331E+02  0.7818608E-02  0.1745262E+00
         -1   -1    0    0    0  501 -0.00000000000E+00  0.00000000000E+00  0.36579825265E+01  0.36579855075E+01  0.46700000000E-02 0.  1.
          1   -1    0    0  501    0  0.00000000000E+00 -0.00000000000E+00 -0.27346501232E+02  0.27346501630E+02  0.46700000000E-02 0. -1.
       1023    2    1    2    0    0  0.00000000000E+00  0.00000000000E+00 -0.23688518705E+02  0.31004487138E+02  0.20003307332E+02 0.  0.
        -11    1    3    3    0    0 -0.45898866986E+00 -0.99899238885E+01 -0.11605011854E+02  0.15319450065E+02  0.51100000000E-03 0. -1.
         11    1    3    3    0    0  0.45898866986E+00  0.99899238885E+01 -0.12083506851E+02  0.15685037073E+02  0.51100000000E-03 0.  1.
<mgrwt>
<rscale>  0 0.20003307E+02</rscale>
<asrwt>0</asrwt>
<pdfrwt beam="2">  1        1 0.42071542E-02 0.20003307E+02</pdfrwt>
<pdfrwt beam="1">  1       -1 0.56276682E-03 0.20003307E+02</pdfrwt>
<totfact> 0.40255687E+06</totfact>
</mgrwt>
</event>
<event>
 5    1  0.9583198E-007  0.2000020E+02  0.7818608E-02  0.1745324E+00
         -1   -1    0    0    0  501 -0.00000000000E+00  0.00000000000E+00  0.20616692673E+01  0.20616745565E+01  0.46700000000E-02 0. -1.
          1   -1    0    0  501    0  0.00000000000E+00 -0.00000000000E+00 -0.48505269144E+02  0.48505269369E+02  0.46700000000E-02 0.  1.
       1023    2    1    2    0    0  0.00000000000E+00  0.00000000000E+00 -0.46443599876E+02  0.50566943925E+02  0.20000196210E+02 0.  0.
        -11    1    3    3    0    0  0.50714299485E+00 -0.99872255508E+01 -0.23197335371E+02  0.25261002292E+02  0.51100000000E-03 0.  1.
         11    1    3    3    0    0 -0.50714299485E+00  0.99872255508E+01 -0.23246264505E+02  0.25305941633E+02  0.51100000000E-03 0. -1.
<mgrwt>
<rscale>  0 0.20000196E+02</rscale>
<asrwt>0</asrwt>
<pdfrwt beam="2">  1        1 0.74623487E-02 0.20000196E+02</pdfrwt>
<pdfrwt beam="1">  1       -1 0.31718035E-03 0.20000196E+02</pdfrwt>
<totfact> 0.41625925E+06</totfact>
</mgrwt>
</event>
<event>
 5    1  0.9583198E-007  0.2000167E+02  0.7818608E-02  0.1745295E+00
          1   -1    0    0  501    0  0.00000000000E+00  0.00000000000E+00  0.44282130369E+01  0.44282154994E+01  0.46700000000E-02 0. -1.
         -1   -1    0    0    0  501 -0.00000000000E+00 -0.00000000000E+00 -0.22586240355E+02  0.22586240838E+02  0.46700000000E-02 0.  1.
       1023    2    1    2    0    0  0.00000000000E+00  0.00000000000E+00 -0.18158027318E+02  0.27014456337E+02  0.20001672308E+02 0.  0.
        -11    1    3    3    0    0 -0.95239587728E+01  0.30511624076E+01 -0.90295589406E+01  0.13473986703E+02  0.51100000000E-03 0. -1.
         11    1    3    3    0    0  0.95239587728E+01 -0.30511624076E+01 -0.91284683777E+01  0.13540469635E+02  0.51100000000E-03 0.  1.
<mgrwt>
<rscale>  0 0.20001672E+02</rscale>
<asrwt>0</asrwt>
<pdfrwt beam="1">  1        1 0.68126379E-03 0.20001672E+02</pdfrwt>
<pdfrwt beam="2">  1       -1 0.34748064E-02 0.20001672E+02</pdfrwt>
<totfact> 0.37153858E+06</totfact>
</mgrwt>
</event>
<event>
 5    1  0.9614229E-007  0.2000124E+02  0.7818608E-02  0.1745303E+00
          1   -1    0    0  501    0  0.00000000000E+00  0.00000000000E+00  0.44455223005E+01  0.44455247534E+01  0.46700000000E-02 0.  1.
         -1   -1    0    0    0  501 -0.00000000000E+00 -0.00000000000E+00 -0.22497333369E+02  0.22497333854E+02  0.46700000000E-02 0. -1.
       1023    2    1    2    0    0  0.00000000000E+00  0.00000000000E+00 -0.18051811069E+02  0.26942858607E+02  0.20001243638E+02 0.  0.
        -11    1    3    3    0    0 -0.75555005483E+01  0.65518061533E+01 -0.89906727265E+01  0.13447823197E+02  0.51100000000E-03 0.  1.
         11    1    3    3    0    0  0.75555005483E+01 -0.65518061533E+01 -0.90611383423E+01  0.13495035410E+02  0.51100000000E-03 0. -1.
<mgrwt>
<rscale>  0 0.20001244E+02</rscale>
<asrwt>0</asrwt>
<pdfrwt beam="1">  1        1 0.68392674E-03 0.20001244E+02</pdfrwt>
<pdfrwt beam="2">  1       -1 0.34611284E-02 0.20001244E+02</pdfrwt>
<totfact> 0.37164192E+06</totfact>
</mgrwt>
</event>
<event>
 4    1  0.9583198E-007  0.2019174E+02  0.7818608E-02  0.1741542E+00
         -1   -1    0    0    0  501 -0.00000000000E+00  0.00000000000E+00  0.15492984110E+01  0.15493054493E+01  0.46700000000E-02 0.  1.
          1   -1    0    0  501    0  0.00000000000E+00 -0.00000000000E+00 -0.65788723871E+02  0.65788724037E+02  0.46700000000E-02 0. -1.
        -11    1    1    2    0    0  0.18558887296E+01 -0.99120579426E+01 -0.30508586323E+02  0.32132025385E+02  0.51100000000E-03 0.  1.
         11    1    1    2    0    0 -0.18558887296E+01  0.99120579426E+01 -0.33730839137E+02  0.35206004102E+02  0.51100000000E-03 0. -1.
<mgrwt>
<rscale>  0 0.20191742E+02</rscale>
<asrwt>0</asrwt>
<pdfrwt beam="2">  1        1 0.10121341E-01 0.20191742E+02</pdfrwt>
<pdfrwt beam="1">  1       -1 0.23835421E-03 0.20191742E+02</pdfrwt>
<totfact> 0.41714035E+06</totfact>
</mgrwt>
</event>
<event>
 5    1  0.9771462E-007  0.2000124E+02  0.7818608E-02  0.1745303E+00
          1   -1    0    0  501    0  0.00000000000E+00  0.00000000000E+00  0.31830823481E+02  0.31830823823E+02  0.46700000000E-02 0. -1.
         -1   -1    0    0    0  501 -0.00000000000E+00 -0.00000000000E+00 -0.31419956196E+01  0.31419990902E+01  0.46700000000E-02 0.  1.
       1023    2    1    2    0    0  0.00000000000E+00  0.00000000000E+00  0.28688827861E+02  0.34972822914E+02  0.20001237424E+02 0.  0.
        -11    1    3    3    0    0  0.70835117006E+01 -0.70594782531E+01  0.14341313532E+02  0.17483868145E+02  0.51100000000E-03 0.  1.
         11    1    3    3    0    0 -0.70835117006E+01  0.70594782531E+01  0.14347514329E+02  0.17488954768E+02  0.51100000000E-03 0. -1.
<mgrwt>
<rscale>  0 0.20001237E+02</rscale>
<asrwt>0</asrwt>
<pdfrwt beam="1">  1        1 0.48970498E-02 0.20001237E+02</pdfrwt>
<pdfrwt beam="2">  1       -1 0.48338426E-03 0.20001237E+02</pdfrwt>
<totfact> 0.40575759E+06</totfact>
</mgrwt>
</event>
<event>
 4    1  0.9583198E-007  0.2002106E+02  0.7818608E-02  0.1744910E+00
         -1   -1    0    0    0  501 -0.00000000000E+00  0.00000000000E+00  0.39048513878E+02  0.39048514157E+02  0.46700000000E-02 0. -1.
          1   -1    0    0  501    0  0.00000000000E+00 -0.00000000000E+00 -0.25663108621E+01  0.25663151112E+01  0.46700000000E-02 0.  1.
        -11    1    1    2    0    0 -0.95836901550E+01  0.28879054458E+01  0.17921758255E+02  0.20527458052E+02  0.51100000000E-03 0.  1.
         11    1    1    2    0    0  0.95836901550E+01 -0.28879054458E+01  0.18560444760E+02  0.21087371216E+02  0.51100000000E-03 0. -1.
<mgrwt>
<rscale>  0 0.20021061E+02</rscale>
<asrwt>0</asrwt>
<pdfrwt beam="2">  1        1 0.39481743E-03 0.20021061E+02</pdfrwt>
<pdfrwt beam="1">  1       -1 0.60074636E-02 0.20021061E+02</pdfrwt>
<totfact> 0.35662459E+06</totfact>
</mgrwt>
</event>
<event>
 5    1  0.9583198E-007  0.2000017E+02  0.7818608E-02  0.1745325E+00
         -1   -1    0    0    0  501 -0.00000000000E+00  0.00000000000E+00  0.25896570109E+02  0.25896570530E+02  0.46700000000E-02 0.  1.
          1   -1    0    0  501    0  0.00000000000E+00 -0.00000000000E+00 -0.38615794881E+01  0.38615823119E+01  0.46700000000E-02 0. -1.
       1023    2    1    2    0    0  0.00000000000E+00  0.00000000000E+00  0.22034990621E+02  0.29758152842E+02  0.20000171222E+02 0.  0.
        -11    1    3    3    0    0 -0.94686963211E+01 -0.32163122175E+01  0.10974432014E+02  0.14847189384E+02  0.51100000000E-03 0.  1.
         11    1    3    3    0    0  0.94686963211E+01  0.32163122175E+01  0.11060558607E+02  0.14910963459E+02  0.51100000000E-03 0. -1.
<mgrwt>
<rscale>  0 0.20000171E+02</rscale>
<asrwt>0</asrwt>
<pdfrwt beam="2">  1        1 0.59408942E-03 0.20000171E+02</pdfrwt>
<pdfrwt beam="1">  1       -1 0.39840878E-02 0.20000171E+02</pdfrwt>
<totfact> 0.36849729E+06</totfact>
</mgrwt>
</event>
<event>
 5    1  0.9583198E-007  0.2000022E+02  0.7818608E-02  0.1745324E+00
          1   -1    0    0  501    0  0.00000000000E+00  0.00000000000E+00  0.12404744617E+01  0.12404832522E+01  0.46700000000E-02 0.  1.
         -1   -1    0    0    0  501 -0.00000000000E+00 -0.00000000000E+00 -0.80615762507E+02  0.80615762642E+02  0.46700000000E-02 0. -1.
       1023    2    1    2    0    0  0.00000000000E+00  0.00000000000E+00 -0.79375288045E+02  0.81856245894E+02  0.20000215990E+02 0.  0.
        -11    1    3    3    0    0 -0.67102642613E+01 -0.74144341579E+01 -0.39794316651E+02  0.41031562465E+02  0.51100000000E-03 0. -1.
         11    1    3    3    0    0  0.67102642613E+01  0.74144341579E+01 -0.39580971394E+02  0.40824683429E+02  0.51100000000E-03 0.  1.
<mgrwt>
<rscale>  0 0.20000216E+02</rscale>
<asrwt>0</asrwt>
<pdfrwt beam="1">  1        1 0.19084298E-03 0.20000216E+02</pdfrwt>
<pdfrwt beam="2">  1       -1 0.12402422E-01 0.20000216E+02</pdfrwt>
<totfact> 0.32956312E+06</totfact>
</mgrwt>
</event>
<event>
 5    1  0.9583198E-007  0.2000055E+02  0.7818608E-02  0.1745317E+00
          1   -1    0    0  501    0  0.00000000000E+00  0.00000000000E+00  0.31592815335E+02  0.31592815680E+02  0.46700000000E-02 0. -1.
         -1   -1    0    0    0  501 -0.00000000000E+00 -0.00000000000E+00 -0.31654498683E+01  0.31654533132E+01  0.46700000000E-02 0.  1.
       1023    2    1    2    0    0  0.00000000000E+00  0.00000000000E+00  0.28427365467E+02  0.34758268994E+02  0.20000553893E+02 0.  0.
        -11    1    3    3    0    0  0.40526422981E+00  0.99920268961E+01  0.14167763604E+02  0.17341579120E+02  0.51100000000E-03 0. -1.
         11    1    3    3    0    0 -0.40526422981E+00 -0.99920268961E+01  0.14259601863E+02  0.17416689873E+02  0.51100000000E-03 0.  1.
<mgrwt>
<rscale>  0 0.20000554E+02</rscale>
<asrwt>0</asrwt>
<pdfrwt beam="1">  1        1 0.48604336E-02 0.20000554E+02</pdfrwt>
<pdfrwt beam="2">  1       -1 0.48699256E-03 0.20000554E+02</pdfrwt>
<totfact> 0.40562800E+06</totfact>
</mgrwt>
</event>
<event>
 5    1  0.9583198E-007  0.2000083E+02  0.7818608E-02  0.1745312E+00
          1   -1    0    0  501    0  0.00000000000E+00  0.00000000000E+00  0.11496827590E+01  0.11496922437E+01  0.46700000000E-02 0.  1.
         -1   -1    0    0    0  501 -0.00000000000E+00 -0.00000000000E+00 -0.86987386460E+02  0.86987386586E+02  0.46700000000E-02 0. -1.
       1023    2    1    2    0    0  0.00000000000E+00  0.00000000000E+00 -0.85837703701E+02  0.88137078829E+02  0.20000832179E+02 0.  0.
        -11    1    3    3    0    0 -0.65807557964E+01 -0.75300295753E+01 -0.43029410086E+02  0.44176213338E+02  0.51100000000E-03 0. -1.
         11    1    3    3    0    0  0.65807557964E+01  0.75300295753E+01 -0.42808293615E+02  0.43960865491E+02  0.51100000000E-03 0.  1.
<mgrwt>
<rscale>  0 0.20000832E+02</rscale>
<asrwt>0</asrwt>
<pdfrwt beam="1">  1        1 0.17687508E-03 0.20000832E+02</pdfrwt>
<pdfrwt beam="2">  1       -1 0.13382670E-01 0.20000832E+02</pdfrwt>
<totfact> 0.32584830E+06</totfact>
</mgrwt>
</event>
<event>
 5    1  0.9583198E-007  0.2000012E+02  0.7818608E-02  0.1745326E+00
         -1   -1    0    0    0  501 -0.00000000000E+00  0.00000000000E+00  0.12552976499E+01  0.12553063366E+01  0.46700000000E-02 0.  1.
          1   -1    0    0  501    0  0.00000000000E+00 -0.00000000000E+00 -0.79663057830E+02  0.79663057967E+02  0.46700000000E-02 0. -1.
       1023    2    1    2    0    0  0.00000000000E+00  0.00000000000E+00 -0.78407760180E+02  0.80918364304E+02  0.20000120627E+02 0.  0.
        -11    1    3    3    0    0  0.83479899615E+01 -0.55056101106E+01 -0.39296752872E+02  0.40549173427E+02  0.51100000000E-03 0.  1.
         11    1    3    3    0    0 -0.83479899615E+01  0.55056101106E+01 -0.39111007308E+02  0.40369190877E+02  0.51100000000E-03 0. -1.
<mgrwt>
<rscale>  0 0.20000121E+02</rscale>
<asrwt>0</asrwt>
<pdfrwt beam="2">  1        1 0.12255852E-01 0.20000121E+02</pdfrwt>
<pdfrwt beam="1">  1       -1 0.19312346E-03 0.20000121E+02</pdfrwt>
<totfact> 0.43341433E+06</totfact>
</mgrwt>
</event>
<event>
 5    1  0.9583198E-007  0.2000221E+02  0.7818608E-02  0.1745284E+00
         -1   -1    0    0    0  501 -0.00000000000E+00  0.00000000000E+00  0.95656934495E+02  0.95656934609E+02  0.46700000000E-02 0. -1.
          1   -1    0    0  501    0  0.00000000000E+00 -0.00000000000E+00 -0.10456286243E+01  0.10456390529E+01  0.46700000000E-02 0.  1.
       1023    2    1    2    0    0  0.00000000000E+00  0.00000000000E+00  0.94611305871E+02  0.96702573662E+02  0.20002213735E+02 0.  0.
        -11    1    3    3    0    0 -0.94692288678E+01 -0.32179420205E+01  0.47432841662E+02  0.48475725003E+02  0.51100000000E-03 0. -1.
         11    1    3    3    0    0  0.94692288678E+01  0.32179420205E+01  0.47178464209E+02  0.48226848659E+02  0.51100000000E-03 0.  1.
<mgrwt>
<rscale>  0 0.20002214E+02</rscale>
<asrwt>0</asrwt>
<pdfrwt beam="2">  1        1 0.16086667E-03 0.20002214E+02</pdfrwt>
<pdfrwt beam="1">  1       -1 0.14716460E-01 0.20002214E+02</pdfrwt>
<totfact> 0.32095519E+06</totfact>
</mgrwt>
</event>
<event>
 5    1  0.9583198E-007  0.2000081E+02  0.7818608E-02  0.1745312E+00
         -1   -1    0    0    0  501 -0.00000000000E+00  0.00000000000E+00  0.92692326321E+02  0.92692326439E+02  0.46700000000E-02 0.  1.
          1   -1    0    0  501    0  0.00000000000E+00 -0.00000000000E+00 -0.10789203631E+01  0.10789304699E+01  0.46700000000E-02 0. -1.
       1023    2    1    2    0    0  0.00000000000E+00  0.00000000000E+00  0.91613405958E+02  0.93771256909E+02  0.20000811758E+02 0.  0.
        -11    1    3    3    0    0  0.86962939477E+01  0.49376670194E+01  0.46018120452E+02  0.47092180818E+02  0.51100000000E-03 0.  1.
         11    1    3    3    0    0 -0.86962939477E+01 -0.49376670194E+01  0.45595285506E+02  0.46679076091E+02  0.51100000000E-03 0. -1.
<mgrwt>
<rscale>  0 0.20000812E+02</rscale>
<asrwt>0</asrwt>
<pdfrwt beam="2">  1        1 0.16598845E-03 0.20000812E+02</pdfrwt>
<pdfrwt beam="1">  1       -1 0.14260366E-01 0.20000812E+02</pdfrwt>
<totfact> 0.32263884E+06</totfact>
</mgrwt>
</event>
<event>
 5    1  0.9583198E-007  0.2000750E+02  0.7818608E-02  0.1745179E+00
         -1   -1    0    0    0  501 -0.00000000000E+00  0.00000000000E+00  0.42435302903E+01  0.42435328600E+01  0.46700000000E-02 0.  1.
          1   -1    0    0  501    0  0.00000000000E+00 -0.00000000000E+00 -0.23582945581E+02  0.23582946043E+02  0.46700000000E-02 0. -1.
       1023    2    1    2    0    0  0.00000000000E+00  0.00000000000E+00 -0.19339415290E+02  0.27826478903E+02  0.20007497204E+02 0.  0.
        -11    1    3    3    0    0 -0.23795198440E+01  0.97157024853E+01 -0.98562845247E+01  0.14042910466E+02  0.51100000000E-03 0. -1.
         11    1    3    3    0    0  0.23795198440E+01 -0.97157024853E+01 -0.94831307655E+01  0.13783568437E+02  0.51100000000E-03 0.  1.
<mgrwt>
<rscale>  0 0.20007497E+02</rscale>
<asrwt>0</asrwt>
<pdfrwt beam="2">  1        1 0.36281456E-02 0.20007497E+02</pdfrwt>
<pdfrwt beam="1">  1       -1 0.65285106E-03 0.20007497E+02</pdfrwt>
<totfact> 0.39958768E+06</totfact>
</mgrwt>
</event>
<event>
 5    1  0.9583198E-007  0.2000070E+02  0.7818608E-02  0.1745314E+00
         -1   -1    0    0    0  501 -0.00000000000E+00  0.00000000000E+00  0.79785274909E+01  0.79785288577E+01  0.46700000000E-02 0.  1.
          1   -1    0    0  501    0  0.00000000000E+00 -0.00000000000E+00 -0.12534510551E+02  0.12534511421E+02  0.46700000000E-02 0. -1.
       1023    2    1    2    0    0  0.00000000000E+00  0.00000000000E+00 -0.45559830605E+01  0.20513040279E+02  0.20000695984E+02 0.  0.
        -11    1    3    3    0    0 -0.97561226190E+01 -0.21965502185E+01 -0.22635496192E+01  0.10253312565E+02  0.51100000000E-03 0.  1.
         11    1    3    3    0    0  0.97561226190E+01  0.21965502185E+01 -0.22924334413E+01  0.10259727714E+02  0.51100000000E-03 0. -1.
<mgrwt>
<rscale>  0 0.20000696E+02</rscale>
<asrwt>0</asrwt>
<pdfrwt beam="2">  1        1 0.19283864E-02 0.20000696E+02</pdfrwt>
<pdfrwt beam="1">  1       -1 0.12274659E-02 0.20000696E+02</pdfrwt>
<totfact> 0.38966745E+06</totfact>
</mgrwt>
</event>
<event>
 4    1  0.9583198E-007  0.2010011E+02  0.7818608E-02  0.1743345E+00
         -1   -1    0    0    0  501 -0.00000000000E+00  0.00000000000E+00  0.45031650156E+02  0.45031650398E+02  0.46700000000E-02 0. -1.
          1   -1    0    0  501    0  0.00000000000E+00 -0.00000000000E+00 -0.22429439784E+01  0.22429488400E+01  0.46700000000E-02 0.  1.
        -11    1    1    2    0    0 -0.36572430145E+01  0.93382023342E+01  0.19859010066E+02  0.22247645502E+02  0.51100000000E-03 0. -1.
         11    1    1    2    0    0  0.36572430145E+01 -0.93382023342E+01  0.22929696111E+02  0.25026953736E+02  0.51100000000E-03 0.  1.
<mgrwt>
<rscale>  0 0.20100108E+02</rscale>
<asrwt>0</asrwt>
<pdfrwt beam="2">  1        1 0.34506872E-03 0.20100108E+02</pdfrwt>
<pdfrwt beam="1">  1       -1 0.69279462E-02 0.20100108E+02</pdfrwt>
<totfact> 0.34904749E+06</totfact>
</mgrwt>
</event>
<event>
 5    1  0.9583198E-007  0.2000058E+02  0.7818608E-02  0.1745316E+00
          1   -1    0    0  501    0  0.00000000000E+00  0.00000000000E+00  0.68820684773E+01  0.68820700618E+01  0.46700000000E-02 0. -1.
         -1   -1    0    0    0  501 -0.00000000000E+00 -0.00000000000E+00 -0.14531358997E+02  0.14531359747E+02  0.46700000000E-02 0.  1.
       1023    2    1    2    0    0  0.00000000000E+00  0.00000000000E+00 -0.76492905196E+01  0.21413429809E+02  0.20000583260E+02 0.  0.
        -11    1    3    3    0    0 -0.44404328238E+01  0.89601506207E+01 -0.37561777201E+01  0.10682256978E+02  0.51100000000E-03 0. -1.
         11    1    3    3    0    0  0.44404328238E+01 -0.89601506207E+01 -0.38931127996E+01  0.10731172832E+02  0.51100000000E-03 0.  1.
<mgrwt>
<rscale>  0 0.20000583E+02</rscale>
<asrwt>0</asrwt>
<pdfrwt beam="1">  1        1 0.10587799E-02 0.20000583E+02</pdfrwt>
<pdfrwt beam="2">  1       -1 0.22355939E-02 0.20000583E+02</pdfrwt>
<totfact> 0.38012912E+06</totfact>
</mgrwt>
</event>
<event>
 5    1  0.9829493E-007  0.2000146E+02  0.7818608E-02  0.1745299E+00
         -1   -1    0    0    0  501 -0.00000000000E+00  0.00000000000E+00  0.42987951311E+02  0.42987951564E+02  0.46700000000E-02 0. -1.
          1   -1    0    0  501    0  0.00000000000E+00 -0.00000000000E+00 -0.23265706242E+01  0.23265753111E+01  0.46700000000E-02 0.  1.
       1023    2    1    2    0    0  0.00000000000E+00  0.00000000000E+00  0.40661380687E+02  0.45314526876E+02  0.20001461612E+02 0.  0.
        -11    1    3    3    0    0 -0.22721192016E+01  0.97384715782E+01  0.20060128444E+02  0.22414484331E+02  0.51100000000E-03 0.  1.
         11    1    3    3    0    0  0.22721192016E+01 -0.97384715782E+01  0.20601252242E+02  0.22900042545E+02  0.51100000000E-03 0. -1.
<mgrwt>
<rscale>  0 0.20001462E+02</rscale>
<asrwt>0</asrwt>
<pdfrwt beam="2">  1        1 0.35793433E-03 0.20001462E+02</pdfrwt>
<pdfrwt beam="1">  1       -1 0.66135313E-02 0.20001462E+02</pdfrwt>
<totfact> 0.35437190E+06</totfact>
</mgrwt>
</event>
<event>
 5    1  0.9583198E-007  0.2000024E+02  0.7818608E-02  0.1745323E+00
          1   -1    0    0  501    0  0.00000000000E+00  0.00000000000E+00  0.60233477608E+01  0.60233495711E+01  0.46700000000E-02 0.  1.
         -1   -1    0    0    0  501 -0.00000000000E+00 -0.00000000000E+00 -0.16602465180E+02  0.16602465837E+02  0.46700000000E-02 0. -1.
       1023    2    1    2    0    0  0.00000000000E+00  0.00000000000E+00 -0.10579117419E+02  0.22625815408E+02  0.20000244936E+02 0.  0.
        -11    1    3    3    0    0 -0.19319468451E+01 -0.98116455229E+01 -0.53354087047E+01  0.11334345715E+02  0.51100000000E-03 0. -1.
         11    1    3    3    0    0  0.19319468451E+01  0.98116455229E+01 -0.52437087143E+01  0.11291469693E+02  0.51100000000E-03 0.  1.
<mgrwt>
<rscale>  0 0.20000245E+02</rscale>
<asrwt>0</asrwt>
<pdfrwt beam="1">  1        1 0.92666908E-03 0.20000245E+02</pdfrwt>
<pdfrwt beam="2">  1       -1 0.25542256E-02 0.20000245E+02</pdfrwt>
<totfact> 0.37776053E+06</totfact>
</mgrwt>
</event>
<event>
 5    1  0.1006176E-006  0.2000123E+02  0.7818608E-02  0.1745304E+00
         -1   -1    0    0    0  501 -0.00000000000E+00  0.00000000000E+00  0.65785633648E+01  0.65785650223E+01  0.46700000000E-02 0. -1.
          1   -1    0    0  501    0  0.00000000000E+00 -0.00000000000E+00 -0.15202752031E+02  0.15202752748E+02  0.46700000000E-02 0.  1.
       1023    2    1    2    0    0  0.00000000000E+00  0.00000000000E+00 -0.86241886661E+01  0.21781317771E+02  0.20001229304E+02 0.  0.
        -11    1    3    3    0    0 -0.75841904819E+01 -0.65182569043E+01 -0.42376365794E+01  0.10861177762E+02  0.51100000000E-03 0. -1.
         11    1    3    3    0    0  0.75841904819E+01  0.65182569043E+01 -0.43865520867E+01  0.10920140009E+02  0.51100000000E-03 0.  1.
<mgrwt>
<rscale>  0 0.20001229E+02</rscale>
<asrwt>0</asrwt>
<pdfrwt beam="2">  1        1 0.23388851E-02 0.20001229E+02</pdfrwt>
<pdfrwt beam="1">  1       -1 0.10120869E-02 0.20001229E+02</pdfrwt>
<totfact> 0.39260017E+06</totfact>
</mgrwt>
</event>
<event>
 5    1  0.9583198E-007  0.2000051E+02  0.7818608E-02  0.1745318E+00
         -1   -1    0    0    0  501 -0.00000000000E+00  0.00000000000E+00  0.42212398341E+01  0.42212424173E+01  0.46700000000E-02 0.  1.
          1   -1    0    0  501    0  0.00000000000E+00 -0.00000000000E+00 -0.23690931844E+02  0.23690932304E+02  0.46700000000E-02 0. -1.
       1023    2    1    2    0    0  0.00000000000E+00  0.00000000000E+00 -0.19469692010E+02  0.27912174721E+02  0.20000514762E+02 0.  0.
        -11    1    3    3    0    0  0.19792077575E+00 -0.99980828797E+01 -0.98265035672E+01  0.14020021630E+02  0.51100000000E-03 0. -1.
         11    1    3    3    0    0 -0.19792077575E+00  0.99980828797E+01 -0.96431884425E+01  0.13892153091E+02  0.51100000000E-03 0.  1.
<mgrwt>
<rscale>  0 0.20000515E+02</rscale>
<asrwt>0</asrwt>
<pdfrwt beam="2">  1        1 0.36447589E-02 0.20000515E+02</pdfrwt>
<pdfrwt beam="1">  1       -1 0.64942176E-03 0.20000515E+02</pdfrwt>
<totfact> 0.39998269E+06</totfact>
</mgrwt>
</event>
<event>
 5    1  0.9583198E-007  0.2000982E+02  0.7818608E-02  0.1745133E+00
          1   -1    0    0  501    0  0.00000000000E+00  0.00000000000E+00  0.88817734791E+00  0.88818962516E+00  0.46700000000E-02 0. -1.
         -1   -1    0    0    0  501 -0.00000000000E+00 -0.00000000000E+00 -0.11269994020E+03  0.11269994030E+03  0.46700000000E-02 0.  1.
       1023    2    1    2    0    0  0.00000000000E+00  0.00000000000E+00 -0.11181176285E+03  0.11358812992E+03  0.20009821265E+02 0.  0.
        -11    1    3    3    0    0 -0.97253057347E+01  0.23343638358E+01 -0.57379730578E+02  0.58244865075E+02  0.51100000000E-03 0.  1.
         11    1    3    3    0    0  0.97253057347E+01 -0.23343638358E+01 -0.54432032272E+02  0.55343264845E+02  0.51100000000E-03 0. -1.
<mgrwt>
<rscale>  0 0.20009821E+02</rscale>
<asrwt>0</asrwt>
<pdfrwt beam="1">  1        1 0.13664371E-03 0.20009821E+02</pdfrwt>
<pdfrwt beam="2">  1       -1 0.17338442E-01 0.20009821E+02</pdfrwt>
<totfact> 0.31169760E+06</totfact>
</mgrwt>
</event>
<event>
 5    1  0.9811751E-007  0.2000064E+02  0.7818608E-02  0.1745315E+00
         -1   -1    0    0    0  501 -0.00000000000E+00  0.00000000000E+00  0.18250547291E+01  0.18250607040E+01  0.46700000000E-02 0. -1.
          1   -1    0    0  501    0  0.00000000000E+00 -0.00000000000E+00 -0.54796294825E+02  0.54796295024E+02  0.46700000000E-02 0.  1.
       1023    2    1    2    0    0  0.00000000000E+00  0.00000000000E+00 -0.52971240096E+02  0.56621355728E+02  0.20000641169E+02 0.  0.
        -11    1    3    3    0    0 -0.24398271754E+01  0.96980734506E+01 -0.26394929967E+02  0.28225834151E+02  0.51100000000E-03 0. -1.
         11    1    3    3    0    0  0.24398271754E+01 -0.96980734506E+01 -0.26576310129E+02  0.28395521577E+02  0.51100000000E-03 0.  1.
<mgrwt>
<rscale>  0 0.20000641E+02</rscale>
<asrwt>0</asrwt>
<pdfrwt beam="2">  1        1 0.84301984E-02 0.20000641E+02</pdfrwt>
<pdfrwt beam="1">  1       -1 0.28077817E-03 0.20000641E+02</pdfrwt>
<totfact> 0.41989503E+06</totfact>
</mgrwt>
</event>
<event>
 5    1  0.9583198E-007  0.2000405E+02  0.7818608E-02  0.1745248E+00
          1   -1    0    0  501    0  0.00000000000E+00  0.00000000000E+00  0.61938889492E+01  0.61938907097E+01  0.46700000000E-02 0. -1.
         -1   -1    0    0    0  501 -0.00000000000E+00 -0.00000000000E+00 -0.16151476586E+02  0.16151477261E+02  0.46700000000E-02 0.  1.
       1023    2    1    2    0    0  0.00000000000E+00  0.00000000000E+00 -0.99575876366E+01  0.22345367971E+02  0.20004047545E+02 0.  0.
        -11    1    3    3    0    0 -0.56646817143E+01 -0.82413591188E+01 -0.51781795875E+01  0.11261534671E+02  0.51100000000E-03 0. -1.
         11    1    3    3    0    0  0.56646817143E+01  0.82413591188E+01 -0.47794080491E+01  0.11083833299E+02  0.51100000000E-03 0.  1.
<mgrwt>
<rscale>  0 0.20004048E+02</rscale>
<asrwt>0</asrwt>
<pdfrwt beam="1">  1        1 0.95290618E-03 0.20004048E+02</pdfrwt>
<pdfrwt beam="2">  1       -1 0.24848427E-02 0.20004048E+02</pdfrwt>
<totfact> 0.37810735E+06</totfact>
</mgrwt>
</event>
<event>
 5    1  0.9583198E-007  0.2000002E+02  0.7818608E-02  0.1745328E+00
          1   -1    0    0  501    0  0.00000000000E+00  0.00000000000E+00  0.20249792919E+02  0.20249793458E+02  0.46700000000E-02 0. -1.
         -1   -1    0    0    0  501 -0.00000000000E+00 -0.00000000000E+00 -0.49383308607E+01  0.49383330688E+01  0.46700000000E-02 0.  1.
       1023    2    1    2    0    0  0.00000000000E+00  0.00000000000E+00  0.15311462059E+02  0.25188126527E+02  0.20000021189E+02 0.  0.
        -11    1    3    3    0    0 -0.13075747153E+01 -0.99141475534E+01  0.76409213349E+01  0.12585060685E+02  0.51100000000E-03 0. -1.
         11    1    3    3    0    0  0.13075747153E+01  0.99141475534E+01  0.76705407236E+01  0.12603065841E+02  0.51100000000E-03 0.  1.
<mgrwt>
<rscale>  0 0.20000021E+02</rscale>
<asrwt>0</asrwt>
<pdfrwt beam="1">  1        1 0.31153529E-02 0.20000021E+02</pdfrwt>
<pdfrwt beam="2">  1       -1 0.75974343E-03 0.20000021E+02</pdfrwt>
<totfact> 0.39726672E+06</totfact>
</mgrwt>
</event>
<event>
 5    1  0.9583198E-007  0.2000498E+02  0.7818608E-02  0.1745229E+00
         -1   -1    0    0    0  501 -0.00000000000E+00  0.00000000000E+00  0.22919727175E+02  0.22919727651E+02  0.46700000000E-02 0.  1.
          1   -1    0    0  501    0  0.00000000000E+00 -0.00000000000E+00 -0.43652256514E+01  0.43652281494E+01  0.46700000000E-02 0. -1.
       1023    2    1    2    0    0  0.00000000000E+00  0.00000000000E+00  0.18554501524E+02  0.27284955800E+02  0.20004981535E+02 0.  0.
        -11    1    3    3    0    0  0.68808909848E+01 -0.72587721533E+01  0.91194413746E+01  0.13535163285E+02  0.51100000000E-03 0. -1.
         11    1    3    3    0    0 -0.68808909848E+01  0.72587721533E+01  0.94350601491E+01  0.13749792515E+02  0.51100000000E-03 0.  1.
<mgrwt>
<rscale>  0 0.20004982E+02</rscale>
<asrwt>0</asrwt>
<pdfrwt beam="2">  1        1 0.67157341E-03 0.20004982E+02</pdfrwt>
<pdfrwt beam="1">  1       -1 0.35261121E-02 0.20004982E+02</pdfrwt>
<totfact> 0.37108289E+06</totfact>
</mgrwt>
</event>
<event>
 5    1  0.9583198E-007  0.2001026E+02  0.7818608E-02  0.1745124E+00
          1   -1    0    0  501    0  0.00000000000E+00  0.00000000000E+00  0.70321739655E+01  0.70321755161E+01  0.46700000000E-02 0. -1.
         -1   -1    0    0    0  501 -0.00000000000E+00 -0.00000000000E+00 -0.14234944540E+02  0.14234945306E+02  0.46700000000E-02 0.  1.
       1023    2    1    2    0    0  0.00000000000E+00  0.00000000000E+00 -0.72027705748E+01  0.21267120822E+02  0.20010260471E+02 0.  0.
        -11    1    3    3    0    0  0.72257627565E+01 -0.69178388936E+01 -0.37987604341E+01  0.10700407631E+02  0.51100000000E-03 0. -1.
         11    1    3    3    0    0 -0.72257627565E+01  0.69178388936E+01 -0.34040101407E+01  0.10566713191E+02  0.51100000000E-03 0.  1.
<mgrwt>
<rscale>  0 0.20010260E+02</rscale>
<asrwt>0</asrwt>
<pdfrwt beam="1">  1        1 0.10818731E-02 0.20010260E+02</pdfrwt>
<pdfrwt beam="2">  1       -1 0.21899916E-02 0.20010260E+02</pdfrwt>
<totfact> 0.38008211E+06</totfact>
</mgrwt>
</event>
<event>
 5    1  0.9583198E-007  0.2000065E+02  0.7818608E-02  0.1745315E+00
          1   -1    0    0  501    0  0.00000000000E+00  0.00000000000E+00  0.10091381622E+02  0.10091382702E+02  0.46700000000E-02 0.  1.
         -1   -1    0    0    0  501 -0.00000000000E+00 -0.00000000000E+00 -0.99100852135E+01  0.99100863139E+01  0.46700000000E-02 0. -1.
       1023    2    1    2    0    0  0.00000000000E+00  0.00000000000E+00  0.18129640799E+00  0.20001469016E+02  0.20000647350E+02 0.  0.
        -11    1    3    3    0    0 -0.33764382339E+01  0.94130818730E+01  0.85371063411E-01  0.10000686675E+02  0.51100000000E-03 0. -1.
         11    1    3    3    0    0  0.33764382339E+01 -0.94130818730E+01  0.95925344576E-01  0.10000782341E+02  0.51100000000E-03 0.  1.
<mgrwt>
<rscale>  0 0.20000647E+02</rscale>
<asrwt>0</asrwt>
<pdfrwt beam="1">  1        1 0.15525204E-02 0.20000647E+02</pdfrwt>
<pdfrwt beam="2">  1       -1 0.15246287E-02 0.20000647E+02</pdfrwt>
<totfact> 0.38635214E+06</totfact>
</mgrwt>
</event>
<event>
 5    1  0.9814950E-007  0.2000114E+02  0.7818608E-02  0.1745305E+00
         -1   -1    0    0    0  501 -0.00000000000E+00  0.00000000000E+00  0.15324360532E+01  0.15324431689E+01  0.46700000000E-02 0.  1.
          1   -1    0    0  501    0  0.00000000000E+00 -0.00000000000E+00 -0.65262858934E+02  0.65262859101E+02  0.46700000000E-02 0. -1.
       1023    2    1    2    0    0  0.00000000000E+00  0.00000000000E+00 -0.63730422880E+02  0.66795302270E+02  0.20001140087E+02 0.  0.
        -11    1    3    3    0    0  0.87443059632E+01  0.48526253938E+01 -0.31942883827E+02  0.33471759551E+02  0.51100000000E-03 0. -1.
         11    1    3    3    0    0 -0.87443059632E+01 -0.48526253938E+01 -0.31787539053E+02  0.33323542719E+02  0.51100000000E-03 0.  1.
<mgrwt>
<rscale>  0 0.20001140E+02</rscale>
<asrwt>0</asrwt>
<pdfrwt beam="2">  1        1 0.10040438E-01 0.20001140E+02</pdfrwt>
<pdfrwt beam="1">  1       -1 0.23576000E-03 0.20001140E+02</pdfrwt>
<totfact> 0.42572090E+06</totfact>
</mgrwt>
</event>
<event>
 5    1  0.9871102E-007  0.2000174E+02  0.7818608E-02  0.1745293E+00
         -1   -1    0    0    0  501 -0.00000000000E+00  0.00000000000E+00  0.37415120090E+01  0.37415149234E+01  0.46700000000E-02 0.  1.
          1   -1    0    0  501    0  0.00000000000E+00 -0.00000000000E+00 -0.26731798529E+02  0.26731798937E+02  0.46700000000E-02 0. -1.
       1023    2    1    2    0    0  0.00000000000E+00  0.00000000000E+00 -0.22990286520E+02  0.30473313860E+02  0.20001739508E+02 0.  0.
        -11    1    3    3    0    0  0.50419428543E+01 -0.86363883652E+01 -0.11350577396E+02  0.15127590661E+02  0.51100000000E-03 0.  1.
         11    1    3    3    0    0 -0.50419428543E+01  0.86363883652E+01 -0.11639709124E+02  0.15345723199E+02  0.51100000000E-03 0. -1.
<mgrwt>
<rscale>  0 0.20001740E+02</rscale>
<asrwt>0</asrwt>
<pdfrwt beam="2">  1        1 0.41125845E-02 0.20001740E+02</pdfrwt>
<pdfrwt beam="1">  1       -1 0.57561750E-03 0.20001740E+02</pdfrwt>
<totfact> 0.40218540E+06</totfact>
</mgrwt>
</event>
<event>
 5    1  0.9583198E-007  0.2000663E+02  0.7818608E-02  0.1745196E+00
          1   -1    0    0  501    0  0.00000000000E+00  0.00000000000E+00  0.10484332588E+01  0.10484436594E+01  0.46700000000E-02 0. -1.
         -1   -1    0    0    0  501 -0.00000000000E+00 -0.00000000000E+00 -0.95443144214E+02  0.95443144328E+02  0.46700000000E-02 0.  1.
       1023    2    1    2    0    0  0.00000000000E+00  0.00000000000E+00 -0.94394710955E+02  0.96491587988E+02  0.20006626304E+02 0.  0.
        -11    1    3    3    0    0  0.10303752772E+01  0.99499823018E+01 -0.46958496816E+02  0.48012126015E+02  0.51100000000E-03 0.  1.
         11    1    3    3    0    0 -0.10303752772E+01 -0.99499823018E+01 -0.47436214139E+02  0.48479461973E+02  0.51100000000E-03 0. -1.
<mgrwt>
<rscale>  0 0.20006626E+02</rscale>
<asrwt>0</asrwt>
<pdfrwt beam="1">  1        1 0.16129831E-03 0.20006626E+02</pdfrwt>
<pdfrwt beam="2">  1       -1 0.14683555E-01 0.20006626E+02</pdfrwt>
<totfact> 0.32091720E+06</totfact>
</mgrwt>
</event>
<event>
 5    1  0.9921123E-007  0.2000066E+02  0.7818608E-02  0.1745315E+00
          1   -1    0    0  501    0  0.00000000000E+00  0.00000000000E+00  0.75663404842E+02  0.75663404986E+02  0.46700000000E-02 0.  1.
         -1   -1    0    0    0  501 -0.00000000000E+00 -0.00000000000E+00 -0.13217256494E+01  0.13217338995E+01  0.46700000000E-02 0. -1.
       1023    2    1    2    0    0  0.00000000000E+00  0.00000000000E+00  0.74341679192E+02  0.76985138885E+02  0.20000658591E+02 0.  0.
        -11    1    3    3    0    0  0.62054838035E+01 -0.78416834312E+01  0.37482535602E+02  0.38793562657E+02  0.51100000000E-03 0. -1.
         11    1    3    3    0    0 -0.62054838035E+01  0.78416834312E+01  0.36859143591E+02  0.38191576228E+02  0.51100000000E-03 0.  1.
<mgrwt>
<rscale>  0 0.20000659E+02</rscale>
<asrwt>0</asrwt>
<pdfrwt beam="1">  1        1 0.11640529E-01 0.20000659E+02</pdfrwt>
<pdfrwt beam="2">  1       -1 0.20334297E-03 0.20000659E+02</pdfrwt>
<totfact> 0.43130774E+06</totfact>
</mgrwt>
</event>
<event>
 5    1  0.9695701E-007  0.2000169E+02  0.7818608E-02  0.1745294E+00
          1   -1    0    0  501    0  0.00000000000E+00  0.00000000000E+00  0.12927189394E+02  0.12927190237E+02  0.46700000000E-02 0. -1.
         -1   -1    0    0    0  501 -0.00000000000E+00 -0.00000000000E+00 -0.77369420543E+01  0.77369434637E+01  0.46700000000E-02 0.  1.
       1023    2    1    2    0    0  0.00000000000E+00  0.00000000000E+00  0.51902473393E+01  0.20664133701E+02  0.20001693782E+02 0.  0.
        -11    1    3    3    0    0  0.95660844040E+01  0.29159960757E+01  0.26599253633E+01  0.10348343207E+02  0.51100000000E-03 0.  1.
         11    1    3    3    0    0 -0.95660844040E+01 -0.29159960757E+01  0.25303219760E+01  0.10315790493E+02  0.51100000000E-03 0. -1.
<mgrwt>
<rscale>  0 0.20001694E+02</rscale>
<asrwt>0</asrwt>
<pdfrwt beam="1">  1        1 0.19887985E-02 0.20001694E+02</pdfrwt>
<pdfrwt beam="2">  1       -1 0.11902990E-02 0.20001694E+02</pdfrwt>
<totfact> 0.39009360E+06</totfact>
</mgrwt>
</event>
<event>
 5    1  0.9583198E-007  0.2000790E+02  0.7818608E-02  0.1745171E+00
          1   -1    0    0  501    0  0.00000000000E+00  0.00000000000E+00  0.98442032297E+00  0.98443139993E+00  0.46700000000E-02 0. -1.
         -1   -1    0    0    0  501 -0.00000000000E+00 -0.00000000000E+00 -0.10166233204E+03  0.10166233215E+03  0.46700000000E-02 0.  1.
       1023    2    1    2    0    0  0.00000000000E+00  0.00000000000E+00 -0.10067791171E+03  0.10264676355E+03  0.20007902414E+02 0.  0.
        -11    1    3    3    0    0 -0.83277374395E+01 -0.55422229313E+01 -0.50891355013E+02  0.51865185444E+02  0.51100000000E-03 0. -1.
         11    1    3    3    0    0  0.83277374395E+01  0.55422229313E+01 -0.49786556702E+02  0.50781578101E+02  0.51100000000E-03 0.  1.
<mgrwt>
<rscale>  0 0.20007902E+02</rscale>
<asrwt>0</asrwt>
<pdfrwt beam="1">  1        1 0.15145022E-03 0.20007902E+02</pdfrwt>
<pdfrwt beam="2">  1       -1 0.15640351E-01 0.20007902E+02</pdfrwt>
<totfact> 0.31751375E+06</totfact>
</mgrwt>
</event>
<event>
 5    1  0.9583198E-007  0.2000527E+02  0.7818608E-02  0.1745223E+00
          1   -1    0    0  501    0  0.00000000000E+00  0.00000000000E+00  0.82452801001E+02  0.82452801133E+02  0.46700000000E-02 0.  1.
         -1   -1    0    0    0  501 -0.00000000000E+00 -0.00000000000E+00 -0.12134496077E+01  0.12134585940E+01  0.46700000000E-02 0. -1.
       1023    2    1    2    0    0  0.00000000000E+00  0.00000000000E+00  0.81239351393E+02  0.83666259727E+02  0.20005269355E+02 0.  0.
        -11    1    3    3    0    0  0.69171089960E+01  0.72219915039E+01  0.39692562572E+02  0.40932909522E+02  0.51100000000E-03 0. -1.
         11    1    3    3    0    0 -0.69171089960E+01 -0.72219915039E+01  0.41546788822E+02  0.42733350206E+02  0.51100000000E-03 0.  1.
<mgrwt>
<rscale>  0 0.20005269E+02</rscale>
<asrwt>0</asrwt>
<pdfrwt beam="1">  1        1 0.12685052E-01 0.20005269E+02</pdfrwt>
<pdfrwt beam="2">  1       -1 0.18668518E-03 0.20005269E+02</pdfrwt>
<totfact> 0.43460142E+06</totfact>
</mgrwt>
</event>
<event>
 5    1  0.9583198E-007  0.2000190E+02  0.7818608E-02  0.1745290E+00
          1   -1    0    0  501    0  0.00000000000E+00  0.00000000000E+00  0.67850519419E+01  0.67850535490E+01  0.46700000000E-02 0.  1.
         -1   -1    0    0    0  501 -0.00000000000E+00 -0.00000000000E+00 -0.14741081280E+02  0.14741082019E+02  0.46700000000E-02 0. -1.
       1023    2    1    2    0    0  0.00000000000E+00  0.00000000000E+00 -0.79560293378E+01  0.21526135568E+02  0.20001902652E+02 0.  0.
        -11    1    3    3    0    0  0.55105737556E+01 -0.83456517969E+01 -0.40339372251E+01  0.10783736682E+02  0.51100000000E-03 0. -1.
         11    1    3    3    0    0 -0.55105737556E+01  0.83456517969E+01 -0.39220921126E+01  0.10742398886E+02  0.51100000000E-03 0.  1.
<mgrwt>
<rscale>  0 0.20001903E+02</rscale>
<asrwt>0</asrwt>
<pdfrwt beam="1">  1        1 0.10438543E-02 0.20001903E+02</pdfrwt>
<pdfrwt beam="2">  1       -1 0.22678588E-02 0.20001903E+02</pdfrwt>
<totfact> 0.37982457E+06</totfact>
</mgrwt>
</event>
<event>
 5    1  0.9583198E-007  0.2000503E+02  0.7818608E-02  0.1745228E+00
         -1   -1    0    0    0  501 -0.00000000000E+00  0.00000000000E+00  0.37763384097E+01  0.37763412973E+01  0.46700000000E-02 0. -1.
          1   -1    0    0  501    0  0.00000000000E+00 -0.00000000000E+00 -0.26493974485E+02  0.26493974897E+02  0.46700000000E-02 0.  1.
       1023    2    1    2    0    0  0.00000000000E+00  0.00000000000E+00 -0.22717636075E+02  0.30270316194E+02  0.20005025709E+02 0.  0.
        -11    1    3    3    0    0 -0.81749165275E+01  0.57610644295E+01 -0.11625832038E+02  0.15335550020E+02  0.51100000000E-03 0.  1.
         11    1    3    3    0    0  0.81749165275E+01 -0.57610644295E+01 -0.11091804038E+02  0.14934766174E+02  0.51100000000E-03 0. -1.
<mgrwt>
<rscale>  0 0.20005026E+02</rscale>
<asrwt>0</asrwt>
<pdfrwt beam="2">  1        1 0.40759962E-02 0.20005026E+02</pdfrwt>
<pdfrwt beam="1">  1       -1 0.58097541E-03 0.20005026E+02</pdfrwt>
<totfact> 0.40186557E+06</totfact>
</mgrwt>
</event>
<event>
 5    1  0.9583198E-007  0.2000106E+02  0.7818608E-02  0.1745307E+00
          1   -1    0    0  501    0  0.00000000000E+00  0.00000000000E+00  0.56416914288E+01  0.56416933616E+01  0.46700000000E-02 0. -1.
         -1   -1    0    0    0  501 -0.00000000000E+00 -0.00000000000E+00 -0.17727060872E+02  0.17727061487E+02  0.46700000000E-02 0.  1.
       1023    2    1    2    0    0  0.00000000000E+00  0.00000000000E+00 -0.12085369443E+02  0.23368754849E+02  0.20001063687E+02 0.  0.
        -11    1    3    3    0    0  0.91215785354E+01 -0.40988430736E+01 -0.61399295832E+01  0.11734668511E+02  0.51100000000E-03 0.  1.
         11    1    3    3    0    0 -0.91215785354E+01  0.40988430736E+01 -0.59454398601E+01  0.11634086338E+02  0.51100000000E-03 0. -1.
<mgrwt>
<rscale>  0 0.20001064E+02</rscale>
<asrwt>0</asrwt>
<pdfrwt beam="1">  1        1 0.86795273E-03 0.20001064E+02</pdfrwt>
<pdfrwt beam="2">  1       -1 0.27272403E-02 0.20001064E+02</pdfrwt>
<totfact> 0.37649844E+06</totfact>
</mgrwt>
</event>
<event>
 5    1  0.9583198E-007  0.2000657E+02  0.7818608E-02  0.1745197E+00
          1   -1    0    0  501    0  0.00000000000E+00  0.00000000000E+00  0.34511883745E+02  0.34511884061E+02  0.46700000000E-02 0. -1.
         -1   -1    0    0    0  501 -0.00000000000E+00 -0.00000000000E+00 -0.28994550783E+01  0.28994588391E+01  0.46700000000E-02 0.  1.
       1023    2    1    2    0    0  0.00000000000E+00  0.00000000000E+00  0.31612428666E+02  0.37411342900E+02  0.20006572205E+02 0.  0.
        -11    1    3    3    0    0 -0.13672097483E+01 -0.99083798186E+01  0.15538612035E+02  0.18479548624E+02  0.51100000000E-03 0. -1.
         11    1    3    3    0    0  0.13672097483E+01  0.99083798186E+01  0.16073816631E+02  0.18931794275E+02  0.51100000000E-03 0.  1.
<mgrwt>
<rscale>  0 0.20006572E+02</rscale>
<asrwt>0</asrwt>
<pdfrwt beam="1">  1        1 0.53095206E-02 0.20006572E+02</pdfrwt>
<pdfrwt beam="2">  1       -1 0.44607035E-03 0.20006572E+02</pdfrwt>
<totfact> 0.40729548E+06</totfact>
</mgrwt>
</event>
<event>
 5    1  0.9583198E-007  0.2000030E+02  0.7818608E-02  0.1745322E+00
         -1   -1    0    0    0  501 -0.00000000000E+00  0.00000000000E+00  0.16757220684E+01  0.16757285757E+01  0.46700000000E-02 0. -1.
          1   -1    0    0  501    0  0.00000000000E+00 -0.00000000000E+00 -0.59677439966E+02  0.59677440149E+02  0.46700000000E-02 0.  1.
       1023    2    1    2    0    0  0.00000000000E+00  0.00000000000E+00 -0.58001717898E+02  0.61353168725E+02  0.20000300834E+02 0.  0.
        -11    1    3    3    0    0 -0.96375253235E+01  0.26682074627E+01 -0.29130378904E+02  0.30799029218E+02  0.51100000000E-03 0. -1.
         11    1    3    3    0    0  0.96375253235E+01 -0.26682074627E+01 -0.28871338993E+02  0.30554139506E+02  0.51100000000E-03 0.  1.
<mgrwt>
<rscale>  0 0.20000301E+02</rscale>
<asrwt>0</asrwt>
<pdfrwt beam="2">  1        1 0.91811435E-02 0.20000301E+02</pdfrwt>
<pdfrwt beam="1">  1       -1 0.25780396E-03 0.20000301E+02</pdfrwt>
<totfact> 0.42267165E+06</totfact>
</mgrwt>
</event>
<event>
 5    1  0.9583198E-007  0.2000158E+02  0.7818608E-02  0.1745297E+00
          1   -1    0    0  501    0  0.00000000000E+00  0.00000000000E+00  0.36050486258E+01  0.36050516505E+01  0.46700000000E-02 0. -1.
         -1   -1    0    0    0  501 -0.00000000000E+00 -0.00000000000E+00 -0.27743243864E+02  0.27743244257E+02  0.46700000000E-02 0.  1.
       1023    2    1    2    0    0  0.00000000000E+00  0.00000000000E+00 -0.24138195238E+02  0.31348295908E+02  0.20001579611E+02 0.  0.
        -11    1    3    3    0    0  0.92853542864E+01 -0.37134025195E+01 -0.12214729078E+02  0.15786284212E+02  0.51100000000E-03 0. -1.
         11    1    3    3    0    0 -0.92853542864E+01  0.37134025195E+01 -0.11923466160E+02  0.15562011696E+02  0.51100000000E-03 0.  1.
<mgrwt>
<rscale>  0 0.20001580E+02</rscale>
<asrwt>0</asrwt>
<pdfrwt beam="1">  1        1 0.55462315E-03 0.20001580E+02</pdfrwt>
<pdfrwt beam="2">  1       -1 0.42681915E-02 0.20001580E+02</pdfrwt>
<totfact> 0.36677881E+06</totfact>
</mgrwt>
</event>
<event>
 5    1  0.9611426E-007  0.2000170E+02  0.7818608E-02  0.1745294E+00
          1   -1    0    0  501    0  0.00000000000E+00  0.00000000000E+00  0.35374779515E+02  0.35374779823E+02  0.46700000000E-02 0.  1.
         -1   -1    0    0    0  501 -0.00000000000E+00 -0.00000000000E+00 -0.28273518410E+01  0.28273556977E+01  0.46700000000E-02 0. -1.
       1023    2    1    2    0    0  0.00000000000E+00  0.00000000000E+00  0.32547427674E+02  0.38202135521E+02  0.20001702682E+02 0.  0.
        -11    1    3    3    0    0  0.88558793193E+01 -0.46455483631E+01  0.16089434730E+02  0.18944065781E+02  0.51100000000E-03 0. -1.
         11    1    3    3    0    0 -0.88558793193E+01  0.46455483631E+01  0.16457992943E+02  0.19258069740E+02  0.51100000000E-03 0.  1.
<mgrwt>
<rscale>  0 0.20001703E+02</rscale>
<asrwt>0</asrwt>
<pdfrwt beam="1">  1        1 0.54422741E-02 0.20001703E+02</pdfrwt>
<pdfrwt beam="2">  1       -1 0.43497753E-03 0.20001703E+02</pdfrwt>
<totfact> 0.40807978E+06</totfact>
</mgrwt>
</event>
<event>
 5    1  0.9583198E-007  0.2000035E+02  0.7818608E-02  0.1745321E+00
         -1   -1    0    0    0  501 -0.00000000000E+00  0.00000000000E+00  0.52919281132E+01  0.52919301738E+01  0.46700000000E-02 0. -1.
          1   -1    0    0  501    0  0.00000000000E+00 -0.00000000000E+00 -0.18897356305E+02  0.18897356882E+02  0.46700000000E-02 0.  1.
       1023    2    1    2    0    0  0.00000000000E+00  0.00000000000E+00 -0.13605428191E+02  0.24189287055E+02  0.20000348296E+02 0.  0.
        -11    1    3    3    0    0  0.92482392115E+01 -0.38041231990E+01 -0.68594537170E+01  0.12126557112E+02  0.51100000000E-03 0. -1.
         11    1    3    3    0    0 -0.92482392115E+01  0.38041231990E+01 -0.67459744745E+01  0.12062729944E+02  0.51100000000E-03 0.  1.
<mgrwt>
<rscale>  0 0.20000348E+02</rscale>
<asrwt>0</asrwt>
<pdfrwt beam="2">  1        1 0.29072857E-02 0.20000348E+02</pdfrwt>
<pdfrwt beam="1">  1       -1 0.81414300E-03 0.20000348E+02</pdfrwt>
<totfact> 0.39610277E+06</totfact>
</mgrwt>
</event>
<event>
 5    1  0.9627317E-007  0.2000092E+02  0.7818608E-02  0.1745310E+00
         -1   -1    0    0    0  501 -0.00000000000E+00  0.00000000000E+00  0.26849321965E+01  0.26849362578E+01  0.46700000000E-02 0. -1.
          1   -1    0    0  501    0  0.00000000000E+00 -0.00000000000E+00 -0.37248290400E+02  0.37248290693E+02  0.46700000000E-02 0.  1.
       1023    2    1    2    0    0  0.00000000000E+00  0.00000000000E+00 -0.34563358204E+02  0.39933226951E+02  0.20000922088E+02 0.  0.
        -11    1    3    3    0    0  0.98288320054E+01  0.18446456427E+01 -0.17234233873E+02  0.19925548263E+02  0.51100000000E-03 0. -1.
         11    1    3    3    0    0 -0.98288320054E+01 -0.18446456427E+01 -0.17329124331E+02  0.20007678688E+02  0.51100000000E-03 0.  1.
<mgrwt>
<rscale>  0 0.20000922E+02</rscale>
<asrwt>0</asrwt>
<pdfrwt beam="2">  1        1 0.57305062E-02 0.20000922E+02</pdfrwt>
<pdfrwt beam="1">  1       -1 0.41306685E-03 0.20000922E+02</pdfrwt>
<totfact> 0.40932267E+06</totfact>
</mgrwt>
</event>
<event>
 4    1  0.9583198E-007  0.2001534E+02  0.7818608E-02  0.1745023E+00
         -1   -1    0    0    0  501 -0.00000000000E+00  0.00000000000E+00  0.13367756998E+01  0.13367838570E+01  0.46700000000E-02 0.  1.
          1   -1    0    0  501    0  0.00000000000E+00 -0.00000000000E+00 -0.74921411600E+02  0.74921411745E+02  0.46700000000E-02 0. -1.
        -11    1    1    2    0    0 -0.99652060539E+01  0.90993996490E+00 -0.36251939960E+02  0.37607665090E+02  0.51100000000E-03 0. -1.
         11    1    1    2    0    0  0.99652060539E+01 -0.90993996490E+00 -0.37332695940E+02  0.38650530512E+02  0.51100000000E-03 0.  1.
<mgrwt>
<rscale>  0 0.20015338E+02</rscale>
<asrwt>0</asrwt>
<pdfrwt beam="2">  1        1 0.11526368E-01 0.20015338E+02</pdfrwt>
<pdfrwt beam="1">  1       -1 0.20565850E-03 0.20015338E+02</pdfrwt>
<totfact> 0.43021936E+06</totfact>
</mgrwt>
</event>
<event>
 4    1  0.9583198E-007  0.2004348E+02  0.7818608E-02  0.1744465E+00
         -1   -1    0    0    0  501 -0.00000000000E+00  0.00000000000E+00  0.49186252965E+01  0.49186275135E+01  0.46700000000E-02 0. -1.
          1   -1    0    0  501    0  0.00000000000E+00 -0.00000000000E+00 -0.20419378689E+02  0.20419379223E+02  0.46700000000E-02 0.  1.
        -11    1    1    2    0    0  0.37870533560E+01 -0.92786548799E+01 -0.77378846555E+01  0.12661361250E+02  0.51100000000E-03 0. -1.
         11    1    1    2    0    0 -0.37870533560E+01  0.92786548799E+01 -0.77628687371E+01  0.12676645487E+02  0.51100000000E-03 0.  1.
<mgrwt>
<rscale>  0 0.20043483E+02</rscale>
<asrwt>0</asrwt>
<pdfrwt beam="2">  1        1 0.31414430E-02 0.20043483E+02</pdfrwt>
<pdfrwt beam="1">  1       -1 0.75671181E-03 0.20043483E+02</pdfrwt>
<totfact> 0.39547765E+06</totfact>
</mgrwt>
</event>
<event>
 5    1  0.9583198E-007  0.2000058E+02  0.7818608E-02  0.1745317E+00
         -1   -1    0    0    0  501 -0.00000000000E+00  0.00000000000E+00  0.79791196884E+01  0.79791210550E+01  0.46700000000E-02 0. -1.
          1   -1    0    0  501    0  0.00000000000E+00 -0.00000000000E+00 -0.12533437538E+02  0.12533438408E+02  0.46700000000E-02 0.  1.
       1023    2    1    2    0    0  0.00000000000E+00  0.00000000000E+00 -0.45543178492E+01  0.20512559463E+02  0.20000582108E+02 0.  0.
        -11    1    3    3    0    0 -0.12036477193E+01 -0.99274259692E+01 -0.22185408787E+01  0.10243265012E+02  0.51100000000E-03 0. -1.
         11    1    3    3    0    0  0.12036477193E+01  0.99274259692E+01 -0.23357769705E+01  0.10269294451E+02  0.51100000000E-03 0.  1.
<mgrwt>
<rscale>  0 0.20000582E+02</rscale>
<asrwt>0</asrwt>
<pdfrwt beam="2">  1        1 0.19282213E-02 0.20000582E+02</pdfrwt>
<pdfrwt beam="1">  1       -1 0.12275571E-02 0.20000582E+02</pdfrwt>
<totfact> 0.38967115E+06</totfact>
</mgrwt>
</event>
<event>
 5    1  0.9583198E-007  0.2000212E+02  0.7818608E-02  0.1745286E+00
         -1   -1    0    0    0  501 -0.00000000000E+00  0.00000000000E+00  0.80169521572E+02  0.80169521708E+02  0.46700000000E-02 0.  1.
          1   -1    0    0  501    0  0.00000000000E+00 -0.00000000000E+00 -0.12476164867E+01  0.12476252269E+01  0.46700000000E-02 0. -1.
       1023    2    1    2    0    0  0.00000000000E+00  0.00000000000E+00  0.78921905085E+02  0.81417146935E+02  0.20002117706E+02 0.  0.
        -11    1    3    3    0    0  0.55949409277E+01  0.82885803594E+01  0.39995552556E+02  0.41226789263E+02  0.51100000000E-03 0.  1.
         11    1    3    3    0    0 -0.55949409277E+01 -0.82885803594E+01  0.38926352528E+02  0.40190357672E+02  0.51100000000E-03 0. -1.
<mgrwt>
<rscale>  0 0.20002118E+02</rscale>
<asrwt>0</asrwt>
<pdfrwt beam="2">  1        1 0.19194166E-03 0.20002118E+02</pdfrwt>
<pdfrwt beam="1">  1       -1 0.12333775E-01 0.20002118E+02</pdfrwt>
<totfact> 0.32975744E+06</totfact>
</mgrwt>
</event>
<event>
 5    1  0.9583198E-007  0.2000203E+02  0.7818608E-02  0.1745288E+00
         -1   -1    0    0    0  501 -0.00000000000E+00  0.00000000000E+00  0.28017601606E+02  0.28017601996E+02  0.46700000000E-02 0. -1.
          1   -1    0    0  501    0  0.00000000000E+00 -0.00000000000E+00 -0.35699060596E+01  0.35699091141E+01  0.46700000000E-02 0.  1.
       1023    2    1    2    0    0  0.00000000000E+00  0.00000000000E+00  0.24447695547E+02  0.31587511110E+02  0.20002025911E+02 0.  0.
        -11    1    3    3    0    0 -0.43168028946E+01  0.90209218007E+01  0.12078744480E+02  0.15681450374E+02  0.51100000000E-03 0. -1.
         11    1    3    3    0    0  0.43168028946E+01 -0.90209218007E+01  0.12368951067E+02  0.15906060735E+02  0.51100000000E-03 0.  1.
<mgrwt>
<rscale>  0 0.20002026E+02</rscale>
<asrwt>0</asrwt>
<pdfrwt beam="2">  1        1 0.54921661E-03 0.20002026E+02</pdfrwt>
<pdfrwt beam="1">  1       -1 0.43104003E-02 0.20002026E+02</pdfrwt>
<totfact> 0.36651723E+06</totfact>
</mgrwt>
</event>
<event>
 5    1  0.9583198E-007  0.2000141E+02  0.7818608E-02  0.1745300E+00
          1   -1    0    0  501    0  0.00000000000E+00  0.00000000000E+00  0.32913883496E+01  0.32913916626E+01  0.46700000000E-02 0.  1.
         -1   -1    0    0    0  501 -0.00000000000E+00 -0.00000000000E+00 -0.30386587091E+02  0.30386587450E+02  0.46700000000E-02 0. -1.
       1023    2    1    2    0    0  0.00000000000E+00  0.00000000000E+00 -0.27095198741E+02  0.33677979112E+02  0.20001412007E+02 0.  0.
        -11    1    3    3    0    0  0.30004941869E+01  0.95397522136E+01 -0.13657789120E+02  0.16927641347E+02  0.51100000000E-03 0. -1.
         11    1    3    3    0    0 -0.30004941869E+01 -0.95397522136E+01 -0.13437409621E+02  0.16750337765E+02  0.51100000000E-03 0.  1.
<mgrwt>
<rscale>  0 0.20001412E+02</rscale>
<asrwt>0</asrwt>
<pdfrwt beam="1">  1        1 0.50636774E-03 0.20001412E+02</pdfrwt>
<pdfrwt beam="2">  1       -1 0.46748597E-02 0.20001412E+02</pdfrwt>
<totfact> 0.36447553E+06</totfact>
</mgrwt>
</event>
<event>
 4    1  0.9583198E-007  0.2005146E+02  0.7818608E-02  0.1744307E+00
          1   -1    0    0  501    0  0.00000000000E+00  0.00000000000E+00  0.29251134135E+01  0.29251171414E+01  0.46700000000E-02 0.  1.
         -1   -1    0    0    0  501 -0.00000000000E+00 -0.00000000000E+00 -0.34362846291E+02  0.34362846608E+02  0.46700000000E-02 0. -1.
        -11    1    1    2    0    0  0.97762827973E+01  0.22210948738E+01 -0.15866819629E+02  0.18768722204E+02  0.51100000000E-03 0.  1.
         11    1    1    2    0    0 -0.97762827973E+01 -0.22210948738E+01 -0.15570913248E+02  0.18519241545E+02  0.51100000000E-03 0. -1.
<mgrwt>
<rscale>  0 0.20051464E+02</rscale>
<asrwt>0</asrwt>
<pdfrwt beam="1">  1        1 0.45001778E-03 0.20051464E+02</pdfrwt>
<pdfrwt beam="2">  1       -1 0.52865918E-02 0.20051464E+02</pdfrwt>
<totfact> 0.35916077E+06</totfact>
</mgrwt>
</event>
<event>
 5    1  0.1006567E-006  0.2000053E+02  0.7818608E-02  0.1745317E+00
         -1   -1    0    0    0  501 -0.00000000000E+00  0.00000000000E+00  0.92661509955E+00  0.92662686752E+00  0.46700000000E-02 0. -1.
          1   -1    0    0  501    0  0.00000000000E+00 -0.00000000000E+00 -0.10792472843E+03  0.10792472853E+03  0.46700000000E-02 0.  1.
       1023    2    1    2    0    0  0.00000000000E+00  0.00000000000E+00 -0.10699811333E+03  0.10885135540E+03  0.20000532889E+02 0.  0.
        -11    1    3    3    0    0  0.92806828151E+01  0.37241415255E+01 -0.53113255182E+02  0.54046444655E+02  0.51100000000E-03 0. -1.
         11    1    3    3    0    0 -0.92806828151E+01 -0.37241415255E+01 -0.53884858153E+02  0.54804910747E+02  0.51100000000E-03 0.  1.
<mgrwt>
<rscale>  0 0.20000533E+02</rscale>
<asrwt>0</asrwt>
<pdfrwt beam="2">  1        1 0.16603795E-01 0.20000533E+02</pdfrwt>
<pdfrwt beam="1">  1       -1 0.14255717E-03 0.20000533E+02</pdfrwt>
<totfact> 0.44737288E+06</totfact>
</mgrwt>
</event>
<event>
 5    1  0.9583198E-007  0.2000226E+02  0.7818608E-02  0.1745283E+00
         -1   -1    0    0    0  501 -0.00000000000E+00  0.00000000000E+00  0.32217380250E+02  0.32217380588E+02  0.46700000000E-02 0. -1.
          1   -1    0    0  501    0  0.00000000000E+00 -0.00000000000E+00 -0.31046126538E+01  0.31046161661E+01  0.46700000000E-02 0.  1.
       1023    2    1    2    0    0  0.00000000000E+00  0.00000000000E+00  0.29112767596E+02  0.35321996754E+02  0.20002255313E+02 0.  0.
        -11    1    3    3    0    0  0.84786456037E+01 -0.53033037831E+01  0.14733783036E+02  0.17807212727E+02  0.51100000000E-03 0.  1.
         11    1    3    3    0    0 -0.84786456037E+01  0.53033037831E+01  0.14378984560E+02  0.17514784027E+02  0.51100000000E-03 0. -1.
<mgrwt>
<rscale>  0 0.20002255E+02</rscale>
<asrwt>0</asrwt>
<pdfrwt beam="2">  1        1 0.47763304E-03 0.20002255E+02</pdfrwt>
<pdfrwt beam="1">  1       -1 0.49565201E-02 0.20002255E+02</pdfrwt>
<totfact> 0.36288706E+06</totfact>
</mgrwt>
</event>
<event>
 5    1  0.9583198E-007  0.2000042E+02  0.7818608E-02  0.1745320E+00
         -1   -1    0    0    0  501 -0.00000000000E+00  0.00000000000E+00  0.46751019544E+01  0.46751042869E+01  0.46700000000E-02 0.  1.
          1   -1    0    0  501    0  0.00000000000E+00 -0.00000000000E+00 -0.21390788298E+02  0.21390788808E+02  0.46700000000E-02 0. -1.
       1023    2    1    2    0    0  0.00000000000E+00  0.00000000000E+00 -0.16715686343E+02  0.26065893094E+02  0.20000415318E+02 0.  0.
        -11    1    3    3    0    0 -0.89903851955E+01  0.43790387442E+01 -0.84019751469E+01  0.13061247755E+02  0.51100000000E-03 0. -1.
         11    1    3    3    0    0  0.89903851955E+01 -0.43790387442E+01 -0.83137111964E+01  0.13004645339E+02  0.51100000000E-03 0.  1.
<mgrwt>
<rscale>  0 0.20000415E+02</rscale>
<asrwt>0</asrwt>
<pdfrwt beam="2">  1        1 0.32908907E-02 0.20000415E+02</pdfrwt>
<pdfrwt beam="1">  1       -1 0.71924668E-03 0.20000415E+02</pdfrwt>
<totfact> 0.39818343E+06</totfact>
</mgrwt>
</event>
<event>
 5    1  0.9583198E-007  0.2000187E+02  0.7818608E-02  0.1745291E+00
         -1   -1    0    0    0  501 -0.00000000000E+00  0.00000000000E+00  0.87511554544E+00  0.87512800594E+00  0.46700000000E-02 0. -1.
          1   -1    0    0  501    0  0.00000000000E+00 -0.00000000000E+00 -0.11429118657E+03  0.11429118666E+03  0.46700000000E-02 0.  1.
       1023    2    1    2    0    0  0.00000000000E+00  0.00000000000E+00 -0.11341607102E+03  0.11516631467E+03  0.20001871620E+02 0.  0.
        -11    1    3    3    0    0 -0.28312312331E+01 -0.95918086839E+01 -0.56749832366E+02  0.57624318980E+02  0.51100000000E-03 0.  1.
         11    1    3    3    0    0  0.28312312331E+01  0.95918086839E+01 -0.56666238656E+02  0.57541995688E+02  0.51100000000E-03 0. -1.
<mgrwt>
<rscale>  0 0.20001872E+02</rscale>
<asrwt>0</asrwt>
<pdfrwt beam="2">  1        1 0.17583249E-01 0.20001872E+02</pdfrwt>
<pdfrwt beam="1">  1       -1 0.13463422E-03 0.20001872E+02</pdfrwt>
<totfact> 0.45028518E+06</totfact>
</mgrwt>
</event>
<event>
 5    1  0.9583198E-007  0.2000713E+02  0.7818608E-02  0.1745186E+00
          1   -1    0    0  501    0  0.00000000000E+00  0.00000000000E+00  0.20655983876E+01  0.20656036666E+01  0.46700000000E-02 0. -1.
         -1   -1    0    0    0  501 -0.00000000000E+00 -0.00000000000E+00 -0.48446592841E+02  0.48446593066E+02  0.46700000000E-02 0.  1.
       1023    2    1    2    0    0  0.00000000000E+00  0.00000000000E+00 -0.46380994453E+02  0.50512196733E+02  0.20007133035E+02 0.  0.
        -11    1    3    3    0    0  0.64395510773E+01 -0.76536630128E+01 -0.22791567438E+02  0.24889795542E+02  0.51100000000E-03 0. -1.
         11    1    3    3    0    0 -0.64395510773E+01  0.76536630128E+01 -0.23589427015E+02  0.25622401190E+02  0.51100000000E-03 0.  1.
<mgrwt>
<rscale>  0 0.20007133E+02</rscale>
<asrwt>0</asrwt>
<pdfrwt beam="1">  1        1 0.31778483E-03 0.20007133E+02</pdfrwt>
<pdfrwt beam="2">  1       -1 0.74533215E-02 0.20007133E+02</pdfrwt>
<totfact> 0.35013361E+06</totfact>
</mgrwt>
</event>
<event>
 5    1  0.9583198E-007  0.2000025E+02  0.7818608E-02  0.1745323E+00
         -1   -1    0    0    0  501 -0.00000000000E+00  0.00000000000E+00  0.64592384287E+02  0.64592384456E+02  0.46700000000E-02 0.  1.
          1   -1    0    0  501    0  0.00000000000E+00 -0.00000000000E+00 -0.15482052742E+01  0.15482123175E+01  0.46700000000E-02 0. -1.
       1023    2    1    2    0    0  0.00000000000E+00  0.00000000000E+00  0.63044179013E+02  0.66140596774E+02  0.20000250852E+02 0.  0.
        -11    1    3    3    0    0 -0.26526597181E+01 -0.96418560051E+01  0.31597316707E+02  0.33142003774E+02  0.51100000000E-03 0.  1.
         11    1    3    3    0    0  0.26526597181E+01  0.96418560051E+01  0.31446862306E+02  0.32998593000E+02  0.51100000000E-03 0. -1.
<mgrwt>
<rscale>  0 0.20000251E+02</rscale>
<asrwt>0</asrwt>
<pdfrwt beam="2">  1        1 0.23818598E-03 0.20000251E+02</pdfrwt>
<pdfrwt beam="1">  1       -1 0.99372904E-02 0.20000251E+02</pdfrwt>
<totfact> 0.33942156E+06</totfact>
</mgrwt>
</event>
<event>
 5    1  0.9583198E-007  0.2000188E+02  0.7818608E-02  0.1745291E+00
          1   -1    0    0  501    0  0.00000000000E+00  0.00000000000E+00  0.21093424122E+01  0.21093475818E+01  0.46700000000E-02 0.  1.
         -1   -1    0    0    0  501 -0.00000000000E+00 -0.00000000000E+00 -0.47416988415E+02  0.47416988645E+02  0.46700000000E-02 0. -1.
       1023    2    1    2    0    0  0.00000000000E+00  0.00000000000E+00 -0.45307646003E+02  0.49526336227E+02  0.20001879755E+02 0.  0.
        -11    1    3    3    0    0  0.46957655924E+01 -0.88299816261E+01 -0.22646753216E+02  0.24756700538E+02  0.51100000000E-03 0. -1.
         11    1    3    3    0    0 -0.46957655924E+01  0.88299816261E+01 -0.22660892786E+02  0.24769635689E+02  0.51100000000E-03 0.  1.
<mgrwt>
<rscale>  0 0.20001880E+02</rscale>
<asrwt>0</asrwt>
<pdfrwt beam="1">  1        1 0.32451467E-03 0.20001880E+02</pdfrwt>
<pdfrwt beam="2">  1       -1 0.72949209E-02 0.20001880E+02</pdfrwt>
<totfact> 0.35108025E+06</totfact>
</mgrwt>
</event>
<event>
 5    1  0.1085532E-006  0.2000114E+02  0.7818608E-02  0.1745305E+00
         -1   -1    0    0    0  501 -0.00000000000E+00  0.00000000000E+00  0.92544876101E+00  0.92546054381E+00  0.46700000000E-02 0. -1.
          1   -1    0    0  501    0  0.00000000000E+00 -0.00000000000E+00 -0.10806732493E+03  0.10806732503E+03  0.46700000000E-02 0.  1.
       1023    2    1    2    0    0  0.00000000000E+00  0.00000000000E+00 -0.10714187617E+03  0.10899278557E+03  0.20001141925E+02 0.  0.
        -11    1    3    3    0    0  0.61070701360E+01  0.79189749416E+01 -0.53187561354E+02  0.54119526539E+02  0.51100000000E-03 0. -1.
         11    1    3    3    0    0 -0.61070701360E+01 -0.79189749416E+01 -0.53954314814E+02  0.54873259035E+02  0.51100000000E-03 0.  1.
<mgrwt>
<rscale>  0 0.20001142E+02</rscale>
<asrwt>0</asrwt>
<pdfrwt beam="2">  1        1 0.16625733E-01 0.20001142E+02</pdfrwt>
<pdfrwt beam="1">  1       -1 0.14237773E-03 0.20001142E+02</pdfrwt>
<totfact> 0.44741018E+06</totfact>
</mgrwt>
</event>
<event>
 5    1  0.9583198E-007  0.2000045E+02  0.7818608E-02  0.1745319E+00
          1   -1    0    0  501    0  0.00000000000E+00  0.00000000000E+00  0.53110334806E+01  0.53110355338E+01  0.46700000000E-02 0.  1.
         -1   -1    0    0    0  501 -0.00000000000E+00 -0.00000000000E+00 -0.18829565245E+02  0.18829565824E+02  0.46700000000E-02 0. -1.
       1023    2    1    2    0    0  0.00000000000E+00  0.00000000000E+00 -0.13518531764E+02  0.24140601357E+02  0.20000448316E+02 0.  0.
        -11    1    3    3    0    0 -0.90190307736E+01 -0.43197925079E+01 -0.67966546247E+01  0.12091238057E+02  0.51100000000E-03 0.  1.
         11    1    3    3    0    0  0.90190307736E+01  0.43197925079E+01 -0.67218771392E+01  0.12049363300E+02  0.51100000000E-03 0. -1.
<mgrwt>
<rscale>  0 0.20000448E+02</rscale>
<asrwt>0</asrwt>
<pdfrwt beam="1">  1        1 0.81708229E-03 0.20000448E+02</pdfrwt>
<pdfrwt beam="2">  1       -1 0.28968564E-02 0.20000448E+02</pdfrwt>
<totfact> 0.37535681E+06</totfact>
</mgrwt>
</event>
<event>
 5    1  0.9583198E-007  0.2000071E+02  0.7818608E-02  0.1745314E+00
         -1   -1    0    0    0  501 -0.00000000000E+00  0.00000000000E+00  0.53352135663E+02  0.53352135867E+02  0.46700000000E-02 0.  1.
          1   -1    0    0  501    0  0.00000000000E+00 -0.00000000000E+00 -0.18744682716E+01  0.18744740889E+01  0.46700000000E-02 0. -1.
       1023    2    1    2    0    0  0.00000000000E+00  0.00000000000E+00  0.51477667391E+02  0.55226609956E+02  0.20000705168E+02 0.  0.
        -11    1    3    3    0    0  0.96246597827E+01 -0.27152596877E+01  0.25687886479E+02  0.27565816206E+02  0.51100000000E-03 0.  1.
         11    1    3    3    0    0 -0.96246597827E+01  0.27152596877E+01  0.25789780912E+02  0.27660793750E+02  0.51100000000E-03 0. -1.
<mgrwt>
<rscale>  0 0.20000705E+02</rscale>
<asrwt>0</asrwt>
<pdfrwt beam="2">  1        1 0.28838019E-03 0.20000705E+02</pdfrwt>
<pdfrwt beam="1">  1       -1 0.82080216E-02 0.20000705E+02</pdfrwt>
<totfact> 0.34691354E+06</totfact>
</mgrwt>
</event>
<event>
 5    1  0.9583198E-007  0.2000015E+02  0.7818608E-02  0.1745325E+00
         -1   -1    0    0    0  501 -0.00000000000E+00  0.00000000000E+00  0.26383568767E+01  0.26383610097E+01  0.46700000000E-02 0. -1.
          1   -1    0    0  501    0  0.00000000000E+00 -0.00000000000E+00 -0.37902911498E+02  0.37902911786E+02  0.46700000000E-02 0.  1.
       1023    2    1    2    0    0  0.00000000000E+00  0.00000000000E+00 -0.35264554621E+02  0.40541272795E+02  0.20000149680E+02 0.  0.
        -11    1    3    3    0    0  0.71159530539E+01  0.70259855236E+01 -0.17663424228E+02  0.20297729335E+02  0.51100000000E-03 0. -1.
         11    1    3    3    0    0 -0.71159530539E+01 -0.70259855236E+01 -0.17601130393E+02  0.20243543460E+02  0.51100000000E-03 0.  1.
<mgrwt>
<rscale>  0 0.20000150E+02</rscale>
<asrwt>0</asrwt>
<pdfrwt beam="2">  1        1 0.58312171E-02 0.20000150E+02</pdfrwt>
<pdfrwt beam="1">  1       -1 0.40590142E-03 0.20000150E+02</pdfrwt>
<totfact> 0.40977516E+06</totfact>
</mgrwt>
</event>
<event>
 5    1  0.9583198E-007  0.2000461E+02  0.7818608E-02  0.1745236E+00
         -1   -1    0    0    0  501 -0.00000000000E+00  0.00000000000E+00  0.88133207957E+01  0.88133220330E+01  0.46700000000E-02 0.  1.
          1   -1    0    0  501    0  0.00000000000E+00 -0.00000000000E+00 -0.11351686002E+02  0.11351686962E+02  0.46700000000E-02 0. -1.
       1023    2    1    2    0    0  0.00000000000E+00  0.00000000000E+00 -0.25383652060E+01  0.20165008995E+02  0.20004606716E+02 0.  0.
        -11    1    3    3    0    0  0.45988229925E+01  0.88823855320E+01 -0.12578430173E+01  0.10081077074E+02  0.51100000000E-03 0.  1.
         11    1    3    3    0    0 -0.45988229925E+01 -0.88823855320E+01 -0.12805221887E+01  0.10083931921E+02  0.51100000000E-03 0. -1.
<mgrwt>
<rscale>  0 0.20004607E+02</rscale>
<asrwt>0</asrwt>
<pdfrwt beam="2">  1        1 0.17464134E-02 0.20004607E+02</pdfrwt>
<pdfrwt beam="1">  1       -1 0.13558957E-02 0.20004607E+02</pdfrwt>
<totfact> 0.38798590E+06</totfact>
</mgrwt>
</event>
<event>
 5    1  0.9583198E-007  0.2000797E+02  0.7818608E-02  0.1745170E+00
          1   -1    0    0  501    0  0.00000000000E+00  0.00000000000E+00  0.74076205073E+02  0.74076205220E+02  0.46700000000E-02 0. -1.
         -1   -1    0    0    0  501 -0.00000000000E+00 -0.00000000000E+00 -0.13510325212E+01  0.13510405924E+01  0.46700000000E-02 0.  1.
       1023    2    1    2    0    0  0.00000000000E+00  0.00000000000E+00  0.72725172552E+02  0.75427245813E+02  0.20007965618E+02 0.  0.
        -11    1    3    3    0    0  0.42297492963E+01 -0.90655468133E+01  0.36622505897E+02  0.37964231278E+02  0.51100000000E-03 0. -1.
         11    1    3    3    0    0 -0.42297492963E+01  0.90655468133E+01  0.36102666655E+02  0.37463014534E+02  0.51100000000E-03 0.  1.
<mgrwt>
<rscale>  0 0.20007966E+02</rscale>
<asrwt>0</asrwt>
<pdfrwt beam="1">  1        1 0.11396339E-01 0.20007966E+02</pdfrwt>
<pdfrwt beam="2">  1       -1 0.20785181E-03 0.20007966E+02</pdfrwt>
<totfact> 0.43012582E+06</totfact>
</mgrwt>
</event>
<event>
 5    1  0.9688816E-007  0.2000048E+02  0.7818608E-02  0.1745319E+00
         -1   -1    0    0    0  501 -0.00000000000E+00  0.00000000000E+00  0.29173394858E+01  0.29173432236E+01  0.46700000000E-02 0.  1.
          1   -1    0    0  501    0  0.00000000000E+00 -0.00000000000E+00 -0.34279422692E+02  0.34279423010E+02  0.46700000000E-02 0. -1.
       1023    2    1    2    0    0  0.00000000000E+00  0.00000000000E+00 -0.31362083206E+02  0.37196766234E+02  0.20000478875E+02 0.  0.
        -11    1    3    3    0    0  0.49412211337E+00  0.99878328870E+01 -0.15566003141E+02  0.18501389583E+02  0.51100000000E-03 0. -1.
         11    1    3    3    0    0 -0.49412211337E+00 -0.99878328870E+01 -0.15796080066E+02  0.18695376651E+02  0.51100000000E-03 0.  1.
<mgrwt>
<rscale>  0 0.20000479E+02</rscale>
<asrwt>0</asrwt>
<pdfrwt beam="2">  1        1 0.52737574E-02 0.20000479E+02</pdfrwt>
<pdfrwt beam="1">  1       -1 0.44882180E-03 0.20000479E+02</pdfrwt>
<totfact> 0.40741976E+06</totfact>
</mgrwt>
</event>
<event>
 5    1  0.9583198E-007  0.2000088E+02  0.7818608E-02  0.1745311E+00
         -1   -1    0    0    0  501 -0.00000000000E+00  0.00000000000E+00  0.85908970196E+02  0.85908970323E+02  0.46700000000E-02 0.  1.
          1   -1    0    0  501    0  0.00000000000E+00 -0.00000000000E+00 -0.11641199581E+01  0.11641293252E+01  0.46700000000E-02 0. -1.
       1023    2    1    2    0    0  0.00000000000E+00  0.00000000000E+00  0.84744850238E+02  0.87073099648E+02  0.20000875993E+02 0.  0.
        -11    1    3    3    0    0 -0.34584321844E+01 -0.93833576723E+01  0.42479548870E+02  0.43640809191E+02  0.51100000000E-03 0. -1.
         11    1    3    3    0    0  0.34584321844E+01  0.93833576723E+01  0.42265301368E+02  0.43432290457E+02  0.51100000000E-03 0.  1.
<mgrwt>
<rscale>  0 0.20000876E+02</rscale>
<asrwt>0</asrwt>
<pdfrwt beam="2">  1        1 0.17909611E-03 0.20000876E+02</pdfrwt>
<pdfrwt beam="1">  1       -1 0.13216766E-01 0.20000876E+02</pdfrwt>
<totfact> 0.32646358E+06</totfact>
</mgrwt>
</event>
<event>
 5    1  0.9993528E-007  0.2000147E+02  0.7818608E-02  0.1745299E+00
         -1   -1    0    0    0  501 -0.00000000000E+00  0.00000000000E+00  0.16391543055E+01  0.16391609580E+01  0.46700000000E-02 0.  1.
          1   -1    0    0  501    0  0.00000000000E+00 -0.00000000000E+00 -0.61015907401E+02  0.61015907580E+02  0.46700000000E-02 0. -1.
       1023    2    1    2    0    0  0.00000000000E+00  0.00000000000E+00 -0.59376753096E+02  0.62655068538E+02  0.20001470079E+02 0.  0.
        -11    1    3    3    0    0  0.54103249100E+01 -0.84105554342E+01 -0.29453067484E+02  0.31104537335E+02  0.51100000000E-03 0.  1.
         11    1    3    3    0    0 -0.54103249100E+01  0.84105554342E+01 -0.29923685612E+02  0.31550531203E+02  0.51100000000E-03 0. -1.
<mgrwt>
<rscale>  0 0.20001470E+02</rscale>
<asrwt>0</asrwt>
<pdfrwt beam="2">  1        1 0.93870615E-02 0.20001470E+02</pdfrwt>
<pdfrwt beam="1">  1       -1 0.25217816E-03 0.20001470E+02</pdfrwt>
<totfact> 0.42336377E+06</totfact>
</mgrwt>
</event>
<event>
 5    1  0.9709119E-007  0.2000130E+02  0.7818608E-02  0.1745302E+00
         -1   -1    0    0    0  501 -0.00000000000E+00  0.00000000000E+00  0.55561324521E+01  0.55561344147E+01  0.46700000000E-02 0.  1.
          1   -1    0    0  501    0  0.00000000000E+00 -0.00000000000E+00 -0.18000469875E+02  0.18000470481E+02  0.46700000000E-02 0. -1.
       1023    2    1    2    0    0  0.00000000000E+00  0.00000000000E+00 -0.12444337423E+02  0.23556604896E+02  0.20001302465E+02 0.  0.
        -11    1    3    3    0    0  0.87325258244E+01  0.48731357563E+01 -0.63311694264E+01  0.11835884671E+02  0.51100000000E-03 0. -1.
         11    1    3    3    0    0 -0.87325258244E+01 -0.48731357563E+01 -0.61131679967E+01  0.11720720225E+02  0.51100000000E-03 0.  1.
<mgrwt>
<rscale>  0 0.20001302E+02</rscale>
<asrwt>0</asrwt>
<pdfrwt beam="2">  1        1 0.27693032E-02 0.20001302E+02</pdfrwt>
<pdfrwt beam="1">  1       -1 0.85478981E-03 0.20001302E+02</pdfrwt>
<totfact> 0.39526738E+06</totfact>
</mgrwt>
</event>
<event>
 5    1  0.9720787E-007  0.2000077E+02  0.7818608E-02  0.1745313E+00
          1   -1    0    0  501    0  0.00000000000E+00  0.00000000000E+00  0.12209171649E+02  0.12209172543E+02  0.46700000000E-02 0. -1.
         -1   -1    0    0    0  501 -0.00000000000E+00 -0.00000000000E+00 -0.81911963350E+01  0.81911976663E+01  0.46700000000E-02 0.  1.
       1023    2    1    2    0    0  0.00000000000E+00  0.00000000000E+00  0.40179753143E+01  0.20400370209E+02  0.20000774461E+02 0.  0.
        -11    1    3    3    0    0  0.10666961623E+01  0.99431276892E+01  0.19435533947E+01  0.10187297434E+02  0.51100000000E-03 0. -1.
         11    1    3    3    0    0 -0.10666961623E+01 -0.99431276892E+01  0.20744219196E+01  0.10213072775E+02  0.51100000000E-03 0.  1.
<mgrwt>
<rscale>  0 0.20000774E+02</rscale>
<asrwt>0</asrwt>
<pdfrwt beam="1">  1        1 0.18783343E-02 0.20000774E+02</pdfrwt>
<pdfrwt beam="2">  1       -1 0.12601842E-02 0.20000774E+02</pdfrwt>
<totfact> 0.38926353E+06</totfact>
</mgrwt>
</event>
<event>
 5    1  0.9583198E-007  0.2000081E+02  0.7818608E-02  0.1745312E+00
          1   -1    0    0  501    0  0.00000000000E+00  0.00000000000E+00  0.34116065946E+01  0.34116097909E+01  0.46700000000E-02 0.  1.
         -1   -1    0    0    0  501 -0.00000000000E+00 -0.00000000000E+00 -0.29314045960E+02  0.29314046332E+02  0.46700000000E-02 0. -1.
       1023    2    1    2    0    0  0.00000000000E+00  0.00000000000E+00 -0.25902439366E+02  0.32725656123E+02  0.20000805074E+02 0.  0.
        -11    1    3    3    0    0  0.57914491606E+01  0.81527146676E+01 -0.12984383168E+02  0.16389077044E+02  0.51100000000E-03 0.  1.
         11    1    3    3    0    0 -0.57914491606E+01 -0.81527146676E+01 -0.12918056198E+02  0.16336579080E+02  0.51100000000E-03 0. -1.
<mgrwt>
<rscale>  0 0.20000805E+02</rscale>
<asrwt>0</asrwt>
<pdfrwt beam="1">  1        1 0.52486285E-03 0.20000805E+02</pdfrwt>
<pdfrwt beam="2">  1       -1 0.45098533E-02 0.20000805E+02</pdfrwt>
<totfact> 0.36542749E+06</totfact>
</mgrwt>
</event>
<event>
 5    1  0.9583198E-007  0.2000005E+02  0.7818608E-02  0.1745327E+00
         -1   -1    0    0    0  501 -0.00000000000E+00  0.00000000000E+00  0.11769342553E+03  0.11769342562E+03  0.46700000000E-02 0. -1.
          1   -1    0    0  501    0  0.00000000000E+00 -0.00000000000E+00 -0.84966272988E+00  0.84967556364E+00  0.46700000000E-02 0.  1.
       1023    2    1    2    0    0  0.00000000000E+00  0.00000000000E+00  0.11684376280E+03  0.11854310118E+03  0.20000048339E+02 0.  0.
        -11    1    3    3    0    0  0.85364651781E+01 -0.52085623090E+01  0.58355861916E+02  0.59206477511E+02  0.51100000000E-03 0.  1.
         11    1    3    3    0    0 -0.85364651781E+01  0.52085623090E+01  0.58487900881E+02  0.59336623672E+02  0.51100000000E-03 0. -1.
<mgrwt>
<rscale>  0 0.20000048E+02</rscale>
<asrwt>0</asrwt>
<pdfrwt beam="2">  1        1 0.13071833E-03 0.20000048E+02</pdfrwt>
<pdfrwt beam="1">  1       -1 0.18106682E-01 0.20000048E+02</pdfrwt>
<totfact> 0.30951094E+06</totfact>
</mgrwt>
</event>
<event>
 5    1  0.9583198E-007  0.2000136E+02  0.7818608E-02  0.1745301E+00
          1   -1    0    0  501    0  0.00000000000E+00  0.00000000000E+00  0.16531738510E+01  0.16531804470E+01  0.46700000000E-02 0. -1.
         -1   -1    0    0    0  501 -0.00000000000E+00 -0.00000000000E+00 -0.60497799463E+02  0.60497799644E+02  0.46700000000E-02 0.  1.
       1023    2    1    2    0    0  0.00000000000E+00  0.00000000000E+00 -0.58844625612E+02  0.62150980091E+02  0.20001359023E+02 0.  0.
        -11    1    3    3    0    0  0.88184137912E+01  0.47155584655E+01 -0.29072450890E+02  0.30744240345E+02  0.51100000000E-03 0. -1.
         11    1    3    3    0    0 -0.88184137912E+01 -0.47155584655E+01 -0.29772174723E+02  0.31406739745E+02  0.51100000000E-03 0.  1.
<mgrwt>
<rscale>  0 0.20001359E+02</rscale>
<asrwt>0</asrwt>
<pdfrwt beam="1">  1        1 0.25433501E-03 0.20001359E+02</pdfrwt>
<pdfrwt beam="2">  1       -1 0.93073526E-02 0.20001359E+02</pdfrwt>
<totfact> 0.34205128E+06</totfact>
</mgrwt>
</event>
<event>
 5    1  0.9583198E-007  0.2000086E+02  0.7818608E-02  0.1745311E+00
         -1   -1    0    0    0  501 -0.00000000000E+00  0.00000000000E+00  0.88943153669E+01  0.88943165929E+01  0.46700000000E-02 0. -1.
          1   -1    0    0  501    0  0.00000000000E+00 -0.00000000000E+00 -0.11244100551E+02  0.11244101521E+02  0.46700000000E-02 0.  1.
       1023    2    1    2    0    0  0.00000000000E+00  0.00000000000E+00 -0.23497851844E+01  0.20138418114E+02  0.20000859825E+02 0.  0.
        -11    1    3    3    0    0  0.57922750643E+01  0.81521811243E+01 -0.11653052934E+01  0.10068090395E+02  0.51100000000E-03 0. -1.
         11    1    3    3    0    0 -0.57922750643E+01 -0.81521811243E+01 -0.11844798910E+01  0.10070327719E+02  0.51100000000E-03 0.  1.
<mgrwt>
<rscale>  0 0.20000860E+02</rscale>
<asrwt>0</asrwt>
<pdfrwt beam="2">  1        1 0.17298618E-02 0.20000860E+02</pdfrwt>
<pdfrwt beam="1">  1       -1 0.13683564E-02 0.20000860E+02</pdfrwt>
<totfact> 0.38800487E+06</totfact>
</mgrwt>
</event>
<event>
 5    1  0.9583198E-007  0.2000063E+02  0.7818608E-02  0.1745316E+00
         -1   -1    0    0    0  501 -0.00000000000E+00  0.00000000000E+00  0.73354983236E+01  0.73354998102E+01  0.46700000000E-02 0. -1.
          1   -1    0    0  501    0  0.00000000000E+00 -0.00000000000E+00 -0.13633195345E+02  0.13633196145E+02  0.46700000000E-02 0.  1.
       1023    2    1    2    0    0  0.00000000000E+00  0.00000000000E+00 -0.62976970218E+01  0.20968695955E+02  0.20000630547E+02 0.  0.
        -11    1    3    3    0    0 -0.98803538063E+01  0.15442120801E+01 -0.31300056728E+01  0.10478688757E+02  0.51100000000E-03 0.  1.
         11    1    3    3    0    0  0.98803538063E+01 -0.15442120801E+01 -0.31676913490E+01  0.10490007199E+02  0.51100000000E-03 0. -1.
<mgrwt>
<rscale>  0 0.20000631E+02</rscale>
<asrwt>0</asrwt>
<pdfrwt beam="2">  1        1 0.20974148E-02 0.20000631E+02</pdfrwt>
<pdfrwt beam="1">  1       -1 0.11285384E-02 0.20000631E+02</pdfrwt>
<totfact> 0.39095114E+06</totfact>
</mgrwt>
</event>
<event>
 5    1  0.9583198E-007  0.2000557E+02  0.7818608E-02  0.1745217E+00
         -1   -1    0    0    0  501 -0.00000000000E+00  0.00000000000E+00  0.11619524084E+01  0.11619617929E+01  0.46700000000E-02 0.  1.
          1   -1    0    0  501    0  0.00000000000E+00 -0.00000000000E+00 -0.86109655941E+02  0.86109656067E+02  0.46700000000E-02 0. -1.
       1023    2    1    2    0    0  0.00000000000E+00  0.00000000000E+00 -0.84947703532E+02  0.87271617860E+02  0.20005572937E+02 0.  0.
        -11    1    3    3    0    0 -0.76027180882E+01 -0.64987821612E+01 -0.43094550033E+02  0.44239978919E+02  0.51100000000E-03 0. -1.
         11    1    3    3    0    0  0.76027180882E+01  0.64987821612E+01 -0.41853153499E+02  0.43031638942E+02  0.51100000000E-03 0.  1.
<mgrwt>
<rscale>  0 0.20005573E+02</rscale>
<asrwt>0</asrwt>
<pdfrwt beam="2">  1        1 0.13247635E-01 0.20005573E+02</pdfrwt>
<pdfrwt beam="1">  1       -1 0.17876271E-03 0.20005573E+02</pdfrwt>
<totfact> 0.43644922E+06</totfact>
</mgrwt>
</event>
<event>
 5    1  0.9633190E-007  0.2000071E+02  0.7818608E-02  0.1745314E+00
          1   -1    0    0  501    0  0.00000000000E+00  0.00000000000E+00  0.66137383991E+01  0.66137400479E+01  0.46700000000E-02 0.  1.
         -1   -1    0    0    0  501 -0.00000000000E+00 -0.00000000000E+00 -0.15121111524E+02  0.15121112245E+02  0.46700000000E-02 0. -1.
       1023    2    1    2    0    0  0.00000000000E+00  0.00000000000E+00 -0.85073731247E+01  0.21734852293E+02  0.20000710155E+02 0.  0.
        -11    1    3    3    0    0 -0.86219880120E+01 -0.50657113515E+01 -0.41628141909E+01  0.10831857229E+02  0.51100000000E-03 0.  1.
         11    1    3    3    0    0  0.86219880120E+01  0.50657113515E+01 -0.43445589338E+01  0.10902995064E+02  0.51100000000E-03 0. -1.
<mgrwt>
<rscale>  0 0.20000710E+02</rscale>
<asrwt>0</asrwt>
<pdfrwt beam="1">  1        1 0.10174984E-02 0.20000710E+02</pdfrwt>
<pdfrwt beam="2">  1       -1 0.23263250E-02 0.20000710E+02</pdfrwt>
<totfact> 0.37942718E+06</totfact>
</mgrwt>
</event>
<event>
 5    1  0.9583198E-007  0.2000093E+02  0.7818608E-02  0.1745310E+00
         -1   -1    0    0    0  501 -0.00000000000E+00  0.00000000000E+00  0.11408095702E+02  0.11408096658E+02  0.46700000000E-02 0.  1.
          1   -1    0    0  501    0  0.00000000000E+00 -0.00000000000E+00 -0.87665141558E+01  0.87665153997E+01  0.46700000000E-02 0. -1.
       1023    2    1    2    0    0  0.00000000000E+00  0.00000000000E+00  0.26415815462E+01  0.20174612058E+02  0.20000925444E+02 0.  0.
        -11    1    3    3    0    0  0.98835518920E+01  0.15231513855E+01  0.13896939020E+01  0.10096327924E+02  0.51100000000E-03 0. -1.
         11    1    3    3    0    0 -0.98835518920E+01 -0.15231513855E+01  0.12518876442E+01  0.10078284134E+02  0.51100000000E-03 0.  1.
<mgrwt>
<rscale>  0 0.20000925E+02</rscale>
<asrwt>0</asrwt>
<pdfrwt beam="2">  1        1 0.13486947E-02 0.20000925E+02</pdfrwt>
<pdfrwt beam="1">  1       -1 0.17550918E-02 0.20000925E+02</pdfrwt>
<totfact> 0.38413197E+06</totfact>
</mgrwt>
</event>
<event>
 5    1  0.9583198E-007  0.2001219E+02  0.7818608E-02  0.1745086E+00
         -1   -1    0    0    0  501 -0.00000000000E+00  0.00000000000E+00  0.28990245642E+02  0.28990246018E+02  0.46700000000E-02 0.  1.
          1   -1    0    0  501    0  0.00000000000E+00 -0.00000000000E+00 -0.34536410310E+01  0.34536441884E+01  0.46700000000E-02 0. -1.
       1023    2    1    2    0    0  0.00000000000E+00  0.00000000000E+00  0.25536604611E+02  0.32443890207E+02  0.20012192201E+02 0.  0.
        -11    1    3    3    0    0  0.12869311537E+01  0.99189133529E+01  0.13229492055E+02  0.16584947820E+02  0.51100000000E-03 0. -1.
         11    1    3    3    0    0 -0.12869311537E+01 -0.99189133529E+01  0.12307112556E+02  0.15858942387E+02  0.51100000000E-03 0.  1.
<mgrwt>
<rscale>  0 0.20012192E+02</rscale>
<asrwt>0</asrwt>
<pdfrwt beam="2">  1        1 0.53132963E-03 0.20012192E+02</pdfrwt>
<pdfrwt beam="1">  1       -1 0.44600383E-02 0.20012192E+02</pdfrwt>
<totfact> 0.36525254E+06</totfact>
</mgrwt>
</event>
<event>
 4    1  0.9583198E-007  0.2001768E+02  0.7818608E-02  0.1744977E+00
          1   -1    0    0  501    0  0.00000000000E+00  0.00000000000E+00  0.85644772042E+01  0.85644784774E+01  0.46700000000E-02 0. -1.
         -1   -1    0    0    0  501 -0.00000000000E+00 -0.00000000000E+00 -0.11696780138E+02  0.11696781070E+02  0.46700000000E-02 0.  1.
        -11    1    1    2    0    0  0.41363874119E+01  0.91083887814E+01 -0.12391381486E+01  0.10080074932E+02  0.51100000000E-03 0. -1.
         11    1    1    2    0    0 -0.41363874119E+01 -0.91083887814E+01 -0.18931647847E+01  0.10181184616E+02  0.51100000000E-03 0.  1.
<mgrwt>
<rscale>  0 0.20017675E+02</rscale>
<asrwt>0</asrwt>
<pdfrwt beam="1">  1        1 0.13176120E-02 0.20017675E+02</pdfrwt>
<pdfrwt beam="2">  1       -1 0.17995048E-02 0.20017675E+02</pdfrwt>
<totfact> 0.38302919E+06</totfact>
</mgrwt>
</event>
<event>
 5    1  0.9822132E-007  0.2000233E+02  0.7818608E-02  0.1745282E+00
          1   -1    0    0  501    0  0.00000000000E+00  0.00000000000E+00  0.20914580039E+02  0.20914580560E+02  0.46700000000E-02 0.  1.
         -1   -1    0    0    0  501 -0.00000000000E+00 -0.00000000000E+00 -0.47824673245E+01  0.47824696046E+01  0.46700000000E-02 0. -1.
       1023    2    1    2    0    0  0.00000000000E+00  0.00000000000E+00  0.16132112714E+02  0.25697050165E+02  0.20002333027E+02 0.  0.
        -11    1    3    3    0    0 -0.83425471891E+01 -0.55153691623E+01  0.79670360744E+01  0.12786362058E+02  0.51100000000E-03 0. -1.
         11    1    3    3    0    0  0.83425471891E+01  0.55153691623E+01  0.81650766397E+01  0.12910688107E+02  0.51100000000E-03 0.  1.
<mgrwt>
<rscale>  0 0.20002333E+02</rscale>
<asrwt>0</asrwt>
<pdfrwt beam="1">  1        1 0.32176280E-02 0.20002333E+02</pdfrwt>
<pdfrwt beam="2">  1       -1 0.73576441E-03 0.20002333E+02</pdfrwt>
<totfact> 0.39771160E+06</totfact>
</mgrwt>
</event>
<event>
 5    1  0.9583198E-007  0.2000487E+02  0.7818608E-02  0.1745231E+00
          1   -1    0    0  501    0  0.00000000000E+00  0.00000000000E+00  0.12388262976E+01  0.12388350999E+01  0.46700000000E-02 0. -1.
         -1   -1    0    0    0  501 -0.00000000000E+00 -0.00000000000E+00 -0.80760560814E+02  0.80760560949E+02  0.46700000000E-02 0.  1.
       1023    2    1    2    0    0  0.00000000000E+00  0.00000000000E+00 -0.79521734516E+02  0.81999396048E+02  0.20004866705E+02 0.  0.
        -11    1    3    3    0    0 -0.65363075195E+01 -0.75691468469E+01 -0.40509675941E+02  0.41725880999E+02  0.51100000000E-03 0.  1.
         11    1    3    3    0    0  0.65363075195E+01  0.75691468469E+01 -0.39012058575E+02  0.40273515050E+02  0.51100000000E-03 0. -1.
<mgrwt>
<rscale>  0 0.20004867E+02</rscale>
<asrwt>0</asrwt>
<pdfrwt beam="1">  1        1 0.19058941E-03 0.20004867E+02</pdfrwt>
<pdfrwt beam="2">  1       -1 0.12424698E-01 0.20004867E+02</pdfrwt>
<totfact> 0.32930994E+06</totfact>
</mgrwt>
</event>
<event>
 5    1  0.9665760E-007  0.2000349E+02  0.7818608E-02  0.1745259E+00
         -1   -1    0    0    0  501 -0.00000000000E+00  0.00000000000E+00  0.19270028567E+01  0.19270085154E+01  0.46700000000E-02 0.  1.
          1   -1    0    0  501    0  0.00000000000E+00 -0.00000000000E+00 -0.51912078118E+02  0.51912078328E+02  0.46700000000E-02 0. -1.
       1023    2    1    2    0    0  0.00000000000E+00  0.00000000000E+00 -0.49985075261E+02  0.53839086843E+02  0.20003487777E+02 0.  0.
        -11    1    3    3    0    0 -0.21868921886E+01  0.97596856200E+01 -0.25074161507E+02  0.26995324343E+02  0.51100000000E-03 0.  1.
         11    1    3    3    0    0  0.21868921886E+01 -0.97596856200E+01 -0.24910913754E+02  0.26843762500E+02  0.51100000000E-03 0. -1.
<mgrwt>
<rscale>  0 0.20003488E+02</rscale>
<asrwt>0</asrwt>
<pdfrwt beam="2">  1        1 0.79864729E-02 0.20003488E+02</pdfrwt>
<pdfrwt beam="1">  1       -1 0.29646247E-03 0.20003488E+02</pdfrwt>
<totfact> 0.41810153E+06</totfact>
</mgrwt>
</event>
<event>
 5    1  0.9583198E-007  0.2000324E+02  0.7818608E-02  0.1745264E+00
         -1   -1    0    0    0  501 -0.00000000000E+00  0.00000000000E+00  0.40391270535E+01  0.40391297532E+01  0.46700000000E-02 0.  1.
          1   -1    0    0  501    0  0.00000000000E+00 -0.00000000000E+00 -0.24765845481E+02  0.24765845921E+02  0.46700000000E-02 0. -1.
       1023    2    1    2    0    0  0.00000000000E+00  0.00000000000E+00 -0.20726718427E+02  0.28804975674E+02  0.20003243908E+02 0.  0.
        -11    1    3    3    0    0  0.86929148136E+01  0.49462735908E+01 -0.10353069974E+02  0.14395084180E+02  0.51100000000E-03 0. -1.
         11    1    3    3    0    0 -0.86929148136E+01 -0.49462735908E+01 -0.10373648453E+02  0.14409891494E+02  0.51100000000E-03 0.  1.
<mgrwt>
<rscale>  0 0.20003244E+02</rscale>
<asrwt>0</asrwt>
<pdfrwt beam="2">  1        1 0.38101302E-02 0.20003244E+02</pdfrwt>
<pdfrwt beam="1">  1       -1 0.62140442E-03 0.20003244E+02</pdfrwt>
<totfact> 0.40067313E+06</totfact>
</mgrwt>
</event>
<event>
 5    1  0.9583198E-007  0.2000201E+02  0.7818608E-02  0.1745288E+00
         -1   -1    0    0    0  501 -0.00000000000E+00  0.00000000000E+00  0.10419588182E+02  0.10419589229E+02  0.46700000000E-02 0. -1.
          1   -1    0    0  501    0  0.00000000000E+00 -0.00000000000E+00 -0.95992370978E+01  0.95992382338E+01  0.46700000000E-02 0.  1.
       1023    2    1    2    0    0  0.00000000000E+00  0.00000000000E+00  0.82035108458E+00  0.20018827463E+02  0.20002011826E+02 0.  0.
        -11    1    3    3    0    0  0.68994070137E+01 -0.72392060658E+01  0.52071025180E+00  0.10013943331E+02  0.51100000000E-03 0. -1.
         11    1    3    3    0    0 -0.68994070137E+01  0.72392060658E+01  0.29964083278E+00  0.10004884132E+02  0.51100000000E-03 0.  1.
<mgrwt>
<rscale>  0 0.20002012E+02</rscale>
<asrwt>0</asrwt>
<pdfrwt beam="2">  1        1 0.14768059E-02 0.20002012E+02</pdfrwt>
<pdfrwt beam="1">  1       -1 0.16030137E-02 0.20002012E+02</pdfrwt>
<totfact> 0.38551561E+06</totfact>
</mgrwt>
</event>
<event>
 5    1  0.9583198E-007  0.2000042E+02  0.7818608E-02  0.1745320E+00
         -1   -1    0    0    0  501 -0.00000000000E+00  0.00000000000E+00  0.60348155529E+02  0.60348155709E+02  0.46700000000E-02 0. -1.
          1   -1    0    0  501    0  0.00000000000E+00 -0.00000000000E+00 -0.16571175602E+01  0.16571241406E+01  0.46700000000E-02 0.  1.
       1023    2    1    2    0    0  0.00000000000E+00  0.00000000000E+00  0.58691037969E+02  0.62005279850E+02  0.20000419782E+02 0.  0.
        -11    1    3    3    0    0 -0.97580424934E+01 -0.21871454082E+01  0.29452880098E+02  0.31104262484E+02  0.51100000000E-03 0.  1.
         11    1    3    3    0    0  0.97580424934E+01  0.21871454082E+01  0.29238157871E+02  0.30901017366E+02  0.51100000000E-03 0. -1.
<mgrwt>
<rscale>  0 0.20000420E+02</rscale>
<asrwt>0</asrwt>
<pdfrwt beam="2">  1        1 0.25494169E-03 0.20000420E+02</pdfrwt>
<pdfrwt beam="1">  1       -1 0.92843319E-02 0.20000420E+02</pdfrwt>
<totfact> 0.34218552E+06</totfact>
</mgrwt>
</event>
<event>
 5    1  0.9583198E-007  0.2000798E+02  0.7818608E-02  0.1745169E+00
          1   -1    0    0  501    0  0.00000000000E+00  0.00000000000E+00  0.19922116084E+01  0.19922170819E+01  0.46700000000E-02 0.  1.
         -1   -1    0    0    0  501 -0.00000000000E+00 -0.00000000000E+00 -0.50235479957E+02  0.50235480174E+02  0.46700000000E-02 0. -1.
       1023    2    1    2    0    0  0.00000000000E+00  0.00000000000E+00 -0.48243268349E+02  0.52227697256E+02  0.20007983899E+02 0.  0.
        -11    1    3    3    0    0 -0.47465810733E+01 -0.88053364722E+01 -0.23792768369E+02  0.25810071855E+02  0.51100000000E-03 0.  1.
         11    1    3    3    0    0  0.47465810733E+01  0.88053364722E+01 -0.24450499980E+02  0.26417625400E+02  0.51100000000E-03 0. -1.
<mgrwt>
<rscale>  0 0.20007984E+02</rscale>
<asrwt>0</asrwt>
<pdfrwt beam="1">  1        1 0.30649457E-03 0.20007984E+02</pdfrwt>
<pdfrwt beam="2">  1       -1 0.77285349E-02 0.20007984E+02</pdfrwt>
<totfact> 0.34882250E+06</totfact>
</mgrwt>
</event>
<event>
 5    1  0.9583198E-007  0.2000016E+02  0.7818608E-02  0.1745325E+00
          1   -1    0    0  501    0  0.00000000000E+00  0.00000000000E+00  0.42993888624E+02  0.42993888878E+02  0.46700000000E-02 0.  1.
         -1   -1    0    0    0  501 -0.00000000000E+00 -0.00000000000E+00 -0.23259470684E+01  0.23259517566E+01  0.46700000000E-02 0. -1.
       1023    2    1    2    0    0  0.00000000000E+00  0.00000000000E+00  0.40667941556E+02  0.45319840635E+02  0.20000162118E+02 0.  0.
        -11    1    3    3    0    0 -0.93747884945E+01 -0.34806400907E+01  0.20357318870E+02  0.22680871821E+02  0.51100000000E-03 0. -1.
         11    1    3    3    0    0  0.93747884945E+01  0.34806400907E+01  0.20310622686E+02  0.22638968813E+02  0.51100000000E-03 0.  1.
<mgrwt>
<rscale>  0 0.20000162E+02</rscale>
<asrwt>0</asrwt>
<pdfrwt beam="1">  1        1 0.66144443E-02 0.20000162E+02</pdfrwt>
<pdfrwt beam="2">  1       -1 0.35783842E-03 0.20000162E+02</pdfrwt>
<totfact> 0.41294764E+06</totfact>
</mgrwt>
</event>
<event>
 4    1  0.9583198E-007  0.2003463E+02  0.7818608E-02  0.1744640E+00
         -1   -1    0    0    0  501 -0.00000000000E+00  0.00000000000E+00  0.85610293261E+00  0.85611566983E+00  0.46700000000E-02 0.  1.
          1   -1    0    0  501    0  0.00000000000E+00 -0.00000000000E+00 -0.11721235759E+03  0.11721235768E+03  0.46700000000E-02 0. -1.
        -11    1    1    2    0    0 -0.68029910323E+01 -0.73500997746E+01 -0.59385109167E+02  0.60223714970E+02  0.51100000000E-03 0.  1.
         11    1    1    2    0    0  0.68029910323E+01  0.73500997746E+01 -0.56971145486E+02  0.57844758379E+02  0.51100000000E-03 0. -1.
<mgrwt>
<rscale>  0 0.20034630E+02</rscale>
<asrwt>0</asrwt>
<pdfrwt beam="2">  1        1 0.18032659E-01 0.20034630E+02</pdfrwt>
<pdfrwt beam="1">  1       -1 0.13170922E-03 0.20034630E+02</pdfrwt>
<totfact> 0.45000830E+06</totfact>
</mgrwt>
</event>
<event>
 5    1  0.9969393E-007  0.2000069E+02  0.7818608E-02  0.1745314E+00
         -1   -1    0    0    0  501 -0.00000000000E+00  0.00000000000E+00  0.14165192529E+01  0.14165269510E+01  0.46700000000E-02 0.  1.
          1   -1    0    0  501    0  0.00000000000E+00 -0.00000000000E+00 -0.70600246832E+02  0.70600246987E+02  0.46700000000E-02 0. -1.
       1023    2    1    2    0    0  0.00000000000E+00  0.00000000000E+00 -0.69183727579E+02  0.72016773938E+02  0.20000689154E+02 0.  0.
        -11    1    3    3    0    0 -0.96911730222E+01 -0.24664691482E+01 -0.34835725219E+02  0.36242655207E+02  0.51100000000E-03 0.  1.
         11    1    3    3    0    0  0.96911730222E+01  0.24664691482E+01 -0.34348002360E+02  0.35774118731E+02  0.51100000000E-03 0. -1.
<mgrwt>
<rscale>  0 0.20000689E+02</rscale>
<asrwt>0</asrwt>
<pdfrwt beam="2">  1        1 0.10861574E-01 0.20000689E+02</pdfrwt>
<pdfrwt beam="1">  1       -1 0.21792670E-03 0.20000689E+02</pdfrwt>
<totfact> 0.42862755E+06</totfact>
</mgrwt>
</event>
<event>
 5    1  0.9583198E-007  0.2000033E+02  0.7818608E-02  0.1745322E+00
          1   -1    0    0  501    0  0.00000000000E+00  0.00000000000E+00  0.88926967974E+00  0.88928194191E+00  0.46700000000E-02 0. -1.
         -1   -1    0    0    0  501 -0.00000000000E+00 -0.00000000000E+00 -0.11245472394E+03  0.11245472404E+03  0.46700000000E-02 0.  1.
       1023    2    1    2    0    0  0.00000000000E+00  0.00000000000E+00 -0.11156545426E+03  0.11334400598E+03  0.20000327673E+02 0.  0.
        -11    1    3    3    0    0 -0.97780921135E+01  0.20957527410E+01 -0.55802000785E+02  0.56690974210E+02  0.51100000000E-03 0. -1.
         11    1    3    3    0    0  0.97780921135E+01 -0.20957527410E+01 -0.55763453474E+02  0.56653031768E+02  0.51100000000E-03 0.  1.
<mgrwt>
<rscale>  0 0.20000328E+02</rscale>
<asrwt>0</asrwt>
<pdfrwt beam="1">  1        1 0.13681176E-03 0.20000328E+02</pdfrwt>
<pdfrwt beam="2">  1       -1 0.17300716E-01 0.20000328E+02</pdfrwt>
<totfact> 0.31214659E+06</totfact>
</mgrwt>
</event>
<event>
 5    1  0.9583198E-007  0.2000052E+02  0.7818608E-02  0.1745318E+00
         -1   -1    0    0    0  501 -0.00000000000E+00  0.00000000000E+00  0.23486326203E+02  0.23486326667E+02  0.46700000000E-02 0. -1.
          1   -1    0    0  501    0  0.00000000000E+00 -0.00000000000E+00 -0.42580155446E+01  0.42580181056E+01  0.46700000000E-02 0.  1.
       1023    2    1    2    0    0  0.00000000000E+00  0.00000000000E+00  0.19228310658E+02  0.27744344772E+02  0.20000518396E+02 0.  0.
        -11    1    3    3    0    0 -0.96876876902E+01  0.24806922483E+01  0.96246236132E+01  0.13879427466E+02  0.51100000000E-03 0. -1.
         11    1    3    3    0    0  0.96876876902E+01 -0.24806922483E+01  0.96036870447E+01  0.13864917307E+02  0.51100000000E-03 0.  1.
<mgrwt>
<rscale>  0 0.20000518E+02</rscale>
<asrwt>0</asrwt>
<pdfrwt beam="2">  1        1 0.65507955E-03 0.20000518E+02</pdfrwt>
<pdfrwt beam="1">  1       -1 0.36132811E-02 0.20000518E+02</pdfrwt>
<totfact> 0.37072451E+06</totfact>
</mgrwt>
</event>
<event>
 5    1  0.9583198E-007  0.2000011E+02  0.7818608E-02  0.1745326E+00
         -1   -1    0    0    0  501 -0.00000000000E+00  0.00000000000E+00  0.17183560230E+01  0.17183623689E+01  0.46700000000E-02 0. -1.
          1   -1    0    0  501    0  0.00000000000E+00 -0.00000000000E+00 -0.58195668742E+02  0.58195668929E+02  0.46700000000E-02 0.  1.
       1023    2    1    2    0    0  0.00000000000E+00  0.00000000000E+00 -0.56477312719E+02  0.59914031298E+02  0.20000107361E+02 0.  0.
        -11    1    3    3    0    0 -0.99714649654E+01  0.75558570207E+00 -0.28217464492E+02  0.29937039365E+02  0.51100000000E-03 0.  1.
         11    1    3    3    0    0  0.99714649654E+01 -0.75558570207E+00 -0.28259848226E+02  0.29976991933E+02  0.51100000000E-03 0. -1.
<mgrwt>
<rscale>  0 0.20000107E+02</rscale>
<asrwt>0</asrwt>
<pdfrwt beam="2">  1        1 0.89531788E-02 0.20000107E+02</pdfrwt>
<pdfrwt beam="1">  1       -1 0.26436301E-03 0.20000107E+02</pdfrwt>
<totfact> 0.42184849E+06</totfact>
</mgrwt>
</event>
<event>
 5    1  0.9583198E-007  0.2000095E+02  0.7818608E-02  0.1745309E+00
          1   -1    0    0  501    0  0.00000000000E+00  0.00000000000E+00  0.10626592894E+01  0.10626695509E+01  0.46700000000E-02 0.  1.
         -1   -1    0    0    0  501 -0.00000000000E+00 -0.00000000000E+00 -0.94112006883E+02  0.94112006999E+02  0.46700000000E-02 0. -1.
       1023    2    1    2    0    0  0.00000000000E+00  0.00000000000E+00 -0.93049347594E+02  0.95174676550E+02  0.20000949196E+02 0.  0.
        -11    1    3    3    0    0 -0.99221165828E+01 -0.12493997346E+01 -0.46478354641E+02  0.47542053464E+02  0.51100000000E-03 0. -1.
         11    1    3    3    0    0  0.99221165828E+01  0.12493997346E+01 -0.46570992953E+02  0.47632623086E+02  0.51100000000E-03 0.  1.
<mgrwt>
<rscale>  0 0.20000949E+02</rscale>
<asrwt>0</asrwt>
<pdfrwt beam="1">  1        1 0.16348692E-03 0.20000949E+02</pdfrwt>
<pdfrwt beam="2">  1       -1 0.14478765E-01 0.20000949E+02</pdfrwt>
<totfact> 0.32184860E+06</totfact>
</mgrwt>
</event>
<event>
 4    1  0.9583198E-007  0.2001495E+02  0.7818608E-02  0.1745031E+00
         -1   -1    0    0    0  501 -0.00000000000E+00  0.00000000000E+00  0.17867990391E+01  0.17868051419E+01  0.46700000000E-02 0.  1.
          1   -1    0    0  501    0  0.00000000000E+00 -0.00000000000E+00 -0.56049619627E+02  0.56049619822E+02  0.46700000000E-02 0. -1.
        -11    1    1    2    0    0  0.63323741064E+01 -0.77487938716E+01 -0.27370048918E+02  0.29142106072E+02  0.51100000000E-03 0. -1.
         11    1    1    2    0    0 -0.63323741064E+01  0.77487938716E+01 -0.26892771670E+02  0.28694318892E+02  0.51100000000E-03 0.  1.
<mgrwt>
<rscale>  0 0.20014953E+02</rscale>
<asrwt>0</asrwt>
<pdfrwt beam="2">  1        1 0.86230175E-02 0.20014953E+02</pdfrwt>
<pdfrwt beam="1">  1       -1 0.27489269E-03 0.20014953E+02</pdfrwt>
<totfact> 0.41994220E+06</totfact>
</mgrwt>
</event>
<event>
 5    1  0.9889101E-007  0.2000142E+02  0.7818608E-02  0.1745300E+00
         -1   -1    0    0    0  501 -0.00000000000E+00  0.00000000000E+00  0.19509963477E+01  0.19510019368E+01  0.46700000000E-02 0. -1.
          1   -1    0    0  501    0  0.00000000000E+00 -0.00000000000E+00 -0.51263069020E+02  0.51263069232E+02  0.46700000000E-02 0.  1.
       1023    2    1    2    0    0  0.00000000000E+00  0.00000000000E+00 -0.49312072672E+02  0.53214071169E+02  0.20001421429E+02 0.  0.
        -11    1    3    3    0    0 -0.26897384936E+01 -0.96320807359E+01 -0.24790176665E+02  0.26731339881E+02  0.51100000000E-03 0.  1.
         11    1    3    3    0    0  0.26897384936E+01  0.96320807359E+01 -0.24521896007E+02  0.26482731288E+02  0.51100000000E-03 0. -1.
<mgrwt>
<rscale>  0 0.20001421E+02</rscale>
<asrwt>0</asrwt>
<pdfrwt beam="2">  1        1 0.78866254E-02 0.20001421E+02</pdfrwt>
<pdfrwt beam="1">  1       -1 0.30015377E-03 0.20001421E+02</pdfrwt>
<totfact> 0.41782029E+06</totfact>
</mgrwt>
</event>
<event>
 5    1  0.9707257E-007  0.2000125E+02  0.7818608E-02  0.1745303E+00
          1   -1    0    0  501    0  0.00000000000E+00  0.00000000000E+00  0.47269414465E+01  0.47269437533E+01  0.46700000000E-02 0.  1.
         -1   -1    0    0    0  501 -0.00000000000E+00 -0.00000000000E+00 -0.21157972306E+02  0.21157972821E+02  0.46700000000E-02 0. -1.
       1023    2    1    2    0    0  0.00000000000E+00  0.00000000000E+00 -0.16431030859E+02  0.25884916574E+02  0.20001253235E+02 0.  0.
        -11    1    3    3    0    0 -0.87423620980E+01  0.48554510531E+01 -0.80980918151E+01  0.12867921017E+02  0.51100000000E-03 0. -1.
         11    1    3    3    0    0  0.87423620980E+01 -0.48554510531E+01 -0.83329390441E+01  0.13016995558E+02  0.51100000000E-03 0.  1.
<mgrwt>
<rscale>  0 0.20001253E+02</rscale>
<asrwt>0</asrwt>
<pdfrwt beam="1">  1        1 0.72722199E-03 0.20001253E+02</pdfrwt>
<pdfrwt beam="2">  1       -1 0.32550728E-02 0.20001253E+02</pdfrwt>
<totfact> 0.37295288E+06</totfact>
</mgrwt>
</event>
<event>
 5    1  0.9583198E-007  0.2000314E+02  0.7818608E-02  0.1745266E+00
         -1   -1    0    0    0  501 -0.00000000000E+00  0.00000000000E+00  0.24702002973E+01  0.24702047117E+01  0.46700000000E-02 0.  1.
          1   -1    0    0  501    0  0.00000000000E+00 -0.00000000000E+00 -0.40495233651E+02  0.40495233920E+02  0.46700000000E-02 0. -1.
       1023    2    1    2    0    0  0.00000000000E+00  0.00000000000E+00 -0.38025033354E+02  0.42965438632E+02  0.20003143635E+02 0.  0.
        -11    1    3    3    0    0 -0.99443822487E+01 -0.10539410578E+01 -0.18641051342E+02  0.21153967133E+02  0.51100000000E-03 0.  1.
         11    1    3    3    0    0  0.99443822487E+01  0.10539410578E+01 -0.19383982011E+02  0.21811471499E+02  0.51100000000E-03 0. -1.
<mgrwt>
<rscale>  0 0.20003144E+02</rscale>
<asrwt>0</asrwt>
<pdfrwt beam="2">  1        1 0.62300359E-02 0.20003144E+02</pdfrwt>
<pdfrwt beam="1">  1       -1 0.38003120E-03 0.20003144E+02</pdfrwt>
<totfact> 0.41126886E+06</totfact>
</mgrwt>
</event>
<event>
 5    1  0.9701283E-007  0.2000123E+02  0.7818608E-02  0.1745304E+00
         -1   -1    0    0    0  501 -0.00000000000E+00  0.00000000000E+00  0.23145059226E+02  0.23145059697E+02  0.46700000000E-02 0.  1.
          1   -1    0    0  501    0  0.00000000000E+00 -0.00000000000E+00 -0.43211042733E+01  0.43211067968E+01  0.46700000000E-02 0. -1.
       1023    2    1    2    0    0  0.00000000000E+00  0.00000000000E+00  0.18823954953E+02  0.27466166494E+02  0.20001225508E+02 0.  0.
        -11    1    3    3    0    0 -0.32434045617E+01  0.94596755179E+01  0.95278595177E+01  0.13812503079E+02  0.51100000000E-03 0. -1.
         11    1    3    3    0    0  0.32434045617E+01 -0.94596755179E+01  0.92960954351E+01  0.13653663415E+02  0.51100000000E-03 0.  1.
<mgrwt>
<rscale>  0 0.20001226E+02</rscale>
<asrwt>0</asrwt>
<pdfrwt beam="2">  1        1 0.66478551E-03 0.20001226E+02</pdfrwt>
<pdfrwt beam="1">  1       -1 0.35607786E-02 0.20001226E+02</pdfrwt>
<totfact> 0.37102053E+06</totfact>
</mgrwt>
</event>
<event>
 5    1  0.9583198E-007  0.2000432E+02  0.7818608E-02  0.1745242E+00
          1   -1    0    0  501    0  0.00000000000E+00  0.00000000000E+00  0.21870916077E+02  0.21870916576E+02  0.46700000000E-02 0.  1.
         -1   -1    0    0    0  501 -0.00000000000E+00 -0.00000000000E+00 -0.45742569624E+01  0.45742593462E+01  0.46700000000E-02 0. -1.
       1023    2    1    2    0    0  0.00000000000E+00  0.00000000000E+00  0.17296659115E+02  0.26445175922E+02  0.20004322358E+02 0.  0.
        -11    1    3    3    0    0 -0.71877216147E+01 -0.69555556221E+01  0.86331430861E+01  0.13212655139E+02  0.51100000000E-03 0. -1.
         11    1    3    3    0    0  0.71877216147E+01  0.69555556221E+01  0.86635160285E+01  0.13232520783E+02  0.51100000000E-03 0.  1.
<mgrwt>
<rscale>  0 0.20004322E+02</rscale>
<asrwt>0</asrwt>
<pdfrwt beam="1">  1        1 0.33647565E-02 0.20004322E+02</pdfrwt>
<pdfrwt beam="2">  1       -1 0.70373208E-03 0.20004322E+02</pdfrwt>
<totfact> 0.39839374E+06</totfact>
</mgrwt>
</event>
<event>
 5    1  0.9583198E-007  0.2000876E+02  0.7818608E-02  0.1745154E+00
          1   -1    0    0  501    0  0.00000000000E+00  0.00000000000E+00  0.25263408512E+01  0.25263451675E+01  0.46700000000E-02 0.  1.
         -1   -1    0    0    0  501 -0.00000000000E+00 -0.00000000000E+00 -0.39617583317E+02  0.39617583592E+02  0.46700000000E-02 0. -1.
       1023    2    1    2    0    0  0.00000000000E+00  0.00000000000E+00 -0.37091242466E+02  0.42143928760E+02  0.20008759673E+02 0.  0.
        -11    1    3    3    0    0 -0.85462401475E+01 -0.52008356250E+01 -0.18601498887E+02  0.21121142794E+02  0.51100000000E-03 0. -1.
         11    1    3    3    0    0  0.85462401475E+01  0.52008356250E+01 -0.18489743579E+02  0.21022785965E+02  0.51100000000E-03 0.  1.
<mgrwt>
<rscale>  0 0.20008760E+02</rscale>
<asrwt>0</asrwt>
<pdfrwt beam="1">  1        1 0.38866821E-03 0.20008760E+02</pdfrwt>
<pdfrwt beam="2">  1       -1 0.60950127E-02 0.20008760E+02</pdfrwt>
<totfact> 0.35666437E+06</totfact>
</mgrwt>
</event>
<event>
 4    1  0.9583198E-007  0.2003233E+02  0.7818608E-02  0.1744686E+00
         -1   -1    0    0    0  501 -0.00000000000E+00  0.00000000000E+00  0.23516752683E+02  0.23516753147E+02  0.46700000000E-02 0. -1.
          1   -1    0    0  501    0  0.00000000000E+00 -0.00000000000E+00 -0.42660446676E+01  0.42660472237E+01  0.46700000000E-02 0.  1.
        -11    1    1    2    0    0  0.89949615413E+01 -0.44002896817E+01  0.99406306336E+01  0.14109855423E+02  0.51100000000E-03 0.  1.
         11    1    1    2    0    0 -0.89949615413E+01  0.44002896817E+01  0.93100773820E+01  0.13672944947E+02  0.51100000000E-03 0. -1.
<mgrwt>
<rscale>  0 0.20032330E+02</rscale>
<asrwt>0</asrwt>
<pdfrwt beam="2">  1        1 0.65631477E-03 0.20032330E+02</pdfrwt>
<pdfrwt beam="1">  1       -1 0.36179623E-02 0.20032330E+02</pdfrwt>
<totfact> 0.36940249E+06</totfact>
</mgrwt>
</event>
<event>
 5    1  0.9583198E-007  0.2000019E+02  0.7818608E-02  0.1745324E+00
         -1   -1    0    0    0  501 -0.00000000000E+00  0.00000000000E+00  0.11598121452E+02  0.11598122392E+02  0.46700000000E-02 0.  1.
          1   -1    0    0  501    0  0.00000000000E+00 -0.00000000000E+00 -0.86222435754E+01  0.86222448401E+01  0.46700000000E-02 0. -1.
       1023    2    1    2    0    0  0.00000000000E+00  0.00000000000E+00  0.29758778762E+01  0.20220367232E+02  0.20000185046E+02 0.  0.
        -11    1    3    3    0    0  0.59153651217E+01 -0.80628874495E+01  0.14754884659E+01  0.10108351251E+02  0.51100000000E-03 0.  1.
         11    1    3    3    0    0 -0.59153651217E+01  0.80628874495E+01  0.15003894102E+01  0.10112015980E+02  0.51100000000E-03 0. -1.
<mgrwt>
<rscale>  0 0.20000185E+02</rscale>
<asrwt>0</asrwt>
<pdfrwt beam="2">  1        1 0.13264992E-02 0.20000185E+02</pdfrwt>
<pdfrwt beam="1">  1       -1 0.17843265E-02 0.20000185E+02</pdfrwt>
<totfact> 0.38389883E+06</totfact>
</mgrwt>
</event>
<event>
 5    1  0.9583198E-007  0.2000760E+02  0.7818608E-02  0.1745177E+00
         -1   -1    0    0    0  501 -0.00000000000E+00  0.00000000000E+00  0.33403687936E+01  0.33403720580E+01  0.46700000000E-02 0. -1.
          1   -1    0    0  501    0  0.00000000000E+00 -0.00000000000E+00 -0.29959562099E+02  0.29959562463E+02  0.46700000000E-02 0.  1.
       1023    2    1    2    0    0  0.00000000000E+00  0.00000000000E+00 -0.26619193306E+02  0.33299934521E+02  0.20007603227E+02 0.  0.
        -11    1    3    3    0    0 -0.99070696318E+01 -0.13850619652E+01 -0.13164299281E+02  0.16533819920E+02  0.51100000000E-03 0.  1.
         11    1    3    3    0    0  0.99070696318E+01  0.13850619652E+01 -0.13454894025E+02  0.16766114601E+02  0.51100000000E-03 0. -1.
<mgrwt>
<rscale>  0 0.20007603E+02</rscale>
<asrwt>0</asrwt>
<pdfrwt beam="2">  1        1 0.46091635E-02 0.20007603E+02</pdfrwt>
<pdfrwt beam="1">  1       -1 0.51390319E-03 0.20007603E+02</pdfrwt>
<totfact> 0.40419574E+06</totfact>
</mgrwt>
</event>
<event>
 5    1  0.9583198E-007  0.2000044E+02  0.7818608E-02  0.1745319E+00
         -1   -1    0    0    0  501 -0.00000000000E+00  0.00000000000E+00  0.18060188727E+01  0.18060249105E+01  0.46700000000E-02 0. -1.
          1   -1    0    0  501    0  0.00000000000E+00 -0.00000000000E+00 -0.55372760560E+02  0.55372760757E+02  0.46700000000E-02 0.  1.
       1023    2    1    2    0    0  0.00000000000E+00  0.00000000000E+00 -0.53566741687E+02  0.57178785667E+02  0.20000442880E+02 0.  0.
        -11    1    3    3    0    0  0.99876671069E+01 -0.50021014162E+00 -0.26860304245E+02  0.28661466271E+02  0.51100000000E-03 0.  1.
         11    1    3    3    0    0 -0.99876671069E+01  0.50021014162E+00 -0.26706437442E+02  0.28517319396E+02  0.51100000000E-03 0. -1.
<mgrwt>
<rscale>  0 0.20000443E+02</rscale>
<asrwt>0</asrwt>
<pdfrwt beam="2">  1        1 0.85188854E-02 0.20000443E+02</pdfrwt>
<pdfrwt beam="1">  1       -1 0.27784958E-03 0.20000443E+02</pdfrwt>
<totfact> 0.42023347E+06</totfact>
</mgrwt>
</event>
<event>
 5    1  0.9763833E-007  0.2000176E+02  0.7818608E-02  0.1745293E+00
          1   -1    0    0  501    0  0.00000000000E+00  0.00000000000E+00  0.69131512563E+02  0.69131512721E+02  0.46700000000E-02 0. -1.
         -1   -1    0    0    0  501 -0.00000000000E+00 -0.00000000000E+00 -0.14467695442E+01  0.14467770813E+01  0.46700000000E-02 0.  1.
       1023    2    1    2    0    0  0.00000000000E+00  0.00000000000E+00  0.67684743019E+02  0.70578289802E+02  0.20001763769E+02 0.  0.
        -11    1    3    3    0    0 -0.99557848708E+01  0.94812080030E+00  0.33727881515E+02  0.35179348732E+02  0.51100000000E-03 0. -1.
         11    1    3    3    0    0  0.99557848708E+01 -0.94812080030E+00  0.33956861503E+02  0.35398941070E+02  0.51100000000E-03 0.  1.
<mgrwt>
<rscale>  0 0.20001764E+02</rscale>
<asrwt>0</asrwt>
<pdfrwt beam="1">  1        1 0.10635618E-01 0.20001764E+02</pdfrwt>
<pdfrwt beam="2">  1       -1 0.22258053E-03 0.20001764E+02</pdfrwt>
<totfact> 0.42778878E+06</totfact>
</mgrwt>
</event>
<event>
 5    1  0.9583198E-007  0.2000023E+02  0.7818608E-02  0.1745324E+00
         -1   -1    0    0    0  501 -0.00000000000E+00  0.00000000000E+00  0.11252964148E+02  0.11252965117E+02  0.46700000000E-02 0. -1.
          1   -1    0    0  501    0  0.00000000000E+00 -0.00000000000E+00 -0.88867498752E+01  0.88867511022E+01  0.46700000000E-02 0.  1.
       1023    2    1    2    0    0  0.00000000000E+00  0.00000000000E+00  0.23662142729E+01  0.20139716219E+02  0.20000229984E+02 0.  0.
        -11    1    3    3    0    0  0.89055327185E+01  0.45488239987E+01  0.12279917587E+01  0.10075131602E+02  0.51100000000E-03 0.  1.
         11    1    3    3    0    0 -0.89055327185E+01 -0.45488239987E+01  0.11382225143E+01  0.10064584618E+02  0.51100000000E-03 0. -1.
<mgrwt>
<rscale>  0 0.20000230E+02</rscale>
<asrwt>0</asrwt>
<pdfrwt beam="2">  1        1 0.13671925E-02 0.20000230E+02</pdfrwt>
<pdfrwt beam="1">  1       -1 0.17312254E-02 0.20000230E+02</pdfrwt>
<totfact> 0.38437937E+06</totfact>
</mgrwt>
</event>
<event>
 5    1  0.9583198E-007  0.2000014E+02  0.7818608E-02  0.1745325E+00
          1   -1    0    0  501    0  0.00000000000E+00  0.00000000000E+00  0.91545965322E+00  0.91547156459E+00  0.46700000000E-02 0. -1.
         -1   -1    0    0    0  501 -0.00000000000E+00 -0.00000000000E+00 -0.10923551791E+03  0.10923551801E+03  0.46700000000E-02 0.  1.
       1023    2    1    2    0    0  0.00000000000E+00  0.00000000000E+00 -0.10832005825E+03  0.11015098957E+03  0.20000137086E+02 0.  0.
        -11    1    3    3    0    0  0.97205507983E+01  0.23477605262E+01 -0.54067330452E+02  0.54984336949E+02  0.51100000000E-03 0. -1.
         11    1    3    3    0    0 -0.97205507983E+01 -0.23477605262E+01 -0.54252727803E+02  0.55166652623E+02  0.51100000000E-03 0.  1.
<mgrwt>
<rscale>  0 0.20000137E+02</rscale>
<asrwt>0</asrwt>
<pdfrwt beam="1">  1        1 0.14084096E-03 0.20000137E+02</pdfrwt>
<pdfrwt beam="2">  1       -1 0.16805455E-01 0.20000137E+02</pdfrwt>
<totfact> 0.31380657E+06</totfact>
</mgrwt>
</event>
<event>
 5    1  0.9621780E-007  0.2000088E+02  0.7818608E-02  0.1745311E+00
          1   -1    0    0  501    0  0.00000000000E+00  0.00000000000E+00  0.22307026839E+02  0.22307027328E+02  0.46700000000E-02 0. -1.
         -1   -1    0    0    0  501 -0.00000000000E+00 -0.00000000000E+00 -0.44832853006E+01  0.44832877328E+01  0.46700000000E-02 0.  1.
       1023    2    1    2    0    0  0.00000000000E+00  0.00000000000E+00  0.17823741538E+02  0.26790315061E+02  0.20000880446E+02 0.  0.
        -11    1    3    3    0    0  0.78817798505E+01 -0.61550859842E+01  0.88641870764E+01  0.13363433312E+02  0.51100000000E-03 0. -1.
         11    1    3    3    0    0 -0.78817798505E+01  0.61550859842E+01  0.89595544620E+01  0.13426881749E+02  0.51100000000E-03 0.  1.
<mgrwt>
<rscale>  0 0.20000880E+02</rscale>
<asrwt>0</asrwt>
<pdfrwt beam="1">  1        1 0.34318505E-02 0.20000880E+02</pdfrwt>
<pdfrwt beam="2">  1       -1 0.68973643E-03 0.20000880E+02</pdfrwt>
<totfact> 0.39889280E+06</totfact>
</mgrwt>
</event>
<event>
 5    1  0.9828397E-007  0.2000154E+02  0.7818608E-02  0.1745298E+00
         -1   -1    0    0    0  501 -0.00000000000E+00  0.00000000000E+00  0.12491455211E+02  0.12491456084E+02  0.46700000000E-02 0. -1.
          1   -1    0    0  501    0  0.00000000000E+00 -0.00000000000E+00 -0.80067003589E+01  0.80067017208E+01  0.46700000000E-02 0.  1.
       1023    2    1    2    0    0  0.00000000000E+00  0.00000000000E+00  0.44847548525E+01  0.20498157805E+02  0.20001536124E+02 0.  0.
        -11    1    3    3    0    0  0.66599628736E+01 -0.74596102428E+01  0.23656602251E+01  0.10276051723E+02  0.51100000000E-03 0.  1.
         11    1    3    3    0    0 -0.66599628736E+01  0.74596102428E+01  0.21190946274E+01  0.10222106082E+02  0.51100000000E-03 0. -1.
<mgrwt>
<rscale>  0 0.20001536E+02</rscale>
<asrwt>0</asrwt>
<pdfrwt beam="2">  1        1 0.12318002E-02 0.20001536E+02</pdfrwt>
<pdfrwt beam="1">  1       -1 0.19217625E-02 0.20001536E+02</pdfrwt>
<totfact> 0.38263976E+06</totfact>
</mgrwt>
</event>
<event>
 5    1  0.9794272E-007  0.2000218E+02  0.7818608E-02  0.1745285E+00
         -1   -1    0    0    0  501 -0.00000000000E+00  0.00000000000E+00  0.20892463450E+01  0.20892515643E+01  0.46700000000E-02 0.  1.
          1   -1    0    0  501    0  0.00000000000E+00 -0.00000000000E+00 -0.47874529202E+02  0.47874529430E+02  0.46700000000E-02 0. -1.
       1023    2    1    2    0    0  0.00000000000E+00  0.00000000000E+00 -0.45785282857E+02  0.49963780994E+02  0.20002182004E+02 0.  0.
        -11    1    3    3    0    0  0.22690656363E+01 -0.97400221831E+01 -0.23071551900E+02  0.25145838588E+02  0.51100000000E-03 0. -1.
         11    1    3    3    0    0 -0.22690656363E+01  0.97400221831E+01 -0.22713730957E+02  0.24817942405E+02  0.51100000000E-03 0.  1.
<mgrwt>
<rscale>  0 0.20002182E+02</rscale>
<asrwt>0</asrwt>
<pdfrwt beam="2">  1        1 0.73653118E-02 0.20002182E+02</pdfrwt>
<pdfrwt beam="1">  1       -1 0.32142297E-03 0.20002182E+02</pdfrwt>
<totfact> 0.41579390E+06</totfact>
</mgrwt>
</event>
<event>
 5    1  0.9769969E-007  0.2000132E+02  0.7818608E-02  0.1745302E+00
         -1   -1    0    0    0  501 -0.00000000000E+00  0.00000000000E+00  0.77929839895E+01  0.77929853888E+01  0.46700000000E-02 0. -1.
          1   -1    0    0  501    0  0.00000000000E+00 -0.00000000000E+00 -0.12833751024E+02  0.12833751874E+02  0.46700000000E-02 0.  1.
       1023    2    1    2    0    0  0.00000000000E+00  0.00000000000E+00 -0.50407670346E+01  0.20626737263E+02  0.20001323901E+02 0.  0.
        -11    1    3    3    0    0 -0.47128220532E+01  0.88204965757E+01 -0.25587993813E+01  0.10322756709E+02  0.51100000000E-03 0.  1.
         11    1    3    3    0    0  0.47128220532E+01 -0.88204965757E+01 -0.24819676533E+01  0.10303980553E+02  0.51100000000E-03 0. -1.
<mgrwt>
<rscale>  0 0.20001324E+02</rscale>
<asrwt>0</asrwt>
<pdfrwt beam="2">  1        1 0.19744234E-02 0.20001324E+02</pdfrwt>
<pdfrwt beam="1">  1       -1 0.11989208E-02 0.20001324E+02</pdfrwt>
<totfact> 0.38999929E+06</totfact>
</mgrwt>
</event>
<event>
 5    1  0.9583198E-007  0.2000105E+02  0.7818608E-02  0.1745307E+00
          1   -1    0    0  501    0  0.00000000000E+00  0.00000000000E+00  0.42719775996E+01  0.42719801522E+01  0.46700000000E-02 0. -1.
         -1   -1    0    0    0  501 -0.00000000000E+00 -0.00000000000E+00 -0.23410808705E+02  0.23410809171E+02  0.46700000000E-02 0.  1.
       1023    2    1    2    0    0  0.00000000000E+00  0.00000000000E+00 -0.19138831106E+02  0.27682789323E+02  0.20001049188E+02 0.  0.
        -11    1    3    3    0    0  0.90483112176E+01  0.42588503077E+01 -0.96073213229E+01  0.13867601274E+02  0.51100000000E-03 0. -1.
         11    1    3    3    0    0 -0.90483112176E+01 -0.42588503077E+01 -0.95315097826E+01  0.13815188049E+02  0.51100000000E-03 0.  1.
<mgrwt>
<rscale>  0 0.20001049E+02</rscale>
<asrwt>0</asrwt>
<pdfrwt beam="1">  1        1 0.65722756E-03 0.20001049E+02</pdfrwt>
<pdfrwt beam="2">  1       -1 0.36016631E-02 0.20001049E+02</pdfrwt>
<totfact> 0.37077459E+06</totfact>
</mgrwt>
</event>
<event>
 5    1  0.9583198E-007  0.2000635E+02  0.7818608E-02  0.1745202E+00
          1   -1    0    0  501    0  0.00000000000E+00  0.00000000000E+00  0.32145903570E+02  0.32145903909E+02  0.46700000000E-02 0.  1.
         -1   -1    0    0    0  501 -0.00000000000E+00 -0.00000000000E+00 -0.31127889306E+01  0.31127924337E+01  0.46700000000E-02 0. -1.
       1023    2    1    2    0    0  0.00000000000E+00  0.00000000000E+00  0.29033114640E+02  0.35258696343E+02  0.20006347046E+02 0.  0.
        -11    1    3    3    0    0 -0.69019821789E+01  0.72404730712E+01  0.14588620608E+02  0.17688687339E+02  0.51100000000E-03 0. -1.
         11    1    3    3    0    0  0.69019821789E+01 -0.72404730712E+01  0.14444494032E+02  0.17570009004E+02  0.51100000000E-03 0.  1.
<mgrwt>
<rscale>  0 0.20006347E+02</rscale>
<asrwt>0</asrwt>
<pdfrwt beam="1">  1        1 0.49455240E-02 0.20006347E+02</pdfrwt>
<pdfrwt beam="2">  1       -1 0.47889090E-03 0.20006347E+02</pdfrwt>
<totfact> 0.40573807E+06</totfact>
</mgrwt>
</event>
<event>
 5    1  0.9666683E-007  0.2000079E+02  0.7818608E-02  0.1745312E+00
          1   -1    0    0  501    0  0.00000000000E+00  0.00000000000E+00  0.26966925507E+02  0.26966925912E+02  0.46700000000E-02 0. -1.
         -1   -1    0    0    0  501 -0.00000000000E+00 -0.00000000000E+00 -0.37085357698E+01  0.37085387101E+01  0.46700000000E-02 0.  1.
       1023    2    1    2    0    0  0.00000000000E+00  0.00000000000E+00  0.23258389738E+02  0.30675464622E+02  0.20000785899E+02 0.  0.
        -11    1    3    3    0    0 -0.10000206000E+02  0.33561080263E-01  0.11707586851E+02  0.15397169757E+02  0.51100000000E-03 0.  1.
         11    1    3    3    0    0  0.10000206000E+02 -0.33561080263E-01  0.11550802887E+02  0.15278294865E+02  0.51100000000E-03 0. -1.
<mgrwt>
<rscale>  0 0.20000786E+02</rscale>
<asrwt>0</asrwt>
<pdfrwt beam="1">  1        1 0.41487580E-02 0.20000786E+02</pdfrwt>
<pdfrwt beam="2">  1       -1 0.57054422E-03 0.20000786E+02</pdfrwt>
<totfact> 0.40239787E+06</totfact>
</mgrwt>
</event>
<event>
 5    1  0.9583198E-007  0.2000044E+02  0.7818608E-02  0.1745319E+00
          1   -1    0    0  501    0  0.00000000000E+00  0.00000000000E+00  0.91676140533E+02  0.91676140652E+02  0.46700000000E-02 0. -1.
         -1   -1    0    0    0  501 -0.00000000000E+00 -0.00000000000E+00 -0.10908389340E+01  0.10908489304E+01  0.46700000000E-02 0.  1.
       1023    2    1    2    0    0  0.00000000000E+00  0.00000000000E+00  0.90585301599E+02  0.92766989582E+02  0.20000437255E+02 0.  0.
        -11    1    3    3    0    0 -0.47684541597E+01  0.87901039978E+01  0.45371497392E+02  0.46460487075E+02  0.51100000000E-03 0. -1.
         11    1    3    3    0    0  0.47684541597E+01 -0.87901039978E+01  0.45213804206E+02  0.46306502507E+02  0.51100000000E-03 0.  1.
<mgrwt>
<rscale>  0 0.20000437E+02</rscale>
<asrwt>0</asrwt>
<pdfrwt beam="1">  1        1 0.14104023E-01 0.20000437E+02</pdfrwt>
<pdfrwt beam="2">  1       -1 0.16782214E-03 0.20000437E+02</pdfrwt>
<totfact> 0.43949433E+06</totfact>
</mgrwt>
</event>
<event>
 5    1  0.9583198E-007  0.2000032E+02  0.7818608E-02  0.1745322E+00
         -1   -1    0    0    0  501 -0.00000000000E+00  0.00000000000E+00  0.23954336325E+02  0.23954336780E+02  0.46700000000E-02 0.  1.
          1   -1    0    0  501    0  0.00000000000E+00 -0.00000000000E+00 -0.41747410312E+01  0.41747436432E+01  0.46700000000E-02 0. -1.
       1023    2    1    2    0    0  0.00000000000E+00  0.00000000000E+00  0.19779595294E+02  0.28129080424E+02  0.20000319384E+02 0.  0.
        -11    1    3    3    0    0 -0.34416830672E+01 -0.93892267926E+01  0.99190132247E+01  0.14085083802E+02  0.51100000000E-03 0.  1.
         11    1    3    3    0    0  0.34416830672E+01  0.93892267926E+01  0.98605820694E+01  0.14043996622E+02  0.51100000000E-03 0. -1.
<mgrwt>
<rscale>  0 0.20000319E+02</rscale>
<asrwt>0</asrwt>
<pdfrwt beam="2">  1        1 0.64226810E-03 0.20000319E+02</pdfrwt>
<pdfrwt beam="1">  1       -1 0.36852827E-02 0.20000319E+02</pdfrwt>
<totfact> 0.37029029E+06</totfact>
</mgrwt>
</event>
<event>
 5    1  0.9583198E-007  0.2000043E+02  0.7818608E-02  0.1745320E+00
         -1   -1    0    0    0  501 -0.00000000000E+00  0.00000000000E+00  0.88224161419E+02  0.88224161542E+02  0.46700000000E-02 0. -1.
          1   -1    0    0  501    0  0.00000000000E+00 -0.00000000000E+00 -0.11335197267E+01  0.11335293467E+01  0.46700000000E-02 0.  1.
       1023    2    1    2    0    0  0.00000000000E+00  0.00000000000E+00  0.87090641692E+02  0.89357690889E+02  0.20000426263E+02 0.  0.
        -11    1    3    3    0    0 -0.71962343693E+01  0.69438134537E+01  0.43741498697E+02  0.44870046166E+02  0.51100000000E-03 0. -1.
         11    1    3    3    0    0  0.71962343693E+01 -0.69438134537E+01  0.43349142995E+02  0.44487644723E+02  0.51100000000E-03 0.  1.
<mgrwt>
<rscale>  0 0.20000426E+02</rscale>
<asrwt>0</asrwt>
<pdfrwt beam="2">  1        1 0.17438837E-03 0.20000426E+02</pdfrwt>
<pdfrwt beam="1">  1       -1 0.13572951E-01 0.20000426E+02</pdfrwt>
<totfact> 0.32515930E+06</totfact>
</mgrwt>
</event>
<event>
 5    1  0.9583198E-007  0.2000062E+02  0.7818608E-02  0.1745316E+00
          1   -1    0    0  501    0  0.00000000000E+00  0.00000000000E+00  0.38053671688E+01  0.38053700344E+01  0.46700000000E-02 0.  1.
         -1   -1    0    0    0  501 -0.00000000000E+00 -0.00000000000E+00 -0.26280284553E+02  0.26280284968E+02  0.46700000000E-02 0. -1.
       1023    2    1    2    0    0  0.00000000000E+00  0.00000000000E+00 -0.22474917384E+02  0.30085655002E+02  0.20000618128E+02 0.  0.
        -11    1    3    3    0    0 -0.99274192907E+01 -0.12051659353E+01 -0.11252680918E+02  0.15054198976E+02  0.51100000000E-03 0. -1.
         11    1    3    3    0    0  0.99274192907E+01  0.12051659353E+01 -0.11222236466E+02  0.15031456026E+02  0.51100000000E-03 0.  1.
<mgrwt>
<rscale>  0 0.20000618E+02</rscale>
<asrwt>0</asrwt>
<pdfrwt beam="1">  1        1 0.58544137E-03 0.20000618E+02</pdfrwt>
<pdfrwt beam="2">  1       -1 0.40431208E-02 0.20000618E+02</pdfrwt>
<totfact> 0.36813029E+06</totfact>
</mgrwt>
</event>
<event>
 5    1  0.9583198E-007  0.2000009E+02  0.7818608E-02  0.1745326E+00
         -1   -1    0    0    0  501 -0.00000000000E+00  0.00000000000E+00  0.15702071939E+02  0.15702072634E+02  0.46700000000E-02 0.  1.
          1   -1    0    0  501    0  0.00000000000E+00 -0.00000000000E+00 -0.63686396603E+01  0.63686413725E+01  0.46700000000E-02 0. -1.
       1023    2    1    2    0    0  0.00000000000E+00  0.00000000000E+00  0.93334322791E+01  0.22070714006E+02  0.20000086466E+02 0.  0.
        -11    1    3    3    0    0 -0.28053884574E+01  0.95984717469E+01  0.46671092607E+01  0.11035523249E+02  0.51100000000E-03 0.  1.
         11    1    3    3    0    0  0.28053884574E+01 -0.95984717469E+01  0.46663230184E+01  0.11035190757E+02  0.51100000000E-03 0. -1.
<mgrwt>
<rscale>  0 0.20000086E+02</rscale>
<asrwt>0</asrwt>
<pdfrwt beam="2">  1        1 0.97979091E-03 0.20000086E+02</pdfrwt>
<pdfrwt beam="1">  1       -1 0.24157035E-02 0.20000086E+02</pdfrwt>
<totfact> 0.37878178E+06</totfact>
</mgrwt>
</event>
<event>
 5    1  0.9583198E-007  0.2000042E+02  0.7818608E-02  0.1745320E+00
         -1   -1    0    0    0  501 -0.00000000000E+00  0.00000000000E+00  0.20902657552E+01  0.20902709720E+01  0.46700000000E-02 0.  1.
          1   -1    0    0  501    0  0.00000000000E+00 -0.00000000000E+00 -0.47842744940E+02  0.47842745168E+02  0.46700000000E-02 0. -1.
       1023    2    1    2    0    0  0.00000000000E+00  0.00000000000E+00 -0.45752479185E+02  0.49933016140E+02  0.20000418727E+02 0.  0.
        -11    1    3    3    0    0  0.46416453092E+01  0.88575417533E+01 -0.22733475012E+02  0.24835696154E+02  0.51100000000E-03 0. -1.
         11    1    3    3    0    0 -0.46416453092E+01 -0.88575417533E+01 -0.23019004173E+02  0.25097319986E+02  0.51100000000E-03 0.  1.
<mgrwt>
<rscale>  0 0.20000419E+02</rscale>
<asrwt>0</asrwt>
<pdfrwt beam="2">  1        1 0.73604219E-02 0.20000419E+02</pdfrwt>
<pdfrwt beam="1">  1       -1 0.32157980E-03 0.20000419E+02</pdfrwt>
<totfact> 0.41585654E+06</totfact>
</mgrwt>
</event>
<event>
 4    1  0.9583198E-007  0.2010687E+02  0.7818608E-02  0.1743211E+00
          1   -1    0    0  501    0  0.00000000000E+00  0.00000000000E+00  0.33813654651E+02  0.33813654973E+02  0.46700000000E-02 0. -1.
         -1   -1    0    0    0  501 -0.00000000000E+00 -0.00000000000E+00 -0.29890718117E+01  0.29890754598E+01  0.46700000000E-02 0.  1.
        -11    1    1    2    0    0  0.95914735400E+01 -0.29607022760E+01  0.14394191761E+02  0.17548643234E+02  0.51100000000E-03 0. -1.
         11    1    1    2    0    0 -0.95914735400E+01  0.29607022760E+01  0.16430391077E+02  0.19254087199E+02  0.51100000000E-03 0.  1.
<mgrwt>
<rscale>  0 0.20106866E+02</rscale>
<asrwt>0</asrwt>
<pdfrwt beam="1">  1        1 0.52021009E-02 0.20106866E+02</pdfrwt>
<pdfrwt beam="2">  1       -1 0.45985751E-03 0.20106866E+02</pdfrwt>
<totfact> 0.40232174E+06</totfact>
</mgrwt>
</event>
<event>
 5    1  0.9740386E-007  0.2000066E+02  0.7818608E-02  0.1745315E+00
          1   -1    0    0  501    0  0.00000000000E+00  0.00000000000E+00  0.24246316412E+02  0.24246316862E+02  0.46700000000E-02 0. -1.
         -1   -1    0    0    0  501 -0.00000000000E+00 -0.00000000000E+00 -0.41246069427E+01  0.41246095864E+01  0.46700000000E-02 0.  1.
       1023    2    1    2    0    0  0.00000000000E+00  0.00000000000E+00  0.20121709470E+02  0.28370926449E+02  0.20000656878E+02 0.  0.
        -11    1    3    3    0    0 -0.92962368871E+01  0.36855162392E+01  0.10144994835E+02  0.14245138493E+02  0.51100000000E-03 0. -1.
         11    1    3    3    0    0  0.92962368871E+01 -0.36855162392E+01  0.99767146345E+01  0.14125787956E+02  0.51100000000E-03 0.  1.
<mgrwt>
<rscale>  0 0.20000657E+02</rscale>
<asrwt>0</asrwt>
<pdfrwt beam="1">  1        1 0.37302028E-02 0.20000657E+02</pdfrwt>
<pdfrwt beam="2">  1       -1 0.63455514E-03 0.20000657E+02</pdfrwt>
<totfact> 0.40039845E+06</totfact>
</mgrwt>
</event>
<event>
 5    1  0.9599569E-007  0.2000061E+02  0.7818608E-02  0.1745316E+00
          1   -1    0    0  501    0  0.00000000000E+00  0.00000000000E+00  0.17642496132E+02  0.17642496750E+02  0.46700000000E-02 0. -1.
         -1   -1    0    0    0  501 -0.00000000000E+00 -0.00000000000E+00 -0.56684783428E+01  0.56684802665E+01  0.46700000000E-02 0.  1.
       1023    2    1    2    0    0  0.00000000000E+00  0.00000000000E+00  0.11974017789E+02  0.23310977017E+02  0.20000613677E+02 0.  0.
        -11    1    3    3    0    0  0.99856242621E+01 -0.53796930212E+00  0.59129852561E+01  0.11617465204E+02  0.51100000000E-03 0.  1.
         11    1    3    3    0    0 -0.99856242621E+01  0.53796930212E+00  0.60610325331E+01  0.11693511812E+02  0.51100000000E-03 0. -1.
<mgrwt>
<rscale>  0 0.20000614E+02</rscale>
<asrwt>0</asrwt>
<pdfrwt beam="1">  1        1 0.27142304E-02 0.20000614E+02</pdfrwt>
<pdfrwt beam="2">  1       -1 0.87207379E-03 0.20000614E+02</pdfrwt>
<totfact> 0.39497398E+06</totfact>
</mgrwt>
</event>
<event>
 5    1  0.9583198E-007  0.2000905E+02  0.7818608E-02  0.1745148E+00
         -1   -1    0    0    0  501 -0.00000000000E+00  0.00000000000E+00  0.93321384913E+02  0.93321385030E+02  0.46700000000E-02 0. -1.
          1   -1    0    0  501    0  0.00000000000E+00 -0.00000000000E+00 -0.10725303372E+01  0.10725405042E+01  0.46700000000E-02 0.  1.
       1023    2    1    2    0    0  0.00000000000E+00  0.00000000000E+00  0.92248854576E+02  0.94393925534E+02  0.20009048133E+02 0.  0.
        -11    1    3    3    0    0  0.81900522591E+01 -0.57457371633E+01  0.46157778497E+02  0.47229556081E+02  0.51100000000E-03 0. -1.
         11    1    3    3    0    0 -0.81900522591E+01  0.57457371633E+01  0.46091076079E+02  0.47164369453E+02  0.51100000000E-03 0.  1.
<mgrwt>
<rscale>  0 0.20009048E+02</rscale>
<asrwt>0</asrwt>
<pdfrwt beam="2">  1        1 0.16500550E-03 0.20009048E+02</pdfrwt>
<pdfrwt beam="1">  1       -1 0.14357133E-01 0.20009048E+02</pdfrwt>
<totfact> 0.32199957E+06</totfact>
</mgrwt>
</event>
<event>
 5    1  0.9583198E-007  0.2000030E+02  0.7818608E-02  0.1745322E+00
          1   -1    0    0  501    0  0.00000000000E+00  0.00000000000E+00  0.39829132259E+01  0.39829159637E+01  0.46700000000E-02 0. -1.
         -1   -1    0    0    0  501 -0.00000000000E+00 -0.00000000000E+00 -0.25107982581E+02  0.25107983016E+02  0.46700000000E-02 0.  1.
       1023    2    1    2    0    0  0.00000000000E+00  0.00000000000E+00 -0.21125069356E+02  0.29090898979E+02  0.20000296202E+02 0.  0.
        -11    1    3    3    0    0 -0.91853684634E+01  0.39535124468E+01 -0.10622634868E+02  0.14589092716E+02  0.51100000000E-03 0. -1.
         11    1    3    3    0    0  0.91853684634E+01 -0.39535124468E+01 -0.10502434488E+02  0.14501806264E+02  0.51100000000E-03 0.  1.
<mgrwt>
<rscale>  0 0.20000296E+02</rscale>
<asrwt>0</asrwt>
<pdfrwt beam="1">  1        1 0.61275614E-03 0.20000296E+02</pdfrwt>
<pdfrwt beam="2">  1       -1 0.38627667E-02 0.20000296E+02</pdfrwt>
<totfact> 0.36921583E+06</totfact>
</mgrwt>
</event>
<event>
 5    1  0.9583198E-007  0.2000195E+02  0.7818608E-02  0.1745289E+00
         -1   -1    0    0    0  501 -0.00000000000E+00  0.00000000000E+00  0.42306928126E+02  0.42306928383E+02  0.46700000000E-02 0.  1.
          1   -1    0    0  501    0  0.00000000000E+00 -0.00000000000E+00 -0.23641378345E+01  0.23641424469E+01  0.46700000000E-02 0. -1.
       1023    2    1    2    0    0  0.00000000000E+00  0.00000000000E+00  0.39942790291E+02  0.44671070830E+02  0.20001951727E+02 0.  0.
        -11    1    3    3    0    0  0.94908899608E+01 -0.31527274523E+01  0.19852475051E+02  0.22229202607E+02  0.51100000000E-03 0.  1.
         11    1    3    3    0    0 -0.94908899608E+01  0.31527274523E+01  0.20090315240E+02  0.22441868223E+02  0.51100000000E-03 0. -1.
<mgrwt>
<rscale>  0 0.20001952E+02</rscale>
<asrwt>0</asrwt>
<pdfrwt beam="2">  1        1 0.36371390E-03 0.20001952E+02</pdfrwt>
<pdfrwt beam="1">  1       -1 0.65087583E-02 0.20001952E+02</pdfrwt>
<totfact> 0.35486756E+06</totfact>
</mgrwt>
</event>
<event>
 5    1  0.9583198E-007  0.2000894E+02  0.7818608E-02  0.1745150E+00
          1   -1    0    0  501    0  0.00000000000E+00  0.00000000000E+00  0.11663153400E+01  0.11663246895E+01  0.46700000000E-02 0. -1.
         -1   -1    0    0    0  501 -0.00000000000E+00 -0.00000000000E+00 -0.85816410516E+02  0.85816410643E+02  0.46700000000E-02 0.  1.
       1023    2    1    2    0    0  0.00000000000E+00  0.00000000000E+00 -0.84650095176E+02  0.86982735333E+02  0.20008938818E+02 0.  0.
        -11    1    3    3    0    0  0.99486169869E+01  0.10335721954E+01 -0.43259001093E+02  0.44400275081E+02  0.51100000000E-03 0. -1.
         11    1    3    3    0    0 -0.99486169869E+01 -0.10335721954E+01 -0.41391094083E+02  0.42582460252E+02  0.51100000000E-03 0.  1.
<mgrwt>
<rscale>  0 0.20008939E+02</rscale>
<asrwt>0</asrwt>
<pdfrwt beam="1">  1        1 0.17943393E-03 0.20008939E+02</pdfrwt>
<pdfrwt beam="2">  1       -1 0.13202521E-01 0.20008939E+02</pdfrwt>
<totfact> 0.32622833E+06</totfact>
</mgrwt>
</event>
<event>
 5    1  0.9583198E-007  0.2000256E+02  0.7818608E-02  0.1745277E+00
          1   -1    0    0  501    0  0.00000000000E+00  0.00000000000E+00  0.20158716158E+01  0.20158770251E+01  0.46700000000E-02 0. -1.
         -1   -1    0    0    0  501 -0.00000000000E+00 -0.00000000000E+00 -0.49618982422E+02  0.49618982642E+02  0.46700000000E-02 0.  1.
       1023    2    1    2    0    0  0.00000000000E+00  0.00000000000E+00 -0.47603110807E+02  0.51634859667E+02  0.20002564196E+02 0.  0.
        -11    1    3    3    0    0  0.40407893083E+01 -0.91485783381E+01 -0.23890210918E+02  0.25899162956E+02  0.51100000000E-03 0.  1.
         11    1    3    3    0    0 -0.40407893083E+01  0.91485783381E+01 -0.23712899889E+02  0.25735696712E+02  0.51100000000E-03 0. -1.
<mgrwt>
<rscale>  0 0.20002564E+02</rscale>
<asrwt>0</asrwt>
<pdfrwt beam="1">  1        1 0.31013457E-03 0.20002564E+02</pdfrwt>
<pdfrwt beam="2">  1       -1 0.76336891E-02 0.20002564E+02</pdfrwt>
<totfact> 0.34946913E+06</totfact>
</mgrwt>
</event>
<event>
 5    1  0.9583198E-007  0.2000031E+02  0.7818608E-02  0.1745322E+00
          1   -1    0    0  501    0  0.00000000000E+00  0.00000000000E+00  0.24812025954E+02  0.24812026393E+02  0.46700000000E-02 0. -1.
         -1   -1    0    0    0  501 -0.00000000000E+00 -0.00000000000E+00 -0.40304277435E+01  0.40304304490E+01  0.46700000000E-02 0.  1.
       1023    2    1    2    0    0  0.00000000000E+00  0.00000000000E+00  0.20781598210E+02  0.28842456842E+02  0.20000312311E+02 0.  0.
        -11    1    3    3    0    0 -0.97908918259E+01 -0.20350480640E+01  0.10407831821E+02  0.14433500852E+02  0.51100000000E-03 0. -1.
         11    1    3    3    0    0  0.97908918259E+01  0.20350480640E+01  0.10373766390E+02  0.14408955991E+02  0.51100000000E-03 0.  1.
<mgrwt>
<rscale>  0 0.20000312E+02</rscale>
<asrwt>0</asrwt>
<pdfrwt beam="1">  1        1 0.38172350E-02 0.20000312E+02</pdfrwt>
<pdfrwt beam="2">  1       -1 0.62006605E-03 0.20000312E+02</pdfrwt>
<totfact> 0.40083909E+06</totfact>
</mgrwt>
</event>
<event>
 5    1  0.1007018E-006  0.2000074E+02  0.7818608E-02  0.1745313E+00
          1   -1    0    0  501    0  0.00000000000E+00  0.00000000000E+00  0.97003006222E+02  0.97003006335E+02  0.46700000000E-02 0.  1.
         -1   -1    0    0    0  501 -0.00000000000E+00 -0.00000000000E+00 -0.10309671466E+01  0.10309777234E+01  0.46700000000E-02 0. -1.
       1023    2    1    2    0    0  0.00000000000E+00  0.00000000000E+00  0.95972039076E+02  0.98033984058E+02  0.20000743635E+02 0.  0.
        -11    1    3    3    0    0  0.65951811189E+01 -0.75170302323E+01  0.47629900578E+02  0.48668363305E+02  0.51100000000E-03 0. -1.
         11    1    3    3    0    0 -0.65951811189E+01  0.75170302323E+01  0.48342138498E+02  0.49365620753E+02  0.51100000000E-03 0.  1.
<mgrwt>
<rscale>  0 0.20000744E+02</rscale>
<asrwt>0</asrwt>
<pdfrwt beam="1">  1        1 0.14923548E-01 0.20000744E+02</pdfrwt>
<pdfrwt beam="2">  1       -1 0.15861107E-03 0.20000744E+02</pdfrwt>
<totfact> 0.44210986E+06</totfact>
</mgrwt>
</event>
<event>
 5    1  0.9583198E-007  0.2000047E+02  0.7818608E-02  0.1745319E+00
          1   -1    0    0  501    0  0.00000000000E+00  0.00000000000E+00  0.21478967292E+01  0.21479018060E+01  0.46700000000E-02 0. -1.
         -1   -1    0    0    0  501 -0.00000000000E+00 -0.00000000000E+00 -0.46559323762E+02  0.46559323996E+02  0.46700000000E-02 0.  1.
       1023    2    1    2    0    0  0.00000000000E+00  0.00000000000E+00 -0.44411427033E+02  0.48707225802E+02  0.20000474851E+02 0.  0.
        -11    1    3    3    0    0  0.92984057775E+01 -0.36802174118E+01 -0.22254303676E+02  0.24397917587E+02  0.51100000000E-03 0.  1.
         11    1    3    3    0    0 -0.92984057775E+01  0.36802174118E+01 -0.22157123357E+02  0.24309308215E+02  0.51100000000E-03 0. -1.
<mgrwt>
<rscale>  0 0.20000475E+02</rscale>
<asrwt>0</asrwt>
<pdfrwt beam="1">  1        1 0.33044609E-03 0.20000475E+02</pdfrwt>
<pdfrwt beam="2">  1       -1 0.71629725E-02 0.20000475E+02</pdfrwt>
<totfact> 0.35175942E+06</totfact>
</mgrwt>
</event>
<event>
 4    1  0.9583198E-007  0.2002335E+02  0.7818608E-02  0.1744864E+00
          1   -1    0    0  501    0  0.00000000000E+00  0.00000000000E+00  0.70086242829E+02  0.70086242985E+02  0.46700000000E-02 0. -1.
         -1   -1    0    0    0  501 -0.00000000000E+00 -0.00000000000E+00 -0.14301434720E+01  0.14301510967E+01  0.46700000000E-02 0.  1.
        -11    1    1    2    0    0  0.94603783126E+01  0.32510851006E+01  0.32875707692E+02  0.34363941402E+02  0.51100000000E-03 0. -1.
         11    1    1    2    0    0 -0.94603783126E+01 -0.32510851006E+01  0.35780391665E+02  0.37152452680E+02  0.51100000000E-03 0.  1.
<mgrwt>
<rscale>  0 0.20023352E+02</rscale>
<asrwt>0</asrwt>
<pdfrwt beam="1">  1        1 0.10782499E-01 0.20023352E+02</pdfrwt>
<pdfrwt beam="2">  1       -1 0.22002268E-03 0.20023352E+02</pdfrwt>
<totfact> 0.42727929E+06</totfact>
</mgrwt>
</event>
<event>
 4    1  0.1028638E-006  0.2120917E+02  0.7818608E-02  0.1722299E+00
          1   -1    0    0  501    0  0.00000000000E+00  0.00000000000E+00  0.22332426224E+01  0.22332475052E+01  0.46700000000E-02 0.  1.
         -1   -1    0    0    0  501 -0.00000000000E+00 -0.00000000000E+00 -0.50355950604E+02  0.50355950821E+02  0.46700000000E-02 0. -1.
        -11    1    1    2    0    0 -0.97129940562E+01  0.41398788000E+01 -0.26511394467E+02  0.28536553521E+02  0.51100000000E-03 0. -1.
         11    1    1    2    0    0  0.97129940562E+01 -0.41398788000E+01 -0.21611313515E+02  0.24052644805E+02  0.51100000000E-03 0.  1.
<mgrwt>
<rscale>  0 0.21209167E+02</rscale>
<asrwt>0</asrwt>
<pdfrwt beam="1">  1        1 0.34357622E-03 0.21209167E+02</pdfrwt>
<pdfrwt beam="2">  1       -1 0.77470689E-02 0.21209167E+02</pdfrwt>
<totfact> 0.30656302E+06</totfact>
</mgrwt>
</event>
<event>
 5    1  0.9583198E-007  0.2000017E+02  0.7818608E-02  0.1745325E+00
         -1   -1    0    0    0  501 -0.00000000000E+00  0.00000000000E+00  0.58429900668E+01  0.58429919330E+01  0.46700000000E-02 0. -1.
          1   -1    0    0  501    0  0.00000000000E+00 -0.00000000000E+00 -0.17114817230E+02  0.17114817867E+02  0.46700000000E-02 0.  1.
       1023    2    1    2    0    0  0.00000000000E+00  0.00000000000E+00 -0.11271827163E+02  0.22957809800E+02  0.20000173580E+02 0.  0.
        -11    1    3    3    0    0  0.53971111062E+01  0.84185921550E+01 -0.56183777303E+01  0.11470295146E+02  0.51100000000E-03 0. -1.
         11    1    3    3    0    0 -0.53971111062E+01 -0.84185921550E+01 -0.56534494328E+01  0.11487514654E+02  0.51100000000E-03 0.  1.
<mgrwt>
<rscale>  0 0.20000174E+02</rscale>
<asrwt>0</asrwt>
<pdfrwt beam="2">  1        1 0.26330490E-02 0.20000174E+02</pdfrwt>
<pdfrwt beam="1">  1       -1 0.89892175E-03 0.20000174E+02</pdfrwt>
<totfact> 0.39450745E+06</totfact>
</mgrwt>
</event>
<event>
 5    1  0.9583198E-007  0.2000041E+02  0.7818608E-02  0.1745320E+00
          1   -1    0    0  501    0  0.00000000000E+00  0.00000000000E+00  0.24829393563E+02  0.24829394002E+02  0.46700000000E-02 0.  1.
         -1   -1    0    0    0  501 -0.00000000000E+00 -0.00000000000E+00 -0.40276471580E+01  0.40276498654E+01  0.46700000000E-02 0. -1.
       1023    2    1    2    0    0  0.00000000000E+00  0.00000000000E+00  0.20801746405E+02  0.28857043867E+02  0.20000408178E+02 0.  0.
        -11    1    3    3    0    0  0.97412952501E+01 -0.22600279392E+01  0.10486501093E+02  0.14490247233E+02  0.51100000000E-03 0.  1.
         11    1    3    3    0    0 -0.97412952501E+01  0.22600279392E+01  0.10315245312E+02  0.14366796635E+02  0.51100000000E-03 0. -1.
<mgrwt>
<rscale>  0 0.20000408E+02</rscale>
<asrwt>0</asrwt>
<pdfrwt beam="1">  1        1 0.38199069E-02 0.20000408E+02</pdfrwt>
<pdfrwt beam="2">  1       -1 0.61963827E-03 0.20000408E+02</pdfrwt>
<totfact> 0.40084777E+06</totfact>
</mgrwt>
</event>
<event>
 5    1  0.9583198E-007  0.2000013E+02  0.7818608E-02  0.1745326E+00
         -1   -1    0    0    0  501 -0.00000000000E+00  0.00000000000E+00  0.12823308958E+01  0.12823393994E+01  0.46700000000E-02 0. -1.
          1   -1    0    0  501    0  0.00000000000E+00 -0.00000000000E+00 -0.77983724622E+02  0.77983724761E+02  0.46700000000E-02 0.  1.
       1023    2    1    2    0    0  0.00000000000E+00  0.00000000000E+00 -0.76701393726E+02  0.79266064161E+02  0.20000128201E+02 0.  0.
        -11    1    3    3    0    0 -0.95327130808E+01  0.30212760131E+01 -0.38257384910E+02  0.39542739256E+02  0.51100000000E-03 0.  1.
         11    1    3    3    0    0  0.95327130808E+01 -0.30212760131E+01 -0.38444008816E+02  0.39723324905E+02  0.51100000000E-03 0. -1.
<mgrwt>
<rscale>  0 0.20000128E+02</rscale>
<asrwt>0</asrwt>
<pdfrwt beam="2">  1        1 0.11997493E-01 0.20000128E+02</pdfrwt>
<pdfrwt beam="1">  1       -1 0.19728240E-03 0.20000128E+02</pdfrwt>
<totfact> 0.43254382E+06</totfact>
</mgrwt>
</event>
<event>
 4    1  0.9583198E-007  0.2004076E+02  0.7818608E-02  0.1744519E+00
          1   -1    0    0  501    0  0.00000000000E+00  0.00000000000E+00  0.96009955159E+02  0.96009955273E+02  0.46700000000E-02 0.  1.
         -1   -1    0    0    0  501 -0.00000000000E+00 -0.00000000000E+00 -0.10458029372E+01  0.10458133640E+01  0.46700000000E-02 0. -1.
        -11    1    1    2    0    0  0.93043498360E+01 -0.36788685385E+01  0.50147902793E+02  0.51136260661E+02  0.51100000000E-03 0. -1.
         11    1    1    2    0    0 -0.93043498360E+01  0.36788685385E+01  0.44816249429E+02  0.45919507976E+02  0.51100000000E-03 0.  1.
<mgrwt>
<rscale>  0 0.20040759E+02</rscale>
<asrwt>0</asrwt>
<pdfrwt beam="1">  1        1 0.14770757E-01 0.20040759E+02</pdfrwt>
<pdfrwt beam="2">  1       -1 0.16089364E-03 0.20040759E+02</pdfrwt>
<totfact> 0.43967858E+06</totfact>
</mgrwt>
</event>
<event>
 5    1  0.9583198E-007  0.2000041E+02  0.7818608E-02  0.1745320E+00
          1   -1    0    0  501    0  0.00000000000E+00  0.00000000000E+00  0.56116683963E+02  0.56116684157E+02  0.46700000000E-02 0.  1.
         -1   -1    0    0    0  501 -0.00000000000E+00 -0.00000000000E+00 -0.17820702349E+01  0.17820763539E+01  0.46700000000E-02 0. -1.
       1023    2    1    2    0    0  0.00000000000E+00  0.00000000000E+00  0.54334613728E+02  0.57898760511E+02  0.20000405490E+02 0.  0.
        -11    1    3    3    0    0 -0.99470421970E+01 -0.10290409740E+01  0.27055905410E+02  0.28844836481E+02  0.51100000000E-03 0.  1.
         11    1    3    3    0    0  0.99470421970E+01  0.10290409740E+01  0.27278708318E+02  0.29053924030E+02  0.51100000000E-03 0. -1.
<mgrwt>
<rscale>  0 0.20000405E+02</rscale>
<asrwt>0</asrwt>
<pdfrwt beam="1">  1        1 0.86333348E-02 0.20000405E+02</pdfrwt>
<pdfrwt beam="2">  1       -1 0.27416519E-03 0.20000405E+02</pdfrwt>
<totfact> 0.42065868E+06</totfact>
</mgrwt>
</event>
<event>
 4    1  0.9583198E-007  0.2001790E+02  0.7818608E-02  0.1744972E+00
         -1   -1    0    0    0  501 -0.00000000000E+00  0.00000000000E+00  0.22840053303E+01  0.22840101045E+01  0.46700000000E-02 0. -1.
          1   -1    0    0  501    0  0.00000000000E+00 -0.00000000000E+00 -0.43861088575E+02  0.43861088824E+02  0.46700000000E-02 0.  1.
        -11    1    1    2    0    0 -0.98129968207E+01 -0.19690592560E+01 -0.20596023330E+02  0.22899089027E+02  0.51100000000E-03 0.  1.
         11    1    1    2    0    0  0.98129968207E+01  0.19690592560E+01 -0.20981059914E+02  0.23246009902E+02  0.51100000000E-03 0. -1.
<mgrwt>
<rscale>  0 0.20017900E+02</rscale>
<asrwt>0</asrwt>
<pdfrwt beam="2">  1        1 0.67478595E-02 0.20017900E+02</pdfrwt>
<pdfrwt beam="1">  1       -1 0.35138585E-03 0.20017900E+02</pdfrwt>
<totfact> 0.41266182E+06</totfact>
</mgrwt>
</event>
<event>
 5    1  0.9583198E-007  0.2000152E+02  0.7818608E-02  0.1745298E+00
         -1   -1    0    0    0  501 -0.00000000000E+00  0.00000000000E+00  0.87950238938E+02  0.87950239062E+02  0.46700000000E-02 0.  1.
          1   -1    0    0  501    0  0.00000000000E+00 -0.00000000000E+00 -0.11371746391E+01  0.11371842282E+01  0.46700000000E-02 0. -1.
       1023    2    1    2    0    0  0.00000000000E+00  0.00000000000E+00  0.86813064299E+02  0.89087423290E+02  0.20001521330E+02 0.  0.
        -11    1    3    3    0    0 -0.10872043549E+01 -0.99413080920E+01  0.43139523021E+02  0.44283519131E+02  0.51100000000E-03 0.  1.
         11    1    3    3    0    0  0.10872043549E+01  0.99413080920E+01  0.43673541278E+02  0.44803904159E+02  0.51100000000E-03 0. -1.
<mgrwt>
<rscale>  0 0.20001521E+02</rscale>
<asrwt>0</asrwt>
<pdfrwt beam="2">  1        1 0.17495067E-03 0.20001521E+02</pdfrwt>
<pdfrwt beam="1">  1       -1 0.13530808E-01 0.20001521E+02</pdfrwt>
<totfact> 0.32527571E+06</totfact>
</mgrwt>
</event>
<event>
 4    1  0.1040779E-006  0.2023874E+02  0.7818608E-02  0.1740622E+00
          1   -1    0    0  501    0  0.00000000000E+00  0.00000000000E+00  0.22441291924E+02  0.22441292409E+02  0.46700000000E-02 0. -1.
         -1   -1    0    0    0  501 -0.00000000000E+00 -0.00000000000E+00 -0.45630878004E+01  0.45630901901E+01  0.46700000000E-02 0.  1.
        -11    1    1    2    0    0  0.91202371979E+01 -0.41943916188E+01  0.10642599514E+02  0.14629988799E+02  0.51100000000E-03 0.  1.
         11    1    1    2    0    0 -0.91202371979E+01  0.41943916188E+01  0.72356046094E+01  0.12374393800E+02  0.51100000000E-03 0. -1.
<mgrwt>
<rscale>  0 0.20238738E+02</rscale>
<asrwt>0</asrwt>
<pdfrwt beam="1">  1        1 0.34525068E-02 0.20238738E+02</pdfrwt>
<pdfrwt beam="2">  1       -1 0.70201371E-03 0.20238738E+02</pdfrwt>
<totfact> 0.38856170E+06</totfact>
</mgrwt>
</event>
<event>
 5    1  0.9583198E-007  0.2000364E+02  0.7818608E-02  0.1745256E+00
          1   -1    0    0  501    0  0.00000000000E+00  0.00000000000E+00  0.27636858680E+02  0.27636859075E+02  0.46700000000E-02 0. -1.
         -1   -1    0    0    0  501 -0.00000000000E+00 -0.00000000000E+00 -0.36196732311E+01  0.36196762436E+01  0.46700000000E-02 0.  1.
       1023    2    1    2    0    0  0.00000000000E+00  0.00000000000E+00  0.24017185449E+02  0.31256535318E+02  0.20003644748E+02 0.  0.
        -11    1    3    3    0    0 -0.96875753095E+01 -0.24830295737E+01  0.11777361317E+02  0.15450591933E+02  0.51100000000E-03 0. -1.
         11    1    3    3    0    0  0.96875753095E+01  0.24830295737E+01  0.12239824132E+02  0.15805943385E+02  0.51100000000E-03 0.  1.
<mgrwt>
<rscale>  0 0.20003645E+02</rscale>
<asrwt>0</asrwt>
<pdfrwt beam="1">  1        1 0.42518245E-02 0.20003645E+02</pdfrwt>
<pdfrwt beam="2">  1       -1 0.55687308E-03 0.20003645E+02</pdfrwt>
<totfact> 0.40274886E+06</totfact>
</mgrwt>
</event>
<event>
 5    1  0.9665642E-007  0.2000224E+02  0.7818608E-02  0.1745284E+00
          1   -1    0    0  501    0  0.00000000000E+00  0.00000000000E+00  0.65699642037E+01  0.65699658634E+01  0.46700000000E-02 0.  1.
         -1   -1    0    0    0  501 -0.00000000000E+00 -0.00000000000E+00 -0.15224190826E+02  0.15224191542E+02  0.46700000000E-02 0. -1.
       1023    2    1    2    0    0  0.00000000000E+00  0.00000000000E+00 -0.86542266224E+01  0.21794157406E+02  0.20002241339E+02 0.  0.
        -11    1    3    3    0    0  0.62825920850E+01  0.77802247288E+01 -0.44794771876E+01  0.10957580767E+02  0.51100000000E-03 0.  1.
         11    1    3    3    0    0 -0.62825920850E+01 -0.77802247288E+01 -0.41747494348E+01  0.10836576638E+02  0.51100000000E-03 0. -1.
<mgrwt>
<rscale>  0 0.20002241E+02</rscale>
<asrwt>0</asrwt>
<pdfrwt beam="1">  1        1 0.10107639E-02 0.20002241E+02</pdfrwt>
<pdfrwt beam="2">  1       -1 0.23421834E-02 0.20002241E+02</pdfrwt>
<totfact> 0.37924332E+06</totfact>
</mgrwt>
</event>
<event>
 5    1  0.9583198E-007  0.2000038E+02  0.7818608E-02  0.1745320E+00
          1   -1    0    0  501    0  0.00000000000E+00  0.00000000000E+00  0.11320762832E+01  0.11320859154E+01  0.46700000000E-02 0. -1.
         -1   -1    0    0    0  501 -0.00000000000E+00 -0.00000000000E+00 -0.88336265268E+02  0.88336265391E+02  0.46700000000E-02 0.  1.
       1023    2    1    2    0    0  0.00000000000E+00  0.00000000000E+00 -0.87204188985E+02  0.89468351307E+02  0.20000382723E+02 0.  0.
        -11    1    3    3    0    0  0.65265211798E+01 -0.75768177498E+01 -0.43662290903E+02  0.44792848683E+02  0.51100000000E-03 0.  1.
         11    1    3    3    0    0 -0.65265211798E+01  0.75768177498E+01 -0.43541898081E+02  0.44675502624E+02  0.51100000000E-03 0. -1.
<mgrwt>
<rscale>  0 0.20000383E+02</rscale>
<asrwt>0</asrwt>
<pdfrwt beam="1">  1        1 0.17416640E-03 0.20000383E+02</pdfrwt>
<pdfrwt beam="2">  1       -1 0.13590190E-01 0.20000383E+02</pdfrwt>
<totfact> 0.32509733E+06</totfact>
</mgrwt>
</event>
<event>
 4    1  0.9583198E-007  0.2003670E+02  0.7818608E-02  0.1744599E+00
         -1   -1    0    0    0  501 -0.00000000000E+00  0.00000000000E+00  0.22215946614E+02  0.22215947105E+02  0.46700000000E-02 0.  1.
          1   -1    0    0  501    0  0.00000000000E+00 -0.00000000000E+00 -0.45178047636E+01  0.45178071772E+01  0.46700000000E-02 0. -1.
        -11    1    1    2    0    0  0.96804726473E+01  0.25797421152E+01  0.88130724605E+01  0.13343045623E+02  0.51100000000E-03 0. -1.
         11    1    1    2    0    0 -0.96804726473E+01 -0.25797421152E+01  0.88850693902E+01  0.13390708659E+02  0.51100000000E-03 0.  1.
<mgrwt>
<rscale>  0 0.20036701E+02</rscale>
<asrwt>0</asrwt>
<pdfrwt beam="2">  1        1 0.69504712E-03 0.20036701E+02</pdfrwt>
<pdfrwt beam="1">  1       -1 0.34178381E-02 0.20036701E+02</pdfrwt>
<totfact> 0.37046916E+06</totfact>
</mgrwt>
</event>
<event>
 5    1  0.1009769E-006  0.2000178E+02  0.7818608E-02  0.1745293E+00
          1   -1    0    0  501    0  0.00000000000E+00  0.00000000000E+00  0.20040865988E+02  0.20040866533E+02  0.46700000000E-02 0.  1.
         -1   -1    0    0    0  501 -0.00000000000E+00 -0.00000000000E+00 -0.49906919118E+01  0.49906940967E+01  0.46700000000E-02 0. -1.
       1023    2    1    2    0    0  0.00000000000E+00  0.00000000000E+00  0.15050174077E+02  0.25031560629E+02  0.20001782116E+02 0.  0.
        -11    1    3    3    0    0  0.83736550403E+00  0.99649129388E+01  0.76889805419E+01  0.12614320945E+02  0.51100000000E-03 0.  1.
         11    1    3    3    0    0 -0.83736550403E+00 -0.99649129388E+01  0.73611935347E+01  0.12417239684E+02  0.51100000000E-03 0. -1.
<mgrwt>
<rscale>  0 0.20001782E+02</rscale>
<asrwt>0</asrwt>
<pdfrwt beam="1">  1        1 0.30832104E-02 0.20001782E+02</pdfrwt>
<pdfrwt beam="2">  1       -1 0.76779895E-03 0.20001782E+02</pdfrwt>
<totfact> 0.39701393E+06</totfact>
</mgrwt>
</event>
<event>
 4    1  0.9583198E-007  0.2017759E+02  0.7818608E-02  0.1741819E+00
          1   -1    0    0  501    0  0.00000000000E+00  0.00000000000E+00  0.19149845648E+02  0.19149846217E+02  0.46700000000E-02 0. -1.
         -1   -1    0    0    0  501 -0.00000000000E+00 -0.00000000000E+00 -0.53151233615E+01  0.53151254131E+01  0.46700000000E-02 0.  1.
        -11    1    1    2    0    0  0.95003025078E+01  0.33766321144E+01  0.64862361967E+01  0.11988688520E+02  0.51100000000E-03 0.  1.
         11    1    1    2    0    0 -0.95003025078E+01 -0.33766321144E+01  0.73484860897E+01  0.12476283110E+02  0.51100000000E-03 0. -1.
<mgrwt>
<rscale>  0 0.20177594E+02</rscale>
<asrwt>0</asrwt>
<pdfrwt beam="1">  1        1 0.29461303E-02 0.20177594E+02</pdfrwt>
<pdfrwt beam="2">  1       -1 0.81771148E-03 0.20177594E+02</pdfrwt>
<totfact> 0.38854688E+06</totfact>
</mgrwt>
</event>
<event>
 5    1  0.1008647E-006  0.2000086E+02  0.7818608E-02  0.1745311E+00
          1   -1    0    0  501    0  0.00000000000E+00  0.00000000000E+00  0.13796411022E+02  0.13796411812E+02  0.46700000000E-02 0. -1.
         -1   -1    0    0    0  501 -0.00000000000E+00 -0.00000000000E+00 -0.72488826892E+01  0.72488841935E+01  0.46700000000E-02 0.  1.
       1023    2    1    2    0    0  0.00000000000E+00  0.00000000000E+00  0.65475283323E+01  0.21045296005E+02  0.20000858899E+02 0.  0.
        -11    1    3    3    0    0 -0.46673202019E+00 -0.99893544970E+01  0.32110986230E+01  0.10503151750E+02  0.51100000000E-03 0.  1.
         11    1    3    3    0    0  0.46673202019E+00  0.99893544970E+01  0.33364297094E+01  0.10542144256E+02  0.51100000000E-03 0. -1.
<mgrwt>
<rscale>  0 0.20000859E+02</rscale>
<asrwt>0</asrwt>
<pdfrwt beam="1">  1        1 0.21225249E-02 0.20000859E+02</pdfrwt>
<pdfrwt beam="2">  1       -1 0.11152129E-02 0.20000859E+02</pdfrwt>
<totfact> 0.39112293E+06</totfact>
</mgrwt>
</event>
<event>
 5    1  0.9583198E-007  0.2000045E+02  0.7818608E-02  0.1745319E+00
          1   -1    0    0  501    0  0.00000000000E+00  0.00000000000E+00  0.85289644382E+00  0.85290922892E+00  0.46700000000E-02 0. -1.
         -1   -1    0    0    0  501 -0.00000000000E+00 -0.00000000000E+00 -0.11725193212E+03  0.11725193221E+03  0.46700000000E-02 0.  1.
       1023    2    1    2    0    0  0.00000000000E+00  0.00000000000E+00 -0.11639903568E+03  0.11810484144E+03  0.20000451637E+02 0.  0.
        -11    1    3    3    0    0  0.58756357030E+01 -0.80917874670E+01 -0.58591077515E+02  0.59438325043E+02  0.51100000000E-03 0. -1.
         11    1    3    3    0    0 -0.58756357030E+01  0.80917874670E+01 -0.57807958162E+02  0.58666516400E+02  0.51100000000E-03 0.  1.
<mgrwt>
<rscale>  0 0.20000452E+02</rscale>
<asrwt>0</asrwt>
<pdfrwt beam="1">  1        1 0.13121592E-03 0.20000452E+02</pdfrwt>
<pdfrwt beam="2">  1       -1 0.18038747E-01 0.20000452E+02</pdfrwt>
<totfact> 0.30971812E+06</totfact>
</mgrwt>
</event>
<event>
 5    1  0.9583198E-007  0.2000051E+02  0.7818608E-02  0.1745318E+00
         -1   -1    0    0    0  501 -0.00000000000E+00  0.00000000000E+00  0.33349181766E+01  0.33349214464E+01  0.46700000000E-02 0. -1.
          1   -1    0    0  501    0  0.00000000000E+00 -0.00000000000E+00 -0.29987239613E+02  0.29987239976E+02  0.46700000000E-02 0.  1.
       1023    2    1    2    0    0  0.00000000000E+00  0.00000000000E+00 -0.26652321436E+02  0.33322161423E+02  0.20000505092E+02 0.  0.
        -11    1    3    3    0    0  0.66180047407E+01 -0.74971257299E+01 -0.13304452630E+02  0.16643717764E+02  0.51100000000E-03 0. -1.
         11    1    3    3    0    0 -0.66180047407E+01  0.74971257299E+01 -0.13347868806E+02  0.16678443659E+02  0.51100000000E-03 0.  1.
<mgrwt>
<rscale>  0 0.20000505E+02</rscale>
<asrwt>0</asrwt>
<pdfrwt beam="2">  1        1 0.46134216E-02 0.20000505E+02</pdfrwt>
<pdfrwt beam="1">  1       -1 0.51306463E-03 0.20000505E+02</pdfrwt>
<totfact> 0.40453525E+06</totfact>
</mgrwt>
</event>
<event>
 5    1  0.9811628E-007  0.2000080E+02  0.7818608E-02  0.1745312E+00
         -1   -1    0    0    0  501 -0.00000000000E+00  0.00000000000E+00  0.60300790519E+01  0.60300808603E+01  0.46700000000E-02 0.  1.
          1   -1    0    0  501    0  0.00000000000E+00 -0.00000000000E+00 -0.16584857549E+02  0.16584858206E+02  0.46700000000E-02 0. -1.
       1023    2    1    2    0    0  0.00000000000E+00  0.00000000000E+00 -0.10554778497E+02  0.22614939066E+02  0.20000802980E+02 0.  0.
        -11    1    3    3    0    0 -0.99576200302E+01  0.92092615270E+00 -0.53629652050E+01  0.11347409294E+02  0.51100000000E-03 0. -1.
         11    1    3    3    0    0  0.99576200302E+01 -0.92092615270E+00 -0.51918132918E+01  0.11267529772E+02  0.51100000000E-03 0.  1.
<mgrwt>
<rscale>  0 0.20000803E+02</rscale>
<asrwt>0</asrwt>
<pdfrwt beam="2">  1        1 0.25515167E-02 0.20000803E+02</pdfrwt>
<pdfrwt beam="1">  1       -1 0.92770467E-03 0.20000803E+02</pdfrwt>
<totfact> 0.39398045E+06</totfact>
</mgrwt>
</event>
<event>
 5    1  0.9848281E-007  0.2000113E+02  0.7818608E-02  0.1745306E+00
          1   -1    0    0  501    0  0.00000000000E+00  0.00000000000E+00  0.13134887459E+02  0.13134888289E+02  0.46700000000E-02 0. -1.
         -1   -1    0    0    0  501 -0.00000000000E+00 -0.00000000000E+00 -0.76141700155E+01  0.76141714476E+01  0.46700000000E-02 0.  1.
       1023    2    1    2    0    0  0.00000000000E+00  0.00000000000E+00  0.55207174437E+01  0.20749059737E+02  0.20001128940E+02 0.  0.
        -11    1    3    3    0    0  0.26674522643E+01  0.96382554860E+01  0.27648879682E+01  0.10375734968E+02  0.51100000000E-03 0.  1.
         11    1    3    3    0    0 -0.26674522643E+01 -0.96382554860E+01  0.27558294755E+01  0.10373324769E+02  0.51100000000E-03 0. -1.
<mgrwt>
<rscale>  0 0.20001129E+02</rscale>
<asrwt>0</asrwt>
<pdfrwt beam="1">  1        1 0.20207521E-02 0.20001129E+02</pdfrwt>
<pdfrwt beam="2">  1       -1 0.11714110E-02 0.20001129E+02</pdfrwt>
<totfact> 0.39036140E+06</totfact>
</mgrwt>
</event>
<event>
 5    1  0.9583198E-007  0.2000039E+02  0.7818608E-02  0.1745320E+00
         -1   -1    0    0    0  501 -0.00000000000E+00  0.00000000000E+00  0.81565828615E+02  0.81565828749E+02  0.46700000000E-02 0. -1.
          1   -1    0    0  501    0  0.00000000000E+00 -0.00000000000E+00 -0.12260469073E+01  0.12260558013E+01  0.46700000000E-02 0.  1.
       1023    2    1    2    0    0  0.00000000000E+00  0.00000000000E+00  0.80339781708E+02  0.82791884550E+02  0.20000390559E+02 0.  0.
        -11    1    3    3    0    0 -0.96489697301E+01 -0.26267842236E+01  0.40021032224E+02  0.41251492491E+02  0.51100000000E-03 0.  1.
         11    1    3    3    0    0  0.96489697301E+01  0.26267842236E+01  0.40318749484E+02  0.41540392059E+02  0.51100000000E-03 0. -1.
<mgrwt>
<rscale>  0 0.20000391E+02</rscale>
<asrwt>0</asrwt>
<pdfrwt beam="2">  1        1 0.18862330E-03 0.20000391E+02</pdfrwt>
<pdfrwt beam="1">  1       -1 0.12548590E-01 0.20000391E+02</pdfrwt>
<totfact> 0.32899869E+06</totfact>
</mgrwt>
</event>
<event>
 5    1  0.9627737E-007  0.2000072E+02  0.7818608E-02  0.1745314E+00
          1   -1    0    0  501    0  0.00000000000E+00  0.00000000000E+00  0.69709454940E+01  0.69709470583E+01  0.46700000000E-02 0.  1.
         -1   -1    0    0    0  501 -0.00000000000E+00 -0.00000000000E+00 -0.14346287305E+02  0.14346288065E+02  0.46700000000E-02 0. -1.
       1023    2    1    2    0    0  0.00000000000E+00  0.00000000000E+00 -0.73753418108E+01  0.21317235123E+02  0.20000721149E+02 0.  0.
        -11    1    3    3    0    0 -0.98939565170E+01  0.14527965904E+01 -0.37717147318E+01  0.10687695064E+02  0.51100000000E-03 0.  1.
         11    1    3    3    0    0  0.98939565170E+01 -0.14527965904E+01 -0.36036270790E+01  0.10629540060E+02  0.51100000000E-03 0. -1.
<mgrwt>
<rscale>  0 0.20000721E+02</rscale>
<asrwt>0</asrwt>
<pdfrwt beam="1">  1        1 0.10724533E-02 0.20000721E+02</pdfrwt>
<pdfrwt beam="2">  1       -1 0.22071213E-02 0.20000721E+02</pdfrwt>
<totfact> 0.38034539E+06</totfact>
</mgrwt>
</event>
<event>
 5    1  0.9826400E-007  0.2000089E+02  0.7818608E-02  0.1745310E+00
         -1   -1    0    0    0  501 -0.00000000000E+00  0.00000000000E+00  0.42971625082E+01  0.42971650458E+01  0.46700000000E-02 0. -1.
          1   -1    0    0  501    0  0.00000000000E+00 -0.00000000000E+00 -0.23273235648E+02  0.23273236116E+02  0.46700000000E-02 0.  1.
       1023    2    1    2    0    0  0.00000000000E+00  0.00000000000E+00 -0.18976073139E+02  0.27570401162E+02  0.20000891691E+02 0.  0.
        -11    1    3    3    0    0 -0.10088156064E+01 -0.99494317595E+01 -0.94934781994E+01  0.13788945930E+02  0.51100000000E-03 0. -1.
         11    1    3    3    0    0  0.10088156064E+01  0.99494317595E+01 -0.94825949400E+01  0.13781455232E+02  0.51100000000E-03 0.  1.
<mgrwt>
<rscale>  0 0.20000892E+02</rscale>
<asrwt>0</asrwt>
<pdfrwt beam="2">  1        1 0.35804980E-02 0.20000892E+02</pdfrwt>
<pdfrwt beam="1">  1       -1 0.66110217E-03 0.20000892E+02</pdfrwt>
<totfact> 0.39964516E+06</totfact>
</mgrwt>
</event>
<event>
 5    1  0.9583198E-007  0.2000065E+02  0.7818608E-02  0.1745315E+00
          1   -1    0    0  501    0  0.00000000000E+00  0.00000000000E+00  0.21493030362E+01  0.21493081096E+01  0.46700000000E-02 0. -1.
         -1   -1    0    0    0  501 -0.00000000000E+00 -0.00000000000E+00 -0.46529651964E+02  0.46529652199E+02  0.46700000000E-02 0.  1.
       1023    2    1    2    0    0  0.00000000000E+00  0.00000000000E+00 -0.44380348928E+02  0.48678960308E+02  0.20000645132E+02 0.  0.
        -11    1    3    3    0    0  0.98127711804E+01 -0.19272733930E+01 -0.22093118394E+02  0.24250994652E+02  0.51100000000E-03 0.  1.
         11    1    3    3    0    0 -0.98127711804E+01  0.19272733930E+01 -0.22287230534E+02  0.24427965656E+02  0.51100000000E-03 0. -1.
<mgrwt>
<rscale>  0 0.20000645E+02</rscale>
<asrwt>0</asrwt>
<pdfrwt beam="1">  1        1 0.33066245E-03 0.20000645E+02</pdfrwt>
<pdfrwt beam="2">  1       -1 0.71584077E-02 0.20000645E+02</pdfrwt>
<totfact> 0.35177454E+06</totfact>
</mgrwt>
</event>
<event>
 5    1  0.1169195E-006  0.2000130E+02  0.7818608E-02  0.1745302E+00
          1   -1    0    0  501    0  0.00000000000E+00  0.00000000000E+00  0.31219460086E+01  0.31219495014E+01  0.46700000000E-02 0.  1.
         -1   -1    0    0    0  501 -0.00000000000E+00 -0.00000000000E+00 -0.32035434481E+02  0.32035434822E+02  0.46700000000E-02 0. -1.
       1023    2    1    2    0    0  0.00000000000E+00  0.00000000000E+00 -0.28913488473E+02  0.35157384323E+02  0.20001296378E+02 0.  0.
        -11    1    3    3    0    0 -0.99907383301E+01 -0.43304537289E+00 -0.14275915215E+02  0.17429978088E+02  0.51100000000E-03 0. -1.
         11    1    3    3    0    0  0.99907383301E+01  0.43304537289E+00 -0.14637573258E+02  0.17727406235E+02  0.51100000000E-03 0.  1.
<mgrwt>
<rscale>  0 0.20001296E+02</rscale>
<asrwt>0</asrwt>
<pdfrwt beam="1">  1        1 0.48029970E-03 0.20001296E+02</pdfrwt>
<pdfrwt beam="2">  1       -1 0.49285285E-02 0.20001296E+02</pdfrwt>
<totfact> 0.36307831E+06</totfact>
</mgrwt>
</event>
<event>
 5    1  0.9811874E-007  0.2000073E+02  0.7818608E-02  0.1745314E+00
         -1   -1    0    0    0  501 -0.00000000000E+00  0.00000000000E+00  0.20081530830E+01  0.20081585131E+01  0.46700000000E-02 0.  1.
          1   -1    0    0  501    0  0.00000000000E+00 -0.00000000000E+00 -0.49800573868E+02  0.49800574087E+02  0.46700000000E-02 0. -1.
       1023    2    1    2    0    0  0.00000000000E+00  0.00000000000E+00 -0.47792420785E+02  0.51808732600E+02  0.20000732215E+02 0.  0.
        -11    1    3    3    0    0  0.52037741892E+01  0.85397727624E+01 -0.23848631448E+02  0.25860475766E+02  0.51100000000E-03 0.  1.
         11    1    3    3    0    0 -0.52037741892E+01 -0.85397727624E+01 -0.23943789337E+02  0.25948256834E+02  0.51100000000E-03 0. -1.
<mgrwt>
<rscale>  0 0.20000732E+02</rscale>
<asrwt>0</asrwt>
<pdfrwt beam="2">  1        1 0.76616262E-02 0.20000732E+02</pdfrwt>
<pdfrwt beam="1">  1       -1 0.30894710E-03 0.20000732E+02</pdfrwt>
<totfact> 0.41699739E+06</totfact>
</mgrwt>
</event>
<event>
 5    1  0.9583198E-007  0.2000010E+02  0.7818608E-02  0.1745326E+00
          1   -1    0    0  501    0  0.00000000000E+00  0.00000000000E+00  0.16293110455E+01  0.16293177382E+01  0.46700000000E-02 0.  1.
         -1   -1    0    0    0  501 -0.00000000000E+00 -0.00000000000E+00 -0.61376131074E+02  0.61376131252E+02  0.46700000000E-02 0. -1.
       1023    2    1    2    0    0  0.00000000000E+00  0.00000000000E+00 -0.59746820029E+02  0.63005448990E+02  0.20000102472E+02 0.  0.
        -11    1    3    3    0    0 -0.93820249556E+01  0.34610068063E+01 -0.29848191922E+02  0.31478810677E+02  0.51100000000E-03 0. -1.
         11    1    3    3    0    0  0.93820249556E+01 -0.34610068063E+01 -0.29898628107E+02  0.31526638313E+02  0.51100000000E-03 0.  1.
<mgrwt>
<rscale>  0 0.20000102E+02</rscale>
<asrwt>0</asrwt>
<pdfrwt beam="1">  1        1 0.25066381E-03 0.20000102E+02</pdfrwt>
<pdfrwt beam="2">  1       -1 0.94424804E-02 0.20000102E+02</pdfrwt>
<totfact> 0.34151955E+06</totfact>
</mgrwt>
</event>
<event>
 4    1  0.9583198E-007  0.2007005E+02  0.7818608E-02  0.1743939E+00
          1   -1    0    0  501    0  0.00000000000E+00  0.00000000000E+00  0.30997538532E+02  0.30997538883E+02  0.46700000000E-02 0.  1.
         -1   -1    0    0    0  501 -0.00000000000E+00 -0.00000000000E+00 -0.32486998237E+01  0.32487031802E+01  0.46700000000E-02 0. -1.
        -11    1    1    2    0    0  0.31364881401E+01  0.95152161336E+01  0.14846978543E+02  0.17911160432E+02  0.51100000000E-03 0.  1.
         11    1    1    2    0    0 -0.31364881401E+01 -0.95152161336E+01  0.12901860165E+02  0.16335081632E+02  0.51100000000E-03 0. -1.
<mgrwt>
<rscale>  0 0.20070053E+02</rscale>
<asrwt>0</asrwt>
<pdfrwt beam="1">  1        1 0.47688526E-02 0.20070053E+02</pdfrwt>
<pdfrwt beam="2">  1       -1 0.49980023E-03 0.20070053E+02</pdfrwt>
<totfact> 0.40209758E+06</totfact>
</mgrwt>
</event>
<event>
 5    1  0.1000999E-006  0.2000092E+02  0.7818608E-02  0.1745310E+00
          1   -1    0    0  501    0  0.00000000000E+00  0.00000000000E+00  0.14990967916E+02  0.14990968644E+02  0.46700000000E-02 0. -1.
         -1   -1    0    0    0  501 -0.00000000000E+00 -0.00000000000E+00 -0.66712978430E+01  0.66712994775E+01  0.46700000000E-02 0.  1.
       1023    2    1    2    0    0  0.00000000000E+00  0.00000000000E+00  0.83196700734E+01  0.21662268121E+02  0.20000923729E+02 0.  0.
        -11    1    3    3    0    0  0.56429068460E+01 -0.82559316235E+01  0.40729695587E+01  0.10797772267E+02  0.51100000000E-03 0. -1.
         11    1    3    3    0    0 -0.56429068460E+01  0.82559316235E+01  0.42467005147E+01  0.10864495854E+02  0.51100000000E-03 0.  1.
<mgrwt>
<rscale>  0 0.20000924E+02</rscale>
<asrwt>0</asrwt>
<pdfrwt beam="1">  1        1 0.23063029E-02 0.20000924E+02</pdfrwt>
<pdfrwt beam="2">  1       -1 0.10263537E-02 0.20000924E+02</pdfrwt>
<totfact> 0.39239642E+06</totfact>
</mgrwt>
</event>
<event>
 5    1  0.9583198E-007  0.2000031E+02  0.7818608E-02  0.1745322E+00
          1   -1    0    0  501    0  0.00000000000E+00  0.00000000000E+00  0.69874412759E+02  0.69874412915E+02  0.46700000000E-02 0. -1.
         -1   -1    0    0    0  501 -0.00000000000E+00 -0.00000000000E+00 -0.14311792193E+01  0.14311868385E+01  0.46700000000E-02 0.  1.
       1023    2    1    2    0    0  0.00000000000E+00  0.00000000000E+00  0.68443233540E+02  0.71305599754E+02  0.20000308469E+02 0.  0.
        -11    1    3    3    0    0  0.93865862816E+01  0.34486538527E+01  0.34067483829E+02  0.35504854177E+02  0.51100000000E-03 0. -1.
         11    1    3    3    0    0 -0.93865862816E+01 -0.34486538527E+01  0.34375749711E+02  0.35800745577E+02  0.51100000000E-03 0.  1.
<mgrwt>
<rscale>  0 0.20000308E+02</rscale>
<asrwt>0</asrwt>
<pdfrwt beam="1">  1        1 0.10749908E-01 0.20000308E+02</pdfrwt>
<pdfrwt beam="2">  1       -1 0.22018207E-03 0.20000308E+02</pdfrwt>
<totfact> 0.42825682E+06</totfact>
</mgrwt>
</event>
<event>
 5    1  0.9583198E-007  0.2000020E+02  0.7818608E-02  0.1745324E+00
         -1   -1    0    0    0  501 -0.00000000000E+00  0.00000000000E+00  0.12290253784E+01  0.12290342508E+01  0.46700000000E-02 0. -1.
          1   -1    0    0  501    0  0.00000000000E+00 -0.00000000000E+00 -0.81366603013E+02  0.81366603147E+02  0.46700000000E-02 0.  1.
       1023    2    1    2    0    0  0.00000000000E+00  0.00000000000E+00 -0.80137577635E+02  0.82595637398E+02  0.20000199199E+02 0.  0.
        -11    1    3    3    0    0  0.91479017051E+01  0.40394834588E+01 -0.40157315646E+02  0.41383710954E+02  0.51100000000E-03 0.  1.
         11    1    3    3    0    0 -0.91479017051E+01 -0.40394834588E+01 -0.39980261989E+02  0.41211926444E+02  0.51100000000E-03 0. -1.
<mgrwt>
<rscale>  0 0.20000199E+02</rscale>
<asrwt>0</asrwt>
<pdfrwt beam="2">  1        1 0.12517935E-01 0.20000199E+02</pdfrwt>
<pdfrwt beam="1">  1       -1 0.18908158E-03 0.20000199E+02</pdfrwt>
<totfact> 0.43428810E+06</totfact>
</mgrwt>
</event>
<event>
 5    1  0.9583198E-007  0.2000041E+02  0.7818608E-02  0.1745320E+00
          1   -1    0    0  501    0  0.00000000000E+00  0.00000000000E+00  0.15743547201E+02  0.15743547893E+02  0.46700000000E-02 0.  1.
         -1   -1    0    0    0  501 -0.00000000000E+00 -0.00000000000E+00 -0.63520687178E+01  0.63520704345E+01  0.46700000000E-02 0. -1.
       1023    2    1    2    0    0  0.00000000000E+00  0.00000000000E+00  0.93914784827E+01  0.22095618328E+02  0.20000412026E+02 0.  0.
        -11    1    3    3    0    0 -0.72552755862E+01 -0.68822298987E+01  0.46988299179E+01  0.11049122819E+02  0.51100000000E-03 0. -1.
         11    1    3    3    0    0  0.72552755862E+01  0.68822298987E+01  0.46926485647E+01  0.11046495509E+02  0.51100000000E-03 0.  1.
<mgrwt>
<rscale>  0 0.20000412E+02</rscale>
<asrwt>0</asrwt>
<pdfrwt beam="1">  1        1 0.24220844E-02 0.20000412E+02</pdfrwt>
<pdfrwt beam="2">  1       -1 0.97724152E-03 0.20000412E+02</pdfrwt>
<totfact> 0.39318014E+06</totfact>
</mgrwt>
</event>
<event>
 5    1  0.9583198E-007  0.2000031E+02  0.7818608E-02  0.1745322E+00
          1   -1    0    0  501    0  0.00000000000E+00  0.00000000000E+00  0.93133500252E+02  0.93133500369E+02  0.46700000000E-02 0. -1.
         -1   -1    0    0    0  501 -0.00000000000E+00 -0.00000000000E+00 -0.10737555751E+01  0.10737657305E+01  0.46700000000E-02 0.  1.
       1023    2    1    2    0    0  0.00000000000E+00  0.00000000000E+00  0.92059744677E+02  0.94207266100E+02  0.20000309897E+02 0.  0.
        -11    1    3    3    0    0 -0.85597659698E+01 -0.51702410044E+01  0.45813340678E+02  0.46892037382E+02  0.51100000000E-03 0. -1.
         11    1    3    3    0    0  0.85597659698E+01  0.51702410044E+01  0.46246403999E+02  0.47315228718E+02  0.51100000000E-03 0.  1.
<mgrwt>
<rscale>  0 0.20000310E+02</rscale>
<asrwt>0</asrwt>
<pdfrwt beam="1">  1        1 0.14328237E-01 0.20000310E+02</pdfrwt>
<pdfrwt beam="2">  1       -1 0.16519389E-03 0.20000310E+02</pdfrwt>
<totfact> 0.44022464E+06</totfact>
</mgrwt>
</event>
<event>
 5    1  0.9583198E-007  0.2000044E+02  0.7818608E-02  0.1745319E+00
         -1   -1    0    0    0  501 -0.00000000000E+00  0.00000000000E+00  0.11961678776E+01  0.11961769937E+01  0.46700000000E-02 0.  1.
          1   -1    0    0  501    0  0.00000000000E+00 -0.00000000000E+00 -0.83603656413E+02  0.83603656544E+02  0.46700000000E-02 0. -1.
       1023    2    1    2    0    0  0.00000000000E+00  0.00000000000E+00 -0.82407488536E+02  0.84799833537E+02  0.20000440026E+02 0.  0.
        -11    1    3    3    0    0  0.79676396701E+01  0.60432704176E+01 -0.41207512792E+02  0.42403578977E+02  0.51100000000E-03 0.  1.
         11    1    3    3    0    0 -0.79676396701E+01 -0.60432704176E+01 -0.41199975744E+02  0.42396254561E+02  0.51100000000E-03 0. -1.
<mgrwt>
<rscale>  0 0.20000440E+02</rscale>
<asrwt>0</asrwt>
<pdfrwt beam="2">  1        1 0.12862097E-01 0.20000440E+02</pdfrwt>
<pdfrwt beam="1">  1       -1 0.18402660E-03 0.20000440E+02</pdfrwt>
<totfact> 0.43542119E+06</totfact>
</mgrwt>
</event>
<event>
 5    1  0.9583198E-007  0.2000006E+02  0.7818608E-02  0.1745327E+00
          1   -1    0    0  501    0  0.00000000000E+00  0.00000000000E+00  0.17554580099E+01  0.17554642216E+01  0.46700000000E-02 0. -1.
         -1   -1    0    0    0  501 -0.00000000000E+00 -0.00000000000E+00 -0.56965405258E+02  0.56965405449E+02  0.46700000000E-02 0.  1.
       1023    2    1    2    0    0  0.00000000000E+00  0.00000000000E+00 -0.55209947248E+02  0.58720869671E+02  0.20000056494E+02 0.  0.
        -11    1    3    3    0    0  0.71745853869E+01  0.69660458717E+01 -0.27576489066E+02  0.29333653370E+02  0.51100000000E-03 0. -1.
         11    1    3    3    0    0 -0.71745853869E+01 -0.69660458717E+01 -0.27633458182E+02  0.29387216301E+02  0.51100000000E-03 0.  1.
<mgrwt>
<rscale>  0 0.20000056E+02</rscale>
<asrwt>0</asrwt>
<pdfrwt beam="1">  1        1 0.27007100E-03 0.20000056E+02</pdfrwt>
<pdfrwt beam="2">  1       -1 0.87639076E-02 0.20000056E+02</pdfrwt>
<totfact> 0.34446253E+06</totfact>
</mgrwt>
</event>
<event>
 5    1  0.9583198E-007  0.2000017E+02  0.7818608E-02  0.1745325E+00
          1   -1    0    0  501    0  0.00000000000E+00  0.00000000000E+00  0.32388231688E+02  0.32388232025E+02  0.46700000000E-02 0. -1.
         -1   -1    0    0    0  501 -0.00000000000E+00 -0.00000000000E+00 -0.30875925477E+01  0.30875960794E+01  0.46700000000E-02 0.  1.
       1023    2    1    2    0    0  0.00000000000E+00  0.00000000000E+00  0.29300639141E+02  0.35475828104E+02  0.20000173140E+02 0.  0.
        -11    1    3    3    0    0 -0.63493887150E+01 -0.77257215468E+01  0.14623969768E+02  0.17716150894E+02  0.51100000000E-03 0.  1.
         11    1    3    3    0    0  0.63493887150E+01  0.77257215468E+01  0.14676669373E+02  0.17759677210E+02  0.51100000000E-03 0. -1.
<mgrwt>
<rscale>  0 0.20000173E+02</rscale>
<asrwt>0</asrwt>
<pdfrwt beam="1">  1        1 0.49828051E-02 0.20000173E+02</pdfrwt>
<pdfrwt beam="2">  1       -1 0.47501454E-03 0.20000173E+02</pdfrwt>
<totfact> 0.40618008E+06</totfact>
</mgrwt>
</event>
<event>
 5    1  0.9583198E-007  0.2000674E+02  0.7818608E-02  0.1745194E+00
         -1   -1    0    0    0  501 -0.00000000000E+00  0.00000000000E+00  0.17801224862E+02  0.17801225475E+02  0.46700000000E-02 0. -1.
          1   -1    0    0  501    0  0.00000000000E+00 -0.00000000000E+00 -0.56213767905E+01  0.56213787304E+01  0.46700000000E-02 0.  1.
       1023    2    1    2    0    0  0.00000000000E+00  0.00000000000E+00  0.12179848072E+02  0.23422604205E+02  0.20006741081E+02 0.  0.
        -11    1    3    3    0    0 -0.29819281810E+01  0.95481767538E+01  0.59862169740E+01  0.11657374015E+02  0.51100000000E-03 0.  1.
         11    1    3    3    0    0  0.29819281810E+01 -0.95481767538E+01  0.61936310976E+01  0.11765230190E+02  0.51100000000E-03 0. -1.
<mgrwt>
<rscale>  0 0.20006741E+02</rscale>
<asrwt>0</asrwt>
<pdfrwt beam="2">  1        1 0.86482741E-03 0.20006741E+02</pdfrwt>
<pdfrwt beam="1">  1       -1 0.27386501E-02 0.20006741E+02</pdfrwt>
<totfact> 0.37618430E+06</totfact>
</mgrwt>
</event>
<event>
 5    1  0.1008425E-006  0.2000122E+02  0.7818608E-02  0.1745304E+00
          1   -1    0    0  501    0  0.00000000000E+00  0.00000000000E+00  0.25364479627E+02  0.25364480057E+02  0.46700000000E-02 0. -1.
         -1   -1    0    0    0  501 -0.00000000000E+00 -0.00000000000E+00 -0.39430010300E+01  0.39430037955E+01  0.46700000000E-02 0.  1.
       1023    2    1    2    0    0  0.00000000000E+00  0.00000000000E+00  0.21421478597E+02  0.29307483852E+02  0.20001221575E+02 0.  0.
        -11    1    3    3    0    0  0.27209639752E+01 -0.96228541383E+01  0.10569819317E+02  0.14550740441E+02  0.51100000000E-03 0.  1.
         11    1    3    3    0    0 -0.27209639752E+01  0.96228541383E+01  0.10851659279E+02  0.14756743411E+02  0.51100000000E-03 0. -1.
<mgrwt>
<rscale>  0 0.20001222E+02</rscale>
<asrwt>0</asrwt>
<pdfrwt beam="1">  1        1 0.39022281E-02 0.20001222E+02</pdfrwt>
<pdfrwt beam="2">  1       -1 0.60661576E-03 0.20001222E+02</pdfrwt>
<totfact> 0.40120913E+06</totfact>
</mgrwt>
</event>
<event>
 5    1  0.9611275E-007  0.2000102E+02  0.7818608E-02  0.1745308E+00
         -1   -1    0    0    0  501 -0.00000000000E+00  0.00000000000E+00  0.99393520464E+01  0.99393531435E+01  0.46700000000E-02 0. -1.
          1   -1    0    0  501    0  0.00000000000E+00 -0.00000000000E+00 -0.10062042859E+02  0.10062043943E+02  0.46700000000E-02 0.  1.
       1023    2    1    2    0    0  0.00000000000E+00  0.00000000000E+00 -0.12269081276E+00  0.20001397086E+02  0.20001020783E+02 0.  0.
        -11    1    3    3    0    0 -0.93725316350E+01  0.34877431238E+01 -0.22531213151E-01  0.10000460453E+02  0.51100000000E-03 0. -1.
         11    1    3    3    0    0  0.93725316350E+01 -0.34877431238E+01 -0.10015959961E+00  0.10000936634E+02  0.51100000000E-03 0.  1.
<mgrwt>
<rscale>  0 0.20001021E+02</rscale>
<asrwt>0</asrwt>
<pdfrwt beam="2">  1        1 0.15480068E-02 0.20001021E+02</pdfrwt>
<pdfrwt beam="1">  1       -1 0.15291313E-02 0.20001021E+02</pdfrwt>
<totfact> 0.38629074E+06</totfact>
</mgrwt>
</event>
<event>
 5    1  0.9583198E-007  0.2000007E+02  0.7818608E-02  0.1745327E+00
         -1   -1    0    0    0  501 -0.00000000000E+00  0.00000000000E+00  0.87125399447E+02  0.87125399572E+02  0.46700000000E-02 0.  1.
          1   -1    0    0  501    0  0.00000000000E+00 -0.00000000000E+00 -0.11477740178E+01  0.11477835182E+01  0.46700000000E-02 0. -1.
       1023    2    1    2    0    0  0.00000000000E+00  0.00000000000E+00  0.85977625429E+02  0.88273183091E+02  0.20000069461E+02 0.  0.
        -11    1    3    3    0    0 -0.66620336319E+01  0.74577378021E+01  0.43042709072E+02  0.44189086320E+02  0.51100000000E-03 0. -1.
         11    1    3    3    0    0  0.66620336319E+01 -0.74577378021E+01  0.42934916357E+02  0.44084096771E+02  0.51100000000E-03 0.  1.
<mgrwt>
<rscale>  0 0.20000069E+02</rscale>
<asrwt>0</asrwt>
<pdfrwt beam="2">  1        1 0.17658132E-03 0.20000069E+02</pdfrwt>
<pdfrwt beam="1">  1       -1 0.13403911E-01 0.20000069E+02</pdfrwt>
<totfact> 0.32579680E+06</totfact>
</mgrwt>
</event>
<event>
 5    1  0.9587398E-007  0.2000145E+02  0.7818608E-02  0.1745299E+00
         -1   -1    0    0    0  501 -0.00000000000E+00  0.00000000000E+00  0.11347039114E+02  0.11347040075E+02  0.46700000000E-02 0.  1.
          1   -1    0    0  501    0  0.00000000000E+00 -0.00000000000E+00 -0.88141478516E+01  0.88141490888E+01  0.46700000000E-02 0. -1.
       1023    2    1    2    0    0  0.00000000000E+00  0.00000000000E+00  0.25328912627E+01  0.20161189164E+02  0.20001450207E+02 0.  0.
        -11    1    3    3    0    0  0.51593596531E+01  0.85670896211E+01  0.12442304630E+01  0.10077803645E+02  0.51100000000E-03 0.  1.
         11    1    3    3    0    0 -0.51593596531E+01 -0.85670896211E+01  0.12886607997E+01  0.10083385519E+02  0.51100000000E-03 0. -1.
<mgrwt>
<rscale>  0 0.20001450E+02</rscale>
<asrwt>0</asrwt>
<pdfrwt beam="2">  1        1 0.13560229E-02 0.20001450E+02</pdfrwt>
<pdfrwt beam="1">  1       -1 0.17456985E-02 0.20001450E+02</pdfrwt>
<totfact> 0.38419551E+06</totfact>
</mgrwt>
</event>
<event>
 4    1  0.9583198E-007  0.2003996E+02  0.7818608E-02  0.1744535E+00
          1   -1    0    0  501    0  0.00000000000E+00  0.00000000000E+00  0.11252531026E+01  0.11252627932E+01  0.46700000000E-02 0.  1.
         -1   -1    0    0    0  501 -0.00000000000E+00 -0.00000000000E+00 -0.89223950013E+02  0.89223950135E+02  0.46700000000E-02 0. -1.
        -11    1    1    2    0    0  0.23740888874E+01  0.97244977379E+01 -0.46054547707E+02  0.47129858042E+02  0.51100000000E-03 0. -1.
         11    1    1    2    0    0 -0.23740888874E+01 -0.97244977379E+01 -0.42044149203E+02  0.43219354886E+02  0.51100000000E-03 0.  1.
<mgrwt>
<rscale>  0 0.20039957E+02</rscale>
<asrwt>0</asrwt>
<pdfrwt beam="1">  1        1 0.17311669E-03 0.20039957E+02</pdfrwt>
<pdfrwt beam="2">  1       -1 0.13726757E-01 0.20039957E+02</pdfrwt>
<totfact> 0.32319182E+06</totfact>
</mgrwt>
</event>
<event>
 5    1  0.9583198E-007  0.2000812E+02  0.7818608E-02  0.1745167E+00
          1   -1    0    0  501    0  0.00000000000E+00  0.00000000000E+00  0.16485178168E+01  0.16485244315E+01  0.46700000000E-02 0. -1.
         -1   -1    0    0    0  501 -0.00000000000E+00 -0.00000000000E+00 -0.60709704047E+02  0.60709704227E+02  0.46700000000E-02 0.  1.
       1023    2    1    2    0    0  0.00000000000E+00  0.00000000000E+00 -0.59061186230E+02  0.62358228658E+02  0.20008122412E+02 0.  0.
        -11    1    3    3    0    0  0.89876073320E+01 -0.43868283936E+01 -0.30293321362E+02  0.31901515141E+02  0.51100000000E-03 0. -1.
         11    1    3    3    0    0 -0.89876073320E+01  0.43868283936E+01 -0.28767864868E+02  0.30456713517E+02  0.51100000000E-03 0.  1.
<mgrwt>
<rscale>  0 0.20008122E+02</rscale>
<asrwt>0</asrwt>
<pdfrwt beam="1">  1        1 0.25361869E-03 0.20008122E+02</pdfrwt>
<pdfrwt beam="2">  1       -1 0.93399533E-02 0.20008122E+02</pdfrwt>
<totfact> 0.34165752E+06</totfact>
</mgrwt>
</event>
<event>
 5    1  0.9583198E-007  0.2000041E+02  0.7818608E-02  0.1745320E+00
          1   -1    0    0  501    0  0.00000000000E+00  0.00000000000E+00  0.13336880703E+01  0.13336962464E+01  0.46700000000E-02 0. -1.
         -1   -1    0    0    0  501 -0.00000000000E+00 -0.00000000000E+00 -0.74982914851E+02  0.74982914996E+02  0.46700000000E-02 0.  1.
       1023    2    1    2    0    0  0.00000000000E+00  0.00000000000E+00 -0.73649226781E+02  0.76316611243E+02  0.20000413651E+02 0.  0.
        -11    1    3    3    0    0 -0.52439097100E+01  0.85149235430E+01 -0.36670828822E+02  0.38009896064E+02  0.51100000000E-03 0. -1.
         11    1    3    3    0    0  0.52439097100E+01 -0.85149235430E+01 -0.36978397958E+02  0.38306715179E+02  0.51100000000E-03 0.  1.
<mgrwt>
<rscale>  0 0.20000414E+02</rscale>
<asrwt>0</asrwt>
<pdfrwt beam="1">  1        1 0.20518348E-03 0.20000414E+02</pdfrwt>
<pdfrwt beam="2">  1       -1 0.11535830E-01 0.20000414E+02</pdfrwt>
<totfact> 0.33292323E+06</totfact>
</mgrwt>
</event>
<event>
 5    1  0.9583198E-007  0.2000629E+02  0.7818608E-02  0.1745203E+00
         -1   -1    0    0    0  501 -0.00000000000E+00  0.00000000000E+00  0.17061635363E+01  0.17061699275E+01  0.46700000000E-02 0. -1.
          1   -1    0    0  501    0  0.00000000000E+00 -0.00000000000E+00 -0.58647791831E+02  0.58647792017E+02  0.46700000000E-02 0.  1.
       1023    2    1    2    0    0  0.00000000000E+00  0.00000000000E+00 -0.56941628294E+02  0.60353961944E+02  0.20006291249E+02 0.  0.
        -11    1    3    3    0    0 -0.23397935222E+01  0.97250460181E+01 -0.28143551206E+02  0.29868221047E+02  0.51100000000E-03 0. -1.
         11    1    3    3    0    0  0.23397935222E+01 -0.97250460181E+01 -0.28798077088E+02  0.30485740897E+02  0.51100000000E-03 0.  1.
<mgrwt>
<rscale>  0 0.20006291E+02</rscale>
<asrwt>0</asrwt>
<pdfrwt beam="2">  1        1 0.90227362E-02 0.20006291E+02</pdfrwt>
<pdfrwt beam="1">  1       -1 0.26248725E-03 0.20006291E+02</pdfrwt>
<totfact> 0.42181359E+06</totfact>
</mgrwt>
</event>
<event>
 5    1  0.9583198E-007  0.2000180E+02  0.7818608E-02  0.1745292E+00
         -1   -1    0    0    0  501 -0.00000000000E+00  0.00000000000E+00  0.10207680397E+03  0.10207680408E+03  0.46700000000E-02 0. -1.
          1   -1    0    0  501    0  0.00000000000E+00 -0.00000000000E+00 -0.97982557857E+00  0.97983670748E+00  0.46700000000E-02 0.  1.
       1023    2    1    2    0    0  0.00000000000E+00  0.00000000000E+00  0.10109697839E+03  0.10305664078E+03  0.20001804165E+02 0.  0.
        -11    1    3    3    0    0 -0.99883357581E+01 -0.49894467040E+00  0.50304351532E+02  0.51288825102E+02  0.51100000000E-03 0. -1.
         11    1    3    3    0    0  0.99883357581E+01  0.49894467040E+00  0.50792626859E+02  0.51767815682E+02  0.51100000000E-03 0.  1.
<mgrwt>
<rscale>  0 0.20001804E+02</rscale>
<asrwt>0</asrwt>
<pdfrwt beam="2">  1        1 0.15074326E-03 0.20001804E+02</pdfrwt>
<pdfrwt beam="1">  1       -1 0.15704125E-01 0.20001804E+02</pdfrwt>
<totfact> 0.31750508E+06</totfact>
</mgrwt>
</event>
<event>
 5    1  0.9583198E-007  0.2000024E+02  0.7818608E-02  0.1745323E+00
          1   -1    0    0  501    0  0.00000000000E+00  0.00000000000E+00  0.13696391732E+01  0.13696471348E+01  0.46700000000E-02 0. -1.
         -1   -1    0    0    0  501 -0.00000000000E+00 -0.00000000000E+00 -0.73013450893E+02  0.73013451043E+02  0.46700000000E-02 0.  1.
       1023    2    1    2    0    0  0.00000000000E+00  0.00000000000E+00 -0.71643811720E+02  0.74383098177E+02  0.20000238416E+02 0.  0.
        -11    1    3    3    0    0 -0.60092600154E+01  0.79931507064E+01 -0.35722128071E+02  0.37095445790E+02  0.51100000000E-03 0.  1.
         11    1    3    3    0    0  0.60092600154E+01 -0.79931507064E+01 -0.35921683648E+02  0.37287652387E+02  0.51100000000E-03 0. -1.
<mgrwt>
<rscale>  0 0.20000238E+02</rscale>
<asrwt>0</asrwt>
<pdfrwt beam="1">  1        1 0.21071440E-03 0.20000238E+02</pdfrwt>
<pdfrwt beam="2">  1       -1 0.11232836E-01 0.20000238E+02</pdfrwt>
<totfact> 0.33413155E+06</totfact>
</mgrwt>
</event>
<event>
 4    1  0.9583198E-007  0.2002304E+02  0.7818608E-02  0.1744870E+00
         -1   -1    0    0    0  501 -0.00000000000E+00  0.00000000000E+00  0.19181139696E+02  0.19181140264E+02  0.46700000000E-02 0.  1.
          1   -1    0    0  501    0  0.00000000000E+00 -0.00000000000E+00 -0.52254715409E+01  0.52254736277E+01  0.46700000000E-02 0. -1.
        -11    1    1    2    0    0 -0.11544700964E+01 -0.99411262219E+01  0.73043152532E+01  0.12389988432E+02  0.51100000000E-03 0.  1.
         11    1    1    2    0    0  0.11544700964E+01  0.99411262219E+01  0.66513529017E+01  0.12016625460E+02  0.51100000000E-03 0. -1.
<mgrwt>
<rscale>  0 0.20023040E+02</rscale>
<asrwt>0</asrwt>
<pdfrwt beam="2">  1        1 0.80391890E-03 0.20023040E+02</pdfrwt>
<pdfrwt beam="1">  1       -1 0.29509448E-02 0.20023040E+02</pdfrwt>
<totfact> 0.37406189E+06</totfact>
</mgrwt>
</event>
<event>
 5    1  0.9583198E-007  0.2000010E+02  0.7818608E-02  0.1745326E+00
          1   -1    0    0  501    0  0.00000000000E+00  0.00000000000E+00  0.59637989951E+02  0.59637990134E+02  0.46700000000E-02 0. -1.
         -1   -1    0    0    0  501 -0.00000000000E+00 -0.00000000000E+00 -0.16767975584E+01  0.16768040615E+01  0.46700000000E-02 0.  1.
       1023    2    1    2    0    0  0.00000000000E+00  0.00000000000E+00  0.57961192393E+02  0.61314794196E+02  0.20000104091E+02 0.  0.
        -11    1    3    3    0    0  0.36002694463E+01  0.93294406644E+01  0.28903193182E+02  0.30584227628E+02  0.51100000000E-03 0.  1.
         11    1    3    3    0    0 -0.36002694463E+01 -0.93294406644E+01  0.29057999211E+02  0.30730566568E+02  0.51100000000E-03 0. -1.
<mgrwt>
<rscale>  0 0.20000104E+02</rscale>
<asrwt>0</asrwt>
<pdfrwt beam="1">  1        1 0.91750768E-02 0.20000104E+02</pdfrwt>
<pdfrwt beam="2">  1       -1 0.25796934E-03 0.20000104E+02</pdfrwt>
<totfact> 0.42265880E+06</totfact>
</mgrwt>
</event>
<event>
 5    1  0.1017014E-006  0.2000079E+02  0.7818608E-02  0.1745312E+00
         -1   -1    0    0    0  501 -0.00000000000E+00  0.00000000000E+00  0.62190927467E+01  0.62190945001E+01  0.46700000000E-02 0. -1.
          1   -1    0    0  501    0  0.00000000000E+00 -0.00000000000E+00 -0.16080777812E+02  0.16080778490E+02  0.46700000000E-02 0.  1.
       1023    2    1    2    0    0  0.00000000000E+00  0.00000000000E+00 -0.98616850650E+01  0.22299872990E+02  0.20000787561E+02 0.  0.
        -11    1    3    3    0    0 -0.77842667164E+01  0.62774288751E+01 -0.50238182832E+01  0.11191053212E+02  0.51100000000E-03 0.  1.
         11    1    3    3    0    0  0.77842667164E+01 -0.62774288751E+01 -0.48378667818E+01  0.11108819778E+02  0.51100000000E-03 0. -1.
<mgrwt>
<rscale>  0 0.20000788E+02</rscale>
<asrwt>0</asrwt>
<pdfrwt beam="2">  1        1 0.24739660E-02 0.20000788E+02</pdfrwt>
<pdfrwt beam="1">  1       -1 0.95678369E-03 0.20000788E+02</pdfrwt>
<totfact> 0.39349525E+06</totfact>
</mgrwt>
</event>
<event>
 5    1  0.9583198E-007  0.2000088E+02  0.7818608E-02  0.1745311E+00
         -1   -1    0    0    0  501 -0.00000000000E+00  0.00000000000E+00  0.61006010166E+02  0.61006010345E+02  0.46700000000E-02 0.  1.
          1   -1    0    0  501    0  0.00000000000E+00 -0.00000000000E+00 -0.16393228521E+01  0.16393295039E+01  0.46700000000E-02 0. -1.
       1023    2    1    2    0    0  0.00000000000E+00  0.00000000000E+00  0.59366687314E+02  0.62645339849E+02  0.20000876034E+02 0.  0.
        -11    1    3    3    0    0  0.46044512439E+01 -0.88769621680E+01  0.29951533033E+02  0.31576823144E+02  0.51100000000E-03 0. -1.
         11    1    3    3    0    0 -0.46044512439E+01  0.88769621680E+01  0.29415154281E+02  0.31068516704E+02  0.51100000000E-03 0.  1.
<mgrwt>
<rscale>  0 0.20000876E+02</rscale>
<asrwt>0</asrwt>
<pdfrwt beam="2">  1        1 0.25220405E-03 0.20000876E+02</pdfrwt>
<pdfrwt beam="1">  1       -1 0.93855402E-02 0.20000876E+02</pdfrwt>
<totfact> 0.34173407E+06</totfact>
</mgrwt>
</event>
<event>
 5    1  0.9997924E-007  0.2000092E+02  0.7818608E-02  0.1745310E+00
         -1   -1    0    0    0  501 -0.00000000000E+00  0.00000000000E+00  0.19252591603E+01  0.19252648241E+01  0.46700000000E-02 0. -1.
          1   -1    0    0  501    0  0.00000000000E+00 -0.00000000000E+00 -0.51945755491E+02  0.51945755701E+02  0.46700000000E-02 0.  1.
       1023    2    1    2    0    0  0.00000000000E+00  0.00000000000E+00 -0.50020496331E+02  0.53871020525E+02  0.20000919960E+02 0.  0.
        -11    1    3    3    0    0  0.94660401184E+01 -0.32240131357E+01 -0.24754396301E+02  0.26697945852E+02  0.51100000000E-03 0.  1.
         11    1    3    3    0    0 -0.94660401184E+01  0.32240131357E+01 -0.25266100030E+02  0.27173074673E+02  0.51100000000E-03 0. -1.
<mgrwt>
<rscale>  0 0.20000920E+02</rscale>
<asrwt>0</asrwt>
<pdfrwt beam="2">  1        1 0.79916541E-02 0.20000920E+02</pdfrwt>
<pdfrwt beam="1">  1       -1 0.29619421E-03 0.20000920E+02</pdfrwt>
<totfact> 0.41824033E+06</totfact>
</mgrwt>
</event>
<event>
 5    1  0.1115174E-006  0.2000030E+02  0.7818608E-02  0.1745322E+00
         -1   -1    0    0    0  501 -0.00000000000E+00  0.00000000000E+00  0.13826515717E+01  0.13826594583E+01  0.46700000000E-02 0.  1.
          1   -1    0    0  501    0  0.00000000000E+00 -0.00000000000E+00 -0.72326762136E+02  0.72326762287E+02  0.46700000000E-02 0. -1.
       1023    2    1    2    0    0  0.00000000000E+00  0.00000000000E+00 -0.70944110565E+02  0.73709421745E+02  0.20000300754E+02 0.  0.
        -11    1    3    3    0    0 -0.99972623681E+01  0.23856227641E+00 -0.35365211198E+02  0.36751875193E+02  0.51100000000E-03 0.  1.
         11    1    3    3    0    0  0.99972623681E+01 -0.23856227641E+00 -0.35578899366E+02  0.36957546552E+02  0.51100000000E-03 0. -1.
<mgrwt>
<rscale>  0 0.20000301E+02</rscale>
<asrwt>0</asrwt>
<pdfrwt beam="2">  1        1 0.11127192E-01 0.20000301E+02</pdfrwt>
<pdfrwt beam="1">  1       -1 0.21271630E-03 0.20000301E+02</pdfrwt>
<totfact> 0.42956565E+06</totfact>
</mgrwt>
</event>
<event>
 5    1  0.1013084E-006  0.2000093E+02  0.7818608E-02  0.1745310E+00
         -1   -1    0    0    0  501 -0.00000000000E+00  0.00000000000E+00  0.23679378074E+01  0.23679424124E+01  0.46700000000E-02 0. -1.
          1   -1    0    0  501    0  0.00000000000E+00 -0.00000000000E+00 -0.42234699871E+02  0.42234700130E+02  0.46700000000E-02 0.  1.
       1023    2    1    2    0    0  0.00000000000E+00  0.00000000000E+00 -0.39866762064E+02  0.44602642542E+02  0.20000925085E+02 0.  0.
        -11    1    3    3    0    0 -0.18130120595E+01  0.98347443870E+01 -0.19919116164E+02  0.22288571038E+02  0.51100000000E-03 0. -1.
         11    1    3    3    0    0  0.18130120595E+01 -0.98347443870E+01 -0.19947645900E+02  0.22314071504E+02  0.51100000000E-03 0.  1.
<mgrwt>
<rscale>  0 0.20000925E+02</rscale>
<asrwt>0</asrwt>
<pdfrwt beam="2">  1        1 0.64976459E-02 0.20000925E+02</pdfrwt>
<pdfrwt beam="1">  1       -1 0.36429853E-03 0.20000925E+02</pdfrwt>
<totfact> 0.41244690E+06</totfact>
</mgrwt>
</event>
<event>
 5    1  0.9583198E-007  0.2001098E+02  0.7818608E-02  0.1745110E+00
          1   -1    0    0  501    0  0.00000000000E+00  0.00000000000E+00  0.63816739962E+01  0.63816757049E+01  0.46700000000E-02 0. -1.
         -1   -1    0    0    0  501 -0.00000000000E+00 -0.00000000000E+00 -0.15687072053E+02  0.15687072748E+02  0.46700000000E-02 0.  1.
       1023    2    1    2    0    0  0.00000000000E+00  0.00000000000E+00 -0.93053980564E+01  0.22068748453E+02  0.20010977619E+02 0.  0.
        -11    1    3    3    0    0 -0.69463421510E+01  0.72010452248E+01 -0.47139479286E+01  0.11060200131E+02  0.51100000000E-03 0. -1.
         11    1    3    3    0    0  0.69463421510E+01 -0.72010452248E+01 -0.45914501278E+01  0.11008548321E+02  0.51100000000E-03 0.  1.
<mgrwt>
<rscale>  0 0.20010978E+02</rscale>
<asrwt>0</asrwt>
<pdfrwt beam="1">  1        1 0.98179619E-03 0.20010978E+02</pdfrwt>
<pdfrwt beam="2">  1       -1 0.24133959E-02 0.20010978E+02</pdfrwt>
<totfact> 0.37834664E+06</totfact>
</mgrwt>
</event>
<event>
 5    1  0.9583198E-007  0.2000018E+02  0.7818608E-02  0.1745325E+00
          1   -1    0    0  501    0  0.00000000000E+00  0.00000000000E+00  0.63283361025E+01  0.63283378256E+01  0.46700000000E-02 0. -1.
         -1   -1    0    0    0  501 -0.00000000000E+00 -0.00000000000E+00 -0.15802221460E+02  0.15802222150E+02  0.46700000000E-02 0.  1.
       1023    2    1    2    0    0  0.00000000000E+00  0.00000000000E+00 -0.94738853574E+01  0.22130559976E+02  0.20000179526E+02 0.  0.
        -11    1    3    3    0    0 -0.79358535734E+00 -0.99685451851E+01 -0.47246121963E+01  0.11060001424E+02  0.51100000000E-03 0.  1.
         11    1    3    3    0    0  0.79358535734E+00  0.99685451851E+01 -0.47492731610E+01  0.11070558552E+02  0.51100000000E-03 0. -1.
<mgrwt>
<rscale>  0 0.20000180E+02</rscale>
<asrwt>0</asrwt>
<pdfrwt beam="1">  1        1 0.97359036E-03 0.20000180E+02</pdfrwt>
<pdfrwt beam="2">  1       -1 0.24311112E-02 0.20000180E+02</pdfrwt>
<totfact> 0.37866358E+06</totfact>
</mgrwt>
</event>
<event>
 5    1  0.1015173E-006  0.2000177E+02  0.7818608E-02  0.1745293E+00
         -1   -1    0    0    0  501 -0.00000000000E+00  0.00000000000E+00  0.12416398581E+01  0.12416486403E+01  0.46700000000E-02 0. -1.
          1   -1    0    0  501    0  0.00000000000E+00 -0.00000000000E+00 -0.80552624606E+02  0.80552624742E+02  0.46700000000E-02 0.  1.
       1023    2    1    2    0    0  0.00000000000E+00  0.00000000000E+00 -0.79310984748E+02  0.81794273382E+02  0.20001771330E+02 0.  0.
        -11    1    3    3    0    0  0.46096419702E+00 -0.99897326929E+01 -0.39237126290E+02  0.40491472275E+02  0.51100000000E-03 0.  1.
         11    1    3    3    0    0 -0.46096419702E+00  0.99897326929E+01 -0.40073858459E+02  0.41302801107E+02  0.51100000000E-03 0. -1.
<mgrwt>
<rscale>  0 0.20001771E+02</rscale>
<asrwt>0</asrwt>
<pdfrwt beam="2">  1        1 0.12392708E-01 0.20001771E+02</pdfrwt>
<pdfrwt beam="1">  1       -1 0.19102227E-03 0.20001771E+02</pdfrwt>
<totfact> 0.43379404E+06</totfact>
</mgrwt>
</event>
<event>
 5    1  0.9583198E-007  0.2000063E+02  0.7818608E-02  0.1745316E+00
         -1   -1    0    0    0  501 -0.00000000000E+00  0.00000000000E+00  0.50637615541E+02  0.50637615756E+02  0.46700000000E-02 0.  1.
          1   -1    0    0  501    0  0.00000000000E+00 -0.00000000000E+00 -0.19749374113E+01  0.19749429327E+01  0.46700000000E-02 0. -1.
       1023    2    1    2    0    0  0.00000000000E+00  0.00000000000E+00  0.48662678130E+02  0.52612558689E+02  0.20000627216E+02 0.  0.
        -11    1    3    3    0    0  0.97635187608E+01  0.21619600115E+01  0.24533434791E+02  0.26493202762E+02  0.51100000000E-03 0. -1.
         11    1    3    3    0    0 -0.97635187608E+01 -0.21619600115E+01  0.24129243338E+02  0.26119355927E+02  0.51100000000E-03 0.  1.
<mgrwt>
<rscale>  0 0.20000627E+02</rscale>
<asrwt>0</asrwt>
<pdfrwt beam="2">  1        1 0.30383704E-03 0.20000627E+02</pdfrwt>
<pdfrwt beam="1">  1       -1 0.77904010E-02 0.20000627E+02</pdfrwt>
<totfact> 0.34881938E+06</totfact>
</mgrwt>
</event>
<event>
 5    1  0.9583198E-007  0.2000082E+02  0.7818608E-02  0.1745312E+00
         -1   -1    0    0    0  501 -0.00000000000E+00  0.00000000000E+00  0.59077624270E+02  0.59077624455E+02  0.46700000000E-02 0. -1.
          1   -1    0    0  501    0  0.00000000000E+00 -0.00000000000E+00 -0.16928238813E+01  0.16928303228E+01  0.46700000000E-02 0.  1.
       1023    2    1    2    0    0  0.00000000000E+00  0.00000000000E+00  0.57384800389E+02  0.60770454778E+02  0.20000821438E+02 0.  0.
        -11    1    3    3    0    0  0.33107795241E+01  0.94363493925E+01  0.28836951749E+02  0.30521725661E+02  0.51100000000E-03 0. -1.
         11    1    3    3    0    0 -0.33107795241E+01 -0.94363493925E+01  0.28547848640E+02  0.30248729117E+02  0.51100000000E-03 0.  1.
<mgrwt>
<rscale>  0 0.20000821E+02</rscale>
<asrwt>0</asrwt>
<pdfrwt beam="2">  1        1 0.26043495E-03 0.20000821E+02</pdfrwt>
<pdfrwt beam="1">  1       -1 0.90888660E-02 0.20000821E+02</pdfrwt>
<totfact> 0.34301454E+06</totfact>
</mgrwt>
</event>
<event>
 5    1  0.9583198E-007  0.2000010E+02  0.7818608E-02  0.1745326E+00
         -1   -1    0    0    0  501 -0.00000000000E+00  0.00000000000E+00  0.13058707763E+02  0.13058708598E+02  0.46700000000E-02 0. -1.
          1   -1    0    0  501    0  0.00000000000E+00 -0.00000000000E+00 -0.76578030639E+01  0.76578044879E+01  0.46700000000E-02 0.  1.
       1023    2    1    2    0    0  0.00000000000E+00  0.00000000000E+00  0.54009046991E+01  0.20716513086E+02  0.20000103571E+02 0.  0.
        -11    1    3    3    0    0  0.99037850164E+01  0.13841109008E+01  0.27188310811E+01  0.10363047976E+02  0.51100000000E-03 0.  1.
         11    1    3    3    0    0 -0.99037850164E+01 -0.13841109008E+01  0.26820736180E+01  0.10353465110E+02  0.51100000000E-03 0. -1.
<mgrwt>
<rscale>  0 0.20000104E+02</rscale>
<asrwt>0</asrwt>
<pdfrwt beam="2">  1        1 0.11781237E-02 0.20000104E+02</pdfrwt>
<pdfrwt beam="1">  1       -1 0.20090322E-02 0.20000104E+02</pdfrwt>
<totfact> 0.38196653E+06</totfact>
</mgrwt>
</event>
<event>
 5    1  0.9726660E-007  0.2000161E+02  0.7818608E-02  0.1745296E+00
          1   -1    0    0  501    0  0.00000000000E+00  0.00000000000E+00  0.27708677933E+01  0.27708717287E+01  0.46700000000E-02 0.  1.
         -1   -1    0    0    0  501 -0.00000000000E+00 -0.00000000000E+00 -0.36095541003E+02  0.36095541305E+02  0.46700000000E-02 0. -1.
       1023    2    1    2    0    0  0.00000000000E+00  0.00000000000E+00 -0.33324673209E+02  0.38866413033E+02  0.20001605375E+02 0.  0.
        -11    1    3    3    0    0 -0.74700320313E+01 -0.66492357391E+01 -0.16756327697E+02  0.19513795956E+02  0.51100000000E-03 0. -1.
         11    1    3    3    0    0  0.74700320313E+01  0.66492357391E+01 -0.16568345512E+02  0.19352617077E+02  0.51100000000E-03 0.  1.
<mgrwt>
<rscale>  0 0.20001605E+02</rscale>
<asrwt>0</asrwt>
<pdfrwt beam="1">  1        1 0.42628770E-03 0.20001605E+02</pdfrwt>
<pdfrwt beam="2">  1       -1 0.55531602E-02 0.20001605E+02</pdfrwt>
<totfact> 0.35972721E+06</totfact>
</mgrwt>
</event>
<event>
 5    1  0.9583198E-007  0.2000240E+02  0.7818608E-02  0.1745280E+00
          1   -1    0    0  501    0  0.00000000000E+00  0.00000000000E+00  0.31781444407E+01  0.31781478717E+01  0.46700000000E-02 0.  1.
         -1   -1    0    0    0  501 -0.00000000000E+00 -0.00000000000E+00 -0.31472431400E+02  0.31472431747E+02  0.46700000000E-02 0. -1.
       1023    2    1    2    0    0  0.00000000000E+00  0.00000000000E+00 -0.28294286959E+02  0.34650579618E+02  0.20002399690E+02 0.  0.
        -11    1    3    3    0    0  0.85520898268E+01 -0.51849819217E+01 -0.14075296171E+02  0.17266622150E+02  0.51100000000E-03 0. -1.
         11    1    3    3    0    0 -0.85520898268E+01  0.51849819217E+01 -0.14218990789E+02  0.17383957468E+02  0.51100000000E-03 0.  1.
<mgrwt>
<rscale>  0 0.20002400E+02</rscale>
<asrwt>0</asrwt>
<pdfrwt beam="1">  1        1 0.48894561E-03 0.20002400E+02</pdfrwt>
<pdfrwt beam="2">  1       -1 0.48419126E-02 0.20002400E+02</pdfrwt>
<totfact> 0.36350970E+06</totfact>
</mgrwt>
</event>
<event>
 5    1  0.9583198E-007  0.2000014E+02  0.7818608E-02  0.1745325E+00
         -1   -1    0    0    0  501 -0.00000000000E+00  0.00000000000E+00  0.57236730195E+01  0.57236749246E+01  0.46700000000E-02 0. -1.
          1   -1    0    0  501    0  0.00000000000E+00 -0.00000000000E+00 -0.17471530278E+02  0.17471530902E+02  0.46700000000E-02 0.  1.
       1023    2    1    2    0    0  0.00000000000E+00  0.00000000000E+00 -0.11747857259E+02  0.23195205827E+02  0.20000135579E+02 0.  0.
        -11    1    3    3    0    0 -0.99901929591E+01 -0.44396896348E+00 -0.58541197437E+01  0.11587570152E+02  0.51100000000E-03 0.  1.
         11    1    3    3    0    0  0.99901929591E+01  0.44396896348E+00 -0.58937375152E+01  0.11607635675E+02  0.51100000000E-03 0. -1.
<mgrwt>
<rscale>  0 0.20000136E+02</rscale>
<asrwt>0</asrwt>
<pdfrwt beam="2">  1        1 0.26879279E-02 0.20000136E+02</pdfrwt>
<pdfrwt beam="1">  1       -1 0.88056528E-03 0.20000136E+02</pdfrwt>
<totfact> 0.39483885E+06</totfact>
</mgrwt>
</event>
<event>
 5    1  0.9583198E-007  0.2000781E+02  0.7818608E-02  0.1745173E+00
          1   -1    0    0  501    0  0.00000000000E+00  0.00000000000E+00  0.87912076637E+00  0.87913317009E+00  0.46700000000E-02 0.  1.
         -1   -1    0    0    0  501 -0.00000000000E+00 -0.00000000000E+00 -0.11383810119E+03  0.11383810129E+03  0.46700000000E-02 0. -1.
       1023    2    1    2    0    0  0.00000000000E+00  0.00000000000E+00 -0.11295898042E+03  0.11471723446E+03  0.20007814045E+02 0.  0.
        -11    1    3    3    0    0  0.99300200210E+01  0.12126870562E+01 -0.56207645182E+02  0.57090938727E+02  0.51100000000E-03 0. -1.
         11    1    3    3    0    0 -0.99300200210E+01 -0.12126870562E+01 -0.56751335241E+02  0.57626295729E+02  0.51100000000E-03 0.  1.
<mgrwt>
<rscale>  0 0.20007814E+02</rscale>
<asrwt>0</asrwt>
<pdfrwt beam="1">  1        1 0.13525040E-03 0.20007814E+02</pdfrwt>
<pdfrwt beam="2">  1       -1 0.17513543E-01 0.20007814E+02</pdfrwt>
<totfact> 0.31118771E+06</totfact>
</mgrwt>
</event>
<event>
 5    1  0.9583198E-007  0.2000040E+02  0.7818608E-02  0.1745320E+00
         -1   -1    0    0    0  501 -0.00000000000E+00  0.00000000000E+00  0.54729649357E+02  0.54729649556E+02  0.46700000000E-02 0. -1.
          1   -1    0    0  501    0  0.00000000000E+00 -0.00000000000E+00 -0.18272321903E+01  0.18272381581E+01  0.46700000000E-02 0.  1.
       1023    2    1    2    0    0  0.00000000000E+00  0.00000000000E+00  0.52902417166E+02  0.56556887714E+02  0.20000395142E+02 0.  0.
        -11    1    3    3    0    0  0.70085219178E+01 -0.71333332726E+01  0.26419196735E+02  0.28248500481E+02  0.51100000000E-03 0. -1.
         11    1    3    3    0    0 -0.70085219178E+01  0.71333332726E+01  0.26483220431E+02  0.28308387233E+02  0.51100000000E-03 0.  1.
<mgrwt>
<rscale>  0 0.20000395E+02</rscale>
<asrwt>0</asrwt>
<pdfrwt beam="2">  1        1 0.28111318E-03 0.20000395E+02</pdfrwt>
<pdfrwt beam="1">  1       -1 0.84199448E-02 0.20000395E+02</pdfrwt>
<totfact> 0.34597409E+06</totfact>
</mgrwt>
</event>
<event>
 5    1  0.9583198E-007  0.2000075E+02  0.7818608E-02  0.1745313E+00
         -1   -1    0    0    0  501 -0.00000000000E+00  0.00000000000E+00  0.20963354221E+02  0.20963354741E+02  0.46700000000E-02 0. -1.
          1   -1    0    0  501    0  0.00000000000E+00 -0.00000000000E+00 -0.47705828419E+01  0.47705851277E+01  0.46700000000E-02 0.  1.
       1023    2    1    2    0    0  0.00000000000E+00  0.00000000000E+00  0.16192771379E+02  0.25733939868E+02  0.20000745392E+02 0.  0.
        -11    1    3    3    0    0 -0.99725523771E+01 -0.74412726693E+00  0.80398976304E+01  0.12831425504E+02  0.51100000000E-03 0. -1.
         11    1    3    3    0    0  0.99725523771E+01  0.74412726693E+00  0.81528737482E+01  0.12902514364E+02  0.51100000000E-03 0.  1.
<mgrwt>
<rscale>  0 0.20000745E+02</rscale>
<asrwt>0</asrwt>
<pdfrwt beam="2">  1        1 0.73393605E-03 0.20000745E+02</pdfrwt>
<pdfrwt beam="1">  1       -1 0.32251316E-02 0.20000745E+02</pdfrwt>
<totfact> 0.37316723E+06</totfact>
</mgrwt>
</event>
<event>
 5    1  0.9936896E-007  0.2000133E+02  0.7818608E-02  0.1745302E+00
          1   -1    0    0  501    0  0.00000000000E+00  0.00000000000E+00  0.30019887013E+02  0.30019887376E+02  0.46700000000E-02 0.  1.
         -1   -1    0    0    0  501 -0.00000000000E+00 -0.00000000000E+00 -0.33315676759E+01  0.33315709490E+01  0.46700000000E-02 0. -1.
       1023    2    1    2    0    0  0.00000000000E+00  0.00000000000E+00  0.26688319337E+02  0.33351458325E+02  0.20001334540E+02 0.  0.
        -11    1    3    3    0    0 -0.94224417334E+01  0.33497557416E+01  0.13511520308E+02  0.16809653567E+02  0.51100000000E-03 0.  1.
         11    1    3    3    0    0  0.94224417334E+01 -0.33497557416E+01  0.13176799029E+02  0.16541804759E+02  0.51100000000E-03 0. -1.
<mgrwt>
<rscale>  0 0.20001335E+02</rscale>
<asrwt>0</asrwt>
<pdfrwt beam="1">  1        1 0.46184444E-02 0.20001335E+02</pdfrwt>
<pdfrwt beam="2">  1       -1 0.51254916E-03 0.20001335E+02</pdfrwt>
<totfact> 0.40452026E+06</totfact>
</mgrwt>
</event>
<event>
 5    1  0.9583198E-007  0.2000011E+02  0.7818608E-02  0.1745326E+00
         -1   -1    0    0    0  501 -0.00000000000E+00  0.00000000000E+00  0.18105104226E+02  0.18105104829E+02  0.46700000000E-02 0. -1.
          1   -1    0    0  501    0  0.00000000000E+00 -0.00000000000E+00 -0.55233656703E+01  0.55233676445E+01  0.46700000000E-02 0.  1.
       1023    2    1    2    0    0  0.00000000000E+00  0.00000000000E+00  0.12581738556E+02  0.23628472473E+02  0.20000114158E+02 0.  0.
        -11    1    3    3    0    0 -0.32223860160E+01 -0.94666447390E+01  0.62940102973E+01  0.11815908773E+02  0.51100000000E-03 0. -1.
         11    1    3    3    0    0  0.32223860160E+01  0.94666447390E+01  0.62877282589E+01  0.11812563700E+02  0.51100000000E-03 0.  1.
<mgrwt>
<rscale>  0 0.20000114E+02</rscale>
<asrwt>0</asrwt>
<pdfrwt beam="2">  1        1 0.84974877E-03 0.20000114E+02</pdfrwt>
<pdfrwt beam="1">  1       -1 0.27854008E-02 0.20000114E+02</pdfrwt>
<totfact> 0.37613364E+06</totfact>
</mgrwt>
</event>
<event>
 5    1  0.9583198E-007  0.2000923E+02  0.7818608E-02  0.1745145E+00
         -1   -1    0    0    0  501 -0.00000000000E+00  0.00000000000E+00  0.96625854990E+00  0.96626983507E+00  0.46700000000E-02 0.  1.
          1   -1    0    0  501    0  0.00000000000E+00 -0.00000000000E+00 -0.10358693978E+03  0.10358693989E+03  0.46700000000E-02 0. -1.
       1023    2    1    2    0    0  0.00000000000E+00  0.00000000000E+00 -0.10262068123E+03  0.10455320972E+03  0.20009234036E+02 0.  0.
        -11    1    3    3    0    0 -0.94816160239E+01 -0.31901700563E+01 -0.51931552088E+02  0.52886334057E+02  0.51100000000E-03 0.  1.
         11    1    3    3    0    0  0.94816160239E+01  0.31901700563E+01 -0.50689129143E+02  0.51666875664E+02  0.51100000000E-03 0. -1.
<mgrwt>
<rscale>  0 0.20009234E+02</rscale>
<asrwt>0</asrwt>
<pdfrwt beam="2">  1        1 0.15936444E-01 0.20009234E+02</pdfrwt>
<pdfrwt beam="1">  1       -1 0.14865612E-03 0.20009234E+02</pdfrwt>
<totfact> 0.44488381E+06</totfact>
</mgrwt>
</event>
<event>
 4    1  0.9583198E-007  0.2042656E+02  0.7818608E-02  0.1736976E+00
         -1   -1    0    0    0  501 -0.00000000000E+00  0.00000000000E+00  0.78212118025E+01  0.78212131967E+01  0.46700000000E-02 0.  1.
          1   -1    0    0  501    0  0.00000000000E+00 -0.00000000000E+00 -0.13336938668E+02  0.13336939485E+02  0.46700000000E-02 0. -1.
        -11    1    1    2    0    0  0.76208761265E+00  0.10182012070E+02 -0.25107872934E+01  0.10514665968E+02  0.51100000000E-03 0. -1.
         11    1    1    2    0    0 -0.76208761265E+00 -0.10182012070E+02 -0.30049395718E+01  0.10643486714E+02  0.51100000000E-03 0.  1.
<mgrwt>
<rscale>  0 0.20426556E+02</rscale>
<asrwt>0</asrwt>
<pdfrwt beam="2">  1        1 0.20518369E-02 0.20426556E+02</pdfrwt>
<pdfrwt beam="1">  1       -1 0.12032635E-02 0.20426556E+02</pdfrwt>
<totfact> 0.37244062E+06</totfact>
</mgrwt>
</event>
<event>
 5    1  0.9583198E-007  0.2000035E+02  0.7818608E-02  0.1745321E+00
          1   -1    0    0  501    0  0.00000000000E+00  0.00000000000E+00  0.50141721025E+01  0.50141742772E+01  0.46700000000E-02 0. -1.
         -1   -1    0    0    0  501 -0.00000000000E+00 -0.00000000000E+00 -0.19944161859E+02  0.19944162405E+02  0.46700000000E-02 0.  1.
       1023    2    1    2    0    0  0.00000000000E+00  0.00000000000E+00 -0.14929989756E+02  0.24958336683E+02  0.20000349393E+02 0.  0.
        -11    1    3    3    0    0 -0.58980363322E+01 -0.80755446569E+01 -0.75240510121E+01  0.12514495514E+02  0.51100000000E-03 0.  1.
         11    1    3    3    0    0  0.58980363322E+01  0.80755446569E+01 -0.74059387440E+01  0.12443841168E+02  0.51100000000E-03 0. -1.
<mgrwt>
<rscale>  0 0.20000349E+02</rscale>
<asrwt>0</asrwt>
<pdfrwt beam="1">  1        1 0.77141131E-03 0.20000349E+02</pdfrwt>
<pdfrwt beam="2">  1       -1 0.30683328E-02 0.20000349E+02</pdfrwt>
<totfact> 0.37421041E+06</totfact>
</mgrwt>
</event>
<event>
 5    1  0.9583198E-007  0.2000152E+02  0.7818608E-02  0.1745298E+00
          1   -1    0    0  501    0  0.00000000000E+00  0.00000000000E+00  0.17455648345E+01  0.17455710815E+01  0.46700000000E-02 0.  1.
         -1   -1    0    0    0  501 -0.00000000000E+00 -0.00000000000E+00 -0.57296635908E+02  0.57296636099E+02  0.46700000000E-02 0. -1.
       1023    2    1    2    0    0  0.00000000000E+00  0.00000000000E+00 -0.55551071074E+02  0.59042207180E+02  0.20001518224E+02 0.  0.
        -11    1    3    3    0    0  0.95644258123E+01 -0.29218040429E+01 -0.27770804175E+02  0.29516651992E+02  0.51100000000E-03 0. -1.
         11    1    3    3    0    0 -0.95644258123E+01  0.29218040429E+01 -0.27780266899E+02  0.29525555189E+02  0.51100000000E-03 0.  1.
<mgrwt>
<rscale>  0 0.20001518E+02</rscale>
<asrwt>0</asrwt>
<pdfrwt beam="1">  1        1 0.26854897E-03 0.20001518E+02</pdfrwt>
<pdfrwt beam="2">  1       -1 0.88148661E-02 0.20001518E+02</pdfrwt>
<totfact> 0.34418342E+06</totfact>
</mgrwt>
</event>
<event>
 5    1  0.9583198E-007  0.2000582E+02  0.7818608E-02  0.1745212E+00
          1   -1    0    0  501    0  0.00000000000E+00  0.00000000000E+00  0.34388014289E+02  0.34388014606E+02  0.46700000000E-02 0. -1.
         -1   -1    0    0    0  501 -0.00000000000E+00 -0.00000000000E+00 -0.29096798712E+01  0.29096836189E+01  0.46700000000E-02 0.  1.
       1023    2    1    2    0    0  0.00000000000E+00  0.00000000000E+00  0.31478334417E+02  0.37297698225E+02  0.20005818033E+02 0.  0.
        -11    1    3    3    0    0  0.31993247004E+01  0.94763540452E+01  0.15467561215E+02  0.18419620374E+02  0.51100000000E-03 0.  1.
         11    1    3    3    0    0 -0.31993247004E+01 -0.94763540452E+01  0.16010773202E+02  0.18878077850E+02  0.51100000000E-03 0. -1.
<mgrwt>
<rscale>  0 0.20005818E+02</rscale>
<asrwt>0</asrwt>
<pdfrwt beam="1">  1        1 0.52904643E-02 0.20005818E+02</pdfrwt>
<pdfrwt beam="2">  1       -1 0.44764335E-03 0.20005818E+02</pdfrwt>
<totfact> 0.40724853E+06</totfact>
</mgrwt>
</event>
<event>
 5    1  0.9583198E-007  0.2000091E+02  0.7818608E-02  0.1745310E+00
         -1   -1    0    0    0  501 -0.00000000000E+00  0.00000000000E+00  0.43068803149E+02  0.43068803403E+02  0.46700000000E-02 0. -1.
          1   -1    0    0  501    0  0.00000000000E+00 -0.00000000000E+00 -0.23220739530E+01  0.23220786490E+01  0.46700000000E-02 0.  1.
       1023    2    1    2    0    0  0.00000000000E+00  0.00000000000E+00  0.40746729196E+02  0.45390882052E+02  0.20000905810E+02 0.  0.
        -11    1    3    3    0    0  0.85917115144E+01 -0.51169375037E+01  0.20582619868E+02  0.22883286413E+02  0.51100000000E-03 0. -1.
         11    1    3    3    0    0 -0.85917115144E+01  0.51169375037E+01  0.20164109328E+02  0.22507595638E+02  0.51100000000E-03 0.  1.
<mgrwt>
<rscale>  0 0.20000906E+02</rscale>
<asrwt>0</asrwt>
<pdfrwt beam="2">  1        1 0.35724254E-03 0.20000906E+02</pdfrwt>
<pdfrwt beam="1">  1       -1 0.66259699E-02 0.20000906E+02</pdfrwt>
<totfact> 0.35433264E+06</totfact>
</mgrwt>
</event>
<event>
 4    1  0.9583198E-007  0.2003169E+02  0.7818608E-02  0.1744699E+00
         -1   -1    0    0    0  501 -0.00000000000E+00  0.00000000000E+00  0.38126968436E+01  0.38126997036E+01  0.46700000000E-02 0. -1.
          1   -1    0    0  501    0  0.00000000000E+00 -0.00000000000E+00 -0.26311327747E+02  0.26311328162E+02  0.46700000000E-02 0.  1.
        -11    1    1    2    0    0  0.20861380020E+01  0.97941965076E+01 -0.11545946533E+02  0.15283557786E+02  0.51100000000E-03 0.  1.
         11    1    1    2    0    0 -0.20861380020E+01 -0.97941965076E+01 -0.10952684371E+02  0.14840470079E+02  0.51100000000E-03 0. -1.
<mgrwt>
<rscale>  0 0.20031691E+02</rscale>
<asrwt>0</asrwt>
<pdfrwt beam="2">  1        1 0.40478967E-02 0.20031691E+02</pdfrwt>
<pdfrwt beam="1">  1       -1 0.58656901E-03 0.20031691E+02</pdfrwt>
<totfact> 0.40053789E+06</totfact>
</mgrwt>
</event>
<event>
 5    1  0.9583198E-007  0.2000091E+02  0.7818608E-02  0.1745310E+00
         -1   -1    0    0    0  501 -0.00000000000E+00  0.00000000000E+00  0.24004453483E+02  0.24004453937E+02  0.46700000000E-02 0.  1.
          1   -1    0    0  501    0  0.00000000000E+00 -0.00000000000E+00 -0.41662700049E+01  0.41662726222E+01  0.46700000000E-02 0. -1.
       1023    2    1    2    0    0  0.00000000000E+00  0.00000000000E+00  0.19838183478E+02  0.28170726559E+02  0.20000907759E+02 0.  0.
        -11    1    3    3    0    0  0.37684087314E+01  0.92632455041E+01  0.98890184509E+01  0.14064185288E+02  0.51100000000E-03 0.  1.
         11    1    3    3    0    0 -0.37684087314E+01 -0.92632455041E+01  0.99491650270E+01  0.14106541271E+02  0.51100000000E-03 0. -1.
<mgrwt>
<rscale>  0 0.20000908E+02</rscale>
<asrwt>0</asrwt>
<pdfrwt beam="2">  1        1 0.64096485E-03 0.20000908E+02</pdfrwt>
<pdfrwt beam="1">  1       -1 0.36929931E-02 0.20000908E+02</pdfrwt>
<totfact> 0.37021919E+06</totfact>
</mgrwt>
</event>
<event>
 5    1  0.9891428E-007  0.2000080E+02  0.7818608E-02  0.1745312E+00
         -1   -1    0    0    0  501 -0.00000000000E+00  0.00000000000E+00  0.22144751046E+01  0.22144800287E+01  0.46700000000E-02 0. -1.
          1   -1    0    0  501    0  0.00000000000E+00 -0.00000000000E+00 -0.45160981589E+02  0.45160981830E+02  0.46700000000E-02 0.  1.
       1023    2    1    2    0    0  0.00000000000E+00  0.00000000000E+00 -0.42946506484E+02  0.47375461859E+02  0.20000799163E+02 0.  0.
        -11    1    3    3    0    0  0.66436137357E+01  0.74745914858E+01 -0.21543126391E+02  0.23751071898E+02  0.51100000000E-03 0. -1.
         11    1    3    3    0    0 -0.66436137357E+01 -0.74745914858E+01 -0.21403380094E+02  0.23624389961E+02  0.51100000000E-03 0.  1.
<mgrwt>
<rscale>  0 0.20000799E+02</rscale>
<asrwt>0</asrwt>
<pdfrwt beam="2">  1        1 0.69478431E-02 0.20000799E+02</pdfrwt>
<pdfrwt beam="1">  1       -1 0.34068891E-03 0.20000799E+02</pdfrwt>
<totfact> 0.41423469E+06</totfact>
</mgrwt>
</event>
<event>
 5    1  0.9681460E-007  0.2000063E+02  0.7818608E-02  0.1745316E+00
          1   -1    0    0  501    0  0.00000000000E+00  0.00000000000E+00  0.32025279916E+02  0.32025280256E+02  0.46700000000E-02 0.  1.
         -1   -1    0    0    0  501 -0.00000000000E+00 -0.00000000000E+00 -0.31227266757E+01  0.31227301677E+01  0.46700000000E-02 0. -1.
       1023    2    1    2    0    0  0.00000000000E+00  0.00000000000E+00  0.28902553240E+02  0.35148010424E+02  0.20000626314E+02 0.  0.
        -11    1    3    3    0    0 -0.83038299571E+01 -0.55724122393E+01  0.14503787426E+02  0.17617185362E+02  0.51100000000E-03 0.  1.
         11    1    3    3    0    0  0.83038299571E+01  0.55724122393E+01  0.14398765815E+02  0.17530825062E+02  0.51100000000E-03 0. -1.
<mgrwt>
<rscale>  0 0.20000626E+02</rscale>
<asrwt>0</asrwt>
<pdfrwt beam="1">  1        1 0.49269666E-02 0.20000626E+02</pdfrwt>
<pdfrwt beam="2">  1       -1 0.48041976E-03 0.20000626E+02</pdfrwt>
<totfact> 0.40591610E+06</totfact>
</mgrwt>
</event>
<event>
 5    1  0.9583198E-007  0.2000148E+02  0.7818608E-02  0.1745299E+00
         -1   -1    0    0    0  501 -0.00000000000E+00  0.00000000000E+00  0.22241307048E+01  0.22241356076E+01  0.46700000000E-02 0. -1.
          1   -1    0    0  501    0  0.00000000000E+00 -0.00000000000E+00 -0.44967965420E+02  0.44967965662E+02  0.46700000000E-02 0.  1.
       1023    2    1    2    0    0  0.00000000000E+00  0.00000000000E+00 -0.42743834715E+02  0.47192101270E+02  0.20001475349E+02 0.  0.
        -11    1    3    3    0    0  0.86991934692E+01  0.49330932208E+01 -0.21509049449E+02  0.23720256832E+02  0.51100000000E-03 0.  1.
         11    1    3    3    0    0 -0.86991934692E+01 -0.49330932208E+01 -0.21234785266E+02  0.23471844438E+02  0.51100000000E-03 0. -1.
<mgrwt>
<rscale>  0 0.20001475E+02</rscale>
<asrwt>0</asrwt>
<pdfrwt beam="2">  1        1 0.69181483E-02 0.20001475E+02</pdfrwt>
<pdfrwt beam="1">  1       -1 0.34217438E-03 0.20001475E+02</pdfrwt>
<totfact> 0.41408706E+06</totfact>
</mgrwt>
</event>
<event>
 4    1  0.9583198E-007  0.2004026E+02  0.7818608E-02  0.1744529E+00
         -1   -1    0    0    0  501 -0.00000000000E+00  0.00000000000E+00  0.33289989424E+02  0.33289989752E+02  0.46700000000E-02 0. -1.
          1   -1    0    0  501    0  0.00000000000E+00 -0.00000000000E+00 -0.30160107667E+01  0.30160143822E+01  0.46700000000E-02 0.  1.
        -11    1    1    2    0    0 -0.14426660705E+01 -0.99153446929E+01  0.15295879400E+02  0.18285493503E+02  0.51100000000E-03 0. -1.
         11    1    1    2    0    0  0.14426660705E+01  0.99153446929E+01  0.14978099258E+02  0.18020510631E+02  0.51100000000E-03 0.  1.
<mgrwt>
<rscale>  0 0.20040263E+02</rscale>
<asrwt>0</asrwt>
<pdfrwt beam="2">  1        1 0.46400197E-03 0.20040263E+02</pdfrwt>
<pdfrwt beam="1">  1       -1 0.51215370E-02 0.20040263E+02</pdfrwt>
<totfact> 0.36048326E+06</totfact>
</mgrwt>
</event>
<event>
 5    1  0.9583198E-007  0.2000179E+02  0.7818608E-02  0.1745292E+00
          1   -1    0    0  501    0  0.00000000000E+00  0.00000000000E+00  0.11914093171E+03  0.11914093180E+03  0.46700000000E-02 0.  1.
         -1   -1    0    0    0  501 -0.00000000000E+00 -0.00000000000E+00 -0.83948597764E+00  0.83949896698E+00  0.46700000000E-02 0. -1.
       1023    2    1    2    0    0  0.00000000000E+00  0.00000000000E+00  0.11830144573E+03  0.11998043076E+03  0.20001792545E+02 0.  0.
        -11    1    3    3    0    0 -0.90939769236E+01  0.41602612089E+01  0.59742611825E+02  0.60573821553E+02  0.51100000000E-03 0.  1.
         11    1    3    3    0    0  0.90939769236E+01 -0.41602612089E+01  0.58558833903E+02  0.59406609211E+02  0.51100000000E-03 0. -1.
<mgrwt>
<rscale>  0 0.20001793E+02</rscale>
<asrwt>0</asrwt>
<pdfrwt beam="1">  1        1 0.18329363E-01 0.20001793E+02</pdfrwt>
<pdfrwt beam="2">  1       -1 0.12915278E-03 0.20001793E+02</pdfrwt>
<totfact> 0.45252143E+06</totfact>
</mgrwt>
</event>
<event>
 5    1  0.9729132E-007  0.2000213E+02  0.7818608E-02  0.1745286E+00
          1   -1    0    0  501    0  0.00000000000E+00  0.00000000000E+00  0.35171408470E+02  0.35171408780E+02  0.46700000000E-02 0. -1.
         -1   -1    0    0    0  501 -0.00000000000E+00 -0.00000000000E+00 -0.28438216643E+01  0.28438254987E+01  0.46700000000E-02 0.  1.
       1023    2    1    2    0    0  0.00000000000E+00  0.00000000000E+00  0.32327586806E+02  0.38015234279E+02  0.20002129101E+02 0.  0.
        -11    1    3    3    0    0 -0.98012780083E+01  0.19883648847E+01  0.16261563730E+02  0.19090759563E+02  0.51100000000E-03 0. -1.
         11    1    3    3    0    0  0.98012780083E+01 -0.19883648847E+01  0.16066023076E+02  0.18924474715E+02  0.51100000000E-03 0.  1.
<mgrwt>
<rscale>  0 0.20002129E+02</rscale>
<asrwt>0</asrwt>
<pdfrwt beam="1">  1        1 0.54109861E-02 0.20002129E+02</pdfrwt>
<pdfrwt beam="2">  1       -1 0.43751135E-03 0.20002129E+02</pdfrwt>
<totfact> 0.40792809E+06</totfact>
</mgrwt>
</event>
<event>
 5    1  0.9583198E-007  0.2000122E+02  0.7818608E-02  0.1745304E+00
          1   -1    0    0  501    0  0.00000000000E+00  0.00000000000E+00  0.27983433212E+01  0.27983472180E+01  0.46700000000E-02 0. -1.
         -1   -1    0    0    0  501 -0.00000000000E+00 -0.00000000000E+00 -0.35739776055E+02  0.35739776361E+02  0.46700000000E-02 0.  1.
       1023    2    1    2    0    0  0.00000000000E+00  0.00000000000E+00 -0.32941432734E+02  0.38538123579E+02  0.20001224422E+02 0.  0.
        -11    1    3    3    0    0 -0.42965171855E+01 -0.90302215977E+01 -0.16306291183E+02  0.19128515218E+02  0.51100000000E-03 0.  1.
         11    1    3    3    0    0  0.42965171855E+01  0.90302215977E+01 -0.16635141551E+02  0.19409608360E+02  0.51100000000E-03 0. -1.
<mgrwt>
<rscale>  0 0.20001224E+02</rscale>
<asrwt>0</asrwt>
<pdfrwt beam="1">  1        1 0.43051471E-03 0.20001224E+02</pdfrwt>
<pdfrwt beam="2">  1       -1 0.54984271E-02 0.20001224E+02</pdfrwt>
<totfact> 0.36002890E+06</totfact>
</mgrwt>
</event>
<event>
 4    1  0.9583198E-007  0.2007458E+02  0.7818608E-02  0.1743849E+00
         -1   -1    0    0    0  501 -0.00000000000E+00  0.00000000000E+00  0.17192642045E+01  0.17192705470E+01  0.46700000000E-02 0. -1.
          1   -1    0    0  501    0  0.00000000000E+00 -0.00000000000E+00 -0.58598881906E+02  0.58598882092E+02  0.46700000000E-02 0.  1.
        -11    1    1    2    0    0  0.99201177082E+01 -0.14425334553E+01 -0.26915033221E+02  0.28721223018E+02  0.51100000000E-03 0.  1.
         11    1    1    2    0    0 -0.99201177082E+01  0.14425334553E+01 -0.29964584481E+02  0.31596929621E+02  0.51100000000E-03 0. -1.
<mgrwt>
<rscale>  0 0.20074577E+02</rscale>
<asrwt>0</asrwt>
<pdfrwt beam="2">  1        1 0.90152116E-02 0.20074577E+02</pdfrwt>
<pdfrwt beam="1">  1       -1 0.26450273E-03 0.20074577E+02</pdfrwt>
<totfact> 0.41860832E+06</totfact>
</mgrwt>
</event>
<event>
 4    1  0.9583198E-007  0.2093413E+02  0.7818608E-02  0.1727365E+00
          1   -1    0    0  501    0  0.00000000000E+00  0.00000000000E+00  0.10533563040E+02  0.10533564075E+02  0.46700000000E-02 0. -1.
         -1   -1    0    0    0  501 -0.00000000000E+00 -0.00000000000E+00 -0.10400985624E+02  0.10400986673E+02  0.46700000000E-02 0.  1.
        -11    1    1    2    0    0  0.69058521037E+01  0.78649842962E+01 -0.37096346857E-01  0.10466620642E+02  0.51100000000E-03 0.  1.
         11    1    1    2    0    0 -0.69058521037E+01 -0.78649842962E+01  0.16967376268E+00  0.10467930106E+02  0.51100000000E-03 0. -1.
<mgrwt>
<rscale>  0 0.20934131E+02</rscale>
<asrwt>0</asrwt>
<pdfrwt beam="1">  1        1 0.16205483E-02 0.20934131E+02</pdfrwt>
<pdfrwt beam="2">  1       -1 0.16001518E-02 0.20934131E+02</pdfrwt>
<totfact> 0.34883312E+06</totfact>
</mgrwt>
</event>
<event>
 5    1  0.1000543E-006  0.2000111E+02  0.7818608E-02  0.1745306E+00
          1   -1    0    0  501    0  0.00000000000E+00  0.00000000000E+00  0.65903636920E+02  0.65903637085E+02  0.46700000000E-02 0. -1.
         -1   -1    0    0    0  501 -0.00000000000E+00 -0.00000000000E+00 -0.15175321930E+01  0.15175393786E+01  0.46700000000E-02 0.  1.
       1023    2    1    2    0    0  0.00000000000E+00  0.00000000000E+00  0.64386104727E+02  0.67421176464E+02  0.20001113816E+02 0.  0.
        -11    1    3    3    0    0 -0.99570690952E+01 -0.93157439877E+00  0.32162456769E+02  0.33681369947E+02  0.51100000000E-03 0.  1.
         11    1    3    3    0    0  0.99570690952E+01  0.93157439877E+00  0.32223647957E+02  0.33739806517E+02  0.51100000000E-03 0. -1.
<mgrwt>
<rscale>  0 0.20001114E+02</rscale>
<asrwt>0</asrwt>
<pdfrwt beam="1">  1        1 0.10139019E-01 0.20001114E+02</pdfrwt>
<pdfrwt beam="2">  1       -1 0.23346711E-03 0.20001114E+02</pdfrwt>
<totfact> 0.42607183E+06</totfact>
</mgrwt>
</event>
<event>
 5    1  0.9751958E-007  0.2000068E+02  0.7818608E-02  0.1745315E+00
          1   -1    0    0  501    0  0.00000000000E+00  0.00000000000E+00  0.49448842445E+02  0.49448842665E+02  0.46700000000E-02 0. -1.
         -1   -1    0    0    0  501 -0.00000000000E+00 -0.00000000000E+00 -0.20224259435E+01  0.20224313353E+01  0.46700000000E-02 0.  1.
       1023    2    1    2    0    0  0.00000000000E+00  0.00000000000E+00  0.47426416501E+02  0.51471274001E+02  0.20000676616E+02 0.  0.
        -11    1    3    3    0    0  0.28304140481E+01  0.95913236270E+01  0.23597161524E+02  0.25628709778E+02  0.51100000000E-03 0. -1.
         11    1    3    3    0    0 -0.28304140481E+01 -0.95913236270E+01  0.23829254977E+02  0.25842564223E+02  0.51100000000E-03 0.  1.
<mgrwt>
<rscale>  0 0.20000677E+02</rscale>
<asrwt>0</asrwt>
<pdfrwt beam="1">  1        1 0.76075149E-02 0.20000677E+02</pdfrwt>
<pdfrwt beam="2">  1       -1 0.31114288E-03 0.20000677E+02</pdfrwt>
<totfact> 0.41679335E+06</totfact>
</mgrwt>
</event>
<event>
 5    1  0.9583198E-007  0.2000771E+02  0.7818608E-02  0.1745175E+00
         -1   -1    0    0    0  501 -0.00000000000E+00  0.00000000000E+00  0.17005467927E+02  0.17005468569E+02  0.46700000000E-02 0.  1.
          1   -1    0    0  501    0  0.00000000000E+00 -0.00000000000E+00 -0.58849917919E+01  0.58849936449E+01  0.46700000000E-02 0. -1.
       1023    2    1    2    0    0  0.00000000000E+00  0.00000000000E+00  0.11120476136E+02  0.22890462214E+02  0.20007705287E+02 0.  0.
        -11    1    3    3    0    0 -0.65435045545E+01 -0.75668330120E+01  0.55013009509E+01  0.11416598710E+02  0.51100000000E-03 0.  1.
         11    1    3    3    0    0  0.65435045545E+01  0.75668330120E+01  0.56191751846E+01  0.11473863504E+02  0.51100000000E-03 0. -1.
<mgrwt>
<rscale>  0 0.20007705E+02</rscale>
<asrwt>0</asrwt>
<pdfrwt beam="2">  1        1 0.90538356E-03 0.20007705E+02</pdfrwt>
<pdfrwt beam="1">  1       -1 0.26162260E-02 0.20007705E+02</pdfrwt>
<totfact> 0.37700681E+06</totfact>
</mgrwt>
</event>
<event>
 5    1  0.9871879E-007  0.2000121E+02  0.7818608E-02  0.1745304E+00
          1   -1    0    0  501    0  0.00000000000E+00  0.00000000000E+00  0.16862534938E+02  0.16862535585E+02  0.46700000000E-02 0.  1.
         -1   -1    0    0    0  501 -0.00000000000E+00 -0.00000000000E+00 -0.59310203706E+01  0.59310222091E+01  0.46700000000E-02 0. -1.
       1023    2    1    2    0    0  0.00000000000E+00  0.00000000000E+00  0.10931514568E+02  0.22793557794E+02  0.20001206618E+02 0.  0.
        -11    1    3    3    0    0  0.99685741129E+01 -0.79959495068E+00  0.54835713406E+01  0.11405322303E+02  0.51100000000E-03 0.  1.
         11    1    3    3    0    0 -0.99685741129E+01  0.79959495068E+00  0.54479432269E+01  0.11388235491E+02  0.51100000000E-03 0. -1.
<mgrwt>
<rscale>  0 0.20001207E+02</rscale>
<asrwt>0</asrwt>
<pdfrwt beam="1">  1        1 0.25942364E-02 0.20001207E+02</pdfrwt>
<pdfrwt beam="2">  1       -1 0.91246484E-03 0.20001207E+02</pdfrwt>
<totfact> 0.39422551E+06</totfact>
</mgrwt>
</event>
<event>
 5    1  0.9583198E-007  0.2000033E+02  0.7818608E-02  0.1745322E+00
         -1   -1    0    0    0  501 -0.00000000000E+00  0.00000000000E+00  0.29488827374E+01  0.29488864352E+01  0.46700000000E-02 0.  1.
          1   -1    0    0  501    0  0.00000000000E+00 -0.00000000000E+00 -0.33912235395E+02  0.33912235716E+02  0.46700000000E-02 0. -1.
       1023    2    1    2    0    0  0.00000000000E+00  0.00000000000E+00 -0.30963352657E+02  0.36861122151E+02  0.20000327959E+02 0.  0.
        -11    1    3    3    0    0 -0.80998688413E+01 -0.58647595096E+01 -0.15481503951E+02  0.18430416278E+02  0.51100000000E-03 0. -1.
         11    1    3    3    0    0  0.80998688413E+01  0.58647595096E+01 -0.15481848707E+02  0.18430705873E+02  0.51100000000E-03 0.  1.
<mgrwt>
<rscale>  0 0.20000328E+02</rscale>
<asrwt>0</asrwt>
<pdfrwt beam="2">  1        1 0.52172670E-02 0.20000328E+02</pdfrwt>
<pdfrwt beam="1">  1       -1 0.45367460E-03 0.20000328E+02</pdfrwt>
<totfact> 0.40718499E+06</totfact>
</mgrwt>
</event>
<event>
 5    1  0.9583198E-007  0.2000033E+02  0.7818608E-02  0.1745322E+00
         -1   -1    0    0    0  501 -0.00000000000E+00  0.00000000000E+00  0.13536563866E+02  0.13536564672E+02  0.46700000000E-02 0.  1.
          1   -1    0    0  501    0  0.00000000000E+00 -0.00000000000E+00 -0.73876383611E+01  0.73876398372E+01  0.46700000000E-02 0. -1.
       1023    2    1    2    0    0  0.00000000000E+00  0.00000000000E+00  0.61489255052E+01  0.20924204509E+02  0.20000326234E+02 0.  0.
        -11    1    3    3    0    0 -0.96826883746E+01 -0.24992764061E+01  0.30229395410E+01  0.10446961302E+02  0.51100000000E-03 0.  1.
         11    1    3    3    0    0  0.96826883746E+01  0.24992764061E+01  0.31259859643E+01  0.10477243207E+02  0.51100000000E-03 0. -1.
<mgrwt>
<rscale>  0 0.20000326E+02</rscale>
<asrwt>0</asrwt>
<pdfrwt beam="2">  1        1 0.11365599E-02 0.20000326E+02</pdfrwt>
<pdfrwt beam="1">  1       -1 0.20825485E-02 0.20000326E+02</pdfrwt>
<totfact> 0.38135415E+06</totfact>
</mgrwt>
</event>
<event>
 5    1  0.9583198E-007  0.2000047E+02  0.7818608E-02  0.1745319E+00
         -1   -1    0    0    0  501 -0.00000000000E+00  0.00000000000E+00  0.12378637558E+02  0.12378638439E+02  0.46700000000E-02 0. -1.
          1   -1    0    0  501    0  0.00000000000E+00 -0.00000000000E+00 -0.80788113214E+01  0.80788126711E+01  0.46700000000E-02 0.  1.
       1023    2    1    2    0    0  0.00000000000E+00  0.00000000000E+00  0.42998262366E+01  0.20457451110E+02  0.20000470001E+02 0.  0.
        -11    1    3    3    0    0  0.78761962739E+01  0.61619989464E+01  0.21488693739E+01  0.10228506177E+02  0.51100000000E-03 0.  1.
         11    1    3    3    0    0 -0.78761962739E+01 -0.61619989464E+01  0.21509568627E+01  0.10228944933E+02  0.51100000000E-03 0. -1.
<mgrwt>
<rscale>  0 0.20000470E+02</rscale>
<asrwt>0</asrwt>
<pdfrwt beam="2">  1        1 0.12428942E-02 0.20000470E+02</pdfrwt>
<pdfrwt beam="1">  1       -1 0.19044059E-02 0.20000470E+02</pdfrwt>
<totfact> 0.38283291E+06</totfact>
</mgrwt>
</event>
<event>
 5    1  0.9583198E-007  0.2000607E+02  0.7818608E-02  0.1745207E+00
         -1   -1    0    0    0  501 -0.00000000000E+00  0.00000000000E+00  0.69632925105E+02  0.69632925262E+02  0.46700000000E-02 0.  1.
          1   -1    0    0  501    0  0.00000000000E+00 -0.00000000000E+00 -0.14369702444E+01  0.14369778329E+01  0.46700000000E-02 0. -1.
       1023    2    1    2    0    0  0.00000000000E+00  0.00000000000E+00  0.68195954861E+02  0.71069903095E+02  0.20006070741E+02 0.  0.
        -11    1    3    3    0    0  0.14602432151E+01  0.98953375347E+01  0.33730492093E+02  0.35182326704E+02  0.51100000000E-03 0.  1.
         11    1    3    3    0    0 -0.14602432151E+01 -0.98953375347E+01  0.34465462767E+02  0.35887576391E+02  0.51100000000E-03 0. -1.
<mgrwt>
<rscale>  0 0.20006071E+02</rscale>
<asrwt>0</asrwt>
<pdfrwt beam="2">  1        1 0.22107291E-03 0.20006071E+02</pdfrwt>
<pdfrwt beam="1">  1       -1 0.10712760E-01 0.20006071E+02</pdfrwt>
<totfact> 0.33600963E+06</totfact>
</mgrwt>
</event>
<event>
 5    1  0.9959493E-007  0.2000077E+02  0.7818608E-02  0.1745313E+00
          1   -1    0    0  501    0  0.00000000000E+00  0.00000000000E+00  0.75053173564E+01  0.75053188093E+01  0.46700000000E-02 0. -1.
         -1   -1    0    0    0  501 -0.00000000000E+00 -0.00000000000E+00 -0.13324908385E+02  0.13324909203E+02  0.46700000000E-02 0.  1.
       1023    2    1    2    0    0  0.00000000000E+00  0.00000000000E+00 -0.58195910286E+01  0.20830228013E+02  0.20000768968E+02 0.  0.
        -11    1    3    3    0    0  0.41938291924E+00 -0.99915056744E+01 -0.28678526116E+01  0.10403395914E+02  0.51100000000E-03 0.  1.
         11    1    3    3    0    0 -0.41938291924E+00  0.99915056744E+01 -0.29517384170E+01  0.10426832099E+02  0.51100000000E-03 0. -1.
<mgrwt>
<rscale>  0 0.20000769E+02</rscale>
<asrwt>0</asrwt>
<pdfrwt beam="1">  1        1 0.11546644E-02 0.20000769E+02</pdfrwt>
<pdfrwt beam="2">  1       -1 0.20499861E-02 0.20000769E+02</pdfrwt>
<totfact> 0.38160105E+06</totfact>
</mgrwt>
</event>
<event>
 4    1  0.9583198E-007  0.2001365E+02  0.7818608E-02  0.1745057E+00
         -1   -1    0    0    0  501 -0.00000000000E+00  0.00000000000E+00  0.12991582875E+02  0.12991583714E+02  0.46700000000E-02 0. -1.
          1   -1    0    0  501    0  0.00000000000E+00 -0.00000000000E+00 -0.77077994638E+01  0.77078008786E+01  0.46700000000E-02 0.  1.
        -11    1    1    2    0    0  0.49639847347E+01 -0.86843611084E+01  0.23543994525E+01  0.10276306211E+02  0.51100000000E-03 0. -1.
         11    1    1    2    0    0 -0.49639847347E+01  0.86843611084E+01  0.29293839587E+01  0.10423078381E+02  0.51100000000E-03 0.  1.
<mgrwt>
<rscale>  0 0.20013649E+02</rscale>
<asrwt>0</asrwt>
<pdfrwt beam="2">  1        1 0.11858155E-02 0.20013649E+02</pdfrwt>
<pdfrwt beam="1">  1       -1 0.19987052E-02 0.20013649E+02</pdfrwt>
<totfact> 0.38148576E+06</totfact>
</mgrwt>
</event>
<event>
 5    1  0.9583198E-007  0.2000038E+02  0.7818608E-02  0.1745321E+00
          1   -1    0    0  501    0  0.00000000000E+00  0.00000000000E+00  0.82167961893E+00  0.82169288975E+00  0.46700000000E-02 0.  1.
         -1   -1    0    0    0  501 -0.00000000000E+00 -0.00000000000E+00 -0.12170556088E+03  0.12170556097E+03  0.46700000000E-02 0. -1.
       1023    2    1    2    0    0  0.00000000000E+00  0.00000000000E+00 -0.12088388127E+03  0.12252725386E+03  0.20000379736E+02 0.  0.
        -11    1    3    3    0    0  0.86217143682E+01 -0.50665372149E+01 -0.60480266988E+02  0.61301439242E+02  0.51100000000E-03 0. -1.
         11    1    3    3    0    0 -0.86217143682E+01  0.50665372149E+01 -0.60403614278E+02  0.61225814622E+02  0.51100000000E-03 0.  1.
<mgrwt>
<rscale>  0 0.20000380E+02</rscale>
<asrwt>0</asrwt>
<pdfrwt beam="1">  1        1 0.12641337E-03 0.20000380E+02</pdfrwt>
<pdfrwt beam="2">  1       -1 0.18723919E-01 0.20000380E+02</pdfrwt>
<totfact> 0.30751060E+06</totfact>
</mgrwt>
</event>
<event>
 4    1  0.9583198E-007  0.2003556E+02  0.7818608E-02  0.1744622E+00
          1   -1    0    0  501    0  0.00000000000E+00  0.00000000000E+00  0.64542469834E+01  0.64542486729E+01  0.46700000000E-02 0.  1.
         -1   -1    0    0    0  501 -0.00000000000E+00 -0.00000000000E+00 -0.15548815229E+02  0.15548815930E+02  0.46700000000E-02 0. -1.
        -11    1    1    2    0    0  0.78439640647E+01  0.62203625497E+01 -0.49511433180E+01  0.11168460185E+02  0.51100000000E-03 0.  1.
         11    1    1    2    0    0 -0.78439640647E+01 -0.62203625497E+01 -0.41434249278E+01  0.10834604418E+02  0.51100000000E-03 0. -1.
<mgrwt>
<rscale>  0 0.20035560E+02</rscale>
<asrwt>0</asrwt>
<pdfrwt beam="1">  1        1 0.99296125E-03 0.20035560E+02</pdfrwt>
<pdfrwt beam="2">  1       -1 0.23921256E-02 0.20035560E+02</pdfrwt>
<totfact> 0.37748657E+06</totfact>
</mgrwt>
</event>
<event>
 5    1  0.9977061E-007  0.2000164E+02  0.7818608E-02  0.1745295E+00
          1   -1    0    0  501    0  0.00000000000E+00  0.00000000000E+00  0.51967663565E+02  0.51967663775E+02  0.46700000000E-02 0.  1.
         -1   -1    0    0    0  501 -0.00000000000E+00 -0.00000000000E+00 -0.19245862623E+01  0.19245919282E+01  0.46700000000E-02 0. -1.
       1023    2    1    2    0    0  0.00000000000E+00  0.00000000000E+00  0.50043077303E+02  0.53892255703E+02  0.20001640904E+02 0.  0.
        -11    1    3    3    0    0  0.99387005882E+01  0.11128515900E+01  0.25059776665E+02  0.26981634769E+02  0.51100000000E-03 0.  1.
         11    1    3    3    0    0 -0.99387005882E+01 -0.11128515900E+01  0.24983300637E+02  0.26910620934E+02  0.51100000000E-03 0. -1.
<mgrwt>
<rscale>  0 0.20001641E+02</rscale>
<asrwt>0</asrwt>
<pdfrwt beam="1">  1        1 0.79950266E-02 0.20001641E+02</pdfrwt>
<pdfrwt beam="2">  1       -1 0.29609061E-03 0.20001641E+02</pdfrwt>
<totfact> 0.41821955E+06</totfact>
</mgrwt>
</event>
<event>
 5    1  0.9583198E-007  0.2000013E+02  0.7818608E-02  0.1745326E+00
          1   -1    0    0  501    0  0.00000000000E+00  0.00000000000E+00  0.45185363853E+02  0.45185364095E+02  0.46700000000E-02 0. -1.
         -1   -1    0    0    0  501 -0.00000000000E+00 -0.00000000000E+00 -0.22131316316E+01  0.22131365588E+01  0.46700000000E-02 0.  1.
       1023    2    1    2    0    0  0.00000000000E+00  0.00000000000E+00  0.42972232222E+02  0.47398500653E+02  0.20000128052E+02 0.  0.
        -11    1    3    3    0    0  0.95523921806E+01  0.29585369985E+01  0.21457804370E+02  0.23673582453E+02  0.51100000000E-03 0. -1.
         11    1    3    3    0    0 -0.95523921806E+01 -0.29585369985E+01  0.21514427852E+02  0.23724918200E+02  0.51100000000E-03 0.  1.
<mgrwt>
<rscale>  0 0.20000128E+02</rscale>
<asrwt>0</asrwt>
<pdfrwt beam="1">  1        1 0.69515944E-02 0.20000128E+02</pdfrwt>
<pdfrwt beam="2">  1       -1 0.34048221E-03 0.20000128E+02</pdfrwt>
<totfact> 0.41428032E+06</totfact>
</mgrwt>
</event>
<event>
 5    1  0.9583198E-007  0.2000668E+02  0.7818608E-02  0.1745195E+00
         -1   -1    0    0    0  501 -0.00000000000E+00  0.00000000000E+00  0.32234926211E+02  0.32234926550E+02  0.46700000000E-02 0.  1.
          1   -1    0    0  501    0  0.00000000000E+00 -0.00000000000E+00 -0.31042947192E+01  0.31042982319E+01  0.46700000000E-02 0. -1.
       1023    2    1    2    0    0  0.00000000000E+00  0.00000000000E+00  0.29130631492E+02  0.35339224781E+02  0.20006676811E+02 0.  0.
        -11    1    3    3    0    0  0.90328079783E+01  0.42923581544E+01  0.14167115505E+02  0.17341370202E+02  0.51100000000E-03 0.  1.
         11    1    3    3    0    0 -0.90328079783E+01 -0.42923581544E+01  0.14963515987E+02  0.17997854579E+02  0.51100000000E-03 0. -1.
<mgrwt>
<rscale>  0 0.20006677E+02</rscale>
<asrwt>0</asrwt>
<pdfrwt beam="2">  1        1 0.47758414E-03 0.20006677E+02</pdfrwt>
<pdfrwt beam="1">  1       -1 0.49592193E-02 0.20006677E+02</pdfrwt>
<totfact> 0.36269595E+06</totfact>
</mgrwt>
</event>
<event>
 4    1  0.9583198E-007  0.2003709E+02  0.7818608E-02  0.1744592E+00
          1   -1    0    0  501    0  0.00000000000E+00  0.00000000000E+00  0.19200031993E+01  0.19200088787E+01  0.46700000000E-02 0. -1.
         -1   -1    0    0    0  501 -0.00000000000E+00 -0.00000000000E+00 -0.52276515498E+02  0.52276515706E+02  0.46700000000E-02 0.  1.
        -11    1    1    2    0    0 -0.27819496788E+00 -0.10011704477E+02 -0.25838680464E+02  0.27711893248E+02  0.51100000000E-03 0. -1.
         11    1    1    2    0    0  0.27819496788E+00  0.10011704477E+02 -0.24517831834E+02  0.26484631337E+02  0.51100000000E-03 0.  1.
<mgrwt>
<rscale>  0 0.20037089E+02</rscale>
<asrwt>0</asrwt>
<pdfrwt beam="1">  1        1 0.29538560E-03 0.20037089E+02</pdfrwt>
<pdfrwt beam="2">  1       -1 0.80425402E-02 0.20037089E+02</pdfrwt>
<totfact> 0.34627687E+06</totfact>
</mgrwt>
</event>
<event>
 4    1  0.9583198E-007  0.2016981E+02  0.7818608E-02  0.1741972E+00
         -1   -1    0    0    0  501 -0.00000000000E+00  0.00000000000E+00  0.65967240673E+01  0.65967257203E+01  0.46700000000E-02 0. -1.
          1   -1    0    0  501    0  0.00000000000E+00 -0.00000000000E+00 -0.15417551383E+02  0.15417552090E+02  0.46700000000E-02 0.  1.
        -11    1    1    2    0    0 -0.67367767771E+01 -0.74923514898E+01 -0.48809598524E+01  0.11195680486E+02  0.51100000000E-03 0.  1.
         11    1    1    2    0    0  0.67367767771E+01  0.74923514898E+01 -0.39398674632E+01  0.10818597325E+02  0.51100000000E-03 0. -1.
<mgrwt>
<rscale>  0 0.20169815E+02</rscale>
<asrwt>0</asrwt>
<pdfrwt beam="2">  1        1 0.23719312E-02 0.20169815E+02</pdfrwt>
<pdfrwt beam="1">  1       -1 0.10148808E-02 0.20169815E+02</pdfrwt>
<totfact> 0.38546423E+06</totfact>
</mgrwt>
</event>
<event>
 5    1  0.9583198E-007  0.2000204E+02  0.7818608E-02  0.1745288E+00
          1   -1    0    0  501    0  0.00000000000E+00  0.00000000000E+00  0.43447800848E+02  0.43447801099E+02  0.46700000000E-02 0.  1.
         -1   -1    0    0    0  501 -0.00000000000E+00 -0.00000000000E+00 -0.23020791183E+01  0.23020838551E+01  0.46700000000E-02 0. -1.
       1023    2    1    2    0    0  0.00000000000E+00  0.00000000000E+00  0.41145721729E+02  0.45749884954E+02  0.20002038812E+02 0.  0.
        -11    1    3    3    0    0  0.98540734329E+01 -0.17045592035E+01  0.20321224690E+02  0.22648630388E+02  0.51100000000E-03 0.  1.
         11    1    3    3    0    0 -0.98540734329E+01  0.17045592035E+01  0.20824497039E+02  0.23101254566E+02  0.51100000000E-03 0. -1.
<mgrwt>
<rscale>  0 0.20002039E+02</rscale>
<asrwt>0</asrwt>
<pdfrwt beam="1">  1        1 0.66842775E-02 0.20002039E+02</pdfrwt>
<pdfrwt beam="2">  1       -1 0.35416640E-03 0.20002039E+02</pdfrwt>
<totfact> 0.41313866E+06</totfact>
</mgrwt>
</event>
<event>
 5    1  0.9583198E-007  0.2000006E+02  0.7818608E-02  0.1745327E+00
          1   -1    0    0  501    0  0.00000000000E+00  0.00000000000E+00  0.29797189954E+01  0.29797226550E+01  0.46700000000E-02 0.  1.
         -1   -1    0    0    0  501 -0.00000000000E+00 -0.00000000000E+00 -0.33560376127E+02  0.33560376452E+02  0.46700000000E-02 0. -1.
       1023    2    1    2    0    0  0.00000000000E+00  0.00000000000E+00 -0.30580657132E+02  0.36540099107E+02  0.20000056304E+02 0.  0.
        -11    1    3    3    0    0 -0.73739776205E+01 -0.67546282161E+01 -0.15283374006E+02  0.18264229235E+02  0.51100000000E-03 0. -1.
         11    1    3    3    0    0  0.73739776205E+01  0.67546282161E+01 -0.15297283126E+02  0.18275869872E+02  0.51100000000E-03 0.  1.
<mgrwt>
<rscale>  0 0.20000056E+02</rscale>
<asrwt>0</asrwt>
<pdfrwt beam="1">  1        1 0.45841864E-03 0.20000056E+02</pdfrwt>
<pdfrwt beam="2">  1       -1 0.51631348E-02 0.20000056E+02</pdfrwt>
<totfact> 0.36185550E+06</totfact>
</mgrwt>
</event>
<event>
 5    1  0.9583198E-007  0.2000017E+02  0.7818608E-02  0.1745325E+00
         -1   -1    0    0    0  501 -0.00000000000E+00  0.00000000000E+00  0.82911127281E+02  0.82911127412E+02  0.46700000000E-02 0. -1.
          1   -1    0    0  501    0  0.00000000000E+00 -0.00000000000E+00 -0.12061268219E+01  0.12061358627E+01  0.46700000000E-02 0.  1.
       1023    2    1    2    0    0  0.00000000000E+00  0.00000000000E+00  0.81705000459E+02  0.84117263275E+02  0.20000172022E+02 0.  0.
        -11    1    3    3    0    0 -0.51665786699E+01  0.85620188407E+01  0.40834566977E+02  0.42041212664E+02  0.51100000000E-03 0.  1.
         11    1    3    3    0    0  0.51665786699E+01 -0.85620188407E+01  0.40870433482E+02  0.42076050611E+02  0.51100000000E-03 0. -1.
<mgrwt>
<rscale>  0 0.20000172E+02</rscale>
<asrwt>0</asrwt>
<pdfrwt beam="2">  1        1 0.18555872E-03 0.20000172E+02</pdfrwt>
<pdfrwt beam="1">  1       -1 0.12755556E-01 0.20000172E+02</pdfrwt>
<totfact> 0.32822094E+06</totfact>
</mgrwt>
</event>
<event>
 5    1  0.9583198E-007  0.2000742E+02  0.7818608E-02  0.1745181E+00
          1   -1    0    0  501    0  0.00000000000E+00  0.00000000000E+00  0.61279577761E+02  0.61279577939E+02  0.46700000000E-02 0. -1.
         -1   -1    0    0    0  501 -0.00000000000E+00 -0.00000000000E+00 -0.16330720438E+01  0.16330787210E+01  0.46700000000E-02 0.  1.
       1023    2    1    2    0    0  0.00000000000E+00  0.00000000000E+00  0.59646505717E+02  0.62912656660E+02  0.20007416718E+02 0.  0.
        -11    1    3    3    0    0 -0.98692408857E+01 -0.16185771218E+01  0.30543556190E+02  0.32139236652E+02  0.51100000000E-03 0. -1.
         11    1    3    3    0    0  0.98692408857E+01  0.16185771218E+01  0.29102949527E+02  0.30773420008E+02  0.51100000000E-03 0.  1.
<mgrwt>
<rscale>  0 0.20007417E+02</rscale>
<asrwt>0</asrwt>
<pdfrwt beam="1">  1        1 0.94276280E-02 0.20007417E+02</pdfrwt>
<pdfrwt beam="2">  1       -1 0.25124238E-03 0.20007417E+02</pdfrwt>
<totfact> 0.42323128E+06</totfact>
</mgrwt>
</event>
<event>
 5    1  0.9583198E-007  0.2000036E+02  0.7818608E-02  0.1745321E+00
          1   -1    0    0  501    0  0.00000000000E+00  0.00000000000E+00  0.10194325259E+02  0.10194326329E+02  0.46700000000E-02 0. -1.
         -1   -1    0    0    0  501 -0.00000000000E+00 -0.00000000000E+00 -0.98097307607E+01  0.98097318723E+01  0.46700000000E-02 0.  1.
       1023    2    1    2    0    0  0.00000000000E+00  0.00000000000E+00  0.38459449856E+00  0.20004058201E+02  0.20000360786E+02 0.  0.
        -11    1    3    3    0    0 -0.62287138000E+01  0.78232571559E+01  0.25044151531E+00  0.10003146972E+02  0.51100000000E-03 0. -1.
         11    1    3    3    0    0  0.62287138000E+01 -0.78232571559E+01  0.13415298325E+00  0.10000911229E+02  0.51100000000E-03 0.  1.
<mgrwt>
<rscale>  0 0.20000361E+02</rscale>
<asrwt>0</asrwt>
<pdfrwt beam="1">  1        1 0.15683579E-02 0.20000361E+02</pdfrwt>
<pdfrwt beam="2">  1       -1 0.15091895E-02 0.20000361E+02</pdfrwt>
<totfact> 0.38652161E+06</totfact>
</mgrwt>
</event>
<event>
 5    1  0.9583198E-007  0.2000039E+02  0.7818608E-02  0.1745320E+00
         -1   -1    0    0    0  501 -0.00000000000E+00  0.00000000000E+00  0.89030133047E+00  0.89031357843E+00  0.46700000000E-02 0.  1.
          1   -1    0    0  501    0  0.00000000000E+00 -0.00000000000E+00 -0.11232509069E+03  0.11232509079E+03  0.46700000000E-02 0. -1.
       1023    2    1    2    0    0  0.00000000000E+00  0.00000000000E+00 -0.11143478936E+03  0.11321540437E+03  0.20000387648E+02 0.  0.
        -11    1    3    3    0    0  0.77868464163E+01  0.62744460233E+01 -0.55632250557E+02  0.56523897179E+02  0.51100000000E-03 0. -1.
         11    1    3    3    0    0 -0.77868464163E+01 -0.62744460233E+01 -0.55802538806E+02  0.56691507190E+02  0.51100000000E-03 0.  1.
<mgrwt>
<rscale>  0 0.20000388E+02</rscale>
<asrwt>0</asrwt>
<pdfrwt beam="2">  1        1 0.17280773E-01 0.20000388E+02</pdfrwt>
<pdfrwt beam="1">  1       -1 0.13697047E-03 0.20000388E+02</pdfrwt>
<totfact> 0.44944479E+06</totfact>
</mgrwt>
</event>
<event>
 5    1  0.1021044E-006  0.2000089E+02  0.7818608E-02  0.1745310E+00
          1   -1    0    0  501    0  0.00000000000E+00  0.00000000000E+00  0.80477563738E+02  0.80477563874E+02  0.46700000000E-02 0. -1.
         -1   -1    0    0    0  501 -0.00000000000E+00 -0.00000000000E+00 -0.12426890270E+01  0.12426978019E+01  0.46700000000E-02 0.  1.
       1023    2    1    2    0    0  0.00000000000E+00  0.00000000000E+00  0.79234874711E+02  0.81720261676E+02  0.20000894926E+02 0.  0.
        -11    1    3    3    0    0  0.98626392892E+01  0.16528984928E+01  0.39322180780E+02  0.40573854004E+02  0.51100000000E-03 0. -1.
         11    1    3    3    0    0 -0.98626392892E+01 -0.16528984928E+01  0.39912693931E+02  0.41146407672E+02  0.51100000000E-03 0.  1.
<mgrwt>
<rscale>  0 0.20000895E+02</rscale>
<asrwt>0</asrwt>
<pdfrwt beam="1">  1        1 0.12381163E-01 0.20000895E+02</pdfrwt>
<pdfrwt beam="2">  1       -1 0.19118363E-03 0.20000895E+02</pdfrwt>
<totfact> 0.43379742E+06</totfact>
</mgrwt>
</event>
<event>
 4    1  0.9583198E-007  0.2001489E+02  0.7818608E-02  0.1745032E+00
         -1   -1    0    0    0  501 -0.00000000000E+00  0.00000000000E+00  0.37738721180E+01  0.37738750074E+01  0.46700000000E-02 0.  1.
          1   -1    0    0  501    0  0.00000000000E+00 -0.00000000000E+00 -0.26537438808E+02  0.26537439219E+02  0.46700000000E-02 0. -1.
        -11    1    1    2    0    0  0.96585478475E+01  0.26187464087E+01 -0.11472281431E+02  0.15223620488E+02  0.51100000000E-03 0.  1.
         11    1    1    2    0    0 -0.96585478475E+01 -0.26187464087E+01 -0.11291285259E+02  0.15087693738E+02  0.51100000000E-03 0. -1.
<mgrwt>
<rscale>  0 0.20014889E+02</rscale>
<asrwt>0</asrwt>
<pdfrwt beam="2">  1        1 0.40826830E-02 0.20014889E+02</pdfrwt>
<pdfrwt beam="1">  1       -1 0.58059598E-03 0.20014889E+02</pdfrwt>
<totfact> 0.40145432E+06</totfact>
</mgrwt>
</event>
<event>
 5    1  0.9583198E-007  0.2000416E+02  0.7818608E-02  0.1745245E+00
         -1   -1    0    0    0  501 -0.00000000000E+00  0.00000000000E+00  0.50735423474E+01  0.50735444966E+01  0.46700000000E-02 0. -1.
          1   -1    0    0  501    0  0.00000000000E+00 -0.00000000000E+00 -0.19718280500E+02  0.19718281053E+02  0.46700000000E-02 0.  1.
       1023    2    1    2    0    0  0.00000000000E+00  0.00000000000E+00 -0.14644738152E+02  0.24791825549E+02  0.20004156031E+02 0.  0.
        -11    1    3    3    0    0  0.59652772025E+01 -0.80281691746E+01 -0.74145472621E+01  0.12450363198E+02  0.51100000000E-03 0. -1.
         11    1    3    3    0    0 -0.59652772025E+01  0.80281691746E+01 -0.72301908900E+01  0.12341462351E+02  0.51100000000E-03 0.  1.
<mgrwt>
<rscale>  0 0.20004156E+02</rscale>
<asrwt>0</asrwt>
<pdfrwt beam="2">  1        1 0.30335818E-02 0.20004156E+02</pdfrwt>
<pdfrwt beam="1">  1       -1 0.78054520E-03 0.20004156E+02</pdfrwt>
<totfact> 0.39663692E+06</totfact>
</mgrwt>
</event>
<event>
 5    1  0.9583198E-007  0.2000147E+02  0.7818608E-02  0.1745299E+00
          1   -1    0    0  501    0  0.00000000000E+00  0.00000000000E+00  0.27113834466E+01  0.27113874683E+01  0.46700000000E-02 0.  1.
         -1   -1    0    0    0  501 -0.00000000000E+00 -0.00000000000E+00 -0.36886932084E+02  0.36886932380E+02  0.46700000000E-02 0. -1.
       1023    2    1    2    0    0  0.00000000000E+00  0.00000000000E+00 -0.34175548638E+02  0.39598319848E+02  0.20001470199E+02 0.  0.
        -11    1    3    3    0    0 -0.67837603642E+01 -0.73481289580E+01 -0.17053575000E+02  0.19769644013E+02  0.51100000000E-03 0.  1.
         11    1    3    3    0    0  0.67837603642E+01  0.73481289580E+01 -0.17121973638E+02  0.19828675835E+02  0.51100000000E-03 0. -1.
<mgrwt>
<rscale>  0 0.20001470E+02</rscale>
<asrwt>0</asrwt>
<pdfrwt beam="1">  1        1 0.41713627E-03 0.20001470E+02</pdfrwt>
<pdfrwt beam="2">  1       -1 0.56749126E-02 0.20001470E+02</pdfrwt>
<totfact> 0.35909879E+06</totfact>
</mgrwt>
</event>
<event>
 5    1  0.9595105E-007  0.2000058E+02  0.7818608E-02  0.1745317E+00
          1   -1    0    0  501    0  0.00000000000E+00  0.00000000000E+00  0.49898425032E+02  0.49898425250E+02  0.46700000000E-02 0. -1.
         -1   -1    0    0    0  501 -0.00000000000E+00 -0.00000000000E+00 -0.20041842668E+01  0.20041897077E+01  0.46700000000E-02 0.  1.
       1023    2    1    2    0    0  0.00000000000E+00  0.00000000000E+00  0.47894240765E+02  0.51902614958E+02  0.20000578517E+02 0.  0.
        -11    1    3    3    0    0  0.99737785752E+01 -0.72496394684E+00  0.24110283199E+02  0.26101869434E+02  0.51100000000E-03 0. -1.
         11    1    3    3    0    0 -0.99737785752E+01  0.72496394684E+00  0.23783957566E+02  0.25800745523E+02  0.51100000000E-03 0.  1.
<mgrwt>
<rscale>  0 0.20000579E+02</rscale>
<asrwt>0</asrwt>
<pdfrwt beam="1">  1        1 0.76766806E-02 0.20000579E+02</pdfrwt>
<pdfrwt beam="2">  1       -1 0.30833650E-03 0.20000579E+02</pdfrwt>
<totfact> 0.41706193E+06</totfact>
</mgrwt>
</event>
<event>
 5    1  0.9637603E-007  0.2000327E+02  0.7818608E-02  0.1745263E+00
          1   -1    0    0  501    0  0.00000000000E+00  0.00000000000E+00  0.90838431102E+02  0.90838431222E+02  0.46700000000E-02 0.  1.
         -1   -1    0    0    0  501 -0.00000000000E+00 -0.00000000000E+00 -0.11012109615E+01  0.11012208637E+01  0.46700000000E-02 0. -1.
       1023    2    1    2    0    0  0.00000000000E+00  0.00000000000E+00  0.89737220140E+02  0.91939652086E+02  0.20003273410E+02 0.  0.
        -11    1    3    3    0    0  0.16925519916E+00 -0.99998071370E+01  0.45278330248E+02  0.46369731296E+02  0.51100000000E-03 0.  1.
         11    1    3    3    0    0 -0.16925519916E+00  0.99998071370E+01  0.44458889892E+02  0.45569920790E+02  0.51100000000E-03 0. -1.
<mgrwt>
<rscale>  0 0.20003273E+02</rscale>
<asrwt>0</asrwt>
<pdfrwt beam="1">  1        1 0.13975148E-01 0.20003273E+02</pdfrwt>
<pdfrwt beam="2">  1       -1 0.16941780E-03 0.20003273E+02</pdfrwt>
<totfact> 0.43893910E+06</totfact>
</mgrwt>
</event>
<event>
 5    1  0.9583198E-007  0.2000044E+02  0.7818608E-02  0.1745319E+00
          1   -1    0    0  501    0  0.00000000000E+00  0.00000000000E+00  0.43121804395E+02  0.43121804648E+02  0.46700000000E-02 0.  1.
         -1   -1    0    0    0  501 -0.00000000000E+00 -0.00000000000E+00 -0.23191124569E+01  0.23191171589E+01  0.46700000000E-02 0. -1.
       1023    2    1    2    0    0  0.00000000000E+00  0.00000000000E+00  0.40802691938E+02  0.45440921807E+02  0.20000442627E+02 0.  0.
        -11    1    3    3    0    0  0.42454390624E+01 -0.90543093191E+01  0.20372971014E+02  0.22694982227E+02  0.51100000000E-03 0. -1.
         11    1    3    3    0    0 -0.42454390624E+01  0.90543093191E+01  0.20429720924E+02  0.22745939580E+02  0.51100000000E-03 0.  1.
<mgrwt>
<rscale>  0 0.20000443E+02</rscale>
<asrwt>0</asrwt>
<pdfrwt beam="1">  1        1 0.66341241E-02 0.20000443E+02</pdfrwt>
<pdfrwt beam="2">  1       -1 0.35678691E-03 0.20000443E+02</pdfrwt>
<totfact> 0.41301298E+06</totfact>
</mgrwt>
</event>
<event>
 5    1  0.9583198E-007  0.2000376E+02  0.7818608E-02  0.1745253E+00
          1   -1    0    0  501    0  0.00000000000E+00  0.00000000000E+00  0.81810151711E+01  0.81810165040E+01  0.46700000000E-02 0.  1.
         -1   -1    0    0    0  501 -0.00000000000E+00 -0.00000000000E+00 -0.12228012040E+02  0.12228012931E+02  0.46700000000E-02 0. -1.
       1023    2    1    2    0    0  0.00000000000E+00  0.00000000000E+00 -0.40469968686E+01  0.20409029435E+02  0.20003757118E+02 0.  0.
        -11    1    3    3    0    0 -0.64274369823E+01  0.76632365791E+01 -0.20022579113E+01  0.10200302840E+02  0.51100000000E-03 0. -1.
         11    1    3    3    0    0  0.64274369823E+01 -0.76632365791E+01 -0.20447389573E+01  0.10208726595E+02  0.51100000000E-03 0.  1.
<mgrwt>
<rscale>  0 0.20003757E+02</rscale>
<asrwt>0</asrwt>
<pdfrwt beam="1">  1        1 0.12586179E-02 0.20003757E+02</pdfrwt>
<pdfrwt beam="2">  1       -1 0.18812328E-02 0.20003757E+02</pdfrwt>
<totfact> 0.38289476E+06</totfact>
</mgrwt>
</event>
<event>
 4    1  0.9583198E-007  0.2002190E+02  0.7818608E-02  0.1744893E+00
         -1   -1    0    0    0  501 -0.00000000000E+00  0.00000000000E+00  0.17730607688E+01  0.17730669189E+01  0.46700000000E-02 0.  1.
          1   -1    0    0  501    0  0.00000000000E+00 -0.00000000000E+00 -0.56523112956E+02  0.56523113148E+02  0.46700000000E-02 0. -1.
        -11    1    1    2    0    0 -0.90391890060E+01 -0.42797035465E+01 -0.28665036587E+02  0.30359629825E+02  0.51100000000E-03 0.  1.
         11    1    1    2    0    0  0.90391890060E+01  0.42797035465E+01 -0.26085015599E+02  0.27936550242E+02  0.51100000000E-03 0. -1.
<mgrwt>
<rscale>  0 0.20021898E+02</rscale>
<asrwt>0</asrwt>
<pdfrwt beam="2">  1        1 0.86958626E-02 0.20021898E+02</pdfrwt>
<pdfrwt beam="1">  1       -1 0.27277911E-03 0.20021898E+02</pdfrwt>
<totfact> 0.41988718E+06</totfact>
</mgrwt>
</event>
<event>
 5    1  0.9583198E-007  0.2000024E+02  0.7818608E-02  0.1745323E+00
          1   -1    0    0  501    0  0.00000000000E+00  0.00000000000E+00  0.10619374291E+03  0.10619374301E+03  0.46700000000E-02 0. -1.
         -1   -1    0    0    0  501 -0.00000000000E+00 -0.00000000000E+00 -0.94169197970E+00  0.94170355927E+00  0.46700000000E-02 0.  1.
       1023    2    1    2    0    0  0.00000000000E+00  0.00000000000E+00  0.10525205093E+03  0.10713544657E+03  0.20000242177E+02 0.  0.
        -11    1    3    3    0    0 -0.82085187720E+01  0.57115294633E+01  0.52801434910E+02  0.53740049108E+02  0.51100000000E-03 0.  1.
         11    1    3    3    0    0  0.82085187720E+01 -0.57115294633E+01  0.52450616021E+02  0.53395397465E+02  0.51100000000E-03 0. -1.
<mgrwt>
<rscale>  0 0.20000242E+02</rscale>
<asrwt>0</asrwt>
<pdfrwt beam="1">  1        1 0.16337492E-01 0.20000242E+02</pdfrwt>
<pdfrwt beam="2">  1       -1 0.14487666E-03 0.20000242E+02</pdfrwt>
<totfact> 0.44656757E+06</totfact>
</mgrwt>
</event>
<event>
 5    1  0.9626640E-007  0.2000065E+02  0.7818608E-02  0.1745315E+00
         -1   -1    0    0    0  501 -0.00000000000E+00  0.00000000000E+00  0.70424023086E+01  0.70424038570E+01  0.46700000000E-02 0.  1.
          1   -1    0    0  501    0  0.00000000000E+00 -0.00000000000E+00 -0.14200614781E+02  0.14200615549E+02  0.46700000000E-02 0. -1.
       1023    2    1    2    0    0  0.00000000000E+00  0.00000000000E+00 -0.71582124724E+01  0.21243019406E+02  0.20000646681E+02 0.  0.
        -11    1    3    3    0    0  0.41312884622E+01  0.91068554281E+01 -0.35110436048E+01  0.10598574791E+02  0.51100000000E-03 0. -1.
         11    1    3    3    0    0 -0.41312884622E+01 -0.91068554281E+01 -0.36471688677E+01  0.10644444615E+02  0.51100000000E-03 0.  1.
<mgrwt>
<rscale>  0 0.20000647E+02</rscale>
<asrwt>0</asrwt>
<pdfrwt beam="2">  1        1 0.21847101E-02 0.20000647E+02</pdfrwt>
<pdfrwt beam="1">  1       -1 0.10834467E-02 0.20000647E+02</pdfrwt>
<totfact> 0.39157451E+06</totfact>
</mgrwt>
</event>
<event>
 5    1  0.9583198E-007  0.2000183E+02  0.7818608E-02  0.1745292E+00
          1   -1    0    0  501    0  0.00000000000E+00  0.00000000000E+00  0.15155597941E+01  0.15155669891E+01  0.46700000000E-02 0.  1.
         -1   -1    0    0    0  501 -0.00000000000E+00 -0.00000000000E+00 -0.65994103322E+02  0.65994103488E+02  0.46700000000E-02 0. -1.
       1023    2    1    2    0    0  0.00000000000E+00  0.00000000000E+00 -0.64478543528E+02  0.67509670477E+02  0.20001825725E+02 0.  0.
        -11    1    3    3    0    0  0.26983485162E+00  0.99969219357E+01 -0.32521634771E+02  0.34024520386E+02  0.51100000000E-03 0.  1.
         11    1    3    3    0    0 -0.26983485162E+00 -0.99969219357E+01 -0.31956908757E+02  0.33485150091E+02  0.51100000000E-03 0. -1.
<mgrwt>
<rscale>  0 0.20001826E+02</rscale>
<asrwt>0</asrwt>
<pdfrwt beam="1">  1        1 0.23316366E-03 0.20001826E+02</pdfrwt>
<pdfrwt beam="2">  1       -1 0.10152937E-01 0.20001826E+02</pdfrwt>
<totfact> 0.33846417E+06</totfact>
</mgrwt>
</event>
<event>
 5    1  0.9583198E-007  0.2000026E+02  0.7818608E-02  0.1745323E+00
         -1   -1    0    0    0  501 -0.00000000000E+00  0.00000000000E+00  0.10308792456E+02  0.10308793514E+02  0.46700000000E-02 0.  1.
          1   -1    0    0  501    0  0.00000000000E+00 -0.00000000000E+00 -0.97007091568E+01  0.97007102809E+01  0.46700000000E-02 0. -1.
       1023    2    1    2    0    0  0.00000000000E+00  0.00000000000E+00  0.60808329898E+00  0.20009503795E+02  0.20000261918E+02 0.  0.
        -11    1    3    3    0    0  0.91853995396E+01 -0.39536111993E+01  0.30047307609E+00  0.10004643449E+02  0.51100000000E-03 0. -1.
         11    1    3    3    0    0 -0.91853995396E+01  0.39536111993E+01  0.30761022289E+00  0.10004860345E+02  0.51100000000E-03 0.  1.
<mgrwt>
<rscale>  0 0.20000262E+02</rscale>
<asrwt>0</asrwt>
<pdfrwt beam="2">  1        1 0.14924170E-02 0.20000262E+02</pdfrwt>
<pdfrwt beam="1">  1       -1 0.15859682E-02 0.20000262E+02</pdfrwt>
<totfact> 0.38575606E+06</totfact>
</mgrwt>
</event>
<event>
 4    1  0.9583198E-007  0.2001421E+02  0.7818608E-02  0.1745046E+00
          1   -1    0    0  501    0  0.00000000000E+00  0.00000000000E+00  0.55157435423E+02  0.55157435621E+02  0.46700000000E-02 0.  1.
         -1   -1    0    0    0  501 -0.00000000000E+00 -0.00000000000E+00 -0.18155660857E+01  0.18155720918E+01  0.46700000000E-02 0. -1.
        -11    1    1    2    0    0 -0.95229101277E+01  0.30748626410E+01  0.26558933984E+02  0.28381641464E+02  0.51100000000E-03 0. -1.
         11    1    1    2    0    0  0.95229101277E+01 -0.30748626410E+01  0.26782935353E+02  0.28591366248E+02  0.51100000000E-03 0.  1.
<mgrwt>
<rscale>  0 0.20014210E+02</rscale>
<asrwt>0</asrwt>
<pdfrwt beam="1">  1        1 0.84857585E-02 0.20014210E+02</pdfrwt>
<pdfrwt beam="2">  1       -1 0.27931838E-03 0.20014210E+02</pdfrwt>
<totfact> 0.41946930E+06</totfact>
</mgrwt>
</event>
<event>
 5    1  0.9583198E-007  0.2000018E+02  0.7818608E-02  0.1745324E+00
         -1   -1    0    0    0  501 -0.00000000000E+00  0.00000000000E+00  0.12262947823E+02  0.12262948713E+02  0.46700000000E-02 0.  1.
          1   -1    0    0  501    0  0.00000000000E+00 -0.00000000000E+00 -0.81547922217E+01  0.81547935589E+01  0.46700000000E-02 0. -1.
       1023    2    1    2    0    0  0.00000000000E+00  0.00000000000E+00  0.41081556017E+01  0.20417742271E+02  0.20000181425E+02 0.  0.
        -11    1    3    3    0    0  0.23113145811E+01 -0.97292685699E+01  0.20859055439E+01  0.10215275043E+02  0.51100000000E-03 0. -1.
         11    1    3    3    0    0 -0.23113145811E+01  0.97292685699E+01  0.20222500578E+01  0.10202467229E+02  0.51100000000E-03 0.  1.
<mgrwt>
<rscale>  0 0.20000181E+02</rscale>
<asrwt>0</asrwt>
<pdfrwt beam="2">  1        1 0.12545836E-02 0.20000181E+02</pdfrwt>
<pdfrwt beam="1">  1       -1 0.18866075E-02 0.20000181E+02</pdfrwt>
<totfact> 0.38299824E+06</totfact>
</mgrwt>
</event>
<event>
 5    1  0.9984439E-007  0.2000072E+02  0.7818608E-02  0.1745314E+00
          1   -1    0    0  501    0  0.00000000000E+00  0.00000000000E+00  0.79432887893E+02  0.79432888030E+02  0.46700000000E-02 0. -1.
         -1   -1    0    0    0  501 -0.00000000000E+00 -0.00000000000E+00 -0.12590110250E+01  0.12590196861E+01  0.46700000000E-02 0.  1.
       1023    2    1    2    0    0  0.00000000000E+00  0.00000000000E+00  0.78173876868E+02  0.80691907716E+02  0.20000723645E+02 0.  0.
        -11    1    3    3    0    0 -0.59014594393E+01 -0.80731975674E+01  0.39325409711E+02  0.40576983521E+02  0.51100000000E-03 0.  1.
         11    1    3    3    0    0  0.59014594393E+01  0.80731975674E+01  0.38848467156E+02  0.40114924194E+02  0.51100000000E-03 0. -1.
<mgrwt>
<rscale>  0 0.20000724E+02</rscale>
<asrwt>0</asrwt>
<pdfrwt beam="1">  1        1 0.12220449E-01 0.20000724E+02</pdfrwt>
<pdfrwt beam="2">  1       -1 0.19369461E-03 0.20000724E+02</pdfrwt>
<totfact> 0.43326651E+06</totfact>
</mgrwt>
</event>
<event>
 5    1  0.9583198E-007  0.2000174E+02  0.7818608E-02  0.1745293E+00
         -1   -1    0    0    0  501 -0.00000000000E+00  0.00000000000E+00  0.26503456880E+02  0.26503457292E+02  0.46700000000E-02 0.  1.
          1   -1    0    0  501    0  0.00000000000E+00 -0.00000000000E+00 -0.37737489001E+01  0.37737517897E+01  0.46700000000E-02 0. -1.
       1023    2    1    2    0    0  0.00000000000E+00  0.00000000000E+00  0.22729707980E+02  0.30277209082E+02  0.20001744046E+02 0.  0.
        -11    1    3    3    0    0 -0.44544277457E+01  0.89536587639E+01  0.11233681217E+02  0.15040130509E+02  0.51100000000E-03 0. -1.
         11    1    3    3    0    0  0.44544277457E+01 -0.89536587639E+01  0.11496026764E+02  0.15237078572E+02  0.51100000000E-03 0.  1.
<mgrwt>
<rscale>  0 0.20001744E+02</rscale>
<asrwt>0</asrwt>
<pdfrwt beam="2">  1        1 0.58057702E-03 0.20001744E+02</pdfrwt>
<pdfrwt beam="1">  1       -1 0.40774551E-02 0.20001744E+02</pdfrwt>
<totfact> 0.36788276E+06</totfact>
</mgrwt>
</event>
<event>
 5    1  0.9583198E-007  0.2001037E+02  0.7818608E-02  0.1745122E+00
         -1   -1    0    0    0  501 -0.00000000000E+00  0.00000000000E+00  0.31803294868E+01  0.31803329155E+01  0.46700000000E-02 0.  1.
          1   -1    0    0  501    0  0.00000000000E+00 -0.00000000000E+00 -0.31475873428E+02  0.31475873774E+02  0.46700000000E-02 0. -1.
       1023    2    1    2    0    0  0.00000000000E+00  0.00000000000E+00 -0.28295543941E+02  0.34656206690E+02  0.20010368692E+02 0.  0.
        -11    1    3    3    0    0 -0.67984548404E+01  0.73355337752E+01 -0.13674514244E+02  0.16941705465E+02  0.51100000000E-03 0.  1.
         11    1    3    3    0    0  0.67984548404E+01 -0.73355337752E+01 -0.14621029697E+02  0.17714501225E+02  0.51100000000E-03 0. -1.
<mgrwt>
<rscale>  0 0.20010369E+02</rscale>
<asrwt>0</asrwt>
<pdfrwt beam="2">  1        1 0.48424422E-02 0.20010369E+02</pdfrwt>
<pdfrwt beam="1">  1       -1 0.48928177E-03 0.20010369E+02</pdfrwt>
<totfact> 0.40510506E+06</totfact>
</mgrwt>
</event>
<event>
 5    1  0.9757854E-007  0.2000089E+02  0.7818608E-02  0.1745310E+00
          1   -1    0    0  501    0  0.00000000000E+00  0.00000000000E+00  0.29469235066E+02  0.29469235436E+02  0.46700000000E-02 0. -1.
         -1   -1    0    0    0  501 -0.00000000000E+00 -0.00000000000E+00 -0.33936682491E+01  0.33936714623E+01  0.46700000000E-02 0.  1.
       1023    2    1    2    0    0  0.00000000000E+00  0.00000000000E+00  0.26075566817E+02  0.32862906898E+02  0.20000886605E+02 0.  0.
        -11    1    3    3    0    0 -0.40324946530E+01 -0.91512643116E+01  0.12960465427E+02  0.16370104336E+02  0.51100000000E-03 0. -1.
         11    1    3    3    0    0  0.40324946530E+01  0.91512643116E+01  0.13115101390E+02  0.16492802562E+02  0.51100000000E-03 0.  1.
<mgrwt>
<rscale>  0 0.20000887E+02</rscale>
<asrwt>0</asrwt>
<pdfrwt beam="1">  1        1 0.45337285E-02 0.20000887E+02</pdfrwt>
<pdfrwt beam="2">  1       -1 0.52210311E-03 0.20000887E+02</pdfrwt>
<totfact> 0.40416002E+06</totfact>
</mgrwt>
</event>
<event>
 5    1  0.9583198E-007  0.2000337E+02  0.7818608E-02  0.1745261E+00
          1   -1    0    0  501    0  0.00000000000E+00  0.00000000000E+00  0.31976937176E+01  0.31976971277E+01  0.46700000000E-02 0.  1.
         -1   -1    0    0    0  501 -0.00000000000E+00 -0.00000000000E+00 -0.31283058747E+02  0.31283059096E+02  0.46700000000E-02 0. -1.
       1023    2    1    2    0    0  0.00000000000E+00  0.00000000000E+00 -0.28085365030E+02  0.34480756223E+02  0.20003370239E+02 0.  0.
        -11    1    3    3    0    0 -0.94194785099E+01  0.33593268129E+01 -0.14298662939E+02  0.17448880025E+02  0.51100000000E-03 0. -1.
         11    1    3    3    0    0  0.94194785099E+01 -0.33593268129E+01 -0.13786702091E+02  0.17031876198E+02  0.51100000000E-03 0.  1.
<mgrwt>
<rscale>  0 0.20003370E+02</rscale>
<asrwt>0</asrwt>
<pdfrwt beam="1">  1        1 0.49195319E-03 0.20003370E+02</pdfrwt>
<pdfrwt beam="2">  1       -1 0.48127783E-02 0.20003370E+02</pdfrwt>
<totfact> 0.36363153E+06</totfact>
</mgrwt>
</event>
<event>
 5    1  0.9583198E-007  0.2000089E+02  0.7818608E-02  0.1745310E+00
          1   -1    0    0  501    0  0.00000000000E+00  0.00000000000E+00  0.42016154226E+01  0.42016180179E+01  0.46700000000E-02 0. -1.
         -1   -1    0    0    0  501 -0.00000000000E+00 -0.00000000000E+00 -0.23802467784E+02  0.23802468242E+02  0.46700000000E-02 0.  1.
       1023    2    1    2    0    0  0.00000000000E+00  0.00000000000E+00 -0.19600852361E+02  0.28004086260E+02  0.20000885829E+02 0.  0.
        -11    1    3    3    0    0  0.39912656700E+00  0.99924733772E+01 -0.97925035719E+01  0.13996497872E+02  0.51100000000E-03 0.  1.
         11    1    3    3    0    0 -0.39912656700E+00 -0.99924733772E+01 -0.98083487891E+01  0.14007588388E+02  0.51100000000E-03 0. -1.
<mgrwt>
<rscale>  0 0.20000886E+02</rscale>
<asrwt>0</asrwt>
<pdfrwt beam="1">  1        1 0.64640262E-03 0.20000886E+02</pdfrwt>
<pdfrwt beam="2">  1       -1 0.36619183E-02 0.20000886E+02</pdfrwt>
<totfact> 0.37041036E+06</totfact>
</mgrwt>
</event>
<event>
 5    1  0.9583198E-007  0.2000477E+02  0.7818608E-02  0.1745233E+00
         -1   -1    0    0    0  501 -0.00000000000E+00  0.00000000000E+00  0.11284300232E+03  0.11284300241E+03  0.46700000000E-02 0.  1.
          1   -1    0    0  501    0  0.00000000000E+00 -0.00000000000E+00 -0.88660312846E+00  0.88661542750E+00  0.46700000000E-02 0. -1.
       1023    2    1    2    0    0  0.00000000000E+00  0.00000000000E+00  0.11195639919E+03  0.11372961784E+03  0.20004765808E+02 0.  0.
        -11    1    3    3    0    0  0.34676391553E+01  0.93810123784E+01  0.56777135624E+02  0.57651288316E+02  0.51100000000E-03 0. -1.
         11    1    3    3    0    0 -0.34676391553E+01 -0.93810123784E+01  0.55179263564E+02  0.56078329525E+02  0.51100000000E-03 0.  1.
<mgrwt>
<rscale>  0 0.20004766E+02</rscale>
<asrwt>0</asrwt>
<pdfrwt beam="2">  1        1 0.13640141E-03 0.20004766E+02</pdfrwt>
<pdfrwt beam="1">  1       -1 0.17360466E-01 0.20004766E+02</pdfrwt>
<totfact> 0.31179712E+06</totfact>
</mgrwt>
</event>
<event>
 5    1  0.1010588E-006  0.2000074E+02  0.7818608E-02  0.1745313E+00
          1   -1    0    0  501    0  0.00000000000E+00  0.00000000000E+00  0.73331342284E+02  0.73331342433E+02  0.46700000000E-02 0. -1.
         -1   -1    0    0    0  501 -0.00000000000E+00 -0.00000000000E+00 -0.13637702610E+01  0.13637782568E+01  0.46700000000E-02 0.  1.
       1023    2    1    2    0    0  0.00000000000E+00  0.00000000000E+00  0.71967572023E+02  0.74695120690E+02  0.20000740785E+02 0.  0.
        -11    1    3    3    0    0  0.65627005642E+01  0.75457031576E+01  0.36084889050E+02  0.37444971530E+02  0.51100000000E-03 0.  1.
         11    1    3    3    0    0 -0.65627005642E+01 -0.75457031576E+01  0.35882682973E+02  0.37250149160E+02  0.51100000000E-03 0. -1.
<mgrwt>
<rscale>  0 0.20000741E+02</rscale>
<asrwt>0</asrwt>
<pdfrwt beam="1">  1        1 0.11281750E-01 0.20000741E+02</pdfrwt>
<pdfrwt beam="2">  1       -1 0.20981135E-03 0.20000741E+02</pdfrwt>
<totfact> 0.43007666E+06</totfact>
</mgrwt>
</event>
<event>
 4    1  0.9708314E-007  0.2053086E+02  0.7818608E-02  0.1734973E+00
         -1   -1    0    0    0  501 -0.00000000000E+00  0.00000000000E+00  0.12933661598E+02  0.12933662441E+02  0.46700000000E-02 0. -1.
          1   -1    0    0  501    0  0.00000000000E+00 -0.00000000000E+00 -0.81476527757E+01  0.81476541141E+01  0.46700000000E-02 0.  1.
        -11    1    1    2    0    0 -0.84691782876E+01  0.56983802621E+01  0.12773710679E+01  0.10287380404E+02  0.51100000000E-03 0. -1.
         11    1    1    2    0    0  0.84691782876E+01 -0.56983802621E+01  0.35086377546E+01  0.10793936151E+02  0.51100000000E-03 0.  1.
<mgrwt>
<rscale>  0 0.20530855E+02</rscale>
<asrwt>0</asrwt>
<pdfrwt beam="2">  1        1 0.12534852E-02 0.20530855E+02</pdfrwt>
<pdfrwt beam="1">  1       -1 0.19897943E-02 0.20530855E+02</pdfrwt>
<totfact> 0.36074915E+06</totfact>
</mgrwt>
</event>
<event>
 5    1  0.9583198E-007  0.2000018E+02  0.7818608E-02  0.1745325E+00
          1   -1    0    0  501    0  0.00000000000E+00  0.00000000000E+00  0.16108924205E+02  0.16108924882E+02  0.46700000000E-02 0.  1.
         -1   -1    0    0    0  501 -0.00000000000E+00 -0.00000000000E+00 -0.62078461704E+01  0.62078479269E+01  0.46700000000E-02 0. -1.
       1023    2    1    2    0    0  0.00000000000E+00  0.00000000000E+00  0.99010780342E+01  0.22316772808E+02  0.20000175058E+02 0.  0.
        -11    1    3    3    0    0 -0.97921289893E+01 -0.20287822666E+01  0.49487068949E+01  0.11157573563E+02  0.51100000000E-03 0.  1.
         11    1    3    3    0    0  0.97921289893E+01  0.20287822666E+01  0.49523711393E+01  0.11159199245E+02  0.51100000000E-03 0. -1.
<mgrwt>
<rscale>  0 0.20000175E+02</rscale>
<asrwt>0</asrwt>
<pdfrwt beam="1">  1        1 0.24782962E-02 0.20000175E+02</pdfrwt>
<pdfrwt beam="2">  1       -1 0.95505344E-03 0.20000175E+02</pdfrwt>
<totfact> 0.39354979E+06</totfact>
</mgrwt>
</event>
<event>
 5    1  0.9583198E-007  0.2000042E+02  0.7818608E-02  0.1745320E+00
         -1   -1    0    0    0  501 -0.00000000000E+00  0.00000000000E+00  0.25993769285E+02  0.25993769705E+02  0.46700000000E-02 0. -1.
          1   -1    0    0  501    0  0.00000000000E+00 -0.00000000000E+00 -0.38472368838E+01  0.38472397181E+01  0.46700000000E-02 0.  1.
       1023    2    1    2    0    0  0.00000000000E+00  0.00000000000E+00  0.22146532401E+02  0.29841009423E+02  0.20000423645E+02 0.  0.
        -11    1    3    3    0    0  0.12492385017E+01 -0.99216870969E+01  0.11164810356E+02  0.14988444290E+02  0.51100000000E-03 0. -1.
         11    1    3    3    0    0 -0.12492385017E+01  0.99216870969E+01  0.10981722045E+02  0.14852565133E+02  0.51100000000E-03 0.  1.
<mgrwt>
<rscale>  0 0.20000424E+02</rscale>
<asrwt>0</asrwt>
<pdfrwt beam="2">  1        1 0.59188286E-03 0.20000424E+02</pdfrwt>
<pdfrwt beam="1">  1       -1 0.39990416E-02 0.20000424E+02</pdfrwt>
<totfact> 0.36839849E+06</totfact>
</mgrwt>
</event>
<event>
 5    1  0.9583198E-007  0.2000031E+02  0.7818608E-02  0.1745322E+00
         -1   -1    0    0    0  501 -0.00000000000E+00  0.00000000000E+00  0.27998392275E+01  0.27998431221E+01  0.46700000000E-02 0.  1.
          1   -1    0    0  501    0  0.00000000000E+00 -0.00000000000E+00 -0.35717423518E+02  0.35717423823E+02  0.46700000000E-02 0. -1.
       1023    2    1    2    0    0  0.00000000000E+00  0.00000000000E+00 -0.32917584290E+02  0.38517266945E+02  0.20000312433E+02 0.  0.
        -11    1    3    3    0    0  0.96476768645E+01  0.26312863695E+01 -0.16377375746E+02  0.19189053479E+02  0.51100000000E-03 0.  1.
         11    1    3    3    0    0 -0.96476768645E+01 -0.26312863695E+01 -0.16540208544E+02  0.19328213466E+02  0.51100000000E-03 0. -1.
<mgrwt>
<rscale>  0 0.20000312E+02</rscale>
<asrwt>0</asrwt>
<pdfrwt beam="2">  1        1 0.54949882E-02 0.20000312E+02</pdfrwt>
<pdfrwt beam="1">  1       -1 0.43074485E-03 0.20000312E+02</pdfrwt>
<totfact> 0.40836539E+06</totfact>
</mgrwt>
</event>
<event>
 4    1  0.9583198E-007  0.2001265E+02  0.7818608E-02  0.1745077E+00
          1   -1    0    0  501    0  0.00000000000E+00  0.00000000000E+00  0.10661599242E+03  0.10661599253E+03  0.46700000000E-02 0. -1.
         -1   -1    0    0    0  501 -0.00000000000E+00 -0.00000000000E+00 -0.93912614583E+00  0.93913775703E+00  0.46700000000E-02 0.  1.
        -11    1    1    2    0    0 -0.37703138030E+01 -0.92620494754E+01  0.54743634124E+02  0.55649495092E+02  0.51100000000E-03 0. -1.
         11    1    1    2    0    0  0.37703138030E+01  0.92620494754E+01  0.50933232155E+02  0.51905635191E+02  0.51100000000E-03 0.  1.
<mgrwt>
<rscale>  0 0.20012646E+02</rscale>
<asrwt>0</asrwt>
<pdfrwt beam="1">  1        1 0.16402461E-01 0.20012646E+02</pdfrwt>
<pdfrwt beam="2">  1       -1 0.14448185E-03 0.20012646E+02</pdfrwt>
<totfact> 0.44615773E+06</totfact>
</mgrwt>
</event>
<event>
 5    1  0.9583198E-007  0.2000243E+02  0.7818608E-02  0.1745280E+00
          1   -1    0    0  501    0  0.00000000000E+00  0.00000000000E+00  0.95527747776E+00  0.95528889265E+00  0.46700000000E-02 0.  1.
         -1   -1    0    0    0  501 -0.00000000000E+00 -0.00000000000E+00 -0.10470643667E+03  0.10470643678E+03  0.46700000000E-02 0. -1.
       1023    2    1    2    0    0  0.00000000000E+00  0.00000000000E+00 -0.10375115920E+03  0.10566172567E+03  0.20002430781E+02 0.  0.
        -11    1    3    3    0    0 -0.95611583553E+01  0.29304064488E+01 -0.52646128352E+02  0.53587478591E+02  0.51100000000E-03 0.  1.
         11    1    3    3    0    0  0.95611583553E+01 -0.29304064488E+01 -0.51105030843E+02  0.52074247079E+02  0.51100000000E-03 0. -1.
<mgrwt>
<rscale>  0 0.20002431E+02</rscale>
<asrwt>0</asrwt>
<pdfrwt beam="1">  1        1 0.14696673E-03 0.20002431E+02</pdfrwt>
<pdfrwt beam="2">  1       -1 0.16108674E-01 0.20002431E+02</pdfrwt>
<totfact> 0.31609131E+06</totfact>
</mgrwt>
</event>
<event>
 4    1  0.9583198E-007  0.2001304E+02  0.7818608E-02  0.1745069E+00
         -1   -1    0    0    0  501 -0.00000000000E+00  0.00000000000E+00  0.12488735711E+01  0.12488823025E+01  0.46700000000E-02 0.  1.
          1   -1    0    0  501    0  0.00000000000E+00 -0.00000000000E+00 -0.80176313376E+02  0.80176313512E+02  0.46700000000E-02 0. -1.
        -11    1    1    2    0    0 -0.49589621928E+01 -0.86891479116E+01 -0.38672251945E+02  0.39945408600E+02  0.51100000000E-03 0. -1.
         11    1    1    2    0    0  0.49589621928E+01  0.86891479116E+01 -0.40255187860E+02  0.41479787214E+02  0.51100000000E-03 0.  1.
<mgrwt>
<rscale>  0 0.20013040E+02</rscale>
<asrwt>0</asrwt>
<pdfrwt beam="2">  1        1 0.12334814E-01 0.20013040E+02</pdfrwt>
<pdfrwt beam="1">  1       -1 0.19213514E-03 0.20013040E+02</pdfrwt>
<totfact> 0.43306044E+06</totfact>
</mgrwt>
</event>
<event>
 5    1  0.9583198E-007  0.2000444E+02  0.7818608E-02  0.1745240E+00
         -1   -1    0    0    0  501 -0.00000000000E+00  0.00000000000E+00  0.12252008929E+02  0.12252009819E+02  0.46700000000E-02 0. -1.
          1   -1    0    0  501    0  0.00000000000E+00 -0.00000000000E+00 -0.81655490137E+01  0.81655503491E+01  0.46700000000E-02 0.  1.
       1023    2    1    2    0    0  0.00000000000E+00  0.00000000000E+00  0.40864599149E+01  0.20417560168E+02  0.20004439721E+02 0.  0.
        -11    1    3    3    0    0  0.91981063509E+01 -0.39275327609E+01  0.19236443995E+01  0.10184845707E+02  0.51100000000E-03 0. -1.
         11    1    3    3    0    0 -0.91981063509E+01  0.39275327609E+01  0.21628155154E+01  0.10232714461E+02  0.51100000000E-03 0.  1.
<mgrwt>
<rscale>  0 0.20004440E+02</rscale>
<asrwt>0</asrwt>
<pdfrwt beam="2">  1        1 0.12562385E-02 0.20004440E+02</pdfrwt>
<pdfrwt beam="1">  1       -1 0.18849246E-02 0.20004440E+02</pdfrwt>
<totfact> 0.38283423E+06</totfact>
</mgrwt>
</event>
<event>
 5    1  0.9583198E-007  0.2000037E+02  0.7818608E-02  0.1745321E+00
         -1   -1    0    0    0  501 -0.00000000000E+00  0.00000000000E+00  0.13623187197E+02  0.13623187997E+02  0.46700000000E-02 0. -1.
          1   -1    0    0  501    0  0.00000000000E+00 -0.00000000000E+00 -0.73406993792E+01  0.73407008647E+01  0.46700000000E-02 0.  1.
       1023    2    1    2    0    0  0.00000000000E+00  0.00000000000E+00  0.62824878175E+01  0.20963888862E+02  0.20000374572E+02 0.  0.
        -11    1    3    3    0    0  0.92815998763E+01  0.37220619451E+01  0.30955056455E+01  0.10468237524E+02  0.51100000000E-03 0. -1.
         11    1    3    3    0    0 -0.92815998763E+01 -0.37220619451E+01  0.31869821720E+01  0.10495651338E+02  0.51100000000E-03 0.  1.
<mgrwt>
<rscale>  0 0.20000375E+02</rscale>
<asrwt>0</asrwt>
<pdfrwt beam="2">  1        1 0.11293385E-02 0.20000375E+02</pdfrwt>
<pdfrwt beam="1">  1       -1 0.20958751E-02 0.20000375E+02</pdfrwt>
<totfact> 0.38124426E+06</totfact>
</mgrwt>
</event>
<event>
 5    1  0.9583198E-007  0.2000037E+02  0.7818608E-02  0.1745321E+00
          1   -1    0    0  501    0  0.00000000000E+00  0.00000000000E+00  0.66164682603E+01  0.66164699084E+01  0.46700000000E-02 0. -1.
         -1   -1    0    0    0  501 -0.00000000000E+00 -0.00000000000E+00 -0.15114358508E+02  0.15114359229E+02  0.46700000000E-02 0.  1.
       1023    2    1    2    0    0  0.00000000000E+00  0.00000000000E+00 -0.84978902472E+01  0.21730829137E+02  0.20000369905E+02 0.  0.
        -11    1    3    3    0    0  0.76416726653E+01 -0.64503911977E+01 -0.42831506556E+01  0.10878790720E+02  0.51100000000E-03 0. -1.
         11    1    3    3    0    0 -0.76416726653E+01  0.64503911977E+01 -0.42147395916E+01  0.10852038417E+02  0.51100000000E-03 0.  1.
<mgrwt>
<rscale>  0 0.20000370E+02</rscale>
<asrwt>0</asrwt>
<pdfrwt beam="1">  1        1 0.10179184E-02 0.20000370E+02</pdfrwt>
<pdfrwt beam="2">  1       -1 0.23252861E-02 0.20000370E+02</pdfrwt>
<totfact> 0.37944923E+06</totfact>
</mgrwt>
</event>
<event>
 5    1  0.9583198E-007  0.2000042E+02  0.7818608E-02  0.1745320E+00
          1   -1    0    0  501    0  0.00000000000E+00  0.00000000000E+00  0.11774048055E+02  0.11774048982E+02  0.46700000000E-02 0.  1.
         -1   -1    0    0    0  501 -0.00000000000E+00 -0.00000000000E+00 -0.84936119938E+01  0.84936132776E+01  0.46700000000E-02 0. -1.
       1023    2    1    2    0    0  0.00000000000E+00  0.00000000000E+00  0.32804360616E+01  0.20267662259E+02  0.20000421813E+02 0.  0.
        -11    1    3    3    0    0  0.10000055276E+02 -0.54829736918E-01  0.16506554659E+01  0.10135520488E+02  0.51100000000E-03 0.  1.
         11    1    3    3    0    0 -0.10000055276E+02  0.54829736918E-01  0.16297805957E+01  0.10132141772E+02  0.51100000000E-03 0. -1.
<mgrwt>
<rscale>  0 0.20000422E+02</rscale>
<asrwt>0</asrwt>
<pdfrwt beam="1">  1        1 0.18113922E-02 0.20000422E+02</pdfrwt>
<pdfrwt beam="2">  1       -1 0.13067097E-02 0.20000422E+02</pdfrwt>
<totfact> 0.38872637E+06</totfact>
</mgrwt>
</event>
<event>
 5    1  0.9583198E-007  0.2000132E+02  0.7818608E-02  0.1745302E+00
         -1   -1    0    0    0  501 -0.00000000000E+00  0.00000000000E+00  0.86752335977E+00  0.86753592931E+00  0.46700000000E-02 0.  1.
          1   -1    0    0  501    0  0.00000000000E+00 -0.00000000000E+00 -0.11528505634E+03  0.11528505643E+03  0.46700000000E-02 0. -1.
       1023    2    1    2    0    0  0.00000000000E+00  0.00000000000E+00 -0.11441753298E+03  0.11615259236E+03  0.20001321446E+02 0.  0.
        -11    1    3    3    0    0  0.96746264281E+01  0.25318385419E+01 -0.56814399018E+02  0.57687819676E+02  0.51100000000E-03 0. -1.
         11    1    3    3    0    0 -0.96746264281E+01 -0.25318385419E+01 -0.57603133962E+02  0.58464772688E+02  0.51100000000E-03 0.  1.
<mgrwt>
<rscale>  0 0.20001321E+02</rscale>
<asrwt>0</asrwt>
<pdfrwt beam="2">  1        1 0.17736151E-01 0.20001321E+02</pdfrwt>
<pdfrwt beam="1">  1       -1 0.13346620E-03 0.20001321E+02</pdfrwt>
<totfact> 0.45077248E+06</totfact>
</mgrwt>
</event>
<event>
 5    1  0.9909936E-007  0.2000097E+02  0.7818608E-02  0.1745309E+00
         -1   -1    0    0    0  501 -0.00000000000E+00  0.00000000000E+00  0.67791054056E+01  0.67791070142E+01  0.46700000000E-02 0. -1.
          1   -1    0    0  501    0  0.00000000000E+00 -0.00000000000E+00 -0.14752640514E+02  0.14752641253E+02  0.46700000000E-02 0.  1.
       1023    2    1    2    0    0  0.00000000000E+00  0.00000000000E+00 -0.79735351086E+01  0.21531748268E+02  0.20000973010E+02 0.  0.
        -11    1    3    3    0    0 -0.27104266964E+01 -0.96261762823E+01 -0.39793575792E+01  0.10763130107E+02  0.51100000000E-03 0. -1.
         11    1    3    3    0    0  0.27104266964E+01  0.96261762823E+01 -0.39941775294E+01  0.10768618161E+02  0.51100000000E-03 0.  1.
<mgrwt>
<rscale>  0 0.20000973E+02</rscale>
<asrwt>0</asrwt>
<pdfrwt beam="2">  1        1 0.22696372E-02 0.20000973E+02</pdfrwt>
<pdfrwt beam="1">  1       -1 0.10429395E-02 0.20000973E+02</pdfrwt>
<totfact> 0.39214672E+06</totfact>
</mgrwt>
</event>
<event>
 5    1  0.9583198E-007  0.2001224E+02  0.7818608E-02  0.1745085E+00
         -1   -1    0    0    0  501 -0.00000000000E+00  0.00000000000E+00  0.12555817631E+02  0.12555818500E+02  0.46700000000E-02 0. -1.
          1   -1    0    0  501    0  0.00000000000E+00 -0.00000000000E+00 -0.79741817267E+01  0.79741830942E+01  0.46700000000E-02 0.  1.
       1023    2    1    2    0    0  0.00000000000E+00  0.00000000000E+00  0.45816359045E+01  0.20530001594E+02  0.20012235704E+02 0.  0.
        -11    1    3    3    0    0  0.59705875096E+01 -0.80237258515E+01  0.26058501082E+01  0.10335305840E+02  0.51100000000E-03 0. -1.
         11    1    3    3    0    0 -0.59705875096E+01  0.80237258515E+01  0.19757857963E+01  0.10194695754E+02  0.51100000000E-03 0.  1.
<mgrwt>
<rscale>  0 0.20012236E+02</rscale>
<asrwt>0</asrwt>
<pdfrwt beam="2">  1        1 0.12267974E-02 0.20012236E+02</pdfrwt>
<pdfrwt beam="1">  1       -1 0.19316644E-02 0.20012236E+02</pdfrwt>
<totfact> 0.38210753E+06</totfact>
</mgrwt>
</event>
<event>
 5    1  0.9583198E-007  0.2000009E+02  0.7818608E-02  0.1745326E+00
          1   -1    0    0  501    0  0.00000000000E+00  0.00000000000E+00  0.16555420172E+02  0.16555420830E+02  0.46700000000E-02 0.  1.
         -1   -1    0    0    0  501 -0.00000000000E+00 -0.00000000000E+00 -0.60403691186E+01  0.60403709239E+01  0.46700000000E-02 0. -1.
       1023    2    1    2    0    0  0.00000000000E+00  0.00000000000E+00  0.10515051053E+02  0.22595791754E+02  0.20000087659E+02 0.  0.
        -11    1    3    3    0    0 -0.35459226580E+01  0.93502255324E+01  0.52300523925E+01  0.11285111133E+02  0.51100000000E-03 0. -1.
         11    1    3    3    0    0  0.35459226580E+01 -0.93502255324E+01  0.52849986607E+01  0.11310680621E+02  0.51100000000E-03 0.  1.
<mgrwt>
<rscale>  0 0.20000088E+02</rscale>
<asrwt>0</asrwt>
<pdfrwt beam="1">  1        1 0.25469879E-02 0.20000088E+02</pdfrwt>
<pdfrwt beam="2">  1       -1 0.92928774E-03 0.20000088E+02</pdfrwt>
<totfact> 0.39398405E+06</totfact>
</mgrwt>
</event>
<event>
 5    1  0.9583198E-007  0.2000112E+02  0.7818608E-02  0.1745306E+00
         -1   -1    0    0    0  501 -0.00000000000E+00  0.00000000000E+00  0.33454846588E+02  0.33454846914E+02  0.46700000000E-02 0. -1.
          1   -1    0    0  501    0  0.00000000000E+00 -0.00000000000E+00 -0.29894352246E+01  0.29894388723E+01  0.46700000000E-02 0.  1.
       1023    2    1    2    0    0  0.00000000000E+00  0.00000000000E+00  0.30465411363E+02  0.36444285786E+02  0.20001116892E+02 0.  0.
        -11    1    3    3    0    0 -0.94990403374E+01 -0.31270713780E+01  0.15285081104E+02  0.18265925855E+02  0.51100000000E-03 0.  1.
         11    1    3    3    0    0  0.94990403374E+01  0.31270713780E+01  0.15180330260E+02  0.18178359931E+02  0.51100000000E-03 0. -1.
<mgrwt>
<rscale>  0 0.20001117E+02</rscale>
<asrwt>0</asrwt>
<pdfrwt beam="2">  1        1 0.45991340E-03 0.20001117E+02</pdfrwt>
<pdfrwt beam="1">  1       -1 0.51468999E-02 0.20001117E+02</pdfrwt>
<totfact> 0.36190061E+06</totfact>
</mgrwt>
</event>
<event>
 5    1  0.9583198E-007  0.2000035E+02  0.7818608E-02  0.1745321E+00
          1   -1    0    0  501    0  0.00000000000E+00  0.00000000000E+00  0.18314066161E+01  0.18314125703E+01  0.46700000000E-02 0. -1.
         -1   -1    0    0    0  501 -0.00000000000E+00 -0.00000000000E+00 -0.54604628626E+02  0.54604628826E+02  0.46700000000E-02 0.  1.
       1023    2    1    2    0    0  0.00000000000E+00  0.00000000000E+00 -0.52773222010E+02  0.56436041396E+02  0.20000345176E+02 0.  0.
        -11    1    3    3    0    0  0.87640286523E+01 -0.48160682687E+01 -0.26463357422E+02  0.28289786109E+02  0.51100000000E-03 0. -1.
         11    1    3    3    0    0 -0.87640286523E+01  0.48160682687E+01 -0.26309864588E+02  0.28146255287E+02  0.51100000000E-03 0.  1.
<mgrwt>
<rscale>  0 0.20000345E+02</rscale>
<asrwt>0</asrwt>
<pdfrwt beam="1">  1        1 0.28175538E-03 0.20000345E+02</pdfrwt>
<pdfrwt beam="2">  1       -1 0.84007113E-02 0.20000345E+02</pdfrwt>
<totfact> 0.34606193E+06</totfact>
</mgrwt>
</event>
<event>
 5    1  0.9583198E-007  0.2000080E+02  0.7818608E-02  0.1745312E+00
          1   -1    0    0  501    0  0.00000000000E+00  0.00000000000E+00  0.15985322624E+01  0.15985390839E+01  0.46700000000E-02 0. -1.
         -1   -1    0    0    0  501 -0.00000000000E+00 -0.00000000000E+00 -0.62562255700E+02  0.62562255874E+02  0.46700000000E-02 0.  1.
       1023    2    1    2    0    0  0.00000000000E+00  0.00000000000E+00 -0.60963723437E+02  0.64160794958E+02  0.20000800841E+02 0.  0.
        -11    1    3    3    0    0  0.49214842022E+01 -0.87051173855E+01 -0.30196143914E+02  0.31808916721E+02  0.51100000000E-03 0.  1.
         11    1    3    3    0    0 -0.49214842022E+01  0.87051173855E+01 -0.30767579523E+02  0.32351878237E+02  0.51100000000E-03 0. -1.
<mgrwt>
<rscale>  0 0.20000801E+02</rscale>
<asrwt>0</asrwt>
<pdfrwt beam="1">  1        1 0.24592863E-03 0.20000801E+02</pdfrwt>
<pdfrwt beam="2">  1       -1 0.96249610E-02 0.20000801E+02</pdfrwt>
<totfact> 0.34071678E+06</totfact>
</mgrwt>
</event>
<event>
 5    1  0.9583198E-007  0.2000053E+02  0.7818608E-02  0.1745318E+00
          1   -1    0    0  501    0  0.00000000000E+00  0.00000000000E+00  0.27812182283E+02  0.27812182676E+02  0.46700000000E-02 0. -1.
         -1   -1    0    0    0  501 -0.00000000000E+00 -0.00000000000E+00 -0.35957348833E+01  0.35957379159E+01  0.46700000000E-02 0.  1.
       1023    2    1    2    0    0  0.00000000000E+00  0.00000000000E+00  0.24216447400E+02  0.31407920591E+02  0.20000528773E+02 0.  0.
        -11    1    3    3    0    0  0.52681682475E+01 -0.85000994593E+01  0.12108511000E+02  0.15704181812E+02  0.51100000000E-03 0. -1.
         11    1    3    3    0    0 -0.52681682475E+01  0.85000994593E+01  0.12107936400E+02  0.15703738779E+02  0.51100000000E-03 0.  1.
<mgrwt>
<rscale>  0 0.20000529E+02</rscale>
<asrwt>0</asrwt>
<pdfrwt beam="1">  1        1 0.42787974E-02 0.20000529E+02</pdfrwt>
<pdfrwt beam="2">  1       -1 0.55319027E-03 0.20000529E+02</pdfrwt>
<totfact> 0.40301375E+06</totfact>
</mgrwt>
</event>
<event>
 4    1  0.9583198E-007  0.2001916E+02  0.7818608E-02  0.1744947E+00
          1   -1    0    0  501    0  0.00000000000E+00  0.00000000000E+00  0.19336190498E+02  0.19336191062E+02  0.46700000000E-02 0. -1.
         -1   -1    0    0    0  501 -0.00000000000E+00 -0.00000000000E+00 -0.51815615427E+01  0.51815636471E+01  0.46700000000E-02 0.  1.
        -11    1    1    2    0    0  0.18904634529E+01 -0.98266954698E+01  0.67929865392E+01  0.12094728699E+02  0.51100000000E-03 0.  1.
         11    1    1    2    0    0 -0.18904634529E+01  0.98266954698E+01  0.73616424163E+01  0.12423026010E+02  0.51100000000E-03 0. -1.
<mgrwt>
<rscale>  0 0.20019160E+02</rscale>
<asrwt>0</asrwt>
<pdfrwt beam="1">  1        1 0.29747987E-02 0.20019160E+02</pdfrwt>
<pdfrwt beam="2">  1       -1 0.79716352E-03 0.20019160E+02</pdfrwt>
<totfact> 0.39564581E+06</totfact>
</mgrwt>
</event>
<event>
 5    1  0.9583198E-007  0.2000297E+02  0.7818608E-02  0.1745269E+00
         -1   -1    0    0    0  501 -0.00000000000E+00  0.00000000000E+00  0.49710741133E+02  0.49710741353E+02  0.46700000000E-02 0.  1.
          1   -1    0    0  501    0  0.00000000000E+00 -0.00000000000E+00 -0.20122319846E+01  0.20122374037E+01  0.46700000000E-02 0. -1.
       1023    2    1    2    0    0  0.00000000000E+00  0.00000000000E+00  0.47698509149E+02  0.51722978756E+02  0.20002968690E+02 0.  0.
        -11    1    3    3    0    0  0.74353667036E+01 -0.66874566282E+01  0.23457661207E+02  0.25500365168E+02  0.51100000000E-03 0.  1.
         11    1    3    3    0    0 -0.74353667036E+01  0.66874566282E+01  0.24240847942E+02  0.26222613588E+02  0.51100000000E-03 0. -1.
<mgrwt>
<rscale>  0 0.20002969E+02</rscale>
<asrwt>0</asrwt>
<pdfrwt beam="2">  1        1 0.30957463E-03 0.20002969E+02</pdfrwt>
<pdfrwt beam="1">  1       -1 0.76478056E-02 0.20002969E+02</pdfrwt>
<totfact> 0.34938815E+06</totfact>
</mgrwt>
</event>
<event>
 5    1  0.9583198E-007  0.2000032E+02  0.7818608E-02  0.1745322E+00
          1   -1    0    0  501    0  0.00000000000E+00  0.00000000000E+00  0.20544273055E+02  0.20544273586E+02  0.46700000000E-02 0. -1.
         -1   -1    0    0    0  501 -0.00000000000E+00 -0.00000000000E+00 -0.48676916430E+01  0.48676938831E+01  0.46700000000E-02 0.  1.
       1023    2    1    2    0    0  0.00000000000E+00  0.00000000000E+00  0.15676581412E+02  0.25411967469E+02  0.20000322144E+02 0.  0.
        -11    1    3    3    0    0  0.66185557807E+01 -0.74965088836E+01  0.78164624993E+01  0.12692517966E+02  0.51100000000E-03 0.  1.
         11    1    3    3    0    0 -0.66185557807E+01  0.74965088836E+01  0.78601189129E+01  0.12719449503E+02  0.51100000000E-03 0. -1.
<mgrwt>
<rscale>  0 0.20000322E+02</rscale>
<asrwt>0</asrwt>
<pdfrwt beam="1">  1        1 0.31606576E-02 0.20000322E+02</pdfrwt>
<pdfrwt beam="2">  1       -1 0.74887585E-03 0.20000322E+02</pdfrwt>
<totfact> 0.39749731E+06</totfact>
</mgrwt>
</event>
<event>
 5    1  0.9583198E-007  0.2000022E+02  0.7818608E-02  0.1745324E+00
         -1   -1    0    0    0  501 -0.00000000000E+00  0.00000000000E+00  0.35291104903E+01  0.35291135801E+01  0.46700000000E-02 0.  1.
          1   -1    0    0  501    0  0.00000000000E+00 -0.00000000000E+00 -0.28336351766E+02  0.28336352151E+02  0.46700000000E-02 0. -1.
       1023    2    1    2    0    0  0.00000000000E+00  0.00000000000E+00 -0.24807241276E+02  0.31865465731E+02  0.20000217162E+02 0.  0.
        -11    1    3    3    0    0 -0.99893169229E+01 -0.46324980766E+00 -0.12456903178E+02  0.15974213283E+02  0.51100000000E-03 0. -1.
         11    1    3    3    0    0  0.99893169229E+01  0.46324980766E+00 -0.12350338098E+02  0.15891252448E+02  0.51100000000E-03 0.  1.
<mgrwt>
<rscale>  0 0.20000217E+02</rscale>
<asrwt>0</asrwt>
<pdfrwt beam="2">  1        1 0.43594388E-02 0.20000217E+02</pdfrwt>
<pdfrwt beam="1">  1       -1 0.54294036E-03 0.20000217E+02</pdfrwt>
<totfact> 0.40339847E+06</totfact>
</mgrwt>
</event>
<event>
 5    1  0.9583198E-007  0.2000063E+02  0.7818608E-02  0.1745316E+00
         -1   -1    0    0    0  501 -0.00000000000E+00  0.00000000000E+00  0.85765027844E+00  0.85766299267E+00  0.46700000000E-02 0. -1.
          1   -1    0    0  501    0  0.00000000000E+00 -0.00000000000E+00 -0.11660408543E+03  0.11660408552E+03  0.46700000000E-02 0.  1.
       1023    2    1    2    0    0  0.00000000000E+00  0.00000000000E+00 -0.11574643515E+03  0.11746174851E+03  0.20000627844E+02 0.  0.
        -11    1    3    3    0    0  0.16321381571E+01 -0.98661943358E+01 -0.58018581691E+02  0.58874115597E+02  0.51100000000E-03 0. -1.
         11    1    3    3    0    0 -0.16321381571E+01  0.98661943358E+01 -0.57727853456E+02  0.58587632915E+02  0.51100000000E-03 0.  1.
<mgrwt>
<rscale>  0 0.20000628E+02</rscale>
<asrwt>0</asrwt>
<pdfrwt beam="2">  1        1 0.17939078E-01 0.20000628E+02</pdfrwt>
<pdfrwt beam="1">  1       -1 0.13194727E-03 0.20000628E+02</pdfrwt>
<totfact> 0.45141546E+06</totfact>
</mgrwt>
</event>
<event>
 5    1  0.1039081E-006  0.2000090E+02  0.7818608E-02  0.1745310E+00
          1   -1    0    0  501    0  0.00000000000E+00  0.00000000000E+00  0.78979740709E+02  0.78979740847E+02  0.46700000000E-02 0. -1.
         -1   -1    0    0    0  501 -0.00000000000E+00 -0.00000000000E+00 -0.12662571254E+01  0.12662657369E+01  0.46700000000E-02 0.  1.
       1023    2    1    2    0    0  0.00000000000E+00  0.00000000000E+00  0.77713483584E+02  0.80246006584E+02  0.20000901029E+02 0.  0.
        -11    1    3    3    0    0 -0.20551177082E+01 -0.97868809383E+01  0.39055855282E+02  0.40315832862E+02  0.51100000000E-03 0. -1.
         11    1    3    3    0    0  0.20551177082E+01  0.97868809383E+01  0.38657628302E+02  0.39930173722E+02  0.51100000000E-03 0.  1.
<mgrwt>
<rscale>  0 0.20000901E+02</rscale>
<asrwt>0</asrwt>
<pdfrwt beam="1">  1        1 0.12150733E-01 0.20000901E+02</pdfrwt>
<pdfrwt beam="2">  1       -1 0.19480942E-03 0.20000901E+02</pdfrwt>
<totfact> 0.43302354E+06</totfact>
</mgrwt>
</event>
<event>
 5    1  0.9583198E-007  0.2000089E+02  0.7818608E-02  0.1745310E+00
         -1   -1    0    0    0  501 -0.00000000000E+00  0.00000000000E+00  0.83712048686E+02  0.83712048816E+02  0.46700000000E-02 0. -1.
          1   -1    0    0  501    0  0.00000000000E+00 -0.00000000000E+00 -0.11946727653E+01  0.11946818929E+01  0.46700000000E-02 0.  1.
       1023    2    1    2    0    0  0.00000000000E+00  0.00000000000E+00  0.82517375921E+02  0.84906730709E+02  0.20000889752E+02 0.  0.
        -11    1    3    3    0    0  0.35155855186E+01 -0.93621333694E+01  0.41274960678E+02  0.42469180142E+02  0.51100000000E-03 0.  1.
         11    1    3    3    0    0 -0.35155855186E+01  0.93621333694E+01  0.41242415243E+02  0.42437550567E+02  0.51100000000E-03 0. -1.
<mgrwt>
<rscale>  0 0.20000890E+02</rscale>
<asrwt>0</asrwt>
<pdfrwt beam="2">  1        1 0.18379659E-03 0.20000890E+02</pdfrwt>
<pdfrwt beam="1">  1       -1 0.12878773E-01 0.20000890E+02</pdfrwt>
<totfact> 0.32772999E+06</totfact>
</mgrwt>
</event>
<event>
 5    1  0.9583198E-007  0.2000010E+02  0.7818608E-02  0.1745326E+00
         -1   -1    0    0    0  501 -0.00000000000E+00  0.00000000000E+00  0.10601255161E+01  0.10601358020E+01  0.46700000000E-02 0.  1.
          1   -1    0    0  501    0  0.00000000000E+00 -0.00000000000E+00 -0.94328957213E+02  0.94328957329E+02  0.46700000000E-02 0. -1.
       1023    2    1    2    0    0  0.00000000000E+00  0.00000000000E+00 -0.93268831697E+02  0.95389093131E+02  0.20000103054E+02 0.  0.
        -11    1    3    3    0    0  0.98011946398E+01 -0.19843119453E+01 -0.46582165322E+02  0.47643457438E+02  0.51100000000E-03 0. -1.
         11    1    3    3    0    0 -0.98011946398E+01  0.19843119453E+01 -0.46686666375E+02  0.47745635693E+02  0.51100000000E-03 0.  1.
<mgrwt>
<rscale>  0 0.20000103E+02</rscale>
<asrwt>0</asrwt>
<pdfrwt beam="2">  1        1 0.14512141E-01 0.20000103E+02</pdfrwt>
<pdfrwt beam="1">  1       -1 0.16309711E-03 0.20000103E+02</pdfrwt>
<totfact> 0.44082613E+06</totfact>
</mgrwt>
</event>
<event>
 5    1  0.9583198E-007  0.2000056E+02  0.7818608E-02  0.1745317E+00
          1   -1    0    0  501    0  0.00000000000E+00  0.00000000000E+00  0.61175426075E+01  0.61175443900E+01  0.46700000000E-02 0.  1.
         -1   -1    0    0    0  501 -0.00000000000E+00 -0.00000000000E+00 -0.16347350415E+02  0.16347351082E+02  0.46700000000E-02 0. -1.
       1023    2    1    2    0    0  0.00000000000E+00  0.00000000000E+00 -0.10229807808E+02  0.22464895472E+02  0.20000564012E+02 0.  0.
        -11    1    3    3    0    0 -0.81344908128E+00 -0.99670888055E+01 -0.50779695901E+01  0.11215629010E+02  0.51100000000E-03 0. -1.
         11    1    3    3    0    0  0.81344908128E+00  0.99670888055E+01 -0.51518382176E+01  0.11249266463E+02  0.51100000000E-03 0.  1.
<mgrwt>
<rscale>  0 0.20000564E+02</rscale>
<asrwt>0</asrwt>
<pdfrwt beam="1">  1        1 0.94116060E-03 0.20000564E+02</pdfrwt>
<pdfrwt beam="2">  1       -1 0.25149772E-02 0.20000564E+02</pdfrwt>
<totfact> 0.37803184E+06</totfact>
</mgrwt>
</event>
<event>
 5    1  0.9954078E-007  0.2000092E+02  0.7818608E-02  0.1745310E+00
          1   -1    0    0  501    0  0.00000000000E+00  0.00000000000E+00  0.15466191273E+02  0.15466191978E+02  0.46700000000E-02 0. -1.
         -1   -1    0    0    0  501 -0.00000000000E+00 -0.00000000000E+00 -0.64663097656E+01  0.64663114520E+01  0.46700000000E-02 0.  1.
       1023    2    1    2    0    0  0.00000000000E+00  0.00000000000E+00  0.89998815071E+01  0.21932503430E+02  0.20000920968E+02 0.  0.
        -11    1    3    3    0    0 -0.97687650029E+01  0.21395937265E+01  0.45556250690E+01  0.10989101466E+02  0.51100000000E-03 0. -1.
         11    1    3    3    0    0  0.97687650029E+01 -0.21395937265E+01  0.44442564381E+01  0.10943401964E+02  0.51100000000E-03 0.  1.
<mgrwt>
<rscale>  0 0.20000921E+02</rscale>
<asrwt>0</asrwt>
<pdfrwt beam="1">  1        1 0.23794142E-02 0.20000921E+02</pdfrwt>
<pdfrwt beam="2">  1       -1 0.99481707E-03 0.20000921E+02</pdfrwt>
<totfact> 0.39288062E+06</totfact>
</mgrwt>
</event>
<event>
 5    1  0.9583198E-007  0.2000903E+02  0.7818608E-02  0.1745149E+00
         -1   -1    0    0    0  501 -0.00000000000E+00  0.00000000000E+00  0.63303334031E+02  0.63303334203E+02  0.46700000000E-02 0. -1.
          1   -1    0    0  501    0  0.00000000000E+00 -0.00000000000E+00 -0.15811187403E+01  0.15811256370E+01  0.46700000000E-02 0.  1.
       1023    2    1    2    0    0  0.00000000000E+00  0.00000000000E+00  0.61722215291E+02  0.64884459840E+02  0.20009029671E+02 0.  0.
        -11    1    3    3    0    0 -0.25978827934E+01  0.96584752308E+01  0.31622831933E+02  0.33166830396E+02  0.51100000000E-03 0.  1.
         11    1    3    3    0    0  0.25978827934E+01 -0.96584752308E+01  0.30099383358E+02  0.31717629444E+02  0.51100000000E-03 0. -1.
<mgrwt>
<rscale>  0 0.20009030E+02</rscale>
<asrwt>0</asrwt>
<pdfrwt beam="2">  1        1 0.24324958E-03 0.20009030E+02</pdfrwt>
<pdfrwt beam="1">  1       -1 0.97389751E-02 0.20009030E+02</pdfrwt>
<totfact> 0.33992735E+06</totfact>
</mgrwt>
</event>
<event>
 5    1  0.9583198E-007  0.2000025E+02  0.7818608E-02  0.1745323E+00
         -1   -1    0    0    0  501 -0.00000000000E+00  0.00000000000E+00  0.42043063375E+02  0.42043063634E+02  0.46700000000E-02 0.  1.
          1   -1    0    0  501    0  0.00000000000E+00 -0.00000000000E+00 -0.23785701709E+01  0.23785747553E+01  0.46700000000E-02 0. -1.
       1023    2    1    2    0    0  0.00000000000E+00  0.00000000000E+00  0.39664493204E+02  0.44421638389E+02  0.20000248400E+02 0.  0.
        -11    1    3    3    0    0  0.62224068679E+01  0.78283528142E+01  0.19761008379E+02  0.22147209924E+02  0.51100000000E-03 0. -1.
         11    1    3    3    0    0 -0.62224068679E+01 -0.78283528142E+01  0.19903484825E+02  0.22274428465E+02  0.51100000000E-03 0.  1.
<mgrwt>
<rscale>  0 0.20000248E+02</rscale>
<asrwt>0</asrwt>
<pdfrwt beam="2">  1        1 0.36593431E-03 0.20000248E+02</pdfrwt>
<pdfrwt beam="1">  1       -1 0.64681628E-02 0.20000248E+02</pdfrwt>
<totfact> 0.35513435E+06</totfact>
</mgrwt>
</event>
<event>
 5    1  0.9583198E-007  0.2000027E+02  0.7818608E-02  0.1745323E+00
          1   -1    0    0  501    0  0.00000000000E+00  0.00000000000E+00  0.81243216159E+02  0.81243216294E+02  0.46700000000E-02 0.  1.
         -1   -1    0    0    0  501 -0.00000000000E+00 -0.00000000000E+00 -0.12309006944E+01  0.12309095533E+01  0.46700000000E-02 0. -1.
       1023    2    1    2    0    0  0.00000000000E+00  0.00000000000E+00  0.80012315465E+02  0.82474125847E+02  0.20000270202E+02 0.  0.
        -11    1    3    3    0    0 -0.94570785436E+01 -0.32504248112E+01  0.39869035151E+02  0.41104033381E+02  0.51100000000E-03 0. -1.
         11    1    3    3    0    0  0.94570785436E+01  0.32504248112E+01  0.40143280314E+02  0.41370092466E+02  0.51100000000E-03 0.  1.
<mgrwt>
<rscale>  0 0.20000270E+02</rscale>
<asrwt>0</asrwt>
<pdfrwt beam="1">  1        1 0.12498960E-01 0.20000270E+02</pdfrwt>
<pdfrwt beam="2">  1       -1 0.18936999E-03 0.20000270E+02</pdfrwt>
<totfact> 0.43422133E+06</totfact>
</mgrwt>
</event>
<event>
 5    1  0.9583198E-007  0.2000025E+02  0.7818608E-02  0.1745323E+00
          1   -1    0    0  501    0  0.00000000000E+00  0.00000000000E+00  0.37991638686E+01  0.37991667389E+01  0.46700000000E-02 0. -1.
         -1   -1    0    0    0  501 -0.00000000000E+00 -0.00000000000E+00 -0.26322238030E+02  0.26322238445E+02  0.46700000000E-02 0.  1.
       1023    2    1    2    0    0  0.00000000000E+00  0.00000000000E+00 -0.22523074162E+02  0.30121405183E+02  0.20000254512E+02 0.  0.
        -11    1    3    3    0    0 -0.30557845398E+01 -0.95217960956E+01 -0.11278363979E+02  0.15073284790E+02  0.51100000000E-03 0.  1.
         11    1    3    3    0    0  0.30557845398E+01  0.95217960956E+01 -0.11244710182E+02  0.15048120394E+02  0.51100000000E-03 0. -1.
<mgrwt>
<rscale>  0 0.20000255E+02</rscale>
<asrwt>0</asrwt>
<pdfrwt beam="1">  1        1 0.58448702E-03 0.20000255E+02</pdfrwt>
<pdfrwt beam="2">  1       -1 0.40495752E-02 0.20000255E+02</pdfrwt>
<totfact> 0.36810699E+06</totfact>
</mgrwt>
</event>
<event>
 5    1  0.9583198E-007  0.2000084E+02  0.7818608E-02  0.1745311E+00
          1   -1    0    0  501    0  0.00000000000E+00  0.00000000000E+00  0.11921937905E+01  0.11922029370E+01  0.46700000000E-02 0. -1.
         -1   -1    0    0    0  501 -0.00000000000E+00 -0.00000000000E+00 -0.83885686605E+02  0.83885686735E+02  0.46700000000E-02 0.  1.
       1023    2    1    2    0    0  0.00000000000E+00  0.00000000000E+00 -0.82693492815E+02  0.85077889672E+02  0.20000838912E+02 0.  0.
        -11    1    3    3    0    0  0.12092455431E+01 -0.99267566142E+01 -0.41027934122E+02  0.42229067598E+02  0.51100000000E-03 0.  1.
         11    1    3    3    0    0 -0.12092455431E+01  0.99267566142E+01 -0.41665558693E+02  0.42848822074E+02  0.51100000000E-03 0. -1.
<mgrwt>
<rscale>  0 0.20000839E+02</rscale>
<asrwt>0</asrwt>
<pdfrwt beam="1">  1        1 0.18341521E-03 0.20000839E+02</pdfrwt>
<pdfrwt beam="2">  1       -1 0.12905486E-01 0.20000839E+02</pdfrwt>
<totfact> 0.32763122E+06</totfact>
</mgrwt>
</event>
<event>
 4    1  0.9583198E-007  0.2014372E+02  0.7818608E-02  0.1742485E+00
         -1   -1    0    0    0  501 -0.00000000000E+00  0.00000000000E+00  0.11364949443E+01  0.11365045391E+01  0.46700000000E-02 0. -1.
          1   -1    0    0  501    0  0.00000000000E+00 -0.00000000000E+00 -0.89258588698E+02  0.89258588820E+02  0.46700000000E-02 0.  1.
        -11    1    1    2    0    0 -0.46494104662E+01  0.89335982875E+01 -0.44631819402E+02  0.45753967035E+02  0.51100000000E-03 0. -1.
         11    1    1    2    0    0  0.46494104662E+01 -0.89335982875E+01 -0.43490274352E+02  0.44641126324E+02  0.51100000000E-03 0.  1.
<mgrwt>
<rscale>  0 0.20143721E+02</rscale>
<asrwt>0</asrwt>
<pdfrwt beam="2">  1        1 0.13732086E-01 0.20143721E+02</pdfrwt>
<pdfrwt beam="1">  1       -1 0.17484619E-03 0.20143721E+02</pdfrwt>
<totfact> 0.43142500E+06</totfact>
</mgrwt>
</event>
<event>
 5    1  0.9583198E-007  0.2000161E+02  0.7818608E-02  0.1745296E+00
          1   -1    0    0  501    0  0.00000000000E+00  0.00000000000E+00  0.45262068814E+01  0.45262092906E+01  0.46700000000E-02 0.  1.
         -1   -1    0    0    0  501 -0.00000000000E+00 -0.00000000000E+00 -0.22097107225E+02  0.22097107718E+02  0.46700000000E-02 0. -1.
       1023    2    1    2    0    0  0.00000000000E+00  0.00000000000E+00 -0.17570900343E+02  0.26623317009E+02  0.20001611677E+02 0.  0.
        -11    1    3    3    0    0 -0.61066587432E+01 -0.79198896450E+01 -0.88035134956E+01  0.13323579966E+02  0.51100000000E-03 0. -1.
         11    1    3    3    0    0  0.61066587432E+01  0.79198896450E+01 -0.87673868478E+01  0.13299737042E+02  0.51100000000E-03 0.  1.
<mgrwt>
<rscale>  0 0.20001612E+02</rscale>
<asrwt>0</asrwt>
<pdfrwt beam="1">  1        1 0.69633976E-03 0.20001612E+02</pdfrwt>
<pdfrwt beam="2">  1       -1 0.33995551E-02 0.20001612E+02</pdfrwt>
<totfact> 0.37201511E+06</totfact>
</mgrwt>
</event>
<event>
 5    1  0.1015844E-006  0.2000105E+02  0.7818608E-02  0.1745307E+00
          1   -1    0    0  501    0  0.00000000000E+00  0.00000000000E+00  0.92401466013E+02  0.92401466131E+02  0.46700000000E-02 0.  1.
         -1   -1    0    0    0  501 -0.00000000000E+00 -0.00000000000E+00 -0.10823428535E+01  0.10823529283E+01  0.46700000000E-02 0. -1.
       1023    2    1    2    0    0  0.00000000000E+00  0.00000000000E+00  0.91319123159E+02  0.93483819059E+02  0.20001054255E+02 0.  0.
        -11    1    3    3    0    0  0.37577367663E+01  0.92674805364E+01  0.45946218238E+02  0.47021928414E+02  0.51100000000E-03 0.  1.
         11    1    3    3    0    0 -0.37577367663E+01 -0.92674805364E+01  0.45372904921E+02  0.46461890645E+02  0.51100000000E-03 0. -1.
<mgrwt>
<rscale>  0 0.20001054E+02</rscale>
<asrwt>0</asrwt>
<pdfrwt beam="1">  1        1 0.14215614E-01 0.20001054E+02</pdfrwt>
<pdfrwt beam="2">  1       -1 0.16651503E-03 0.20001054E+02</pdfrwt>
<totfact> 0.43982519E+06</totfact>
</mgrwt>
</event>
<event>
 5    1  0.9583198E-007  0.2000189E+02  0.7818608E-02  0.1745291E+00
         -1   -1    0    0    0  501 -0.00000000000E+00  0.00000000000E+00  0.79608658392E+02  0.79608658529E+02  0.46700000000E-02 0. -1.
          1   -1    0    0  501    0  0.00000000000E+00 -0.00000000000E+00 -0.12563774211E+01  0.12563861004E+01  0.46700000000E-02 0.  1.
       1023    2    1    2    0    0  0.00000000000E+00  0.00000000000E+00  0.78352280971E+02  0.80865044629E+02  0.20001887650E+02 0.  0.
        -11    1    3    3    0    0 -0.97744577428E+01 -0.21162874441E+01  0.39230444356E+02  0.40485138771E+02  0.51100000000E-03 0. -1.
         11    1    3    3    0    0  0.97744577428E+01  0.21162874441E+01  0.39121836615E+02  0.40379905858E+02  0.51100000000E-03 0.  1.
<mgrwt>
<rscale>  0 0.20001888E+02</rscale>
<asrwt>0</asrwt>
<pdfrwt beam="2">  1        1 0.19328951E-03 0.20001888E+02</pdfrwt>
<pdfrwt beam="1">  1       -1 0.12247486E-01 0.20001888E+02</pdfrwt>
<totfact> 0.33009725E+06</totfact>
</mgrwt>
</event>
<event>
 5    1  0.9583198E-007  0.2000306E+02  0.7818608E-02  0.1745267E+00
          1   -1    0    0  501    0  0.00000000000E+00  0.00000000000E+00  0.99955587027E+01  0.99955597936E+01  0.46700000000E-02 0.  1.
         -1   -1    0    0    0  501 -0.00000000000E+00 -0.00000000000E+00 -0.10007503897E+02  0.10007504986E+02  0.46700000000E-02 0. -1.
       1023    2    1    2    0    0  0.00000000000E+00  0.00000000000E+00 -0.11945193986E-01  0.20003064780E+02  0.20003061213E+02 0.  0.
        -11    1    3    3    0    0  0.88377991263E+01  0.46792920982E+01  0.16179595307E+00  0.10001432204E+02  0.51100000000E-03 0.  1.
         11    1    3    3    0    0 -0.88377991263E+01 -0.46792920982E+01 -0.17374114705E+00  0.10001632576E+02  0.51100000000E-03 0. -1.
<mgrwt>
<rscale>  0 0.20003061E+02</rscale>
<asrwt>0</asrwt>
<pdfrwt beam="1">  1        1 0.15377784E-02 0.20003061E+02</pdfrwt>
<pdfrwt beam="2">  1       -1 0.15396162E-02 0.20003061E+02</pdfrwt>
<totfact> 0.38609881E+06</totfact>
</mgrwt>
</event>
<event>
 5    1  0.9583198E-007  0.2000115E+02  0.7818608E-02  0.1745305E+00
          1   -1    0    0  501    0  0.00000000000E+00  0.00000000000E+00  0.13284608059E+01  0.13284690142E+01  0.46700000000E-02 0. -1.
         -1   -1    0    0    0  501 -0.00000000000E+00 -0.00000000000E+00 -0.75283466772E+02  0.75283466917E+02  0.46700000000E-02 0.  1.
       1023    2    1    2    0    0  0.00000000000E+00  0.00000000000E+00 -0.73955005966E+02  0.76611935931E+02  0.20001145458E+02 0.  0.
        -11    1    3    3    0    0  0.99962072694E+01 -0.29545665503E+00 -0.36979391784E+02  0.38307791262E+02  0.51100000000E-03 0.  1.
         11    1    3    3    0    0 -0.99962072694E+01  0.29545665503E+00 -0.36975614182E+02  0.38304144669E+02  0.51100000000E-03 0. -1.
<mgrwt>
<rscale>  0 0.20001145E+02</rscale>
<asrwt>0</asrwt>
<pdfrwt beam="1">  1        1 0.20437929E-03 0.20001145E+02</pdfrwt>
<pdfrwt beam="2">  1       -1 0.11582069E-01 0.20001145E+02</pdfrwt>
<totfact> 0.33271426E+06</totfact>
</mgrwt>
</event>
<event>
 5    1  0.9583198E-007  0.2000028E+02  0.7818608E-02  0.1745323E+00
          1   -1    0    0  501    0  0.00000000000E+00  0.00000000000E+00  0.69350842318E+01  0.69350858041E+01  0.46700000000E-02 0. -1.
         -1   -1    0    0    0  501 -0.00000000000E+00 -0.00000000000E+00 -0.14419835725E+02  0.14419836482E+02  0.46700000000E-02 0.  1.
       1023    2    1    2    0    0  0.00000000000E+00  0.00000000000E+00 -0.74847514936E+01  0.21354922286E+02  0.20000280021E+02 0.  0.
        -11    1    3    3    0    0  0.49806069669E+01  0.86715180260E+01 -0.37064940727E+01  0.10664884866E+02  0.51100000000E-03 0. -1.
         11    1    3    3    0    0 -0.49806069669E+01 -0.86715180260E+01 -0.37782574210E+01  0.10690037420E+02  0.51100000000E-03 0.  1.
<mgrwt>
<rscale>  0 0.20000280E+02</rscale>
<asrwt>0</asrwt>
<pdfrwt beam="1">  1        1 0.10669362E-02 0.20000280E+02</pdfrwt>
<pdfrwt beam="2">  1       -1 0.22184364E-02 0.20000280E+02</pdfrwt>
<totfact> 0.38027535E+06</totfact>
</mgrwt>
</event>
<event>
 5    1  0.9583198E-007  0.2000680E+02  0.7818608E-02  0.1745193E+00
          1   -1    0    0  501    0  0.00000000000E+00  0.00000000000E+00  0.88780862536E+02  0.88780862658E+02  0.46700000000E-02 0.  1.
         -1   -1    0    0    0  501 -0.00000000000E+00 -0.00000000000E+00 -0.11271304766E+01  0.11271401511E+01  0.46700000000E-02 0. -1.
       1023    2    1    2    0    0  0.00000000000E+00  0.00000000000E+00  0.87653732059E+02  0.89908002810E+02  0.20006804475E+02 0.  0.
        -11    1    3    3    0    0 -0.10001039620E+02  0.16004727865E+00  0.43165679389E+02  0.44309392751E+02  0.51100000000E-03 0. -1.
         11    1    3    3    0    0  0.10001039620E+02 -0.16004727865E+00  0.44488052670E+02  0.45598610059E+02  0.51100000000E-03 0.  1.
<mgrwt>
<rscale>  0 0.20006804E+02</rscale>
<asrwt>0</asrwt>
<pdfrwt beam="1">  1        1 0.13658593E-01 0.20006804E+02</pdfrwt>
<pdfrwt beam="2">  1       -1 0.17340546E-03 0.20006804E+02</pdfrwt>
<totfact> 0.43773774E+06</totfact>
</mgrwt>
</event>
<event>
 5    1  0.9661548E-007  0.2000062E+02  0.7818608E-02  0.1745316E+00
         -1   -1    0    0    0  501 -0.00000000000E+00  0.00000000000E+00  0.68474791818E+01  0.68474807743E+01  0.46700000000E-02 0. -1.
          1   -1    0    0  501    0  0.00000000000E+00 -0.00000000000E+00 -0.14604809808E+02  0.14604810554E+02  0.46700000000E-02 0.  1.
       1023    2    1    2    0    0  0.00000000000E+00  0.00000000000E+00 -0.77573306261E+01  0.21452291329E+02  0.20000615611E+02 0.  0.
        -11    1    3    3    0    0  0.82279566601E+01 -0.56835481644E+01 -0.38094409576E+01  0.10701113550E+02  0.51100000000E-03 0.  1.
         11    1    3    3    0    0 -0.82279566601E+01  0.56835481644E+01 -0.39478896684E+01  0.10751177779E+02  0.51100000000E-03 0. -1.
<mgrwt>
<rscale>  0 0.20000616E+02</rscale>
<asrwt>0</asrwt>
<pdfrwt beam="2">  1        1 0.22468940E-02 0.20000616E+02</pdfrwt>
<pdfrwt beam="1">  1       -1 0.10534585E-02 0.20000616E+02</pdfrwt>
<totfact> 0.39200726E+06</totfact>
</mgrwt>
</event>
<event>
 5    1  0.9583198E-007  0.2000061E+02  0.7818608E-02  0.1745316E+00
          1   -1    0    0  501    0  0.00000000000E+00  0.00000000000E+00  0.12105594783E+02  0.12105595684E+02  0.46700000000E-02 0. -1.
         -1   -1    0    0    0  501 -0.00000000000E+00 -0.00000000000E+00 -0.82611488735E+01  0.82611501934E+01  0.46700000000E-02 0.  1.
       1023    2    1    2    0    0  0.00000000000E+00  0.00000000000E+00  0.38444459100E+01  0.20366745878E+02  0.20000614323E+02 0.  0.
        -11    1    3    3    0    0 -0.43725797180E+01  0.89934688899E+01  0.18561742211E+01  0.10170905518E+02  0.51100000000E-03 0. -1.
         11    1    3    3    0    0  0.43725797180E+01 -0.89934688899E+01  0.19882716889E+01  0.10195840359E+02  0.51100000000E-03 0.  1.
<mgrwt>
<rscale>  0 0.20000614E+02</rscale>
<asrwt>0</asrwt>
<pdfrwt beam="1">  1        1 0.18623994E-02 0.20000614E+02</pdfrwt>
<pdfrwt beam="2">  1       -1 0.12709462E-02 0.20000614E+02</pdfrwt>
<totfact> 0.38914085E+06</totfact>
</mgrwt>
</event>
<event>
 5    1  0.9839980E-007  0.2000186E+02  0.7818608E-02  0.1745291E+00
          1   -1    0    0  501    0  0.00000000000E+00  0.00000000000E+00  0.85947585428E+02  0.85947585555E+02  0.46700000000E-02 0.  1.
         -1   -1    0    0    0  501 -0.00000000000E+00 -0.00000000000E+00 -0.11637117492E+01  0.11637211195E+01  0.46700000000E-02 0. -1.
       1023    2    1    2    0    0  0.00000000000E+00  0.00000000000E+00  0.84783873679E+02  0.87111306674E+02  0.20001862777E+02 0.  0.
        -11    1    3    3    0    0 -0.85078491423E+01  0.52565305199E+01  0.42115865089E+02  0.43286957650E+02  0.51100000000E-03 0. -1.
         11    1    3    3    0    0  0.85078491423E+01 -0.52565305199E+01  0.42668008590E+02  0.43824349025E+02  0.51100000000E-03 0.  1.
<mgrwt>
<rscale>  0 0.20001863E+02</rscale>
<asrwt>0</asrwt>
<pdfrwt beam="1">  1        1 0.13222709E-01 0.20001863E+02</pdfrwt>
<pdfrwt beam="2">  1       -1 0.17903328E-03 0.20001863E+02</pdfrwt>
<totfact> 0.43654595E+06</totfact>
</mgrwt>
</event>
<event>
 5    1  0.9583198E-007  0.2000286E+02  0.7818608E-02  0.1745271E+00
          1   -1    0    0  501    0  0.00000000000E+00  0.00000000000E+00  0.34870364737E+02  0.34870365050E+02  0.46700000000E-02 0.  1.
         -1   -1    0    0    0  501 -0.00000000000E+00 -0.00000000000E+00 -0.28685815420E+01  0.28685853433E+01  0.46700000000E-02 0. -1.
       1023    2    1    2    0    0  0.00000000000E+00  0.00000000000E+00  0.32001783195E+02  0.37738950393E+02  0.20002856024E+02 0.  0.
        -11    1    3    3    0    0 -0.28924977864E+01  0.95739658495E+01  0.16066152202E+02  0.18924814725E+02  0.51100000000E-03 0. -1.
         11    1    3    3    0    0  0.28924977864E+01 -0.95739658495E+01  0.15935630993E+02  0.18814135668E+02  0.51100000000E-03 0.  1.
<mgrwt>
<rscale>  0 0.20002856E+02</rscale>
<asrwt>0</asrwt>
<pdfrwt beam="1">  1        1 0.53646716E-02 0.20002856E+02</pdfrwt>
<pdfrwt beam="2">  1       -1 0.44132057E-03 0.20002856E+02</pdfrwt>
<totfact> 0.40769874E+06</totfact>
</mgrwt>
</event>
<event>
 5    1  0.9583198E-007  0.2000047E+02  0.7818608E-02  0.1745319E+00
         -1   -1    0    0    0  501 -0.00000000000E+00  0.00000000000E+00  0.15766230528E+02  0.15766231220E+02  0.46700000000E-02 0.  1.
          1   -1    0    0  501    0  0.00000000000E+00 -0.00000000000E+00 -0.63429653349E+01  0.63429670540E+01  0.46700000000E-02 0. -1.
       1023    2    1    2    0    0  0.00000000000E+00  0.00000000000E+00  0.94232651930E+01  0.22109198274E+02  0.20000468030E+02 0.  0.
        -11    1    3    3    0    0  0.17873199066E+01 -0.98390162780E+01  0.47808994993E+01  0.11084121709E+02  0.51100000000E-03 0. -1.
         11    1    3    3    0    0 -0.17873199066E+01  0.98390162780E+01  0.46423656937E+01  0.11025076565E+02  0.51100000000E-03 0.  1.
<mgrwt>
<rscale>  0 0.20000468E+02</rscale>
<asrwt>0</asrwt>
<pdfrwt beam="2">  1        1 0.97584101E-03 0.20000468E+02</pdfrwt>
<pdfrwt beam="1">  1       -1 0.24255741E-02 0.20000468E+02</pdfrwt>
<totfact> 0.37869263E+06</totfact>
</mgrwt>
</event>
<event>
 5    1  0.9583198E-007  0.2000520E+02  0.7818608E-02  0.1745225E+00
          1   -1    0    0  501    0  0.00000000000E+00  0.00000000000E+00  0.18374441674E+01  0.18374501020E+01  0.46700000000E-02 0.  1.
         -1   -1    0    0    0  501 -0.00000000000E+00 -0.00000000000E+00 -0.54451650877E+02  0.54451651077E+02  0.46700000000E-02 0. -1.
       1023    2    1    2    0    0  0.00000000000E+00  0.00000000000E+00 -0.52614206710E+02  0.56289101179E+02  0.20005203420E+02 0.  0.
        -11    1    3    3    0    0  0.59984984363E+01  0.80043688605E+01 -0.26274245862E+02  0.28113838234E+02  0.51100000000E-03 0. -1.
         11    1    3    3    0    0 -0.59984984363E+01 -0.80043688605E+01 -0.26339960848E+02  0.28175262946E+02  0.51100000000E-03 0.  1.
<mgrwt>
<rscale>  0 0.20005203E+02</rscale>
<asrwt>0</asrwt>
<pdfrwt beam="1">  1        1 0.28268423E-03 0.20005203E+02</pdfrwt>
<pdfrwt beam="2">  1       -1 0.83771763E-02 0.20005203E+02</pdfrwt>
<totfact> 0.34598251E+06</totfact>
</mgrwt>
</event>
<event>
 5    1  0.9583198E-007  0.2000034E+02  0.7818608E-02  0.1745321E+00
         -1   -1    0    0    0  501 -0.00000000000E+00  0.00000000000E+00  0.11308626375E+03  0.11308626385E+03  0.46700000000E-02 0.  1.
          1   -1    0    0  501    0  0.00000000000E+00 -0.00000000000E+00 -0.88430468314E+00  0.88431701415E+00  0.46700000000E-02 0. -1.
       1023    2    1    2    0    0  0.00000000000E+00  0.00000000000E+00  0.11220195907E+03  0.11397058086E+03  0.20000342079E+02 0.  0.
        -11    1    3    3    0    0  0.86149112864E+01 -0.50780271426E+01  0.56209761960E+02  0.57092384746E+02  0.51100000000E-03 0.  1.
         11    1    3    3    0    0 -0.86149112864E+01  0.50780271426E+01  0.55992197111E+02  0.56878196118E+02  0.51100000000E-03 0. -1.
<mgrwt>
<rscale>  0 0.20000342E+02</rscale>
<asrwt>0</asrwt>
<pdfrwt beam="2">  1        1 0.13604788E-03 0.20000342E+02</pdfrwt>
<pdfrwt beam="1">  1       -1 0.17397882E-01 0.20000342E+02</pdfrwt>
<totfact> 0.31182425E+06</totfact>
</mgrwt>
</event>
<event>
 5    1  0.9984842E-007  0.2000126E+02  0.7818608E-02  0.1745303E+00
          1   -1    0    0  501    0  0.00000000000E+00  0.00000000000E+00  0.40804677974E+01  0.40804704697E+01  0.46700000000E-02 0. -1.
         -1   -1    0    0    0  501 -0.00000000000E+00 -0.00000000000E+00 -0.24510076709E+02  0.24510077154E+02  0.46700000000E-02 0.  1.
       1023    2    1    2    0    0  0.00000000000E+00  0.00000000000E+00 -0.20429608911E+02  0.28590547623E+02  0.20001262288E+02 0.  0.
        -11    1    3    3    0    0 -0.21332922953E+01 -0.97699519333E+01 -0.10073831035E+02  0.14194540105E+02  0.51100000000E-03 0.  1.
         11    1    3    3    0    0  0.21332922953E+01  0.97699519333E+01 -0.10355777876E+02  0.14396007519E+02  0.51100000000E-03 0. -1.
<mgrwt>
<rscale>  0 0.20001262E+02</rscale>
<asrwt>0</asrwt>
<pdfrwt beam="1">  1        1 0.62776453E-03 0.20001262E+02</pdfrwt>
<pdfrwt beam="2">  1       -1 0.37707812E-02 0.20001262E+02</pdfrwt>
<totfact> 0.36973133E+06</totfact>
</mgrwt>
</event>
<event>
 5    1  0.9583198E-007  0.2000261E+02  0.7818608E-02  0.1745276E+00
         -1   -1    0    0    0  501 -0.00000000000E+00  0.00000000000E+00  0.68306137362E+02  0.68306137522E+02  0.46700000000E-02 0. -1.
          1   -1    0    0  501    0  0.00000000000E+00 -0.00000000000E+00 -0.14643762526E+01  0.14643836991E+01  0.46700000000E-02 0.  1.
       1023    2    1    2    0    0  0.00000000000E+00  0.00000000000E+00  0.66841761109E+02  0.69770521221E+02  0.20002614909E+02 0.  0.
        -11    1    3    3    0    0  0.46219458646E+01 -0.88682536027E+01  0.33886835080E+02  0.35331655743E+02  0.51100000000E-03 0. -1.
         11    1    3    3    0    0 -0.46219458646E+01  0.88682536027E+01  0.32954926030E+02  0.34438865478E+02  0.51100000000E-03 0.  1.
<mgrwt>
<rscale>  0 0.20002615E+02</rscale>
<asrwt>0</asrwt>
<pdfrwt beam="2">  1        1 0.22528919E-03 0.20002615E+02</pdfrwt>
<pdfrwt beam="1">  1       -1 0.10508639E-01 0.20002615E+02</pdfrwt>
<totfact> 0.33696914E+06</totfact>
</mgrwt>
</event>
<event>
 5    1  0.9897810E-007  0.2000060E+02  0.7818608E-02  0.1745316E+00
          1   -1    0    0  501    0  0.00000000000E+00  0.00000000000E+00  0.48221994878E+02  0.48221995104E+02  0.46700000000E-02 0.  1.
         -1   -1    0    0    0  501 -0.00000000000E+00 -0.00000000000E+00 -0.20738647840E+01  0.20738700420E+01  0.46700000000E-02 0. -1.
       1023    2    1    2    0    0  0.00000000000E+00  0.00000000000E+00  0.46148130094E+02  0.50295865147E+02  0.20000603482E+02 0.  0.
        -11    1    3    3    0    0  0.15139533579E+01 -0.98850162955E+01  0.23021754359E+02  0.25099935776E+02  0.51100000000E-03 0.  1.
         11    1    3    3    0    0 -0.15139533579E+01  0.98850162955E+01  0.23126375735E+02  0.25195929370E+02  0.51100000000E-03 0. -1.
<mgrwt>
<rscale>  0 0.20000603E+02</rscale>
<asrwt>0</asrwt>
<pdfrwt beam="1">  1        1 0.74187676E-02 0.20000603E+02</pdfrwt>
<pdfrwt beam="2">  1       -1 0.31905660E-03 0.20000603E+02</pdfrwt>
<totfact> 0.41607281E+06</totfact>
</mgrwt>
</event>
<event>
 5    1  0.9583198E-007  0.2000581E+02  0.7818608E-02  0.1745213E+00
         -1   -1    0    0    0  501 -0.00000000000E+00  0.00000000000E+00  0.38072455346E+01  0.38072483988E+01  0.46700000000E-02 0. -1.
          1   -1    0    0  501    0  0.00000000000E+00 -0.00000000000E+00 -0.26280948295E+02  0.26280948710E+02  0.46700000000E-02 0.  1.
       1023    2    1    2    0    0  0.00000000000E+00  0.00000000000E+00 -0.22473702761E+02  0.30088197109E+02  0.20005806395E+02 0.  0.
        -11    1    3    3    0    0 -0.95699674496E+01 -0.29020582081E+01 -0.10894376884E+02  0.14788294925E+02  0.51100000000E-03 0.  1.
         11    1    3    3    0    0  0.95699674496E+01  0.29020582081E+01 -0.11579325876E+02  0.15299902184E+02  0.51100000000E-03 0. -1.
<mgrwt>
<rscale>  0 0.20005806E+02</rscale>
<asrwt>0</asrwt>
<pdfrwt beam="2">  1        1 0.40432230E-02 0.20005806E+02</pdfrwt>
<pdfrwt beam="1">  1       -1 0.58573035E-03 0.20005806E+02</pdfrwt>
<totfact> 0.40167575E+06</totfact>
</mgrwt>
</event>
<event>
 5    1  0.9583198E-007  0.2000030E+02  0.7818608E-02  0.1745322E+00
         -1   -1    0    0    0  501 -0.00000000000E+00  0.00000000000E+00  0.82326604081E+01  0.82326617327E+01  0.46700000000E-02 0. -1.
          1   -1    0    0  501    0  0.00000000000E+00 -0.00000000000E+00 -0.12147104851E+02  0.12147105749E+02  0.46700000000E-02 0.  1.
       1023    2    1    2    0    0  0.00000000000E+00  0.00000000000E+00 -0.39144444433E+01  0.20379767482E+02  0.20000301181E+02 0.  0.
        -11    1    3    3    0    0 -0.98312472310E+01  0.18301868541E+01 -0.19548261859E+01  0.10189423522E+02  0.51100000000E-03 0.  1.
         11    1    3    3    0    0  0.98312472310E+01 -0.18301868541E+01 -0.19596182574E+01  0.10190343960E+02  0.51100000000E-03 0. -1.
<mgrwt>
<rscale>  0 0.20000301E+02</rscale>
<asrwt>0</asrwt>
<pdfrwt beam="2">  1        1 0.18687855E-02 0.20000301E+02</pdfrwt>
<pdfrwt beam="1">  1       -1 0.12665633E-02 0.20000301E+02</pdfrwt>
<totfact> 0.38920673E+06</totfact>
</mgrwt>
</event>
<event>
 4    1  0.9583198E-007  0.2001520E+02  0.7818608E-02  0.1745026E+00
          1   -1    0    0  501    0  0.00000000000E+00  0.00000000000E+00  0.98891695995E+01  0.98891707022E+01  0.46700000000E-02 0.  1.
         -1   -1    0    0    0  501 -0.00000000000E+00 -0.00000000000E+00 -0.10127450202E+02  0.10127451279E+02  0.46700000000E-02 0. -1.
        -11    1    1    2    0    0  0.53011374750E+01  0.84825066192E+01 -0.43079861287E+00  0.10012021014E+02  0.51100000000E-03 0.  1.
         11    1    1    2    0    0 -0.53011374750E+01 -0.84825066192E+01  0.19251801008E+00  0.10004600968E+02  0.51100000000E-03 0. -1.
<mgrwt>
<rscale>  0 0.20015204E+02</rscale>
<asrwt>0</asrwt>
<pdfrwt beam="1">  1        1 0.15214109E-02 0.20015204E+02</pdfrwt>
<pdfrwt beam="2">  1       -1 0.15580694E-02 0.20015204E+02</pdfrwt>
<totfact> 0.38540244E+06</totfact>
</mgrwt>
</event>
<event>
 5    1  0.9583198E-007  0.2000076E+02  0.7818608E-02  0.1745313E+00
          1   -1    0    0  501    0  0.00000000000E+00  0.00000000000E+00  0.20374597817E+01  0.20374651337E+01  0.46700000000E-02 0.  1.
         -1   -1    0    0    0  501 -0.00000000000E+00 -0.00000000000E+00 -0.49084405608E+02  0.49084405830E+02  0.46700000000E-02 0. -1.
       1023    2    1    2    0    0  0.00000000000E+00  0.00000000000E+00 -0.47046945827E+02  0.51121870964E+02  0.20000764467E+02 0.  0.
        -11    1    3    3    0    0  0.99896576273E+01 -0.45888975413E+00 -0.23681143629E+02  0.25706038262E+02  0.51100000000E-03 0. -1.
         11    1    3    3    0    0 -0.99896576273E+01  0.45888975413E+00 -0.23365802198E+02  0.25415832702E+02  0.51100000000E-03 0.  1.
<mgrwt>
<rscale>  0 0.20000764E+02</rscale>
<asrwt>0</asrwt>
<pdfrwt beam="1">  1        1 0.31345582E-03 0.20000764E+02</pdfrwt>
<pdfrwt beam="2">  1       -1 0.75514466E-02 0.20000764E+02</pdfrwt>
<totfact> 0.34992056E+06</totfact>
</mgrwt>
</event>
<event>
 5    1  0.9583198E-007  0.2000038E+02  0.7818608E-02  0.1745321E+00
         -1   -1    0    0    0  501 -0.00000000000E+00  0.00000000000E+00  0.11258230583E+02  0.11258231551E+02  0.46700000000E-02 0. -1.
          1   -1    0    0  501    0  0.00000000000E+00 -0.00000000000E+00 -0.88827228766E+01  0.88827241042E+01  0.46700000000E-02 0.  1.
       1023    2    1    2    0    0  0.00000000000E+00  0.00000000000E+00  0.23755077062E+01  0.20140955655E+02  0.20000376443E+02 0.  0.
        -11    1    3    3    0    0 -0.89455968213E+01  0.44696697912E+01  0.12340516719E+01  0.10075938384E+02  0.51100000000E-03 0.  1.
         11    1    3    3    0    0  0.89455968213E+01 -0.44696697912E+01  0.11414560342E+01  0.10065017271E+02  0.51100000000E-03 0. -1.
<mgrwt>
<rscale>  0 0.20000376E+02</rscale>
<asrwt>0</asrwt>
<pdfrwt beam="2">  1        1 0.13665729E-02 0.20000376E+02</pdfrwt>
<pdfrwt beam="1">  1       -1 0.17320356E-02 0.20000376E+02</pdfrwt>
<totfact> 0.38436577E+06</totfact>
</mgrwt>
</event>
<event>
 5    1  0.9583198E-007  0.2000015E+02  0.7818608E-02  0.1745325E+00
         -1   -1    0    0    0  501 -0.00000000000E+00  0.00000000000E+00  0.13420758494E+01  0.13420839745E+01  0.46700000000E-02 0. -1.
          1   -1    0    0  501    0  0.00000000000E+00 -0.00000000000E+00 -0.74512285394E+02  0.74512285540E+02  0.46700000000E-02 0.  1.
       1023    2    1    2    0    0  0.00000000000E+00  0.00000000000E+00 -0.73170209544E+02  0.75854369515E+02  0.20000145242E+02 0.  0.
        -11    1    3    3    0    0  0.55361510340E+01 -0.83277915200E+01 -0.36658284147E+02  0.37997774628E+02  0.51100000000E-03 0.  1.
         11    1    3    3    0    0 -0.55361510340E+01  0.83277915200E+01 -0.36511925398E+02  0.37856594886E+02  0.51100000000E-03 0. -1.
<mgrwt>
<rscale>  0 0.20000145E+02</rscale>
<asrwt>0</asrwt>
<pdfrwt beam="2">  1        1 0.11463426E-01 0.20000145E+02</pdfrwt>
<pdfrwt beam="1">  1       -1 0.20647390E-03 0.20000145E+02</pdfrwt>
<totfact> 0.43072775E+06</totfact>
</mgrwt>
</event>
<event>
 5    1  0.9583198E-007  0.2000266E+02  0.7818608E-02  0.1745275E+00
         -1   -1    0    0    0  501 -0.00000000000E+00  0.00000000000E+00  0.41771811239E+01  0.41771837344E+01  0.46700000000E-02 0.  1.
          1   -1    0    0  501    0  0.00000000000E+00 -0.00000000000E+00 -0.23945942237E+02  0.23945942692E+02  0.46700000000E-02 0. -1.
       1023    2    1    2    0    0  0.00000000000E+00  0.00000000000E+00 -0.19768761113E+02  0.28123126426E+02  0.20002657925E+02 0.  0.
        -11    1    3    3    0    0  0.86270572734E+01 -0.50574863149E+01 -0.10094316476E+02  0.14209134752E+02  0.51100000000E-03 0.  1.
         11    1    3    3    0    0 -0.86270572734E+01  0.50574863149E+01 -0.96744446366E+01  0.13913991674E+02  0.51100000000E-03 0. -1.
<mgrwt>
<rscale>  0 0.20002658E+02</rscale>
<asrwt>0</asrwt>
<pdfrwt beam="2">  1        1 0.36839912E-02 0.20002658E+02</pdfrwt>
<pdfrwt beam="1">  1       -1 0.64264350E-03 0.20002658E+02</pdfrwt>
<totfact> 0.40008114E+06</totfact>
</mgrwt>
</event>
<event>
 5    1  0.9583198E-007  0.2000030E+02  0.7818608E-02  0.1745322E+00
         -1   -1    0    0    0  501 -0.00000000000E+00  0.00000000000E+00  0.36311735411E+01  0.36311765441E+01  0.46700000000E-02 0.  1.
          1   -1    0    0  501    0  0.00000000000E+00 -0.00000000000E+00 -0.27540108862E+02  0.27540109258E+02  0.46700000000E-02 0. -1.
       1023    2    1    2    0    0  0.00000000000E+00  0.00000000000E+00 -0.23908935321E+02  0.31171285802E+02  0.20000296757E+02 0.  0.
        -11    1    3    3    0    0 -0.15326133596E+01  0.98818759688E+01 -0.12033799685E+02  0.15646491987E+02  0.51100000000E-03 0.  1.
         11    1    3    3    0    0  0.15326133596E+01 -0.98818759688E+01 -0.11875135636E+02  0.15524793815E+02  0.51100000000E-03 0. -1.
<mgrwt>
<rscale>  0 0.20000297E+02</rscale>
<asrwt>0</asrwt>
<pdfrwt beam="2">  1        1 0.42369399E-02 0.20000297E+02</pdfrwt>
<pdfrwt beam="1">  1       -1 0.55864236E-03 0.20000297E+02</pdfrwt>
<totfact> 0.40283064E+06</totfact>
</mgrwt>
</event>
<event>
 5    1  0.1082692E-006  0.2000121E+02  0.7818608E-02  0.1745304E+00
         -1   -1    0    0    0  501 -0.00000000000E+00  0.00000000000E+00  0.90403643251E+00  0.90404849438E+00  0.46700000000E-02 0.  1.
          1   -1    0    0  501    0  0.00000000000E+00 -0.00000000000E+00 -0.11062766860E+03  0.11062766870E+03  0.46700000000E-02 0. -1.
       1023    2    1    2    0    0  0.00000000000E+00  0.00000000000E+00 -0.10972363217E+03  0.11153171720E+03  0.20001212063E+02 0.  0.
        -11    1    3    3    0    0  0.40444929368E+01  0.91459249850E+01 -0.54420841342E+02  0.55332032671E+02  0.51100000000E-03 0. -1.
         11    1    3    3    0    0 -0.40444929368E+01 -0.91459249850E+01 -0.55302790828E+02  0.56199684524E+02  0.51100000000E-03 0.  1.
<mgrwt>
<rscale>  0 0.20001212E+02</rscale>
<asrwt>0</asrwt>
<pdfrwt beam="2">  1        1 0.17019632E-01 0.20001212E+02</pdfrwt>
<pdfrwt beam="1">  1       -1 0.13908355E-03 0.20001212E+02</pdfrwt>
<totfact> 0.44861074E+06</totfact>
</mgrwt>
</event>
<event>
 5    1  0.9583198E-007  0.2000039E+02  0.7818608E-02  0.1745320E+00
         -1   -1    0    0    0  501 -0.00000000000E+00  0.00000000000E+00  0.18213476472E+02  0.18213477071E+02  0.46700000000E-02 0.  1.
          1   -1    0    0  501    0  0.00000000000E+00 -0.00000000000E+00 -0.54906498685E+01  0.54906518545E+01  0.46700000000E-02 0. -1.
       1023    2    1    2    0    0  0.00000000000E+00  0.00000000000E+00  0.12722826604E+02  0.23704128925E+02  0.20000385279E+02 0.  0.
        -11    1    3    3    0    0 -0.41463852833E+01  0.90999156716E+01  0.64249773905E+01  0.11886181510E+02  0.51100000000E-03 0.  1.
         11    1    3    3    0    0  0.41463852833E+01 -0.90999156716E+01  0.62978492132E+01  0.11817947416E+02  0.51100000000E-03 0. -1.
<mgrwt>
<rscale>  0 0.20000385E+02</rscale>
<asrwt>0</asrwt>
<pdfrwt beam="2">  1        1 0.84471555E-03 0.20000385E+02</pdfrwt>
<pdfrwt beam="1">  1       -1 0.28020735E-02 0.20000385E+02</pdfrwt>
<totfact> 0.37600738E+06</totfact>
</mgrwt>
</event>
<event>
 5    1  0.9583198E-007  0.2000285E+02  0.7818608E-02  0.1745271E+00
          1   -1    0    0  501    0  0.00000000000E+00  0.00000000000E+00  0.25938369126E+02  0.25938369547E+02  0.46700000000E-02 0. -1.
         -1   -1    0    0    0  501 -0.00000000000E+00 -0.00000000000E+00 -0.38563894935E+01  0.38563923211E+01  0.46700000000E-02 0.  1.
       1023    2    1    2    0    0  0.00000000000E+00  0.00000000000E+00  0.22081979633E+02  0.29794761868E+02  0.20002850053E+02 0.  0.
        -11    1    3    3    0    0 -0.97121032094E+01  0.23881213833E+01  0.11010109163E+02  0.14874494160E+02  0.51100000000E-03 0.  1.
         11    1    3    3    0    0  0.97121032094E+01 -0.23881213833E+01  0.11071870470E+02  0.14920267707E+02  0.51100000000E-03 0. -1.
<mgrwt>
<rscale>  0 0.20002850E+02</rscale>
<asrwt>0</asrwt>
<pdfrwt beam="1">  1        1 0.39905187E-02 0.20002850E+02</pdfrwt>
<pdfrwt beam="2">  1       -1 0.59329092E-03 0.20002850E+02</pdfrwt>
<totfact> 0.40155841E+06</totfact>
</mgrwt>
</event>
<event>
 4    1  0.9583198E-007  0.2004268E+02  0.7818608E-02  0.1744481E+00
          1   -1    0    0  501    0  0.00000000000E+00  0.00000000000E+00  0.15875954454E+01  0.15876023139E+01  0.46700000000E-02 0. -1.
         -1   -1    0    0    0  501 -0.00000000000E+00 -0.00000000000E+00 -0.63257334047E+02  0.63257334219E+02  0.46700000000E-02 0.  1.
        -11    1    1    2    0    0 -0.36737466181E+00 -0.10012693413E+02 -0.31467954859E+02  0.33024554150E+02  0.51100000000E-03 0. -1.
         11    1    1    2    0    0  0.36737466181E+00  0.10012693413E+02 -0.30201783743E+02  0.31820382383E+02  0.51100000000E-03 0.  1.
<mgrwt>
<rscale>  0 0.20042683E+02</rscale>
<asrwt>0</asrwt>
<pdfrwt beam="1">  1        1 0.24424604E-03 0.20042683E+02</pdfrwt>
<pdfrwt beam="2">  1       -1 0.97318961E-02 0.20042683E+02</pdfrwt>
<totfact> 0.33870474E+06</totfact>
</mgrwt>
</event>
<event>
 5    1  0.9583198E-007  0.2000873E+02  0.7818608E-02  0.1745154E+00
          1   -1    0    0  501    0  0.00000000000E+00  0.00000000000E+00  0.40299156641E+02  0.40299156911E+02  0.46700000000E-02 0.  1.
         -1   -1    0    0    0  501 -0.00000000000E+00 -0.00000000000E+00 -0.24836063794E+01  0.24836107700E+01  0.46700000000E-02 0. -1.
       1023    2    1    2    0    0  0.00000000000E+00  0.00000000000E+00  0.37815550262E+02  0.42782767681E+02  0.20008732316E+02 0.  0.
        -11    1    3    3    0    0  0.67210569554E+01 -0.74102872114E+01  0.18803488347E+02  0.21299205090E+02  0.51100000000E-03 0. -1.
         11    1    3    3    0    0 -0.67210569554E+01  0.74102872114E+01  0.19012061914E+02  0.21483562592E+02  0.51100000000E-03 0.  1.
<mgrwt>
<rscale>  0 0.20008732E+02</rscale>
<asrwt>0</asrwt>
<pdfrwt beam="1">  1        1 0.61998706E-02 0.20008732E+02</pdfrwt>
<pdfrwt beam="2">  1       -1 0.38209365E-03 0.20008732E+02</pdfrwt>
<totfact> 0.41089098E+06</totfact>
</mgrwt>
</event>
<event>
 5    1  0.9583198E-007  0.2000065E+02  0.7818608E-02  0.1745315E+00
         -1   -1    0    0    0  501 -0.00000000000E+00  0.00000000000E+00  0.11661875318E+02  0.11661876253E+02  0.46700000000E-02 0. -1.
          1   -1    0    0  501    0  0.00000000000E+00 -0.00000000000E+00 -0.85755079124E+01  0.85755091840E+01  0.46700000000E-02 0.  1.
       1023    2    1    2    0    0  0.00000000000E+00  0.00000000000E+00  0.30863674052E+01  0.20237385437E+02  0.20000652628E+02 0.  0.
        -11    1    3    3    0    0  0.96169891564E+01  0.27416424665E+01  0.16025490662E+01  0.10127746424E+02  0.51100000000E-03 0. -1.
         11    1    3    3    0    0 -0.96169891564E+01 -0.27416424665E+01  0.14838183390E+01  0.10109639013E+02  0.51100000000E-03 0.  1.
<mgrwt>
<rscale>  0 0.20000653E+02</rscale>
<asrwt>0</asrwt>
<pdfrwt beam="2">  1        1 0.13193091E-02 0.20000653E+02</pdfrwt>
<pdfrwt beam="1">  1       -1 0.17941348E-02 0.20000653E+02</pdfrwt>
<totfact> 0.38379124E+06</totfact>
</mgrwt>
</event>
<event>
 5    1  0.1050181E-006  0.2000114E+02  0.7818608E-02  0.1745305E+00
         -1   -1    0    0    0  501 -0.00000000000E+00  0.00000000000E+00  0.12260354760E+01  0.12260443701E+01  0.46700000000E-02 0. -1.
          1   -1    0    0  501    0  0.00000000000E+00 -0.00000000000E+00 -0.81572697368E+02  0.81572697502E+02  0.46700000000E-02 0.  1.
       1023    2    1    2    0    0  0.00000000000E+00  0.00000000000E+00 -0.80346661892E+02  0.82798741872E+02  0.20001139427E+02 0.  0.
        -11    1    3    3    0    0 -0.22267665006E+01  0.97494644768E+01 -0.40293859427E+02  0.41516329973E+02  0.51100000000E-03 0.  1.
         11    1    3    3    0    0  0.22267665006E+01 -0.97494644768E+01 -0.40052802465E+02  0.41282411899E+02  0.51100000000E-03 0. -1.
<mgrwt>
<rscale>  0 0.20001139E+02</rscale>
<asrwt>0</asrwt>
<pdfrwt beam="2">  1        1 0.12549642E-01 0.20001139E+02</pdfrwt>
<pdfrwt beam="1">  1       -1 0.18862160E-03 0.20001139E+02</pdfrwt>
<totfact> 0.43434877E+06</totfact>
</mgrwt>
</event>
<event>
 5    1  0.9583198E-007  0.2000081E+02  0.7818608E-02  0.1745312E+00
         -1   -1    0    0    0  501 -0.00000000000E+00  0.00000000000E+00  0.10993294893E+03  0.10993294903E+03  0.46700000000E-02 0.  1.
          1   -1    0    0  501    0  0.00000000000E+00 -0.00000000000E+00 -0.90971304026E+00  0.90972502687E+00  0.46700000000E-02 0. -1.
       1023    2    1    2    0    0  0.00000000000E+00  0.00000000000E+00  0.10902323589E+03  0.11084267406E+03  0.20000810684E+02 0.  0.
        -11    1    3    3    0    0  0.65765838913E+01 -0.75334934513E+01  0.54821543207E+02  0.55726174991E+02  0.51100000000E-03 0.  1.
         11    1    3    3    0    0 -0.65765838913E+01  0.75334934513E+01  0.54201692683E+02  0.55116499065E+02  0.51100000000E-03 0. -1.
<mgrwt>
<rscale>  0 0.20000811E+02</rscale>
<asrwt>0</asrwt>
<pdfrwt beam="2">  1        1 0.13995701E-03 0.20000811E+02</pdfrwt>
<pdfrwt beam="1">  1       -1 0.16912735E-01 0.20000811E+02</pdfrwt>
<totfact> 0.31342344E+06</totfact>
</mgrwt>
</event>
<event>
 5    1  0.9842520E-007  0.2000212E+02  0.7818608E-02  0.1745286E+00
         -1   -1    0    0    0  501 -0.00000000000E+00  0.00000000000E+00  0.38658334996E+01  0.38658363203E+01  0.46700000000E-02 0. -1.
          1   -1    0    0  501    0  0.00000000000E+00 -0.00000000000E+00 -0.25873109323E+02  0.25873109744E+02  0.46700000000E-02 0.  1.
       1023    2    1    2    0    0  0.00000000000E+00  0.00000000000E+00 -0.22007275823E+02  0.29738946064E+02  0.20002117985E+02 0.  0.
        -11    1    3    3    0    0  0.25676993333E+01 -0.96656536171E+01 -0.11088280455E+02  0.14932109812E+02  0.51100000000E-03 0.  1.
         11    1    3    3    0    0 -0.25676993333E+01  0.96656536171E+01 -0.10918995368E+02  0.14806836253E+02  0.51100000000E-03 0. -1.
<mgrwt>
<rscale>  0 0.20002118E+02</rscale>
<asrwt>0</asrwt>
<pdfrwt beam="2">  1        1 0.39804785E-02 0.20002118E+02</pdfrwt>
<pdfrwt beam="1">  1       -1 0.59474388E-03 0.20002118E+02</pdfrwt>
<totfact> 0.40154346E+06</totfact>
</mgrwt>
</event>
<event>
 4    1  0.9583198E-007  0.2002709E+02  0.7818608E-02  0.1744790E+00
          1   -1    0    0  501    0  0.00000000000E+00  0.00000000000E+00  0.14205596803E+02  0.14205597571E+02  0.46700000000E-02 0.  1.
         -1   -1    0    0    0  501 -0.00000000000E+00 -0.00000000000E+00 -0.70585600635E+01  0.70585616084E+01  0.46700000000E-02 0. -1.
        -11    1    1    2    0    0  0.62501947662E+01 -0.78217824128E+01  0.34027487139E+01  0.10574682681E+02  0.51100000000E-03 0.  1.
         11    1    1    2    0    0 -0.62501947662E+01  0.78217824128E+01  0.37442880259E+01  0.10689476498E+02  0.51100000000E-03 0. -1.
<mgrwt>
<rscale>  0 0.20027090E+02</rscale>
<asrwt>0</asrwt>
<pdfrwt beam="1">  1        1 0.21854766E-02 0.20027090E+02</pdfrwt>
<pdfrwt beam="2">  1       -1 0.10859325E-02 0.20027090E+02</pdfrwt>
<totfact> 0.39041612E+06</totfact>
</mgrwt>
</event>
<event>
 5    1  0.9583198E-007  0.2000020E+02  0.7818608E-02  0.1745324E+00
          1   -1    0    0  501    0  0.00000000000E+00  0.00000000000E+00  0.19308993116E+02  0.19308993680E+02  0.46700000000E-02 0.  1.
         -1   -1    0    0    0  501 -0.00000000000E+00 -0.00000000000E+00 -0.51790358918E+01  0.51790379973E+01  0.46700000000E-02 0. -1.
       1023    2    1    2    0    0  0.00000000000E+00  0.00000000000E+00  0.14129957224E+02  0.24488031678E+02  0.20000200107E+02 0.  0.
        -11    1    3    3    0    0  0.26791438640E+01 -0.96345249706E+01  0.70517030529E+01  0.12236355645E+02  0.51100000000E-03 0.  1.
         11    1    3    3    0    0 -0.26791438640E+01  0.96345249706E+01  0.70782541710E+01  0.12251676033E+02  0.51100000000E-03 0. -1.
<mgrwt>
<rscale>  0 0.20000200E+02</rscale>
<asrwt>0</asrwt>
<pdfrwt beam="1">  1        1 0.29706145E-02 0.20000200E+02</pdfrwt>
<pdfrwt beam="2">  1       -1 0.79677496E-03 0.20000200E+02</pdfrwt>
<totfact> 0.39646455E+06</totfact>
</mgrwt>
</event>
<event>
 4    1  0.9583198E-007  0.2021835E+02  0.7818608E-02  0.1741020E+00
          1   -1    0    0  501    0  0.00000000000E+00  0.00000000000E+00  0.36990392154E+01  0.36990421633E+01  0.46700000000E-02 0. -1.
         -1   -1    0    0    0  501 -0.00000000000E+00 -0.00000000000E+00 -0.27627538281E+02  0.27627538676E+02  0.46700000000E-02 0.  1.
        -11    1    1    2    0    0  0.10101444102E+02  0.19542214839E+00 -0.12496573659E+02  0.16069900940E+02  0.51100000000E-03 0. -1.
         11    1    1    2    0    0 -0.10101444102E+02 -0.19542214839E+00 -0.11431925407E+02  0.15256679899E+02  0.51100000000E-03 0.  1.
<mgrwt>
<rscale>  0 0.20218348E+02</rscale>
<asrwt>0</asrwt>
<pdfrwt beam="1">  1        1 0.56908323E-03 0.20218348E+02</pdfrwt>
<pdfrwt beam="2">  1       -1 0.42503906E-02 0.20218348E+02</pdfrwt>
<totfact> 0.35827968E+06</totfact>
</mgrwt>
</event>
<event>
 4    1  0.9583198E-007  0.2024214E+02  0.7818608E-02  0.1740555E+00
         -1   -1    0    0    0  501 -0.00000000000E+00  0.00000000000E+00  0.17607721722E+01  0.17607783652E+01  0.46700000000E-02 0. -1.
          1   -1    0    0  501    0  0.00000000000E+00 -0.00000000000E+00 -0.58176692042E+02  0.58176692229E+02  0.46700000000E-02 0.  1.
        -11    1    1    2    0    0 -0.16734219082E+01 -0.99552331055E+01 -0.26054164981E+02  0.27941483858E+02  0.51100000000E-03 0.  1.
         11    1    1    2    0    0  0.16734219082E+01  0.99552331055E+01 -0.30361754889E+02  0.31995986737E+02  0.51100000000E-03 0. -1.
<mgrwt>
<rscale>  0 0.20242143E+02</rscale>
<asrwt>0</asrwt>
<pdfrwt beam="2">  1        1 0.89502593E-02 0.20242143E+02</pdfrwt>
<pdfrwt beam="1">  1       -1 0.27088856E-03 0.20242143E+02</pdfrwt>
<totfact> 0.41071591E+06</totfact>
</mgrwt>
</event>
<event>
 5    1  0.9583198E-007  0.2000006E+02  0.7818608E-02  0.1745327E+00
         -1   -1    0    0    0  501 -0.00000000000E+00  0.00000000000E+00  0.85127099447E+02  0.85127099575E+02  0.46700000000E-02 0.  1.
          1   -1    0    0  501    0  0.00000000000E+00 -0.00000000000E+00 -0.11747160360E+01  0.11747253186E+01  0.46700000000E-02 0. -1.
       1023    2    1    2    0    0  0.00000000000E+00  0.00000000000E+00  0.83952383411E+02  0.86301824894E+02  0.20000057489E+02 0.  0.
        -11    1    3    3    0    0 -0.81296268893E+01 -0.58232003716E+01  0.41937909699E+02  0.43113672612E+02  0.51100000000E-03 0.  1.
         11    1    3    3    0    0  0.81296268893E+01  0.58232003716E+01  0.42014473712E+02  0.43188152281E+02  0.51100000000E-03 0. -1.
<mgrwt>
<rscale>  0 0.20000057E+02</rscale>
<asrwt>0</asrwt>
<pdfrwt beam="2">  1        1 0.18072621E-03 0.20000057E+02</pdfrwt>
<pdfrwt beam="1">  1       -1 0.13096482E-01 0.20000057E+02</pdfrwt>
<totfact> 0.32694220E+06</totfact>
</mgrwt>
</event>
<event>
 5    1  0.9583198E-007  0.2000037E+02  0.7818608E-02  0.1745321E+00
          1   -1    0    0  501    0  0.00000000000E+00  0.00000000000E+00  0.87431814613E+00  0.87433061799E+00  0.46700000000E-02 0.  1.
         -1   -1    0    0    0  501 -0.00000000000E+00 -0.00000000000E+00 -0.11437820857E+03  0.11437820866E+03  0.46700000000E-02 0. -1.
       1023    2    1    2    0    0  0.00000000000E+00  0.00000000000E+00 -0.11350389042E+03  0.11525253928E+03  0.20000366744E+02 0.  0.
        -11    1    3    3    0    0  0.23843176498E+01  0.97116692803E+01 -0.56483115919E+02  0.57361519114E+02  0.51100000000E-03 0.  1.
         11    1    3    3    0    0 -0.23843176498E+01 -0.97116692803E+01 -0.57020774503E+02  0.57891020168E+02  0.51100000000E-03 0. -1.
<mgrwt>
<rscale>  0 0.20000367E+02</rscale>
<asrwt>0</asrwt>
<pdfrwt beam="1">  1        1 0.13451154E-03 0.20000367E+02</pdfrwt>
<pdfrwt beam="2">  1       -1 0.17596637E-01 0.20000367E+02</pdfrwt>
<totfact> 0.31116763E+06</totfact>
</mgrwt>
</event>
<event>
 5    1  0.1016596E-006  0.2000146E+02  0.7818608E-02  0.1745299E+00
          1   -1    0    0  501    0  0.00000000000E+00  0.00000000000E+00  0.51648351033E+02  0.51648351244E+02  0.46700000000E-02 0.  1.
         -1   -1    0    0    0  501 -0.00000000000E+00 -0.00000000000E+00 -0.19364492049E+01  0.19364548361E+01  0.46700000000E-02 0. -1.
       1023    2    1    2    0    0  0.00000000000E+00  0.00000000000E+00  0.49711901828E+02  0.53584806080E+02  0.20001456429E+02 0.  0.
        -11    1    3    3    0    0  0.17560796884E+00 -0.99985155221E+01  0.25166231976E+02  0.27080258177E+02  0.51100000000E-03 0. -1.
         11    1    3    3    0    0 -0.17560796884E+00  0.99985155221E+01  0.24545669852E+02  0.26504547903E+02  0.51100000000E-03 0.  1.
<mgrwt>
<rscale>  0 0.20001456E+02</rscale>
<asrwt>0</asrwt>
<pdfrwt beam="1">  1        1 0.79458997E-02 0.20001456E+02</pdfrwt>
<pdfrwt beam="2">  1       -1 0.29791575E-03 0.20001456E+02</pdfrwt>
<totfact> 0.41804275E+06</totfact>
</mgrwt>
</event>
<event>
 4    1  0.9583198E-007  0.2011381E+02  0.7818608E-02  0.1743074E+00
         -1   -1    0    0    0  501 -0.00000000000E+00  0.00000000000E+00  0.16242227862E+01  0.16242294999E+01  0.46700000000E-02 0.  1.
          1   -1    0    0  501    0  0.00000000000E+00 -0.00000000000E+00 -0.62270492730E+02  0.62270492905E+02  0.46700000000E-02 0. -1.
        -11    1    1    2    0    0 -0.45629237887E+01 -0.89618432588E+01 -0.30067716577E+02  0.31704928458E+02  0.51100000000E-03 0. -1.
         11    1    1    2    0    0  0.45629237887E+01  0.89618432588E+01 -0.30578553367E+02  0.32189793947E+02  0.51100000000E-03 0.  1.
<mgrwt>
<rscale>  0 0.20113813E+02</rscale>
<asrwt>0</asrwt>
<pdfrwt beam="2">  1        1 0.95800745E-02 0.20113813E+02</pdfrwt>
<pdfrwt beam="1">  1       -1 0.24988101E-03 0.20113813E+02</pdfrwt>
<totfact> 0.41882339E+06</totfact>
</mgrwt>
</event>
<event>
 5    1  0.9583198E-007  0.2000101E+02  0.7818608E-02  0.1745308E+00
          1   -1    0    0  501    0  0.00000000000E+00  0.00000000000E+00  0.18682177820E+01  0.18682236188E+01  0.46700000000E-02 0. -1.
         -1   -1    0    0    0  501 -0.00000000000E+00 -0.00000000000E+00 -0.53532286508E+02  0.53532286712E+02  0.46700000000E-02 0.  1.
       1023    2    1    2    0    0  0.00000000000E+00  0.00000000000E+00 -0.51664068726E+02  0.55400510331E+02  0.20001013663E+02 0.  0.
        -11    1    3    3    0    0  0.94921486486E+01 -0.31473292335E+01 -0.25666550067E+02  0.27545931821E+02  0.51100000000E-03 0.  1.
         11    1    3    3    0    0 -0.94921486486E+01  0.31473292335E+01 -0.25997518659E+02  0.27854578510E+02  0.51100000000E-03 0. -1.
<mgrwt>
<rscale>  0 0.20001014E+02</rscale>
<asrwt>0</asrwt>
<pdfrwt beam="1">  1        1 0.28741863E-03 0.20001014E+02</pdfrwt>
<pdfrwt beam="2">  1       -1 0.82357357E-02 0.20001014E+02</pdfrwt>
<totfact> 0.34677685E+06</totfact>
</mgrwt>
</event>
<event>
 5    1  0.1022264E-006  0.2000313E+02  0.7818608E-02  0.1745266E+00
          1   -1    0    0  501    0  0.00000000000E+00  0.00000000000E+00  0.10982470661E+03  0.10982470671E+03  0.46700000000E-02 0. -1.
         -1   -1    0    0    0  501 -0.00000000000E+00 -0.00000000000E+00 -0.91082044123E+00  0.91083241327E+00  0.46700000000E-02 0.  1.
       1023    2    1    2    0    0  0.00000000000E+00  0.00000000000E+00  0.10891388617E+03  0.11073553913E+03  0.20003125366E+02 0.  0.
        -11    1    3    3    0    0 -0.86848307023E+01  0.49601031470E+01  0.54725208124E+02  0.55631621512E+02  0.51100000000E-03 0. -1.
         11    1    3    3    0    0  0.86848307023E+01 -0.49601031470E+01  0.54188678048E+02  0.55103917614E+02  0.51100000000E-03 0.  1.
<mgrwt>
<rscale>  0 0.20003125E+02</rscale>
<asrwt>0</asrwt>
<pdfrwt beam="1">  1        1 0.16896107E-01 0.20003125E+02</pdfrwt>
<pdfrwt beam="2">  1       -1 0.14012717E-03 0.20003125E+02</pdfrwt>
<totfact> 0.44813966E+06</totfact>
</mgrwt>
</event>
<event>
 5    1  0.9583198E-007  0.2000297E+02  0.7818608E-02  0.1745269E+00
         -1   -1    0    0    0  501 -0.00000000000E+00  0.00000000000E+00  0.59718129218E+02  0.59718129401E+02  0.46700000000E-02 0.  1.
          1   -1    0    0  501    0  0.00000000000E+00 -0.00000000000E+00 -0.16750266812E+01  0.16750331913E+01  0.46700000000E-02 0. -1.
       1023    2    1    2    0    0  0.00000000000E+00  0.00000000000E+00  0.58043102537E+02  0.61393162592E+02  0.20002966303E+02 0.  0.
        -11    1    3    3    0    0  0.98653215970E+01 -0.16359242669E+01  0.28500269456E+02  0.30203744432E+02  0.51100000000E-03 0.  1.
         11    1    3    3    0    0 -0.98653215970E+01  0.16359242669E+01  0.29542833081E+02  0.31189418160E+02  0.51100000000E-03 0. -1.
<mgrwt>
<rscale>  0 0.20002966E+02</rscale>
<asrwt>0</asrwt>
<pdfrwt beam="2">  1        1 0.25769692E-03 0.20002966E+02</pdfrwt>
<pdfrwt beam="1">  1       -1 0.91874052E-02 0.20002966E+02</pdfrwt>
<totfact> 0.34250743E+06</totfact>
</mgrwt>
</event>
<event>
 5    1  0.9583198E-007  0.2000263E+02  0.7818608E-02  0.1745276E+00
          1   -1    0    0  501    0  0.00000000000E+00  0.00000000000E+00  0.15612831334E+01  0.15612901177E+01  0.46700000000E-02 0.  1.
         -1   -1    0    0    0  501 -0.00000000000E+00 -0.00000000000E+00 -0.64066566991E+02  0.64066567161E+02  0.46700000000E-02 0. -1.
       1023    2    1    2    0    0  0.00000000000E+00  0.00000000000E+00 -0.62505283858E+02  0.65627857279E+02  0.20002628350E+02 0.  0.
        -11    1    3    3    0    0  0.35758608745E+01 -0.93393423606E+01 -0.30835195280E+02  0.32416344102E+02  0.51100000000E-03 0. -1.
         11    1    3    3    0    0 -0.35758608745E+01  0.93393423606E+01 -0.31670088578E+02  0.33211513177E+02  0.51100000000E-03 0.  1.
<mgrwt>
<rscale>  0 0.20002628E+02</rscale>
<asrwt>0</asrwt>
<pdfrwt beam="1">  1        1 0.24019800E-03 0.20002628E+02</pdfrwt>
<pdfrwt beam="2">  1       -1 0.98563935E-02 0.20002628E+02</pdfrwt>
<totfact> 0.33967210E+06</totfact>
</mgrwt>
</event>
<event>
 5    1  0.9583198E-007  0.2000041E+02  0.7818608E-02  0.1745320E+00
         -1   -1    0    0    0  501 -0.00000000000E+00  0.00000000000E+00  0.25221064968E+02  0.25221065400E+02  0.46700000000E-02 0.  1.
          1   -1    0    0  501    0  0.00000000000E+00 -0.00000000000E+00 -0.39651016487E+01  0.39651043988E+01  0.46700000000E-02 0. -1.
       1023    2    1    2    0    0  0.00000000000E+00  0.00000000000E+00  0.21255963319E+02  0.29186169799E+02  0.20000413269E+02 0.  0.
        -11    1    3    3    0    0  0.38758748639E+01  0.92185518112E+01  0.10635841590E+02  0.14598809199E+02  0.51100000000E-03 0. -1.
         11    1    3    3    0    0 -0.38758748639E+01 -0.92185518112E+01  0.10620121729E+02  0.14587360599E+02  0.51100000000E-03 0.  1.
<mgrwt>
<rscale>  0 0.20000413E+02</rscale>
<asrwt>0</asrwt>
<pdfrwt beam="2">  1        1 0.61001588E-03 0.20000413E+02</pdfrwt>
<pdfrwt beam="1">  1       -1 0.38801641E-02 0.20000413E+02</pdfrwt>
<totfact> 0.36910676E+06</totfact>
</mgrwt>
</event>
<event>
 5    1  0.9583198E-007  0.2000036E+02  0.7818608E-02  0.1745321E+00
          1   -1    0    0  501    0  0.00000000000E+00  0.00000000000E+00  0.23884758727E+02  0.23884759183E+02  0.46700000000E-02 0.  1.
         -1   -1    0    0    0  501 -0.00000000000E+00 -0.00000000000E+00 -0.41869187558E+01  0.41869213602E+01  0.46700000000E-02 0. -1.
       1023    2    1    2    0    0  0.00000000000E+00  0.00000000000E+00  0.19697839971E+02  0.28071680543E+02  0.20000358722E+02 0.  0.
        -11    1    3    3    0    0  0.96874810437E+01  0.24805111832E+01  0.97675342874E+01  0.13978732096E+02  0.51100000000E-03 0. -1.
         11    1    3    3    0    0 -0.96874810437E+01 -0.24805111832E+01  0.99303056833E+01  0.14092948447E+02  0.51100000000E-03 0.  1.
<mgrwt>
<rscale>  0 0.20000359E+02</rscale>
<asrwt>0</asrwt>
<pdfrwt beam="1">  1        1 0.36745785E-02 0.20000359E+02</pdfrwt>
<pdfrwt beam="2">  1       -1 0.64414159E-03 0.20000359E+02</pdfrwt>
<totfact> 0.40013754E+06</totfact>
</mgrwt>
</event>
<event>
 5    1  0.9583198E-007  0.2000042E+02  0.7818608E-02  0.1745320E+00
          1   -1    0    0  501    0  0.00000000000E+00  0.00000000000E+00  0.87233508720E+02  0.87233508845E+02  0.46700000000E-02 0. -1.
         -1   -1    0    0    0  501 -0.00000000000E+00 -0.00000000000E+00 -0.11463919231E+01  0.11464014351E+01  0.46700000000E-02 0.  1.
       1023    2    1    2    0    0  0.00000000000E+00  0.00000000000E+00  0.86087116797E+02  0.88379910280E+02  0.20000421563E+02 0.  0.
        -11    1    3    3    0    0  0.90483610548E+01  0.42580449621E+01  0.42951847338E+02  0.44100623292E+02  0.51100000000E-03 0.  1.
         11    1    3    3    0    0 -0.90483610548E+01 -0.42580449621E+01  0.43135269459E+02  0.44279286989E+02  0.51100000000E-03 0. -1.
<mgrwt>
<rscale>  0 0.20000422E+02</rscale>
<asrwt>0</asrwt>
<pdfrwt beam="1">  1        1 0.13420535E-01 0.20000422E+02</pdfrwt>
<pdfrwt beam="2">  1       -1 0.17636881E-03 0.20000422E+02</pdfrwt>
<totfact> 0.43726653E+06</totfact>
</mgrwt>
</event>
<event>
 5    1  0.9583198E-007  0.2000030E+02  0.7818608E-02  0.1745322E+00
          1   -1    0    0  501    0  0.00000000000E+00  0.00000000000E+00  0.63307320767E+01  0.63307337991E+01  0.46700000000E-02 0. -1.
         -1   -1    0    0    0  501 -0.00000000000E+00 -0.00000000000E+00 -0.15796434389E+02  0.15796435079E+02  0.46700000000E-02 0.  1.
       1023    2    1    2    0    0  0.00000000000E+00  0.00000000000E+00 -0.94657023121E+01  0.22127168878E+02  0.20000302055E+02 0.  0.
        -11    1    3    3    0    0 -0.14202981218E+01 -0.98987571746E+01 -0.47112857933E+01  0.11054359070E+02  0.51100000000E-03 0. -1.
         11    1    3    3    0    0  0.14202981218E+01  0.98987571746E+01 -0.47544165188E+01  0.11072809808E+02  0.51100000000E-03 0.  1.
<mgrwt>
<rscale>  0 0.20000302E+02</rscale>
<asrwt>0</asrwt>
<pdfrwt beam="1">  1        1 0.97395897E-03 0.20000302E+02</pdfrwt>
<pdfrwt beam="2">  1       -1 0.24302209E-02 0.20000302E+02</pdfrwt>
<totfact> 0.37866508E+06</totfact>
</mgrwt>
</event>
<event>
 5    1  0.9632698E-007  0.2000041E+02  0.7818608E-02  0.1745320E+00
          1   -1    0    0  501    0  0.00000000000E+00  0.00000000000E+00  0.35434885602E+02  0.35434885910E+02  0.46700000000E-02 0. -1.
         -1   -1    0    0    0  501 -0.00000000000E+00 -0.00000000000E+00 -0.28221921108E+01  0.28221959747E+01  0.46700000000E-02 0.  1.
       1023    2    1    2    0    0  0.00000000000E+00  0.00000000000E+00  0.32612693491E+02  0.38257081884E+02  0.20000413435E+02 0.  0.
        -11    1    3    3    0    0 -0.78234201748E+01 -0.62288034662E+01  0.16335873383E+02  0.19153711267E+02  0.51100000000E-03 0.  1.
         11    1    3    3    0    0  0.78234201748E+01  0.62288034662E+01  0.16276820108E+02  0.19103370617E+02  0.51100000000E-03 0. -1.
<mgrwt>
<rscale>  0 0.20000413E+02</rscale>
<asrwt>0</asrwt>
<pdfrwt beam="1">  1        1 0.54515216E-02 0.20000413E+02</pdfrwt>
<pdfrwt beam="2">  1       -1 0.43418369E-03 0.20000413E+02</pdfrwt>
<totfact> 0.40817749E+06</totfact>
</mgrwt>
</event>
<event>
 5    1  0.9583198E-007  0.2000331E+02  0.7818608E-02  0.1745262E+00
         -1   -1    0    0    0  501 -0.00000000000E+00  0.00000000000E+00  0.16138507138E+02  0.16138507813E+02  0.46700000000E-02 0. -1.
          1   -1    0    0  501    0  0.00000000000E+00 -0.00000000000E+00 -0.61984096954E+01  0.61984114547E+01  0.46700000000E-02 0.  1.
       1023    2    1    2    0    0  0.00000000000E+00  0.00000000000E+00  0.99400974423E+01  0.22336919268E+02  0.20003310357E+02 0.  0.
        -11    1    3    3    0    0  0.60187559227E+01 -0.79868637727E+01  0.48215274773E+01  0.11102366561E+02  0.51100000000E-03 0.  1.
         11    1    3    3    0    0 -0.60187559227E+01  0.79868637727E+01  0.51185699651E+01  0.11234552707E+02  0.51100000000E-03 0. -1.
<mgrwt>
<rscale>  0 0.20003310E+02</rscale>
<asrwt>0</asrwt>
<pdfrwt beam="2">  1        1 0.95360169E-03 0.20003310E+02</pdfrwt>
<pdfrwt beam="1">  1       -1 0.24828474E-02 0.20003310E+02</pdfrwt>
<totfact> 0.37815256E+06</totfact>
</mgrwt>
</event>
<event>
 5    1  0.9583198E-007  0.2000069E+02  0.7818608E-02  0.1745314E+00
         -1   -1    0    0    0  501 -0.00000000000E+00  0.00000000000E+00  0.87621805362E+01  0.87621817807E+01  0.46700000000E-02 0.  1.
          1   -1    0    0  501    0  0.00000000000E+00 -0.00000000000E+00 -0.11413467155E+02  0.11413468110E+02  0.46700000000E-02 0. -1.
       1023    2    1    2    0    0  0.00000000000E+00  0.00000000000E+00 -0.26512866186E+01  0.20175649891E+02  0.20000688183E+02 0.  0.
        -11    1    3    3    0    0 -0.18328660650E+01 -0.98307899994E+01 -0.13813683830E+01  0.10095147790E+02  0.51100000000E-03 0.  1.
         11    1    3    3    0    0  0.18328660650E+01  0.98307899994E+01 -0.12699182356E+01  0.10080502101E+02  0.51100000000E-03 0. -1.
<mgrwt>
<rscale>  0 0.20000688E+02</rscale>
<asrwt>0</asrwt>
<pdfrwt beam="2">  1        1 0.17559182E-02 0.20000688E+02</pdfrwt>
<pdfrwt beam="1">  1       -1 0.13480279E-02 0.20000688E+02</pdfrwt>
<totfact> 0.38824056E+06</totfact>
</mgrwt>
</event>
<event>
 5    1  0.9583198E-007  0.2000375E+02  0.7818608E-02  0.1745253E+00
          1   -1    0    0  501    0  0.00000000000E+00  0.00000000000E+00  0.27163374312E+02  0.27163374713E+02  0.46700000000E-02 0. -1.
         -1   -1    0    0    0  501 -0.00000000000E+00 -0.00000000000E+00 -0.36828073356E+01  0.36828102965E+01  0.46700000000E-02 0.  1.
       1023    2    1    2    0    0  0.00000000000E+00  0.00000000000E+00  0.23480566976E+02  0.30846185010E+02  0.20003752251E+02 0.  0.
        -11    1    3    3    0    0  0.96893752680E+01 -0.24777947249E+01  0.11557399733E+02  0.15283878717E+02  0.51100000000E-03 0. -1.
         11    1    3    3    0    0 -0.96893752680E+01  0.24777947249E+01  0.11923167243E+02  0.15562306293E+02  0.51100000000E-03 0.  1.
<mgrwt>
<rscale>  0 0.20003752E+02</rscale>
<asrwt>0</asrwt>
<pdfrwt beam="1">  1        1 0.41789809E-02 0.20003752E+02</pdfrwt>
<pdfrwt beam="2">  1       -1 0.56658600E-03 0.20003752E+02</pdfrwt>
<totfact> 0.40240565E+06</totfact>
</mgrwt>
</event>
<event>
 5    1  0.9583198E-007  0.2000033E+02  0.7818608E-02  0.1745322E+00
          1   -1    0    0  501    0  0.00000000000E+00  0.00000000000E+00  0.30236358022E+02  0.30236358383E+02  0.46700000000E-02 0. -1.
         -1   -1    0    0    0  501 -0.00000000000E+00 -0.00000000000E+00 -0.33073832491E+01  0.33073865461E+01  0.46700000000E-02 0.  1.
       1023    2    1    2    0    0  0.00000000000E+00  0.00000000000E+00  0.26928974773E+02  0.33543744929E+02  0.20000328535E+02 0.  0.
        -11    1    3    3    0    0 -0.51012408601E+01 -0.86011523634E+01  0.13512067579E+02  0.16810069923E+02  0.51100000000E-03 0.  1.
         11    1    3    3    0    0  0.51012408601E+01  0.86011523634E+01  0.13416907194E+02  0.16733675006E+02  0.51100000000E-03 0. -1.
<mgrwt>
<rscale>  0 0.20000329E+02</rscale>
<asrwt>0</asrwt>
<pdfrwt beam="1">  1        1 0.46517476E-02 0.20000329E+02</pdfrwt>
<pdfrwt beam="2">  1       -1 0.50882848E-03 0.20000329E+02</pdfrwt>
<totfact> 0.40471454E+06</totfact>
</mgrwt>
</event>
<event>
 5    1  0.9583198E-007  0.2000199E+02  0.7818608E-02  0.1745288E+00
          1   -1    0    0  501    0  0.00000000000E+00  0.00000000000E+00  0.61247382073E+01  0.61247399877E+01  0.46700000000E-02 0.  1.
         -1   -1    0    0    0  501 -0.00000000000E+00 -0.00000000000E+00 -0.16330475174E+02  0.16330475842E+02  0.46700000000E-02 0. -1.
       1023    2    1    2    0    0  0.00000000000E+00  0.00000000000E+00 -0.10205736967E+02  0.22455215830E+02  0.20001991174E+02 0.  0.
        -11    1    3    3    0    0  0.12401361249E+00 -0.99994647186E+01 -0.52414528390E+01  0.11290593526E+02  0.51100000000E-03 0. -1.
         11    1    3    3    0    0 -0.12401361249E+00  0.99994647186E+01 -0.49642841280E+01  0.11164622304E+02  0.51100000000E-03 0.  1.
<mgrwt>
<rscale>  0 0.20001991E+02</rscale>
<asrwt>0</asrwt>
<pdfrwt beam="1">  1        1 0.94226761E-03 0.20001991E+02</pdfrwt>
<pdfrwt beam="2">  1       -1 0.25123810E-02 0.20001991E+02</pdfrwt>
<totfact> 0.37799154E+06</totfact>
</mgrwt>
</event>
<event>
 5    1  0.9583198E-007  0.2000015E+02  0.7818608E-02  0.1745325E+00
          1   -1    0    0  501    0  0.00000000000E+00  0.00000000000E+00  0.25382791048E+01  0.25382834008E+01  0.46700000000E-02 0. -1.
         -1   -1    0    0    0  501 -0.00000000000E+00 -0.00000000000E+00 -0.39397304588E+02  0.39397304864E+02  0.46700000000E-02 0.  1.
       1023    2    1    2    0    0  0.00000000000E+00  0.00000000000E+00 -0.36859025483E+02  0.41935588265E+02  0.20000145090E+02 0.  0.
        -11    1    3    3    0    0  0.49380919151E+01  0.86957491771E+01 -0.18376256309E+02  0.20920984721E+02  0.51100000000E-03 0. -1.
         11    1    3    3    0    0 -0.49380919151E+01 -0.86957491771E+01 -0.18482769174E+02  0.21014603544E+02  0.51100000000E-03 0.  1.
<mgrwt>
<rscale>  0 0.20000145E+02</rscale>
<asrwt>0</asrwt>
<pdfrwt beam="1">  1        1 0.39050486E-03 0.20000145E+02</pdfrwt>
<pdfrwt beam="2">  1       -1 0.60611237E-02 0.20000145E+02</pdfrwt>
<totfact> 0.35717357E+06</totfact>
</mgrwt>
</event>
<event>
 5    1  0.9583198E-007  0.2000003E+02  0.7818608E-02  0.1745327E+00
          1   -1    0    0  501    0  0.00000000000E+00  0.00000000000E+00  0.19311183560E+01  0.19311240027E+01  0.46700000000E-02 0. -1.
         -1   -1    0    0    0  501 -0.00000000000E+00 -0.00000000000E+00 -0.51783564841E+02  0.51783565051E+02  0.46700000000E-02 0.  1.
       1023    2    1    2    0    0  0.00000000000E+00  0.00000000000E+00 -0.49852446485E+02  0.53714689054E+02  0.20000034991E+02 0.  0.
        -11    1    3    3    0    0  0.99998664327E+01 -0.54458998750E-01 -0.24906269280E+02  0.26838825313E+02  0.51100000000E-03 0. -1.
         11    1    3    3    0    0 -0.99998664327E+01  0.54458998750E-01 -0.24946177205E+02  0.26875863741E+02  0.51100000000E-03 0.  1.
<mgrwt>
<rscale>  0 0.20000035E+02</rscale>
<asrwt>0</asrwt>
<pdfrwt beam="1">  1        1 0.29709562E-03 0.20000035E+02</pdfrwt>
<pdfrwt beam="2">  1       -1 0.79667017E-02 0.20000035E+02</pdfrwt>
<totfact> 0.34803403E+06</totfact>
</mgrwt>
</event>
<event>
 5    1  0.9583198E-007  0.2000057E+02  0.7818608E-02  0.1745317E+00
         -1   -1    0    0    0  501 -0.00000000000E+00  0.00000000000E+00  0.42993107188E+02  0.42993107441E+02  0.46700000000E-02 0. -1.
          1   -1    0    0  501    0  0.00000000000E+00 -0.00000000000E+00 -0.23260841129E+01  0.23260888008E+01  0.46700000000E-02 0.  1.
       1023    2    1    2    0    0  0.00000000000E+00  0.00000000000E+00  0.40667023075E+02  0.45319196242E+02  0.20000569548E+02 0.  0.
        -11    1    3    3    0    0 -0.77731651689E+01 -0.62915477439E+01  0.20344964513E+02  0.22669875409E+02  0.51100000000E-03 0.  1.
         11    1    3    3    0    0  0.77731651689E+01  0.62915477439E+01  0.20322058562E+02  0.22649320833E+02  0.51100000000E-03 0. -1.
<mgrwt>
<rscale>  0 0.20000570E+02</rscale>
<asrwt>0</asrwt>
<pdfrwt beam="2">  1        1 0.35785948E-03 0.20000570E+02</pdfrwt>
<pdfrwt beam="1">  1       -1 0.66143244E-02 0.20000570E+02</pdfrwt>
<totfact> 0.35440277E+06</totfact>
</mgrwt>
</event>
<event>
 5    1  0.9583198E-007  0.2000028E+02  0.7818608E-02  0.1745323E+00
          1   -1    0    0  501    0  0.00000000000E+00  0.00000000000E+00  0.50987903951E+01  0.50987925337E+01  0.46700000000E-02 0. -1.
         -1   -1    0    0    0  501 -0.00000000000E+00 -0.00000000000E+00 -0.19613037621E+02  0.19613038177E+02  0.46700000000E-02 0.  1.
       1023    2    1    2    0    0  0.00000000000E+00  0.00000000000E+00 -0.14514247226E+02  0.24711830710E+02  0.20000280111E+02 0.  0.
        -11    1    3    3    0    0  0.99806140424E+01  0.62289259802E+00 -0.73144017843E+01  0.12389557118E+02  0.51100000000E-03 0. -1.
         11    1    3    3    0    0 -0.99806140424E+01 -0.62289259802E+00 -0.71998454413E+01  0.12322273593E+02  0.51100000000E-03 0.  1.
<mgrwt>
<rscale>  0 0.20000280E+02</rscale>
<asrwt>0</asrwt>
<pdfrwt beam="1">  1        1 0.78442951E-03 0.20000280E+02</pdfrwt>
<pdfrwt beam="2">  1       -1 0.30173906E-02 0.20000280E+02</pdfrwt>
<totfact> 0.37455198E+06</totfact>
</mgrwt>
</event>
<event>
 5    1  0.9583198E-007  0.2000041E+02  0.7818608E-02  0.1745320E+00
          1   -1    0    0  501    0  0.00000000000E+00  0.00000000000E+00  0.75283175927E+01  0.75283190412E+01  0.46700000000E-02 0.  1.
         -1   -1    0    0    0  501 -0.00000000000E+00 -0.00000000000E+00 -0.13283719806E+02  0.13283720627E+02  0.46700000000E-02 0. -1.
       1023    2    1    2    0    0  0.00000000000E+00  0.00000000000E+00 -0.57554022130E+01  0.20812039668E+02  0.20000408508E+02 0.  0.
        -11    1    3    3    0    0  0.97871053267E+01  0.20528205360E+01 -0.28248253089E+01  0.10391397457E+02  0.51100000000E-03 0. -1.
         11    1    3    3    0    0 -0.97871053267E+01 -0.20528205360E+01 -0.29305769041E+01  0.10420642211E+02  0.51100000000E-03 0.  1.
<mgrwt>
<rscale>  0 0.20000409E+02</rscale>
<asrwt>0</asrwt>
<pdfrwt beam="1">  1        1 0.11582029E-02 0.20000409E+02</pdfrwt>
<pdfrwt beam="2">  1       -1 0.20436494E-02 0.20000409E+02</pdfrwt>
<totfact> 0.38166808E+06</totfact>
</mgrwt>
</event>
<event>
 5    1  0.9583198E-007  0.2000035E+02  0.7818608E-02  0.1745321E+00
          1   -1    0    0  501    0  0.00000000000E+00  0.00000000000E+00  0.11971035550E+03  0.11971035559E+03  0.46700000000E-02 0. -1.
         -1   -1    0    0    0  501 -0.00000000000E+00 -0.00000000000E+00 -0.83537226981E+00  0.83538532311E+00  0.46700000000E-02 0.  1.
       1023    2    1    2    0    0  0.00000000000E+00  0.00000000000E+00  0.11887498323E+03  0.12054574091E+03  0.20000350361E+02 0.  0.
        -11    1    3    3    0    0 -0.45826325394E+01  0.88882393866E+01  0.59155886364E+02  0.59995168240E+02  0.51100000000E-03 0.  1.
         11    1    3    3    0    0  0.45826325394E+01 -0.88882393866E+01  0.59719096864E+02  0.60550572672E+02  0.51100000000E-03 0. -1.
<mgrwt>
<rscale>  0 0.20000350E+02</rscale>
<asrwt>0</asrwt>
<pdfrwt beam="1">  1        1 0.18416980E-01 0.20000350E+02</pdfrwt>
<pdfrwt beam="2">  1       -1 0.12851981E-03 0.20000350E+02</pdfrwt>
<totfact> 0.45285347E+06</totfact>
</mgrwt>
</event>
<event>
 5    1  0.9678239E-007  0.2000083E+02  0.7818608E-02  0.1745312E+00
         -1   -1    0    0    0  501 -0.00000000000E+00  0.00000000000E+00  0.15104758231E+02  0.15104758953E+02  0.46700000000E-02 0. -1.
          1   -1    0    0  501    0  0.00000000000E+00 -0.00000000000E+00 -0.66209806765E+01  0.66209823235E+01  0.46700000000E-02 0.  1.
       1023    2    1    2    0    0  0.00000000000E+00  0.00000000000E+00  0.84837775542E+01  0.21725741276E+02  0.20000833793E+02 0.  0.
        -11    1    3    3    0    0 -0.45833391888E+01  0.88881412316E+01  0.41899626798E+01  0.10842593794E+02  0.51100000000E-03 0.  1.
         11    1    3    3    0    0  0.45833391888E+01 -0.88881412316E+01  0.42938148744E+01  0.10883147482E+02  0.51100000000E-03 0. -1.
<mgrwt>
<rscale>  0 0.20000834E+02</rscale>
<asrwt>0</asrwt>
<pdfrwt beam="2">  1        1 0.10186126E-02 0.20000834E+02</pdfrwt>
<pdfrwt beam="1">  1       -1 0.23238091E-02 0.20000834E+02</pdfrwt>
<totfact> 0.37944114E+06</totfact>
</mgrwt>
</event>
<event>
 5    1  0.9583198E-007  0.2000143E+02  0.7818608E-02  0.1745300E+00
          1   -1    0    0  501    0  0.00000000000E+00  0.00000000000E+00  0.95759829811E+00  0.95760968534E+00  0.46700000000E-02 0.  1.
         -1   -1    0    0    0  501 -0.00000000000E+00 -0.00000000000E+00 -0.10444223480E+03  0.10444223490E+03  0.46700000000E-02 0. -1.
       1023    2    1    2    0    0  0.00000000000E+00  0.00000000000E+00 -0.10348463650E+03  0.10539984459E+03  0.20001431139E+02 0.  0.
        -11    1    3    3    0    0  0.24808374832E+01 -0.96878633642E+01 -0.51367454098E+02  0.52331869754E+02  0.51100000000E-03 0. -1.
         11    1    3    3    0    0 -0.24808374832E+01  0.96878633642E+01 -0.52117182404E+02  0.53067974836E+02  0.51100000000E-03 0.  1.
<mgrwt>
<rscale>  0 0.20001431E+02</rscale>
<asrwt>0</asrwt>
<pdfrwt beam="1">  1        1 0.14732378E-03 0.20001431E+02</pdfrwt>
<pdfrwt beam="2">  1       -1 0.16068028E-01 0.20001431E+02</pdfrwt>
<totfact> 0.31626519E+06</totfact>
</mgrwt>
</event>
<event>
 5    1  0.9926973E-007  0.2000135E+02  0.7818608E-02  0.1745301E+00
         -1   -1    0    0    0  501 -0.00000000000E+00  0.00000000000E+00  0.38046368738E+01  0.38046397399E+01  0.46700000000E-02 0.  1.
          1   -1    0    0  501    0  0.00000000000E+00 -0.00000000000E+00 -0.26287243381E+02  0.26287243796E+02  0.46700000000E-02 0. -1.
       1023    2    1    2    0    0  0.00000000000E+00  0.00000000000E+00 -0.22482606507E+02  0.30091883536E+02  0.20001346439E+02 0.  0.
        -11    1    3    3    0    0 -0.63029316236E+01  0.77640969314E+01 -0.11351001009E+02  0.15127900462E+02  0.51100000000E-03 0.  1.
         11    1    3    3    0    0  0.63029316236E+01 -0.77640969314E+01 -0.11131605498E+02  0.14963983074E+02  0.51100000000E-03 0. -1.
<mgrwt>
<rscale>  0 0.20001346E+02</rscale>
<asrwt>0</asrwt>
<pdfrwt beam="2">  1        1 0.40441914E-02 0.20001346E+02</pdfrwt>
<pdfrwt beam="1">  1       -1 0.58532902E-03 0.20001346E+02</pdfrwt>
<totfact> 0.40188065E+06</totfact>
</mgrwt>
</event>
<event>
 4    1  0.9583198E-007  0.2003165E+02  0.7818608E-02  0.1744699E+00
         -1   -1    0    0    0  501 -0.00000000000E+00  0.00000000000E+00  0.45119681824E+01  0.45119705992E+01  0.46700000000E-02 0.  1.
          1   -1    0    0  501    0  0.00000000000E+00 -0.00000000000E+00 -0.22233466701E+02  0.22233467191E+02  0.46700000000E-02 0. -1.
        -11    1    1    2    0    0  0.83968136572E+00  0.99798210933E+01 -0.86981057055E+01  0.13264951450E+02  0.51100000000E-03 0.  1.
         11    1    1    2    0    0 -0.83968136572E+00 -0.99798210933E+01 -0.90233928128E+01  0.13480486340E+02  0.51100000000E-03 0. -1.
<mgrwt>
<rscale>  0 0.20031648E+02</rscale>
<asrwt>0</asrwt>
<pdfrwt beam="2">  1        1 0.34205335E-02 0.20031648E+02</pdfrwt>
<pdfrwt beam="1">  1       -1 0.69414919E-03 0.20031648E+02</pdfrwt>
<totfact> 0.39746371E+06</totfact>
</mgrwt>
</event>
<event>
 5    1  0.9583198E-007  0.2000021E+02  0.7818608E-02  0.1745324E+00
          1   -1    0    0  501    0  0.00000000000E+00  0.00000000000E+00  0.14469059285E+01  0.14469134649E+01  0.46700000000E-02 0. -1.
         -1   -1    0    0    0  501 -0.00000000000E+00 -0.00000000000E+00 -0.69114275056E+02  0.69114275214E+02  0.46700000000E-02 0.  1.
       1023    2    1    2    0    0  0.00000000000E+00  0.00000000000E+00 -0.67667369128E+02  0.70561188679E+02  0.20000212577E+02 0.  0.
        -11    1    3    3    0    0  0.76999838727E+01  0.63805968767E+01 -0.33766989665E+02  0.35216634697E+02  0.51100000000E-03 0. -1.
         11    1    3    3    0    0 -0.76999838727E+01 -0.63805968767E+01 -0.33900379463E+02  0.35344553981E+02  0.51100000000E-03 0.  1.
<mgrwt>
<rscale>  0 0.20000213E+02</rscale>
<asrwt>0</asrwt>
<pdfrwt beam="1">  1        1 0.22260156E-03 0.20000213E+02</pdfrwt>
<pdfrwt beam="2">  1       -1 0.10632963E-01 0.20000213E+02</pdfrwt>
<totfact> 0.33655029E+06</totfact>
</mgrwt>
</event>
<event>
 5    1  0.9583198E-007  0.2000024E+02  0.7818608E-02  0.1745323E+00
          1   -1    0    0  501    0  0.00000000000E+00  0.00000000000E+00  0.75055092025E+01  0.75055106553E+01  0.46700000000E-02 0. -1.
         -1   -1    0    0    0  501 -0.00000000000E+00 -0.00000000000E+00 -0.13323857688E+02  0.13323858507E+02  0.46700000000E-02 0.  1.
       1023    2    1    2    0    0  0.00000000000E+00  0.00000000000E+00 -0.58183484856E+01  0.20829369162E+02  0.20000236013E+02 0.  0.
        -11    1    3    3    0    0  0.98193763926E+01 -0.18926677574E+01 -0.29050209080E+01  0.10413524414E+02  0.51100000000E-03 0.  1.
         11    1    3    3    0    0 -0.98193763926E+01  0.18926677574E+01 -0.29133275777E+01  0.10415844748E+02  0.51100000000E-03 0. -1.
<mgrwt>
<rscale>  0 0.20000236E+02</rscale>
<asrwt>0</asrwt>
<pdfrwt beam="1">  1        1 0.11546939E-02 0.20000236E+02</pdfrwt>
<pdfrwt beam="2">  1       -1 0.20498244E-02 0.20000236E+02</pdfrwt>
<totfact> 0.38162466E+06</totfact>
</mgrwt>
</event>
<event>
 5    1  0.9583198E-007  0.2000359E+02  0.7818608E-02  0.1745257E+00
          1   -1    0    0  501    0  0.00000000000E+00  0.00000000000E+00  0.56023683374E+02  0.56023683569E+02  0.46700000000E-02 0. -1.
         -1   -1    0    0    0  501 -0.00000000000E+00 -0.00000000000E+00 -0.17855967301E+01  0.17856028370E+01  0.46700000000E-02 0.  1.
       1023    2    1    2    0    0  0.00000000000E+00  0.00000000000E+00  0.54238086644E+02  0.57809286406E+02  0.20003588477E+02 0.  0.
        -11    1    3    3    0    0 -0.88183680686E+01  0.47178387217E+01  0.26773817214E+02  0.28580743624E+02  0.51100000000E-03 0. -1.
         11    1    3    3    0    0  0.88183680686E+01 -0.47178387217E+01  0.27464269430E+02  0.29228542783E+02  0.51100000000E-03 0.  1.
<mgrwt>
<rscale>  0 0.20003588E+02</rscale>
<asrwt>0</asrwt>
<pdfrwt beam="1">  1        1 0.86190284E-02 0.20003588E+02</pdfrwt>
<pdfrwt beam="2">  1       -1 0.27470768E-03 0.20003588E+02</pdfrwt>
<totfact> 0.42045728E+06</totfact>
</mgrwt>
</event>
<event>
 5    1  0.9583198E-007  0.2000016E+02  0.7818608E-02  0.1745325E+00
          1   -1    0    0  501    0  0.00000000000E+00  0.00000000000E+00  0.21580335479E+02  0.21580335984E+02  0.46700000000E-02 0.  1.
         -1   -1    0    0    0  501 -0.00000000000E+00 -0.00000000000E+00 -0.46339201880E+01  0.46339225412E+01  0.46700000000E-02 0. -1.
       1023    2    1    2    0    0  0.00000000000E+00  0.00000000000E+00  0.16946415291E+02  0.26214258525E+02  0.20000158970E+02 0.  0.
        -11    1    3    3    0    0 -0.94182599950E+01  0.33610847615E+01  0.84301867216E+01  0.13079318045E+02  0.51100000000E-03 0.  1.
         11    1    3    3    0    0  0.94182599950E+01 -0.33610847615E+01  0.85162285692E+01  0.13134940480E+02  0.51100000000E-03 0. -1.
<mgrwt>
<rscale>  0 0.20000159E+02</rscale>
<asrwt>0</asrwt>
<pdfrwt beam="1">  1        1 0.33200519E-02 0.20000159E+02</pdfrwt>
<pdfrwt beam="2">  1       -1 0.71291100E-03 0.20000159E+02</pdfrwt>
<totfact> 0.39834731E+06</totfact>
</mgrwt>
</event>
<event>
 5    1  0.1027732E-006  0.2000301E+02  0.7818608E-02  0.1745268E+00
          1   -1    0    0  501    0  0.00000000000E+00  0.00000000000E+00  0.10758956819E+03  0.10758956829E+03  0.46700000000E-02 0. -1.
         -1   -1    0    0    0  501 -0.00000000000E+00 -0.00000000000E+00 -0.92973188593E+00  0.92974361445E+00  0.46700000000E-02 0.  1.
       1023    2    1    2    0    0  0.00000000000E+00  0.00000000000E+00  0.10665983631E+03  0.10851931191E+03  0.20003009176E+02 0.  0.
        -11    1    3    3    0    0  0.99976639720E+01  0.26334112044E+00  0.52861330840E+02  0.53799097872E+02  0.51100000000E-03 0.  1.
         11    1    3    3    0    0 -0.99976639720E+01 -0.26334112044E+00  0.53798505467E+02  0.54720214036E+02  0.51100000000E-03 0. -1.
<mgrwt>
<rscale>  0 0.20003009E+02</rscale>
<asrwt>0</asrwt>
<pdfrwt beam="1">  1        1 0.16552249E-01 0.20003009E+02</pdfrwt>
<pdfrwt beam="2">  1       -1 0.14303653E-03 0.20003009E+02</pdfrwt>
<totfact> 0.44709254E+06</totfact>
</mgrwt>
</event>
<event>
 4    1  0.1136184E-006  0.2015451E+02  0.7818608E-02  0.1742273E+00
          1   -1    0    0  501    0  0.00000000000E+00  0.00000000000E+00  0.14990567422E+01  0.14990640164E+01  0.46700000000E-02 0.  1.
         -1   -1    0    0    0  501 -0.00000000000E+00 -0.00000000000E+00 -0.67743149669E+02  0.67743149830E+02  0.46700000000E-02 0. -1.
        -11    1    1    2    0    0  0.52041139729E+01 -0.85850122808E+01 -0.30115493138E+02  0.31744734450E+02  0.51100000000E-03 0.  1.
         11    1    1    2    0    0 -0.52041139729E+01  0.85850122808E+01 -0.36128599788E+02  0.37497479396E+02  0.51100000000E-03 0. -1.
<mgrwt>
<rscale>  0 0.20154511E+02</rscale>
<asrwt>0</asrwt>
<pdfrwt beam="1">  1        1 0.23062474E-03 0.20154511E+02</pdfrwt>
<pdfrwt beam="2">  1       -1 0.10422021E-01 0.20154511E+02</pdfrwt>
<totfact> 0.33176507E+06</totfact>
</mgrwt>
</event>
<event>
 5    1  0.9583198E-007  0.2000069E+02  0.7818608E-02  0.1745314E+00
          1   -1    0    0  501    0  0.00000000000E+00  0.00000000000E+00  0.10333156078E+01  0.10333261607E+01  0.46700000000E-02 0. -1.
         -1   -1    0    0    0  501 -0.00000000000E+00 -0.00000000000E+00 -0.96781994819E+02  0.96781994931E+02  0.46700000000E-02 0.  1.
       1023    2    1    2    0    0  0.00000000000E+00  0.00000000000E+00 -0.95748679211E+02  0.97815321092E+02  0.20000686731E+02 0.  0.
        -11    1    3    3    0    0 -0.74112042237E+01  0.67139699805E+01 -0.48164753122E+02  0.49191938207E+02  0.51100000000E-03 0. -1.
         11    1    3    3    0    0  0.74112042237E+01 -0.67139699805E+01 -0.47583926089E+02  0.48623382885E+02  0.51100000000E-03 0.  1.
<mgrwt>
<rscale>  0 0.20000687E+02</rscale>
<asrwt>0</asrwt>
<pdfrwt beam="1">  1        1 0.15897253E-03 0.20000687E+02</pdfrwt>
<pdfrwt beam="2">  1       -1 0.14889531E-01 0.20000687E+02</pdfrwt>
<totfact> 0.32039449E+06</totfact>
</mgrwt>
</event>
<event>
 5    1  0.9583198E-007  0.2000057E+02  0.7818608E-02  0.1745317E+00
          1   -1    0    0  501    0  0.00000000000E+00  0.00000000000E+00  0.14159789991E+02  0.14159790761E+02  0.46700000000E-02 0. -1.
         -1   -1    0    0    0  501 -0.00000000000E+00 -0.00000000000E+00 -0.70626559371E+01  0.70626574811E+01  0.46700000000E-02 0.  1.
       1023    2    1    2    0    0  0.00000000000E+00  0.00000000000E+00  0.70971340536E+01  0.21222448242E+02  0.20000574932E+02 0.  0.
        -11    1    3    3    0    0  0.86258316391E+01 -0.50596052157E+01  0.35849043730E+01  0.10623375924E+02  0.51100000000E-03 0. -1.
         11    1    3    3    0    0 -0.86258316391E+01  0.50596052157E+01  0.35122296806E+01  0.10599072318E+02  0.51100000000E-03 0.  1.
<mgrwt>
<rscale>  0 0.20000575E+02</rscale>
<asrwt>0</asrwt>
<pdfrwt beam="1">  1        1 0.21784294E-02 0.20000575E+02</pdfrwt>
<pdfrwt beam="2">  1       -1 0.10865626E-02 0.20000575E+02</pdfrwt>
<totfact> 0.39153352E+06</totfact>
</mgrwt>
</event>
<event>
 5    1  0.9583198E-007  0.2000181E+02  0.7818608E-02  0.1745292E+00
         -1   -1    0    0    0  501 -0.00000000000E+00  0.00000000000E+00  0.43122052162E+02  0.43122052415E+02  0.46700000000E-02 0. -1.
          1   -1    0    0  501    0  0.00000000000E+00 -0.00000000000E+00 -0.23194158232E+01  0.23194205246E+01  0.46700000000E-02 0.  1.
       1023    2    1    2    0    0  0.00000000000E+00  0.00000000000E+00  0.40802636339E+02  0.45441472940E+02  0.20001808186E+02 0.  0.
        -11    1    3    3    0    0  0.41190914207E+01  0.91128248074E+01  0.20203361453E+02  0.22542987920E+02  0.51100000000E-03 0. -1.
         11    1    3    3    0    0 -0.41190914207E+01 -0.91128248074E+01  0.20599274886E+02  0.22898485019E+02  0.51100000000E-03 0.  1.
<mgrwt>
<rscale>  0 0.20001808E+02</rscale>
<asrwt>0</asrwt>
<pdfrwt beam="2">  1        1 0.35683359E-03 0.20001808E+02</pdfrwt>
<pdfrwt beam="1">  1       -1 0.66341622E-02 0.20001808E+02</pdfrwt>
<totfact> 0.35425740E+06</totfact>
</mgrwt>
</event>
<event>
 5    1  0.9583198E-007  0.2000248E+02  0.7818608E-02  0.1745279E+00
         -1   -1    0    0    0  501 -0.00000000000E+00  0.00000000000E+00  0.64062561913E+02  0.64062562083E+02  0.46700000000E-02 0. -1.
          1   -1    0    0  501    0  0.00000000000E+00 -0.00000000000E+00 -0.15613576225E+01  0.15613646064E+01  0.46700000000E-02 0.  1.
       1023    2    1    2    0    0  0.00000000000E+00  0.00000000000E+00  0.62501204291E+02  0.65623926690E+02  0.20002480256E+02 0.  0.
        -11    1    3    3    0    0 -0.99750550115E+01  0.72136773746E+00  0.31079813592E+02  0.32649301785E+02  0.51100000000E-03 0.  1.
         11    1    3    3    0    0  0.99750550115E+01 -0.72136773746E+00  0.31421390699E+02  0.32974624905E+02  0.51100000000E-03 0. -1.
<mgrwt>
<rscale>  0 0.20002480E+02</rscale>
<asrwt>0</asrwt>
<pdfrwt beam="2">  1        1 0.24020936E-03 0.20002480E+02</pdfrwt>
<pdfrwt beam="1">  1       -1 0.98557815E-02 0.20002480E+02</pdfrwt>
<totfact> 0.33968019E+06</totfact>
</mgrwt>
</event>
<event>
 5    1  0.1020430E-006  0.2000130E+02  0.7818608E-02  0.1745302E+00
         -1   -1    0    0    0  501 -0.00000000000E+00  0.00000000000E+00  0.12156846133E+01  0.12156935830E+01  0.46700000000E-02 0.  1.
          1   -1    0    0  501    0  0.00000000000E+00 -0.00000000000E+00 -0.82268599148E+02  0.82268599281E+02  0.46700000000E-02 0. -1.
       1023    2    1    2    0    0  0.00000000000E+00  0.00000000000E+00 -0.81052914535E+02  0.83484292864E+02  0.20001304966E+02 0.  0.
        -11    1    3    3    0    0  0.99272611848E+01 -0.12091778729E+01 -0.40440503601E+02  0.41658696061E+02  0.51100000000E-03 0.  1.
         11    1    3    3    0    0 -0.99272611848E+01  0.12091778729E+01 -0.40612410934E+02  0.41825596802E+02  0.51100000000E-03 0. -1.
<mgrwt>
<rscale>  0 0.20001305E+02</rscale>
<asrwt>0</asrwt>
<pdfrwt beam="2">  1        1 0.12656704E-01 0.20001305E+02</pdfrwt>
<pdfrwt beam="1">  1       -1 0.18702917E-03 0.20001305E+02</pdfrwt>
<totfact> 0.43469755E+06</totfact>
</mgrwt>
</event>
<event>
 5    1  0.9583198E-007  0.2000045E+02  0.7818608E-02  0.1745319E+00
          1   -1    0    0  501    0  0.00000000000E+00  0.00000000000E+00  0.11366219568E+03  0.11366219577E+03  0.46700000000E-02 0.  1.
         -1   -1    0    0    0  501 -0.00000000000E+00 -0.00000000000E+00 -0.87983302428E+00  0.87984541797E+00  0.46700000000E-02 0. -1.
       1023    2    1    2    0    0  0.00000000000E+00  0.00000000000E+00  0.11278236265E+03  0.11454204119E+03  0.20000446861E+02 0.  0.
        -11    1    3    3    0    0  0.99168826504E+01  0.12880266972E+01  0.56562429155E+02  0.57439637590E+02  0.51100000000E-03 0. -1.
         11    1    3    3    0    0 -0.99168826504E+01 -0.12880266972E+01  0.56219933498E+02  0.57102403602E+02  0.51100000000E-03 0.  1.
<mgrwt>
<rscale>  0 0.20000447E+02</rscale>
<asrwt>0</asrwt>
<pdfrwt beam="1">  1        1 0.17486479E-01 0.20000447E+02</pdfrwt>
<pdfrwt beam="2">  1       -1 0.13535999E-03 0.20000447E+02</pdfrwt>
<totfact> 0.45006401E+06</totfact>
</mgrwt>
</event>
<event>
 5    1  0.9583198E-007  0.2000054E+02  0.7818608E-02  0.1745317E+00
         -1   -1    0    0    0  501 -0.00000000000E+00  0.00000000000E+00  0.22559228048E+02  0.22559228532E+02  0.46700000000E-02 0. -1.
          1   -1    0    0  501    0  0.00000000000E+00 -0.00000000000E+00 -0.44330148570E+01  0.44330173168E+01  0.46700000000E-02 0.  1.
       1023    2    1    2    0    0  0.00000000000E+00  0.00000000000E+00  0.18126213191E+02  0.26992245848E+02  0.20000543275E+02 0.  0.
        -11    1    3    3    0    0 -0.34262248449E+01  0.93949543062E+01  0.91108109438E+01  0.13528158020E+02  0.51100000000E-03 0.  1.
         11    1    3    3    0    0  0.34262248449E+01 -0.93949543062E+01  0.90154022474E+01  0.13464087828E+02  0.51100000000E-03 0. -1.
<mgrwt>
<rscale>  0 0.20000543E+02</rscale>
<asrwt>0</asrwt>
<pdfrwt beam="2">  1        1 0.68200251E-03 0.20000543E+02</pdfrwt>
<pdfrwt beam="1">  1       -1 0.34706507E-02 0.20000543E+02</pdfrwt>
<totfact> 0.37161075E+06</totfact>
</mgrwt>
</event>
<event>
 5    1  0.9673853E-007  0.2000073E+02  0.7818608E-02  0.1745314E+00
          1   -1    0    0  501    0  0.00000000000E+00  0.00000000000E+00  0.41495531943E+02  0.41495532205E+02  0.46700000000E-02 0.  1.
         -1   -1    0    0    0  501 -0.00000000000E+00 -0.00000000000E+00 -0.24100706373E+01  0.24100751619E+01  0.46700000000E-02 0. -1.
       1023    2    1    2    0    0  0.00000000000E+00  0.00000000000E+00  0.39085461305E+02  0.43905607367E+02  0.20000726808E+02 0.  0.
        -11    1    3    3    0    0  0.37579663333E+01 -0.92672046366E+01  0.19679384496E+02  0.22074455082E+02  0.51100000000E-03 0. -1.
         11    1    3    3    0    0 -0.37579663333E+01  0.92672046366E+01  0.19406076809E+02  0.21831152286E+02  0.51100000000E-03 0.  1.
<mgrwt>
<rscale>  0 0.20000727E+02</rscale>
<asrwt>0</asrwt>
<pdfrwt beam="1">  1        1 0.63839288E-02 0.20000727E+02</pdfrwt>
<pdfrwt beam="2">  1       -1 0.37078044E-03 0.20000727E+02</pdfrwt>
<totfact> 0.41200023E+06</totfact>
</mgrwt>
</event>
<event>
 4    1  0.9583198E-007  0.2002065E+02  0.7818608E-02  0.1744918E+00
          1   -1    0    0  501    0  0.00000000000E+00  0.00000000000E+00  0.76738500514E+01  0.76738514724E+01  0.46700000000E-02 0. -1.
         -1   -1    0    0    0  501 -0.00000000000E+00 -0.00000000000E+00 -0.13058188196E+02  0.13058189031E+02  0.46700000000E-02 0.  1.
        -11    1    1    2    0    0 -0.76746644454E+01  0.64206403276E+01 -0.29878036741E+01  0.10442799798E+02  0.51100000000E-03 0. -1.
         11    1    1    2    0    0  0.76746644454E+01 -0.64206403276E+01 -0.23965344705E+01  0.10289240705E+02  0.51100000000E-03 0.  1.
<mgrwt>
<rscale>  0 0.20020649E+02</rscale>
<asrwt>0</asrwt>
<pdfrwt beam="1">  1        1 0.11805925E-02 0.20020649E+02</pdfrwt>
<pdfrwt beam="2">  1       -1 0.20089522E-02 0.20020649E+02</pdfrwt>
<totfact> 0.38110865E+06</totfact>
</mgrwt>
</event>
<event>
 5    1  0.9583198E-007  0.2000040E+02  0.7818608E-02  0.1745320E+00
         -1   -1    0    0    0  501 -0.00000000000E+00  0.00000000000E+00  0.41371228502E+02  0.41371228766E+02  0.46700000000E-02 0.  1.
          1   -1    0    0  501    0  0.00000000000E+00 -0.00000000000E+00 -0.24172339662E+01  0.24172384773E+01  0.46700000000E-02 0. -1.
       1023    2    1    2    0    0  0.00000000000E+00  0.00000000000E+00  0.38953994536E+02  0.43788467243E+02  0.20000404326E+02 0.  0.
        -11    1    3    3    0    0  0.24773851572E+01 -0.96882868371E+01  0.19343750901E+02  0.21775698341E+02  0.51100000000E-03 0. -1.
         11    1    3    3    0    0 -0.24773851572E+01  0.96882868371E+01  0.19610243635E+02  0.22012768902E+02  0.51100000000E-03 0.  1.
<mgrwt>
<rscale>  0 0.20000404E+02</rscale>
<asrwt>0</asrwt>
<pdfrwt beam="2">  1        1 0.37188251E-03 0.20000404E+02</pdfrwt>
<pdfrwt beam="1">  1       -1 0.63648049E-02 0.20000404E+02</pdfrwt>
<totfact> 0.35564044E+06</totfact>
</mgrwt>
</event>
<event>
 5    1  0.9583198E-007  0.2000053E+02  0.7818608E-02  0.1745317E+00
          1   -1    0    0  501    0  0.00000000000E+00  0.00000000000E+00  0.34250980243E+02  0.34250980561E+02  0.46700000000E-02 0. -1.
         -1   -1    0    0    0  501 -0.00000000000E+00 -0.00000000000E+00 -0.29197780378E+01  0.29197817725E+01  0.46700000000E-02 0.  1.
       1023    2    1    2    0    0  0.00000000000E+00  0.00000000000E+00  0.31331202205E+02  0.37170762333E+02  0.20000533514E+02 0.  0.
        -11    1    3    3    0    0 -0.81080251789E+01  0.58534517361E+01  0.15575212369E+02  0.18509192585E+02  0.51100000000E-03 0. -1.
         11    1    3    3    0    0  0.81080251789E+01 -0.58534517361E+01  0.15755989835E+02  0.18661569749E+02  0.51100000000E-03 0.  1.
<mgrwt>
<rscale>  0 0.20000534E+02</rscale>
<asrwt>0</asrwt>
<pdfrwt beam="1">  1        1 0.52693818E-02 0.20000534E+02</pdfrwt>
<pdfrwt beam="2">  1       -1 0.44919694E-03 0.20000534E+02</pdfrwt>
<totfact> 0.40739860E+06</totfact>
</mgrwt>
</event>
<event>
 5    1  0.9583198E-007  0.2000677E+02  0.7818608E-02  0.1745194E+00
         -1   -1    0    0    0  501 -0.00000000000E+00  0.00000000000E+00  0.91208663736E+01  0.91208675692E+01  0.46700000000E-02 0.  1.
          1   -1    0    0  501    0  0.00000000000E+00 -0.00000000000E+00 -0.10971290654E+02  0.10971291648E+02  0.46700000000E-02 0. -1.
       1023    2    1    2    0    0  0.00000000000E+00  0.00000000000E+00 -0.18504242803E+01  0.20092159217E+02  0.20006768654E+02 0.  0.
        -11    1    3    3    0    0  0.59417404446E+01  0.80473232201E+01 -0.98878489105E+00  0.10051934458E+02  0.51100000000E-03 0. -1.
         11    1    3    3    0    0 -0.59417404446E+01 -0.80473232201E+01 -0.86163938926E+00  0.10040224759E+02  0.51100000000E-03 0.  1.
<mgrwt>
<rscale>  0 0.20006769E+02</rscale>
<asrwt>0</asrwt>
<pdfrwt beam="2">  1        1 0.16878911E-02 0.20006769E+02</pdfrwt>
<pdfrwt beam="1">  1       -1 0.14032104E-02 0.20006769E+02</pdfrwt>
<totfact> 0.38737037E+06</totfact>
</mgrwt>
</event>
<event>
 5    1  0.9583198E-007  0.2000093E+02  0.7818608E-02  0.1745310E+00
         -1   -1    0    0    0  501 -0.00000000000E+00  0.00000000000E+00  0.96268923242E+02  0.96268923355E+02  0.46700000000E-02 0.  1.
          1   -1    0    0  501    0  0.00000000000E+00 -0.00000000000E+00 -0.10388475395E+01  0.10388580362E+01  0.46700000000E-02 0. -1.
       1023    2    1    2    0    0  0.00000000000E+00  0.00000000000E+00  0.95230075702E+02  0.97307781391E+02  0.20000925004E+02 0.  0.
        -11    1    3    3    0    0 -0.71152784669E+01 -0.70271645416E+01  0.47770482727E+02  0.48806016529E+02  0.51100000000E-03 0. -1.
         11    1    3    3    0    0  0.71152784669E+01  0.70271645416E+01  0.47459592975E+02  0.48501764863E+02  0.51100000000E-03 0.  1.
<mgrwt>
<rscale>  0 0.20000925E+02</rscale>
<asrwt>0</asrwt>
<pdfrwt beam="2">  1        1 0.15982355E-03 0.20000925E+02</pdfrwt>
<pdfrwt beam="1">  1       -1 0.14810601E-01 0.20000925E+02</pdfrwt>
<totfact> 0.32066593E+06</totfact>
</mgrwt>
</event>
<event>
 4    1  0.9583198E-007  0.2002618E+02  0.7818608E-02  0.1744808E+00
         -1   -1    0    0    0  501 -0.00000000000E+00  0.00000000000E+00  0.11421743943E+02  0.11421744897E+02  0.46700000000E-02 0.  1.
          1   -1    0    0  501    0  0.00000000000E+00 -0.00000000000E+00 -0.87781609510E+01  0.87781621932E+01  0.46700000000E-02 0. -1.
        -11    1    1    2    0    0  0.10558689909E+01 -0.99552853713E+01  0.11216706186E+01  0.10073763517E+02  0.51100000000E-03 0. -1.
         11    1    1    2    0    0 -0.10558689909E+01  0.99552853713E+01  0.15219123731E+01  0.10126143574E+02  0.51100000000E-03 0.  1.
<mgrwt>
<rscale>  0 0.20026176E+02</rscale>
<asrwt>0</asrwt>
<pdfrwt beam="2">  1        1 0.13504865E-02 0.20026176E+02</pdfrwt>
<pdfrwt beam="1">  1       -1 0.17571915E-02 0.20026176E+02</pdfrwt>
<totfact> 0.38305362E+06</totfact>
</mgrwt>
</event>
<event>
 5    1  0.9890695E-007  0.2000097E+02  0.7818608E-02  0.1745309E+00
         -1   -1    0    0    0  501 -0.00000000000E+00  0.00000000000E+00  0.39774859260E+01  0.39774886676E+01  0.46700000000E-02 0.  1.
          1   -1    0    0  501    0  0.00000000000E+00 -0.00000000000E+00 -0.25143924604E+02  0.25143925037E+02  0.46700000000E-02 0. -1.
       1023    2    1    2    0    0  0.00000000000E+00  0.00000000000E+00 -0.21166438678E+02  0.29121413705E+02  0.20000965224E+02 0.  0.
        -11    1    3    3    0    0  0.50139711392E+01 -0.86526947207E+01 -0.10619464505E+02  0.14587051078E+02  0.51100000000E-03 0. -1.
         11    1    3    3    0    0 -0.50139711392E+01  0.86526947207E+01 -0.10546974173E+02  0.14534362627E+02  0.51100000000E-03 0.  1.
<mgrwt>
<rscale>  0 0.20000965E+02</rscale>
<asrwt>0</asrwt>
<pdfrwt beam="2">  1        1 0.38682962E-02 0.20000965E+02</pdfrwt>
<pdfrwt beam="1">  1       -1 0.61192117E-03 0.20000965E+02</pdfrwt>
<totfact> 0.40105712E+06</totfact>
</mgrwt>
</event>
<event>
 5    1  0.9583198E-007  0.2000027E+02  0.7818608E-02  0.1745323E+00
         -1   -1    0    0    0  501 -0.00000000000E+00  0.00000000000E+00  0.16643483856E+02  0.16643484511E+02  0.46700000000E-02 0. -1.
          1   -1    0    0  501    0  0.00000000000E+00 -0.00000000000E+00 -0.60085206155E+01  0.60085224303E+01  0.46700000000E-02 0.  1.
       1023    2    1    2    0    0  0.00000000000E+00  0.00000000000E+00  0.10634963241E+02  0.22652006942E+02  0.20000274382E+02 0.  0.
        -11    1    3    3    0    0  0.98076581187E+01  0.19525745009E+01  0.53245203611E+01  0.11329308112E+02  0.51100000000E-03 0.  1.
         11    1    3    3    0    0 -0.98076581187E+01 -0.19525745009E+01  0.53104428796E+01  0.11322698830E+02  0.51100000000E-03 0. -1.
<mgrwt>
<rscale>  0 0.20000274E+02</rscale>
<asrwt>0</asrwt>
<pdfrwt beam="2">  1        1 0.92438798E-03 0.20000274E+02</pdfrwt>
<pdfrwt beam="1">  1       -1 0.25605362E-02 0.20000274E+02</pdfrwt>
<totfact> 0.37771377E+06</totfact>
</mgrwt>
</event>
<event>
 5    1  0.9583198E-007  0.2000011E+02  0.7818608E-02  0.1745326E+00
         -1   -1    0    0    0  501 -0.00000000000E+00  0.00000000000E+00  0.47104381648E+01  0.47104404797E+01  0.46700000000E-02 0.  1.
          1   -1    0    0  501    0  0.00000000000E+00 -0.00000000000E+00 -0.21229670203E+02  0.21229670717E+02  0.46700000000E-02 0. -1.
       1023    2    1    2    0    0  0.00000000000E+00  0.00000000000E+00 -0.16519232038E+02  0.25940111196E+02  0.20000108543E+02 0.  0.
        -11    1    3    3    0    0  0.83416902504E+01 -0.55151142749E+01 -0.82228517082E+01  0.12946643278E+02  0.51100000000E-03 0.  1.
         11    1    3    3    0    0 -0.83416902504E+01  0.55151142749E+01 -0.82963803301E+01  0.12993467918E+02  0.51100000000E-03 0. -1.
<mgrwt>
<rscale>  0 0.20000109E+02</rscale>
<asrwt>0</asrwt>
<pdfrwt beam="2">  1        1 0.32661033E-02 0.20000109E+02</pdfrwt>
<pdfrwt beam="1">  1       -1 0.72468302E-03 0.20000109E+02</pdfrwt>
<totfact> 0.39806695E+06</totfact>
</mgrwt>
</event>
<event>
 5    1  0.9583198E-007  0.2000332E+02  0.7818608E-02  0.1745262E+00
          1   -1    0    0  501    0  0.00000000000E+00  0.00000000000E+00  0.53117086818E+02  0.53117087023E+02  0.46700000000E-02 0.  1.
         -1   -1    0    0    0  501 -0.00000000000E+00 -0.00000000000E+00 -0.18832550588E+01  0.18832608490E+01  0.46700000000E-02 0. -1.
       1023    2    1    2    0    0  0.00000000000E+00  0.00000000000E+00  0.51233831759E+02  0.55000347872E+02  0.20003318458E+02 0.  0.
        -11    1    3    3    0    0  0.90612232848E+01 -0.42327625295E+01  0.25907134955E+02  0.27770518323E+02  0.51100000000E-03 0.  1.
         11    1    3    3    0    0 -0.90612232848E+01  0.42327625295E+01  0.25326696803E+02  0.27229829549E+02  0.51100000000E-03 0. -1.
<mgrwt>
<rscale>  0 0.20003318E+02</rscale>
<asrwt>0</asrwt>
<pdfrwt beam="1">  1        1 0.81718592E-02 0.20003318E+02</pdfrwt>
<pdfrwt beam="2">  1       -1 0.28973204E-03 0.20003318E+02</pdfrwt>
<totfact> 0.41880625E+06</totfact>
</mgrwt>
</event>
<event>
 4    1  0.9583198E-007  0.2002161E+02  0.7818608E-02  0.1744899E+00
         -1   -1    0    0    0  501 -0.00000000000E+00  0.00000000000E+00  0.10755847751E+01  0.10755949132E+01  0.46700000000E-02 0.  1.
          1   -1    0    0  501    0  0.00000000000E+00 -0.00000000000E+00 -0.93173232849E+02  0.93173232966E+02  0.46700000000E-02 0. -1.
        -11    1    1    2    0    0  0.72987153450E+01  0.68413144364E+01 -0.47818719630E+02  0.48853912599E+02  0.51100000000E-03 0. -1.
         11    1    1    2    0    0 -0.72987153450E+01 -0.68413144364E+01 -0.44278928444E+02  0.45394915281E+02  0.51100000000E-03 0.  1.
<mgrwt>
<rscale>  0 0.20021608E+02</rscale>
<asrwt>0</asrwt>
<pdfrwt beam="2">  1        1 0.14334338E-01 0.20021608E+02</pdfrwt>
<pdfrwt beam="1">  1       -1 0.16547544E-03 0.20021608E+02</pdfrwt>
<totfact> 0.43921093E+06</totfact>
</mgrwt>
</event>
<event>
 5    1  0.9583198E-007  0.2000103E+02  0.7818608E-02  0.1745308E+00
          1   -1    0    0  501    0  0.00000000000E+00  0.00000000000E+00  0.60655567026E+01  0.60655585003E+01  0.46700000000E-02 0. -1.
         -1   -1    0    0    0  501 -0.00000000000E+00 -0.00000000000E+00 -0.16488233573E+02  0.16488234234E+02  0.46700000000E-02 0.  1.
       1023    2    1    2    0    0  0.00000000000E+00  0.00000000000E+00 -0.10422676870E+02  0.22553792734E+02  0.20001034312E+02 0.  0.
        -11    1    3    3    0    0  0.58598656755E+01 -0.81038193994E+01 -0.52346816901E+01  0.11287683874E+02  0.51100000000E-03 0.  1.
         11    1    3    3    0    0 -0.58598656755E+01  0.81038193994E+01 -0.51879951800E+01  0.11266108860E+02  0.51100000000E-03 0. -1.
<mgrwt>
<rscale>  0 0.20001034E+02</rscale>
<asrwt>0</asrwt>
<pdfrwt beam="1">  1        1 0.93316277E-03 0.20001034E+02</pdfrwt>
<pdfrwt beam="2">  1       -1 0.25366515E-02 0.20001034E+02</pdfrwt>
<totfact> 0.37785491E+06</totfact>
</mgrwt>
</event>
<event>
 5    1  0.9953575E-007  0.2000066E+02  0.7818608E-02  0.1745315E+00
          1   -1    0    0  501    0  0.00000000000E+00  0.00000000000E+00  0.20683095194E+02  0.20683095721E+02  0.46700000000E-02 0.  1.
         -1   -1    0    0    0  501 -0.00000000000E+00 -0.00000000000E+00 -0.48351833475E+01  0.48351856027E+01  0.46700000000E-02 0. -1.
       1023    2    1    2    0    0  0.00000000000E+00  0.00000000000E+00  0.15847911846E+02  0.25518281323E+02  0.20000659285E+02 0.  0.
        -11    1    3    3    0    0 -0.77272377725E+01 -0.63474750834E+01  0.78255468457E+01  0.12698024540E+02  0.51100000000E-03 0. -1.
         11    1    3    3    0    0  0.77272377725E+01  0.63474750834E+01  0.80223650004E+01  0.12820256783E+02  0.51100000000E-03 0.  1.
<mgrwt>
<rscale>  0 0.20000659E+02</rscale>
<asrwt>0</asrwt>
<pdfrwt beam="1">  1        1 0.31820149E-02 0.20000659E+02</pdfrwt>
<pdfrwt beam="2">  1       -1 0.74387458E-03 0.20000659E+02</pdfrwt>
<totfact> 0.39759659E+06</totfact>
</mgrwt>
</event>
<event>
 5    1  0.9583198E-007  0.2000005E+02  0.7818608E-02  0.1745327E+00
          1   -1    0    0  501    0  0.00000000000E+00  0.00000000000E+00  0.71837870020E+02  0.71837870172E+02  0.46700000000E-02 0. -1.
         -1   -1    0    0    0  501 -0.00000000000E+00 -0.00000000000E+00 -0.13920267423E+01  0.13920345758E+01  0.46700000000E-02 0.  1.
       1023    2    1    2    0    0  0.00000000000E+00  0.00000000000E+00  0.70445843278E+02  0.73229904748E+02  0.20000052856E+02 0.  0.
        -11    1    3    3    0    0  0.61465288916E+01  0.78880013519E+01  0.35178747215E+02  0.36572457377E+02  0.51100000000E-03 0. -1.
         11    1    3    3    0    0 -0.61465288916E+01 -0.78880013519E+01  0.35267096063E+02  0.36657447371E+02  0.51100000000E-03 0.  1.
<mgrwt>
<rscale>  0 0.20000053E+02</rscale>
<asrwt>0</asrwt>
<pdfrwt beam="1">  1        1 0.11051983E-01 0.20000053E+02</pdfrwt>
<pdfrwt beam="2">  1       -1 0.21415852E-03 0.20000053E+02</pdfrwt>
<totfact> 0.42931784E+06</totfact>
</mgrwt>
</event>
<event>
 4    1  0.9583198E-007  0.2002024E+02  0.7818608E-02  0.1744926E+00
         -1   -1    0    0    0  501 -0.00000000000E+00  0.00000000000E+00  0.11381327597E+02  0.11381328555E+02  0.46700000000E-02 0.  1.
          1   -1    0    0  501    0  0.00000000000E+00 -0.00000000000E+00 -0.88041094021E+01  0.88041106407E+01  0.46700000000E-02 0. -1.
        -11    1    1    2    0    0 -0.83008372975E+01 -0.55919678172E+01  0.14587358714E+01  0.10114440890E+02  0.51100000000E-03 0.  1.
         11    1    1    2    0    0  0.83008372975E+01  0.55919678172E+01  0.11184823232E+01  0.10070998306E+02  0.51100000000E-03 0. -1.
<mgrwt>
<rscale>  0 0.20020237E+02</rscale>
<asrwt>0</asrwt>
<pdfrwt beam="2">  1        1 0.13544786E-02 0.20020237E+02</pdfrwt>
<pdfrwt beam="1">  1       -1 0.17509736E-02 0.20020237E+02</pdfrwt>
<totfact> 0.38335886E+06</totfact>
</mgrwt>
</event>
<event>
 5    1  0.9583198E-007  0.2000589E+02  0.7818608E-02  0.1745211E+00
          1   -1    0    0  501    0  0.00000000000E+00  0.00000000000E+00  0.43906391233E+02  0.43906391481E+02  0.46700000000E-02 0.  1.
         -1   -1    0    0    0  501 -0.00000000000E+00 -0.00000000000E+00 -0.22789124804E+01  0.22789172653E+01  0.46700000000E-02 0. -1.
       1023    2    1    2    0    0  0.00000000000E+00  0.00000000000E+00  0.41627478753E+02  0.46185308747E+02  0.20005893050E+02 0.  0.
        -11    1    3    3    0    0 -0.94949269768E+01  0.31404247387E+01  0.20334836816E+02  0.22661012653E+02  0.51100000000E-03 0. -1.
         11    1    3    3    0    0  0.94949269768E+01 -0.31404247387E+01  0.21292641936E+02  0.23524296094E+02  0.51100000000E-03 0.  1.
<mgrwt>
<rscale>  0 0.20005893E+02</rscale>
<asrwt>0</asrwt>
<pdfrwt beam="1">  1        1 0.67548300E-02 0.20005893E+02</pdfrwt>
<pdfrwt beam="2">  1       -1 0.35060230E-03 0.20005893E+02</pdfrwt>
<totfact> 0.41324069E+06</totfact>
</mgrwt>
</event>
<event>
 5    1  0.9583198E-007  0.2000461E+02  0.7818608E-02  0.1745236E+00
         -1   -1    0    0    0  501 -0.00000000000E+00  0.00000000000E+00  0.18772497378E+01  0.18772555466E+01  0.46700000000E-02 0. -1.
          1   -1    0    0  501    0  0.00000000000E+00 -0.00000000000E+00 -0.53293896173E+02  0.53293896378E+02  0.46700000000E-02 0.  1.
       1023    2    1    2    0    0  0.00000000000E+00  0.00000000000E+00 -0.51416646435E+02  0.55171151924E+02  0.20004611318E+02 0.  0.
        -11    1    3    3    0    0 -0.94109097405E+01 -0.33878656845E+01 -0.25865843765E+02  0.27732376926E+02  0.51100000000E-03 0. -1.
         11    1    3    3    0    0  0.94109097405E+01  0.33878656845E+01 -0.25550802670E+02  0.27438774998E+02  0.51100000000E-03 0.  1.
<mgrwt>
<rscale>  0 0.20004611E+02</rscale>
<asrwt>0</asrwt>
<pdfrwt beam="2">  1        1 0.81990603E-02 0.20004611E+02</pdfrwt>
<pdfrwt beam="1">  1       -1 0.28880815E-03 0.20004611E+02</pdfrwt>
<totfact> 0.41884801E+06</totfact>
</mgrwt>
</event>
<event>
 5    1  0.9583198E-007  0.2000036E+02  0.7818608E-02  0.1745321E+00
         -1   -1    0    0    0  501 -0.00000000000E+00  0.00000000000E+00  0.50012787929E+01  0.50012809732E+01  0.46700000000E-02 0.  1.
          1   -1    0    0  501    0  0.00000000000E+00 -0.00000000000E+00 -0.19995607243E+02  0.19995607788E+02  0.46700000000E-02 0. -1.
       1023    2    1    2    0    0  0.00000000000E+00  0.00000000000E+00 -0.14994328450E+02  0.24996888761E+02  0.20000364049E+02 0.  0.
        -11    1    3    3    0    0 -0.91774719979E+01  0.39717323313E+01 -0.74288197319E+01  0.12457448088E+02  0.51100000000E-03 0. -1.
         11    1    3    3    0    0  0.91774719979E+01 -0.39717323313E+01 -0.75655087177E+01  0.12539440673E+02  0.51100000000E-03 0.  1.
<mgrwt>
<rscale>  0 0.20000364E+02</rscale>
<asrwt>0</asrwt>
<pdfrwt beam="2">  1        1 0.30762474E-02 0.20000364E+02</pdfrwt>
<pdfrwt beam="1">  1       -1 0.76942773E-03 0.20000364E+02</pdfrwt>
<totfact> 0.39703914E+06</totfact>
</mgrwt>
</event>
<event>
 5    1  0.9583198E-007  0.2000049E+02  0.7818608E-02  0.1745318E+00
          1   -1    0    0  501    0  0.00000000000E+00  0.00000000000E+00  0.11506068760E+01  0.11506163530E+01  0.46700000000E-02 0.  1.
         -1   -1    0    0    0  501 -0.00000000000E+00 -0.00000000000E+00 -0.86914521796E+02  0.86914521922E+02  0.46700000000E-02 0. -1.
       1023    2    1    2    0    0  0.00000000000E+00  0.00000000000E+00 -0.85763914920E+02  0.88065138275E+02  0.20000486916E+02 0.  0.
        -11    1    3    3    0    0  0.47594959687E+01  0.87949734918E+01 -0.42782679873E+02  0.43935885766E+02  0.51100000000E-03 0. -1.
         11    1    3    3    0    0 -0.47594959687E+01 -0.87949734918E+01 -0.42981235047E+02  0.44129252509E+02  0.51100000000E-03 0.  1.
<mgrwt>
<rscale>  0 0.20000487E+02</rscale>
<asrwt>0</asrwt>
<pdfrwt beam="1">  1        1 0.17701725E-03 0.20000487E+02</pdfrwt>
<pdfrwt beam="2">  1       -1 0.13371460E-01 0.20000487E+02</pdfrwt>
<totfact> 0.32590221E+06</totfact>
</mgrwt>
</event>
<event>
 5    1  0.9583198E-007  0.2001190E+02  0.7818608E-02  0.1745092E+00
         -1   -1    0    0    0  501 -0.00000000000E+00  0.00000000000E+00  0.85388895899E+01  0.85388908669E+01  0.46700000000E-02 0.  1.
          1   -1    0    0  501    0  0.00000000000E+00 -0.00000000000E+00 -0.11725062214E+02  0.11725063144E+02  0.46700000000E-02 0. -1.
       1023    2    1    2    0    0  0.00000000000E+00  0.00000000000E+00 -0.31861726245E+01  0.20263954011E+02  0.20011899864E+02 0.  0.
        -11    1    3    3    0    0 -0.82854566713E+01 -0.56075915194E+01 -0.17536996305E+01  0.10157230801E+02  0.51100000000E-03 0.  1.
         11    1    3    3    0    0  0.82854566713E+01  0.56075915194E+01 -0.14324729940E+01  0.10106723210E+02  0.51100000000E-03 0. -1.
<mgrwt>
<rscale>  0 0.20011900E+02</rscale>
<asrwt>0</asrwt>
<pdfrwt beam="2">  1        1 0.18038559E-02 0.20011900E+02</pdfrwt>
<pdfrwt beam="1">  1       -1 0.13136755E-02 0.20011900E+02</pdfrwt>
<totfact> 0.38815939E+06</totfact>
</mgrwt>
</event>
<event>
 5    1  0.9583198E-007  0.2000022E+02  0.7818608E-02  0.1745324E+00
          1   -1    0    0  501    0  0.00000000000E+00  0.00000000000E+00  0.15339009274E+01  0.15339080363E+01  0.46700000000E-02 0. -1.
         -1   -1    0    0    0  501 -0.00000000000E+00 -0.00000000000E+00 -0.65194558784E+02  0.65194558951E+02  0.46700000000E-02 0.  1.
       1023    2    1    2    0    0  0.00000000000E+00  0.00000000000E+00 -0.63660657857E+02  0.66728466988E+02  0.20000223693E+02 0.  0.
        -11    1    3    3    0    0 -0.94332810969E+01 -0.33189512411E+01 -0.31839213057E+02  0.33372709179E+02  0.51100000000E-03 0. -1.
         11    1    3    3    0    0  0.94332810969E+01  0.33189512411E+01 -0.31821444799E+02  0.33355757808E+02  0.51100000000E-03 0.  1.
<mgrwt>
<rscale>  0 0.20000224E+02</rscale>
<asrwt>0</asrwt>
<pdfrwt beam="1">  1        1 0.23598537E-03 0.20000224E+02</pdfrwt>
<pdfrwt beam="2">  1       -1 0.10029931E-01 0.20000224E+02</pdfrwt>
<totfact> 0.33903547E+06</totfact>
</mgrwt>
</event>
<event>
 5    1  0.9593875E-007  0.2000088E+02  0.7818608E-02  0.1745311E+00
         -1   -1    0    0    0  501 -0.00000000000E+00  0.00000000000E+00  0.24440058725E+02  0.24440059171E+02  0.46700000000E-02 0.  1.
          1   -1    0    0  501    0  0.00000000000E+00 -0.00000000000E+00 -0.40920020392E+01  0.40920047040E+01  0.46700000000E-02 0. -1.
       1023    2    1    2    0    0  0.00000000000E+00  0.00000000000E+00  0.20348056685E+02  0.28532063875E+02  0.20000881433E+02 0.  0.
        -11    1    3    3    0    0 -0.88360170094E+01 -0.46832983613E+01  0.10147952416E+02  0.14247435511E+02  0.51100000000E-03 0.  1.
         11    1    3    3    0    0  0.88360170094E+01  0.46832983613E+01  0.10200104270E+02  0.14284628364E+02  0.51100000000E-03 0. -1.
<mgrwt>
<rscale>  0 0.20000881E+02</rscale>
<asrwt>0</asrwt>
<pdfrwt beam="2">  1        1 0.62953902E-03 0.20000881E+02</pdfrwt>
<pdfrwt beam="1">  1       -1 0.37600093E-02 0.20000881E+02</pdfrwt>
<totfact> 0.36981213E+06</totfact>
</mgrwt>
</event>
<event>
 4    1  0.1113403E-006  0.2040758E+02  0.7818608E-02  0.1737342E+00
         -1   -1    0    0    0  501 -0.00000000000E+00  0.00000000000E+00  0.16641717582E+01  0.16641783107E+01  0.46700000000E-02 0.  1.
          1   -1    0    0  501    0  0.00000000000E+00 -0.00000000000E+00 -0.62563942418E+02  0.62563942593E+02  0.46700000000E-02 0. -1.
        -11    1    1    2    0    0  0.10120880127E+02 -0.33811483844E+00 -0.26505333817E+02  0.28373918608E+02  0.51100000000E-03 0.  1.
         11    1    1    2    0    0 -0.10120880127E+02  0.33811483844E+00 -0.34394436843E+02  0.35854202295E+02  0.51100000000E-03 0. -1.
<mgrwt>
<rscale>  0 0.20407583E+02</rscale>
<asrwt>0</asrwt>
<pdfrwt beam="2">  1        1 0.96252206E-02 0.20407583E+02</pdfrwt>
<pdfrwt beam="1">  1       -1 0.25602699E-03 0.20407583E+02</pdfrwt>
<totfact> 0.40569221E+06</totfact>
</mgrwt>
</event>
<event>
 5    1  0.9583198E-007  0.2000029E+02  0.7818608E-02  0.1745322E+00
         -1   -1    0    0    0  501 -0.00000000000E+00  0.00000000000E+00  0.11422906537E+01  0.11423001998E+01  0.46700000000E-02 0.  1.
          1   -1    0    0  501    0  0.00000000000E+00 -0.00000000000E+00 -0.87545594679E+02  0.87545594804E+02  0.46700000000E-02 0. -1.
       1023    2    1    2    0    0  0.00000000000E+00  0.00000000000E+00 -0.86403304026E+02  0.88687895004E+02  0.20000294339E+02 0.  0.
        -11    1    3    3    0    0  0.23191169240E+01  0.97274139316E+01 -0.43402818464E+02  0.44539931926E+02  0.51100000000E-03 0. -1.
         11    1    3    3    0    0 -0.23191169240E+01 -0.97274139316E+01 -0.43000485561E+02  0.44147963077E+02  0.51100000000E-03 0.  1.
<mgrwt>
<rscale>  0 0.20000294E+02</rscale>
<asrwt>0</asrwt>
<pdfrwt beam="2">  1        1 0.13468548E-01 0.20000294E+02</pdfrwt>
<pdfrwt beam="1">  1       -1 0.17573784E-03 0.20000294E+02</pdfrwt>
<totfact> 0.43743029E+06</totfact>
</mgrwt>
</event>
<event>
 5    1  0.9583198E-007  0.2000038E+02  0.7818608E-02  0.1745321E+00
          1   -1    0    0  501    0  0.00000000000E+00  0.00000000000E+00  0.11893134472E+02  0.11893135389E+02  0.46700000000E-02 0.  1.
         -1   -1    0    0    0  501 -0.00000000000E+00 -0.00000000000E+00 -0.84085289840E+01  0.84085302809E+01  0.46700000000E-02 0. -1.
       1023    2    1    2    0    0  0.00000000000E+00  0.00000000000E+00  0.34846054877E+01  0.20301665669E+02  0.20000378835E+02 0.  0.
        -11    1    3    3    0    0 -0.82866003189E+01 -0.55978596908E+01  0.17455387827E+01  0.10151388273E+02  0.51100000000E-03 0. -1.
         11    1    3    3    0    0  0.82866003189E+01  0.55978596908E+01  0.17390667050E+01  0.10150277397E+02  0.51100000000E-03 0.  1.
<mgrwt>
<rscale>  0 0.20000379E+02</rscale>
<asrwt>0</asrwt>
<pdfrwt beam="1">  1        1 0.18297132E-02 0.20000379E+02</pdfrwt>
<pdfrwt beam="2">  1       -1 0.12936200E-02 0.20000379E+02</pdfrwt>
<totfact> 0.38888155E+06</totfact>
</mgrwt>
</event>
<event>
 5    1  0.1109299E-006  0.2000101E+02  0.7818608E-02  0.1745308E+00
          1   -1    0    0  501    0  0.00000000000E+00  0.00000000000E+00  0.11122958605E+03  0.11122958614E+03  0.46700000000E-02 0. -1.
         -1   -1    0    0    0  501 -0.00000000000E+00 -0.00000000000E+00 -0.89912560568E+00  0.89913773343E+00  0.46700000000E-02 0.  1.
       1023    2    1    2    0    0  0.00000000000E+00  0.00000000000E+00  0.11033046044E+03  0.11212872388E+03  0.20001005410E+02 0.  0.
        -11    1    3    3    0    0  0.11929024212E+01 -0.99287670800E+01  0.54709019542E+02  0.55615467736E+02  0.51100000000E-03 0. -1.
         11    1    3    3    0    0 -0.11929024212E+01  0.99287670800E+01  0.55621440897E+02  0.56513256141E+02  0.51100000000E-03 0.  1.
<mgrwt>
<rscale>  0 0.20001005E+02</rscale>
<asrwt>0</asrwt>
<pdfrwt beam="1">  1        1 0.17112238E-01 0.20001005E+02</pdfrwt>
<pdfrwt beam="2">  1       -1 0.13832801E-03 0.20001005E+02</pdfrwt>
<totfact> 0.44890271E+06</totfact>
</mgrwt>
</event>
<event>
 5    1  0.9583198E-007  0.2000055E+02  0.7818608E-02  0.1745317E+00
         -1   -1    0    0    0  501 -0.00000000000E+00  0.00000000000E+00  0.17829853268E+01  0.17829914427E+01  0.46700000000E-02 0.  1.
          1   -1    0    0  501    0  0.00000000000E+00 -0.00000000000E+00 -0.56088698540E+02  0.56088698734E+02  0.46700000000E-02 0. -1.
       1023    2    1    2    0    0  0.00000000000E+00  0.00000000000E+00 -0.54305713213E+02  0.57871690177E+02  0.20000550901E+02 0.  0.
        -11    1    3    3    0    0 -0.57082592522E+01 -0.82110308863E+01 -0.27199236156E+02  0.28979366792E+02  0.51100000000E-03 0. -1.
         11    1    3    3    0    0  0.57082592522E+01  0.82110308863E+01 -0.27106477057E+02  0.28892323385E+02  0.51100000000E-03 0.  1.
<mgrwt>
<rscale>  0 0.20000551E+02</rscale>
<asrwt>0</asrwt>
<pdfrwt beam="2">  1        1 0.86290297E-02 0.20000551E+02</pdfrwt>
<pdfrwt beam="1">  1       -1 0.27430596E-03 0.20000551E+02</pdfrwt>
<totfact> 0.42063599E+06</totfact>
</mgrwt>
</event>
<event>
 5    1  0.9583198E-007  0.2000385E+02  0.7818608E-02  0.1745252E+00
          1   -1    0    0  501    0  0.00000000000E+00  0.00000000000E+00  0.40690792785E+01  0.40690819583E+01  0.46700000000E-02 0. -1.
         -1   -1    0    0    0  501 -0.00000000000E+00 -0.00000000000E+00 -0.24585036605E+02  0.24585037048E+02  0.46700000000E-02 0.  1.
       1023    2    1    2    0    0  0.00000000000E+00  0.00000000000E+00 -0.20515957326E+02  0.28654119006E+02  0.20003850405E+02 0.  0.
        -11    1    3    3    0    0  0.37868339150E+01  0.92572223486E+01 -0.10325634034E+02  0.14375499823E+02  0.51100000000E-03 0. -1.
         11    1    3    3    0    0 -0.37868339150E+01 -0.92572223486E+01 -0.10190323292E+02  0.14278619183E+02  0.51100000000E-03 0.  1.
<mgrwt>
<rscale>  0 0.20003850E+02</rscale>
<asrwt>0</asrwt>
<pdfrwt beam="1">  1        1 0.62601245E-03 0.20003850E+02</pdfrwt>
<pdfrwt beam="2">  1       -1 0.37823135E-02 0.20003850E+02</pdfrwt>
<totfact> 0.36955633E+06</totfact>
</mgrwt>
</event>
<event>
 5    1  0.9583198E-007  0.2000275E+02  0.7818608E-02  0.1745273E+00
         -1   -1    0    0    0  501 -0.00000000000E+00  0.00000000000E+00  0.19197124111E+01  0.19197180913E+01  0.46700000000E-02 0.  1.
          1   -1    0    0  501    0  0.00000000000E+00 -0.00000000000E+00 -0.52105376923E+02  0.52105377133E+02  0.46700000000E-02 0. -1.
       1023    2    1    2    0    0  0.00000000000E+00  0.00000000000E+00 -0.50185664512E+02  0.54025095224E+02  0.20002749596E+02 0.  0.
        -11    1    3    3    0    0  0.57971384915E-01 -0.10001206541E+02 -0.25087014898E+02  0.27007143679E+02  0.51100000000E-03 0. -1.
         11    1    3    3    0    0 -0.57971384915E-01  0.10001206541E+02 -0.25098649614E+02  0.27017951545E+02  0.51100000000E-03 0.  1.
<mgrwt>
<rscale>  0 0.20002750E+02</rscale>
<asrwt>0</asrwt>
<pdfrwt beam="2">  1        1 0.80162112E-02 0.20002750E+02</pdfrwt>
<pdfrwt beam="1">  1       -1 0.29534086E-03 0.20002750E+02</pdfrwt>
<totfact> 0.41824789E+06</totfact>
</mgrwt>
</event>
<event>
 5    1  0.9862152E-007  0.2000098E+02  0.7818608E-02  0.1745309E+00
          1   -1    0    0  501    0  0.00000000000E+00  0.00000000000E+00  0.18645339929E+02  0.18645340514E+02  0.46700000000E-02 0. -1.
         -1   -1    0    0    0  501 -0.00000000000E+00 -0.00000000000E+00 -0.53637939839E+01  0.53637960168E+01  0.46700000000E-02 0.  1.
       1023    2    1    2    0    0  0.00000000000E+00  0.00000000000E+00  0.13281545945E+02  0.24009136530E+02  0.20000979332E+02 0.  0.
        -11    1    3    3    0    0 -0.85346340090E+01  0.52123358176E+01  0.66852194709E+01  0.12029155497E+02  0.51100000000E-03 0.  1.
         11    1    3    3    0    0  0.85346340090E+01 -0.52123358176E+01  0.65963264740E+01  0.11979981033E+02  0.51100000000E-03 0. -1.
<mgrwt>
<rscale>  0 0.20000979E+02</rscale>
<asrwt>0</asrwt>
<pdfrwt beam="1">  1        1 0.28685141E-02 0.20000979E+02</pdfrwt>
<pdfrwt beam="2">  1       -1 0.82519927E-03 0.20000979E+02</pdfrwt>
<totfact> 0.39585446E+06</totfact>
</mgrwt>
</event>
<event>
 5    1  0.9583198E-007  0.2000082E+02  0.7818608E-02  0.1745312E+00
         -1   -1    0    0    0  501 -0.00000000000E+00  0.00000000000E+00  0.39454968292E+02  0.39454968568E+02  0.46700000000E-02 0.  1.
          1   -1    0    0  501    0  0.00000000000E+00 -0.00000000000E+00 -0.25347409210E+01  0.25347452230E+01  0.46700000000E-02 0. -1.
       1023    2    1    2    0    0  0.00000000000E+00  0.00000000000E+00  0.36920227371E+02  0.41989713791E+02  0.20000821862E+02 0.  0.
        -11    1    3    3    0    0 -0.93533175496E+01 -0.35379499605E+01  0.18630403589E+02  0.21144587423E+02  0.51100000000E-03 0. -1.
         11    1    3    3    0    0  0.93533175496E+01  0.35379499605E+01  0.18289823782E+02  0.20845126369E+02  0.51100000000E-03 0.  1.
<mgrwt>
<rscale>  0 0.20000822E+02</rscale>
<asrwt>0</asrwt>
<pdfrwt beam="2">  1        1 0.38996051E-03 0.20000822E+02</pdfrwt>
<pdfrwt beam="1">  1       -1 0.60699953E-02 0.20000822E+02</pdfrwt>
<totfact> 0.35710213E+06</totfact>
</mgrwt>
</event>
<event>
 5    1  0.9583198E-007  0.2000071E+02  0.7818608E-02  0.1745314E+00
          1   -1    0    0  501    0  0.00000000000E+00  0.00000000000E+00  0.60976167769E+01  0.60976185652E+01  0.46700000000E-02 0.  1.
         -1   -1    0    0    0  501 -0.00000000000E+00 -0.00000000000E+00 -0.16401003885E+02  0.16401004550E+02  0.46700000000E-02 0. -1.
       1023    2    1    2    0    0  0.00000000000E+00  0.00000000000E+00 -0.10303387108E+02  0.22498623115E+02  0.20000706392E+02 0.  0.
        -11    1    3    3    0    0  0.65393769624E+01 -0.75659244935E+01 -0.51292159002E+01  0.11239017773E+02  0.51100000000E-03 0.  1.
         11    1    3    3    0    0 -0.65393769624E+01  0.75659244935E+01 -0.51741712077E+01  0.11259605341E+02  0.51100000000E-03 0. -1.
<mgrwt>
<rscale>  0 0.20000706E+02</rscale>
<asrwt>0</asrwt>
<pdfrwt beam="1">  1        1 0.93809509E-03 0.20000706E+02</pdfrwt>
<pdfrwt beam="2">  1       -1 0.25232315E-02 0.20000706E+02</pdfrwt>
<totfact> 0.37796590E+06</totfact>
</mgrwt>
</event>
<event>
 5    1  0.9583198E-007  0.2000046E+02  0.7818608E-02  0.1745319E+00
         -1   -1    0    0    0  501 -0.00000000000E+00  0.00000000000E+00  0.92769482347E+02  0.92769482464E+02  0.46700000000E-02 0.  1.
          1   -1    0    0  501    0  0.00000000000E+00 -0.00000000000E+00 -0.10779856325E+01  0.10779957480E+01  0.46700000000E-02 0. -1.
       1023    2    1    2    0    0  0.00000000000E+00  0.00000000000E+00  0.91691496714E+02  0.93847478212E+02  0.20000464922E+02 0.  0.
        -11    1    3    3    0    0  0.64191193833E+01 -0.76679271671E+01  0.46077923832E+02  0.47150580756E+02  0.51100000000E-03 0. -1.
         11    1    3    3    0    0 -0.64191193833E+01  0.76679271671E+01  0.45613572882E+02  0.46696897456E+02  0.51100000000E-03 0.  1.
<mgrwt>
<rscale>  0 0.20000465E+02</rscale>
<asrwt>0</asrwt>
<pdfrwt beam="2">  1        1 0.16584463E-03 0.20000465E+02</pdfrwt>
<pdfrwt beam="1">  1       -1 0.14272237E-01 0.20000465E+02</pdfrwt>
<totfact> 0.32260827E+06</totfact>
</mgrwt>
</event>
<event>
 5    1  0.9583198E-007  0.2000031E+02  0.7818608E-02  0.1745322E+00
         -1   -1    0    0    0  501 -0.00000000000E+00  0.00000000000E+00  0.35254111304E+01  0.35254142235E+01  0.46700000000E-02 0.  1.
          1   -1    0    0  501    0  0.00000000000E+00 -0.00000000000E+00 -0.28366342013E+02  0.28366342397E+02  0.46700000000E-02 0. -1.
       1023    2    1    2    0    0  0.00000000000E+00  0.00000000000E+00 -0.24840930882E+02  0.31891756621E+02  0.20000307329E+02 0.  0.
        -11    1    3    3    0    0 -0.56490566356E+01 -0.82517061538E+01 -0.12458792455E+02  0.15975731752E+02  0.51100000000E-03 0.  1.
         11    1    3    3    0    0  0.56490566356E+01  0.82517061538E+01 -0.12382138428E+02  0.15916024869E+02  0.51100000000E-03 0. -1.
<mgrwt>
<rscale>  0 0.20000307E+02</rscale>
<asrwt>0</asrwt>
<pdfrwt beam="2">  1        1 0.43640527E-02 0.20000307E+02</pdfrwt>
<pdfrwt beam="1">  1       -1 0.54237123E-03 0.20000307E+02</pdfrwt>
<totfact> 0.40341553E+06</totfact>
</mgrwt>
</event>
<event>
 5    1  0.1013645E-006  0.2000153E+02  0.7818608E-02  0.1745298E+00
         -1   -1    0    0    0  501 -0.00000000000E+00  0.00000000000E+00  0.70292923014E+01  0.70292938527E+01  0.46700000000E-02 0. -1.
          1   -1    0    0  501    0  0.00000000000E+00 -0.00000000000E+00 -0.14228361183E+02  0.14228361949E+02  0.46700000000E-02 0.  1.
       1023    2    1    2    0    0  0.00000000000E+00  0.00000000000E+00 -0.71990688816E+01  0.21257655802E+02  0.20001533377E+02 0.  0.
        -11    1    3    3    0    0  0.76839508354E-01  0.10000099798E+02 -0.36911687895E+01  0.10659860579E+02  0.51100000000E-03 0. -1.
         11    1    3    3    0    0 -0.76839508354E-01 -0.10000099798E+02 -0.35079000922E+01  0.10597795223E+02  0.51100000000E-03 0.  1.
<mgrwt>
<rscale>  0 0.20001533E+02</rscale>
<asrwt>0</asrwt>
<pdfrwt beam="2">  1        1 0.21889788E-02 0.20001533E+02</pdfrwt>
<pdfrwt beam="1">  1       -1 0.10814298E-02 0.20001533E+02</pdfrwt>
<totfact> 0.39156536E+06</totfact>
</mgrwt>
</event>
<event>
 5    1  0.9583198E-007  0.2000628E+02  0.7818608E-02  0.1745203E+00
          1   -1    0    0  501    0  0.00000000000E+00  0.00000000000E+00  0.48643641321E+02  0.48643641545E+02  0.46700000000E-02 0.  1.
         -1   -1    0    0    0  501 -0.00000000000E+00 -0.00000000000E+00 -0.20570554235E+01  0.20570607245E+01  0.46700000000E-02 0. -1.
       1023    2    1    2    0    0  0.00000000000E+00  0.00000000000E+00  0.46586585897E+02  0.50700702269E+02  0.20006279640E+02 0.  0.
        -11    1    3    3    0    0 -0.95688558980E+01 -0.29119702937E+01  0.23653759559E+02  0.25681567626E+02  0.51100000000E-03 0.  1.
         11    1    3    3    0    0  0.95688558980E+01  0.29119702937E+01  0.22932826338E+02  0.25019134643E+02  0.51100000000E-03 0. -1.
<mgrwt>
<rscale>  0 0.20006280E+02</rscale>
<asrwt>0</asrwt>
<pdfrwt beam="1">  1        1 0.74836376E-02 0.20006280E+02</pdfrwt>
<pdfrwt beam="2">  1       -1 0.31647049E-03 0.20006280E+02</pdfrwt>
<totfact> 0.41605966E+06</totfact>
</mgrwt>
</event>
<event>
 5    1  0.9597158E-007  0.2000310E+02  0.7818608E-02  0.1745266E+00
         -1   -1    0    0    0  501 -0.00000000000E+00  0.00000000000E+00  0.17125996791E+01  0.17126060463E+01  0.46700000000E-02 0.  1.
          1   -1    0    0  501    0  0.00000000000E+00 -0.00000000000E+00 -0.58408769635E+02  0.58408769821E+02  0.46700000000E-02 0. -1.
       1023    2    1    2    0    0  0.00000000000E+00  0.00000000000E+00 -0.56696169955E+02  0.60121375868E+02  0.20003103474E+02 0.  0.
        -11    1    3    3    0    0 -0.80361800938E+01  0.59536120699E+01 -0.28128250145E+02  0.29853377424E+02  0.51100000000E-03 0.  1.
         11    1    3    3    0    0  0.80361800938E+01 -0.59536120699E+01 -0.28567919811E+02  0.30267998443E+02  0.51100000000E-03 0. -1.
<mgrwt>
<rscale>  0 0.20003103E+02</rscale>
<asrwt>0</asrwt>
<pdfrwt beam="2">  1        1 0.89859635E-02 0.20003103E+02</pdfrwt>
<pdfrwt beam="1">  1       -1 0.26347742E-03 0.20003103E+02</pdfrwt>
<totfact> 0.42182830E+06</totfact>
</mgrwt>
</event>
<event>
 5    1  0.9583198E-007  0.2000384E+02  0.7818608E-02  0.1745252E+00
          1   -1    0    0  501    0  0.00000000000E+00  0.00000000000E+00  0.58150312147E+02  0.58150312334E+02  0.46700000000E-02 0.  1.
         -1   -1    0    0    0  501 -0.00000000000E+00 -0.00000000000E+00 -0.17203374653E+01  0.17203438038E+01  0.46700000000E-02 0. -1.
       1023    2    1    2    0    0  0.00000000000E+00  0.00000000000E+00  0.56429974681E+02  0.59870656138E+02  0.20003835229E+02 0.  0.
        -11    1    3    3    0    0 -0.99650567142E+01 -0.85678268011E+00  0.28346262739E+02  0.30059059257E+02  0.51100000000E-03 0.  1.
         11    1    3    3    0    0  0.99650567142E+01  0.85678268011E+00  0.28083711942E+02  0.29811596881E+02  0.51100000000E-03 0. -1.
<mgrwt>
<rscale>  0 0.20003835E+02</rscale>
<asrwt>0</asrwt>
<pdfrwt beam="1">  1        1 0.89462029E-02 0.20003835E+02</pdfrwt>
<pdfrwt beam="2">  1       -1 0.26466779E-03 0.20003835E+02</pdfrwt>
<totfact> 0.42164852E+06</totfact>
</mgrwt>
</event>
<event>
 5    1  0.9627451E-007  0.2000123E+02  0.7818608E-02  0.1745304E+00
         -1   -1    0    0    0  501 -0.00000000000E+00  0.00000000000E+00  0.17232053289E+02  0.17232053922E+02  0.46700000000E-02 0.  1.
          1   -1    0    0  501    0  0.00000000000E+00 -0.00000000000E+00 -0.58038486361E+01  0.58038505149E+01  0.46700000000E-02 0. -1.
       1023    2    1    2    0    0  0.00000000000E+00  0.00000000000E+00  0.11428204653E+02  0.23035904437E+02  0.20001225753E+02 0.  0.
        -11    1    3    3    0    0 -0.38895289958E+01  0.92128706292E+01  0.56188733762E+01  0.11470708754E+02  0.51100000000E-03 0.  1.
         11    1    3    3    0    0  0.38895289958E+01 -0.92128706292E+01  0.58093312770E+01  0.11565195683E+02  0.51100000000E-03 0. -1.
<mgrwt>
<rscale>  0 0.20001226E+02</rscale>
<asrwt>0</asrwt>
<pdfrwt beam="2">  1        1 0.89289999E-03 0.20001226E+02</pdfrwt>
<pdfrwt beam="1">  1       -1 0.26510853E-02 0.20001226E+02</pdfrwt>
<totfact> 0.37702728E+06</totfact>
</mgrwt>
</event>
<event>
 5    1  0.9583198E-007  0.2000058E+02  0.7818608E-02  0.1745317E+00
         -1   -1    0    0    0  501 -0.00000000000E+00  0.00000000000E+00  0.18536621992E+02  0.18536622580E+02  0.46700000000E-02 0. -1.
          1   -1    0    0  501    0  0.00000000000E+00 -0.00000000000E+00 -0.53950364200E+01  0.53950384412E+01  0.46700000000E-02 0.  1.
       1023    2    1    2    0    0  0.00000000000E+00  0.00000000000E+00  0.13141585572E+02  0.23931661022E+02  0.20000578189E+02 0.  0.
        -11    1    3    3    0    0 -0.81115086277E+01 -0.58487773220E+01  0.66088824069E+01  0.11986746652E+02  0.51100000000E-03 0. -1.
         11    1    3    3    0    0  0.81115086277E+01  0.58487773220E+01  0.65327031653E+01  0.11944914369E+02  0.51100000000E-03 0.  1.
<mgrwt>
<rscale>  0 0.20000578E+02</rscale>
<asrwt>0</asrwt>
<pdfrwt beam="2">  1        1 0.83000582E-03 0.20000578E+02</pdfrwt>
<pdfrwt beam="1">  1       -1 0.28517882E-02 0.20000578E+02</pdfrwt>
<totfact> 0.37565827E+06</totfact>
</mgrwt>
</event>
<event>
 5    1  0.1186490E-006  0.2000062E+02  0.7818608E-02  0.1745316E+00
          1   -1    0    0  501    0  0.00000000000E+00  0.00000000000E+00  0.34715065567E+02  0.34715065881E+02  0.46700000000E-02 0.  1.
         -1   -1    0    0    0  501 -0.00000000000E+00 -0.00000000000E+00 -0.28807703956E+01  0.28807741808E+01  0.46700000000E-02 0. -1.
       1023    2    1    2    0    0  0.00000000000E+00  0.00000000000E+00  0.31834295172E+02  0.37595840062E+02  0.20000621013E+02 0.  0.
        -11    1    3    3    0    0 -0.99975365975E+01 -0.22991014297E+00  0.16013239898E+02  0.18879286242E+02  0.51100000000E-03 0.  1.
         11    1    3    3    0    0  0.99975365975E+01  0.22991014297E+00  0.15821055273E+02  0.18716553821E+02  0.51100000000E-03 0. -1.
<mgrwt>
<rscale>  0 0.20000621E+02</rscale>
<asrwt>0</asrwt>
<pdfrwt beam="1">  1        1 0.53407796E-02 0.20000621E+02</pdfrwt>
<pdfrwt beam="2">  1       -1 0.44319577E-03 0.20000621E+02</pdfrwt>
<totfact> 0.40769885E+06</totfact>
</mgrwt>
</event>
<event>
 5    1  0.9647006E-007  0.2000159E+02  0.7818608E-02  0.1745297E+00
         -1   -1    0    0    0  501 -0.00000000000E+00  0.00000000000E+00  0.17442382762E+02  0.17442383387E+02  0.46700000000E-02 0. -1.
          1   -1    0    0  501    0  0.00000000000E+00 -0.00000000000E+00 -0.57340688002E+01  0.57340707019E+01  0.46700000000E-02 0.  1.
       1023    2    1    2    0    0  0.00000000000E+00  0.00000000000E+00  0.11708313962E+02  0.23176454089E+02  0.20001585145E+02 0.  0.
        -11    1    3    3    0    0  0.40789921397E+01  0.91304191008E+01  0.57214229315E+01  0.11521172269E+02  0.51100000000E-03 0. -1.
         11    1    3    3    0    0 -0.40789921397E+01 -0.91304191008E+01  0.59868910304E+01  0.11655281820E+02  0.51100000000E-03 0.  1.
<mgrwt>
<rscale>  0 0.20001585E+02</rscale>
<asrwt>0</asrwt>
<pdfrwt beam="2">  1        1 0.88216462E-03 0.20001585E+02</pdfrwt>
<pdfrwt beam="1">  1       -1 0.26834437E-02 0.20001585E+02</pdfrwt>
<totfact> 0.37678393E+06</totfact>
</mgrwt>
</event>
<event>
 5    1  0.9583198E-007  0.2000002E+02  0.7818608E-02  0.1745328E+00
         -1   -1    0    0    0  501 -0.00000000000E+00  0.00000000000E+00  0.10333277834E+02  0.10333278889E+02  0.46700000000E-02 0.  1.
          1   -1    0    0  501    0  0.00000000000E+00 -0.00000000000E+00 -0.96774858802E+01  0.96774870070E+01  0.46700000000E-02 0. -1.
       1023    2    1    2    0    0  0.00000000000E+00  0.00000000000E+00  0.65579195356E+00  0.20010765896E+02  0.20000017217E+02 0.  0.
        -11    1    3    3    0    0 -0.95932329235E+01  0.28231248439E+01  0.32341070515E+00  0.10005235957E+02  0.51100000000E-03 0.  1.
         11    1    3    3    0    0  0.95932329235E+01 -0.28231248439E+01  0.33238124841E+00  0.10005529939E+02  0.51100000000E-03 0. -1.
<mgrwt>
<rscale>  0 0.20000017E+02</rscale>
<asrwt>0</asrwt>
<pdfrwt beam="2">  1        1 0.14888441E-02 0.20000017E+02</pdfrwt>
<pdfrwt beam="1">  1       -1 0.15897352E-02 0.20000017E+02</pdfrwt>
<totfact> 0.38572942E+06</totfact>
</mgrwt>
</event>
<event>
 5    1  0.9583198E-007  0.2000039E+02  0.7818608E-02  0.1745320E+00
          1   -1    0    0  501    0  0.00000000000E+00  0.00000000000E+00  0.19350173113E+01  0.19350229466E+01  0.46700000000E-02 0.  1.
         -1   -1    0    0    0  501 -0.00000000000E+00 -0.00000000000E+00 -0.51681063383E+02  0.51681063594E+02  0.46700000000E-02 0. -1.
       1023    2    1    2    0    0  0.00000000000E+00  0.00000000000E+00 -0.49746046072E+02  0.53616086541E+02  0.20000390900E+02 0.  0.
        -11    1    3    3    0    0 -0.92462397448E+01  0.38089038044E+01 -0.24721112346E+02  0.26667097583E+02  0.51100000000E-03 0.  1.
         11    1    3    3    0    0  0.92462397448E+01 -0.38089038044E+01 -0.25024933726E+02  0.26948988958E+02  0.51100000000E-03 0. -1.
<mgrwt>
<rscale>  0 0.20000391E+02</rscale>
<asrwt>0</asrwt>
<pdfrwt beam="1">  1        1 0.29769546E-03 0.20000391E+02</pdfrwt>
<pdfrwt beam="2">  1       -1 0.79509322E-02 0.20000391E+02</pdfrwt>
<totfact> 0.34809241E+06</totfact>
</mgrwt>
</event>
<event>
 5    1  0.9583198E-007  0.2000089E+02  0.7818608E-02  0.1745310E+00
         -1   -1    0    0    0  501 -0.00000000000E+00  0.00000000000E+00  0.92602242920E+01  0.92602254696E+01  0.46700000000E-02 0. -1.
          1   -1    0    0  501    0  0.00000000000E+00 -0.00000000000E+00 -0.10799834225E+02  0.10799835235E+02  0.46700000000E-02 0.  1.
       1023    2    1    2    0    0  0.00000000000E+00  0.00000000000E+00 -0.15396099332E+01  0.20060060704E+02  0.20000890898E+02 0.  0.
        -11    1    3    3    0    0 -0.92940183211E+01  0.36914619919E+01 -0.82690076440E+00  0.10034412455E+02  0.51100000000E-03 0.  1.
         11    1    3    3    0    0  0.92940183211E+01 -0.36914619919E+01 -0.71270916879E+00  0.10025648249E+02  0.51100000000E-03 0. -1.
<mgrwt>
<rscale>  0 0.20000891E+02</rscale>
<asrwt>0</asrwt>
<pdfrwt beam="2">  1        1 0.16615131E-02 0.20000891E+02</pdfrwt>
<pdfrwt beam="1">  1       -1 0.14246501E-02 0.20000891E+02</pdfrwt>
<totfact> 0.38738648E+06</totfact>
</mgrwt>
</event>
<event>
 5    1  0.9583198E-007  0.2000040E+02  0.7818608E-02  0.1745320E+00
          1   -1    0    0  501    0  0.00000000000E+00  0.00000000000E+00  0.11734715198E+03  0.11734715207E+03  0.46700000000E-02 0.  1.
         -1   -1    0    0    0  501 -0.00000000000E+00 -0.00000000000E+00 -0.85219998652E+00  0.85221278207E+00  0.46700000000E-02 0. -1.
       1023    2    1    2    0    0  0.00000000000E+00  0.00000000000E+00  0.11649495199E+03  0.11819936485E+03  0.20000400300E+02 0.  0.
        -11    1    3    3    0    0  0.54170439026E+01  0.84058358413E+01  0.58013910301E+02  0.58869484706E+02  0.51100000000E-03 0.  1.
         11    1    3    3    0    0 -0.54170439026E+01 -0.84058358413E+01  0.58481041690E+02  0.59329880147E+02  0.51100000000E-03 0. -1.
<mgrwt>
<rscale>  0 0.20000400E+02</rscale>
<asrwt>0</asrwt>
<pdfrwt beam="1">  1        1 0.18053393E-01 0.20000400E+02</pdfrwt>
<pdfrwt beam="2">  1       -1 0.13110880E-03 0.20000400E+02</pdfrwt>
<totfact> 0.45176859E+06</totfact>
</mgrwt>
</event>
<event>
 5    1  0.9583198E-007  0.2000223E+02  0.7818608E-02  0.1745284E+00
         -1   -1    0    0    0  501 -0.00000000000E+00  0.00000000000E+00  0.63409915682E+02  0.63409915854E+02  0.46700000000E-02 0. -1.
          1   -1    0    0  501    0  0.00000000000E+00 -0.00000000000E+00 -0.15773880466E+01  0.15773949595E+01  0.46700000000E-02 0.  1.
       1023    2    1    2    0    0  0.00000000000E+00  0.00000000000E+00  0.61832527635E+02  0.64987310813E+02  0.20002227201E+02 0.  0.
        -11    1    3    3    0    0  0.44986416662E+01 -0.89314238158E+01  0.30529580962E+02  0.32125743917E+02  0.51100000000E-03 0. -1.
         11    1    3    3    0    0 -0.44986416662E+01  0.89314238158E+01  0.31302946673E+02  0.32861566897E+02  0.51100000000E-03 0.  1.
<mgrwt>
<rscale>  0 0.20002227E+02</rscale>
<asrwt>0</asrwt>
<pdfrwt beam="2">  1        1 0.24267568E-03 0.20002227E+02</pdfrwt>
<pdfrwt beam="1">  1       -1 0.97553701E-02 0.20002227E+02</pdfrwt>
<totfact> 0.34011212E+06</totfact>
</mgrwt>
</event>
<event>
 5    1  0.1003070E-006  0.2000085E+02  0.7818608E-02  0.1745311E+00
          1   -1    0    0  501    0  0.00000000000E+00  0.00000000000E+00  0.28692614202E+02  0.28692614582E+02  0.46700000000E-02 0.  1.
         -1   -1    0    0    0  501 -0.00000000000E+00 -0.00000000000E+00 -0.34855107499E+01  0.34855138784E+01  0.46700000000E-02 0. -1.
       1023    2    1    2    0    0  0.00000000000E+00  0.00000000000E+00  0.25207103452E+02  0.32178128460E+02  0.20000847151E+02 0.  0.
        -11    1    3    3    0    0 -0.67404419424E+01  0.73870542875E+01  0.12731682397E+02  0.16189436850E+02  0.51100000000E-03 0.  1.
         11    1    3    3    0    0  0.67404419424E+01 -0.73870542875E+01  0.12475421055E+02  0.15988691610E+02  0.51100000000E-03 0. -1.
<mgrwt>
<rscale>  0 0.20000847E+02</rscale>
<asrwt>0</asrwt>
<pdfrwt beam="1">  1        1 0.44142487E-02 0.20000847E+02</pdfrwt>
<pdfrwt beam="2">  1       -1 0.53623268E-03 0.20000847E+02</pdfrwt>
<totfact> 0.40362041E+06</totfact>
</mgrwt>
</event>
<event>
 5    1  0.9583198E-007  0.2000045E+02  0.7818608E-02  0.1745319E+00
          1   -1    0    0  501    0  0.00000000000E+00  0.00000000000E+00  0.66968745750E+02  0.66968745913E+02  0.46700000000E-02 0. -1.
         -1   -1    0    0    0  501 -0.00000000000E+00 -0.00000000000E+00 -0.14932976115E+01  0.14933049138E+01  0.46700000000E-02 0.  1.
       1023    2    1    2    0    0  0.00000000000E+00  0.00000000000E+00  0.65475448138E+02  0.68462050826E+02  0.20000452356E+02 0.  0.
        -11    1    3    3    0    0 -0.37136844986E+01 -0.92850059297E+01  0.32880332465E+02  0.34367412631E+02  0.51100000000E-03 0.  1.
         11    1    3    3    0    0  0.37136844986E+01  0.92850059297E+01  0.32595115673E+02  0.34094638196E+02  0.51100000000E-03 0. -1.
<mgrwt>
<rscale>  0 0.20000452E+02</rscale>
<asrwt>0</asrwt>
<pdfrwt beam="1">  1        1 0.10302885E-01 0.20000452E+02</pdfrwt>
<pdfrwt beam="2">  1       -1 0.22973867E-03 0.20000452E+02</pdfrwt>
<totfact> 0.42668232E+06</totfact>
</mgrwt>
</event>
<event>
 5    1  0.9583198E-007  0.2000011E+02  0.7818608E-02  0.1745326E+00
         -1   -1    0    0    0  501 -0.00000000000E+00  0.00000000000E+00  0.23610387048E+02  0.23610387510E+02  0.46700000000E-02 0.  1.
          1   -1    0    0  501    0  0.00000000000E+00 -0.00000000000E+00 -0.42354708138E+01  0.42354733884E+01  0.46700000000E-02 0. -1.
       1023    2    1    2    0    0  0.00000000000E+00  0.00000000000E+00  0.19374916235E+02  0.27845860899E+02  0.20000114752E+02 0.  0.
        -11    1    3    3    0    0  0.21791079490E+01  0.97597433259E+01  0.96969032235E+01  0.13929502275E+02  0.51100000000E-03 0. -1.
         11    1    3    3    0    0 -0.21791079490E+01 -0.97597433259E+01  0.96780130112E+01  0.13916358624E+02  0.51100000000E-03 0.  1.
<mgrwt>
<rscale>  0 0.20000115E+02</rscale>
<asrwt>0</asrwt>
<pdfrwt beam="2">  1        1 0.65161111E-03 0.20000115E+02</pdfrwt>
<pdfrwt beam="1">  1       -1 0.36323676E-02 0.20000115E+02</pdfrwt>
<totfact> 0.37062335E+06</totfact>
</mgrwt>
</event>
<event>
 5    1  0.9583198E-007  0.2000252E+02  0.7818608E-02  0.1745278E+00
          1   -1    0    0  501    0  0.00000000000E+00  0.00000000000E+00  0.95712174877E+00  0.95713314166E+00  0.46700000000E-02 0. -1.
         -1   -1    0    0    0  501 -0.00000000000E+00 -0.00000000000E+00 -0.10450562049E+03  0.10450562059E+03  0.46700000000E-02 0.  1.
       1023    2    1    2    0    0  0.00000000000E+00  0.00000000000E+00 -0.10354849874E+03  0.10546275373E+03  0.20002520691E+02 0.  0.
        -11    1    3    3    0    0 -0.31725086745E+01  0.94834997800E+01 -0.50963781306E+02  0.51935619614E+02  0.51100000000E-03 0. -1.
         11    1    3    3    0    0  0.31725086745E+01 -0.94834997800E+01 -0.52584717433E+02  0.53527134120E+02  0.51100000000E-03 0.  1.
<mgrwt>
<rscale>  0 0.20002521E+02</rscale>
<asrwt>0</asrwt>
<pdfrwt beam="1">  1        1 0.14725047E-03 0.20002521E+02</pdfrwt>
<pdfrwt beam="2">  1       -1 0.16077780E-01 0.20002521E+02</pdfrwt>
<totfact> 0.31619405E+06</totfact>
</mgrwt>
</event>
<event>
 5    1  0.1078884E-006  0.2001020E+02  0.7818608E-02  0.1745125E+00
          1   -1    0    0  501    0  0.00000000000E+00  0.00000000000E+00  0.16628763417E+02  0.16628764073E+02  0.46700000000E-02 0. -1.
         -1   -1    0    0    0  501 -0.00000000000E+00 -0.00000000000E+00 -0.60198104203E+01  0.60198122317E+01  0.46700000000E-02 0.  1.
       1023    2    1    2    0    0  0.00000000000E+00  0.00000000000E+00  0.10608952997E+02  0.22648576304E+02  0.20010200522E+02 0.  0.
        -11    1    3    3    0    0 -0.99960740084E+01 -0.29263178676E+00  0.49557963587E+01  0.11160960835E+02  0.51100000000E-03 0.  1.
         11    1    3    3    0    0  0.99960740084E+01  0.29263178676E+00  0.56531566380E+01  0.11487615470E+02  0.51100000000E-03 0. -1.
<mgrwt>
<rscale>  0 0.20010201E+02</rscale>
<asrwt>0</asrwt>
<pdfrwt beam="1">  1        1 0.25582715E-02 0.20010201E+02</pdfrwt>
<pdfrwt beam="2">  1       -1 0.92612488E-03 0.20010201E+02</pdfrwt>
<totfact> 0.39360642E+06</totfact>
</mgrwt>
</event>
<event>
 5    1  0.9583198E-007  0.2001176E+02  0.7818608E-02  0.1745094E+00
          1   -1    0    0  501    0  0.00000000000E+00  0.00000000000E+00  0.14024803991E+01  0.14024881742E+01  0.46700000000E-02 0. -1.
         -1   -1    0    0    0  501 -0.00000000000E+00 -0.00000000000E+00 -0.71385885844E+02  0.71385885997E+02  0.46700000000E-02 0.  1.
       1023    2    1    2    0    0  0.00000000000E+00  0.00000000000E+00 -0.69983405445E+02  0.72788374171E+02  0.20011755965E+02 0.  0.
        -11    1    3    3    0    0  0.66243426325E+01  0.74979261975E+01 -0.35462886613E+02  0.36847213460E+02  0.51100000000E-03 0. -1.
         11    1    3    3    0    0 -0.66243426325E+01 -0.74979261975E+01 -0.34520518832E+02  0.35941160712E+02  0.51100000000E-03 0.  1.
<mgrwt>
<rscale>  0 0.20011756E+02</rscale>
<asrwt>0</asrwt>
<pdfrwt beam="1">  1        1 0.21576688E-03 0.20011756E+02</pdfrwt>
<pdfrwt beam="2">  1       -1 0.10982442E-01 0.20011756E+02</pdfrwt>
<totfact> 0.33471171E+06</totfact>
</mgrwt>
</event>
<event>
 5    1  0.1004645E-006  0.2000201E+02  0.7818608E-02  0.1745288E+00
         -1   -1    0    0    0  501 -0.00000000000E+00  0.00000000000E+00  0.95799770302E+00  0.95800908549E+00  0.46700000000E-02 0.  1.
          1   -1    0    0  501    0  0.00000000000E+00 -0.00000000000E+00 -0.10440470900E+03  0.10440470910E+03  0.46700000000E-02 0. -1.
       1023    2    1    2    0    0  0.00000000000E+00  0.00000000000E+00 -0.10344671129E+03  0.10536271819E+03  0.20002007554E+02 0.  0.
        -11    1    3    3    0    0  0.17438693008E+00  0.99994238526E+01 -0.51541787243E+02  0.52503092486E+02  0.51100000000E-03 0.  1.
         11    1    3    3    0    0 -0.17438693008E+00 -0.99994238526E+01 -0.51904924050E+02  0.52859625699E+02  0.51100000000E-03 0. -1.
<mgrwt>
<rscale>  0 0.20002008E+02</rscale>
<asrwt>0</asrwt>
<pdfrwt beam="2">  1        1 0.16062255E-01 0.20002008E+02</pdfrwt>
<pdfrwt beam="1">  1       -1 0.14738523E-03 0.20002008E+02</pdfrwt>
<totfact> 0.44562920E+06</totfact>
</mgrwt>
</event>
<event>
 5    1  0.9583198E-007  0.2000100E+02  0.7818608E-02  0.1745308E+00
          1   -1    0    0  501    0  0.00000000000E+00  0.00000000000E+00  0.98913765581E+01  0.98913776606E+01  0.46700000000E-02 0. -1.
         -1   -1    0    0    0  501 -0.00000000000E+00 -0.00000000000E+00 -0.10110825544E+02  0.10110826622E+02  0.46700000000E-02 0.  1.
       1023    2    1    2    0    0  0.00000000000E+00  0.00000000000E+00 -0.21944898556E+00  0.20002204283E+02  0.20001000433E+02 0.  0.
        -11    1    3    3    0    0 -0.83679373500E+01  0.54759512104E+01 -0.69882867932E-01  0.10000665029E+02  0.51100000000E-03 0. -1.
         11    1    3    3    0    0  0.83679373500E+01 -0.54759512104E+01 -0.14956611763E+00  0.10001539253E+02  0.51100000000E-03 0.  1.
<mgrwt>
<rscale>  0 0.20001000E+02</rscale>
<asrwt>0</asrwt>
<pdfrwt beam="1">  1        1 0.15217504E-02 0.20001000E+02</pdfrwt>
<pdfrwt beam="2">  1       -1 0.15555118E-02 0.20001000E+02</pdfrwt>
<totfact> 0.38602645E+06</totfact>
</mgrwt>
</event>
<event>
 5    1  0.9894157E-007  0.2000078E+02  0.7818608E-02  0.1745313E+00
         -1   -1    0    0    0  501 -0.00000000000E+00  0.00000000000E+00  0.63204007674E+01  0.63204024927E+01  0.46700000000E-02 0.  1.
          1   -1    0    0  501    0  0.00000000000E+00 -0.00000000000E+00 -0.15823007594E+02  0.15823008284E+02  0.46700000000E-02 0. -1.
       1023    2    1    2    0    0  0.00000000000E+00  0.00000000000E+00 -0.95026068271E+01  0.22143410776E+02  0.20000777592E+02 0.  0.
        -11    1    3    3    0    0  0.55480115417E+01 -0.83201661806E+01 -0.48029776241E+01  0.11093880820E+02  0.51100000000E-03 0. -1.
         11    1    3    3    0    0 -0.55480115417E+01  0.83201661806E+01 -0.46996292030E+01  0.11049529956E+02  0.51100000000E-03 0.  1.
<mgrwt>
<rscale>  0 0.20000778E+02</rscale>
<asrwt>0</asrwt>
<pdfrwt beam="2">  1        1 0.24343090E-02 0.20000778E+02</pdfrwt>
<pdfrwt beam="1">  1       -1 0.97236954E-03 0.20000778E+02</pdfrwt>
<totfact> 0.39324263E+06</totfact>
</mgrwt>
</event>
<event>
 5    1  0.9886248E-007  0.2000124E+02  0.7818608E-02  0.1745303E+00
         -1   -1    0    0    0  501 -0.00000000000E+00  0.00000000000E+00  0.25608165149E+01  0.25608207731E+01  0.46700000000E-02 0. -1.
          1   -1    0    0  501    0  0.00000000000E+00 -0.00000000000E+00 -0.39054855600E+02  0.39054855879E+02  0.46700000000E-02 0.  1.
       1023    2    1    2    0    0  0.00000000000E+00  0.00000000000E+00 -0.36494039085E+02  0.41615676652E+02  0.20001241324E+02 0.  0.
        -11    1    3    3    0    0  0.57699493145E+01  0.81680022985E+01 -0.18118141175E+02  0.20694821008E+02  0.51100000000E-03 0.  1.
         11    1    3    3    0    0 -0.57699493145E+01 -0.81680022985E+01 -0.18375897910E+02  0.20920855645E+02  0.51100000000E-03 0. -1.
<mgrwt>
<rscale>  0 0.20001241E+02</rscale>
<asrwt>0</asrwt>
<pdfrwt beam="2">  1        1 0.60084392E-02 0.20001241E+02</pdfrwt>
<pdfrwt beam="1">  1       -1 0.39397215E-03 0.20001241E+02</pdfrwt>
<totfact> 0.41045405E+06</totfact>
</mgrwt>
</event>
<event>
 5    1  0.9947853E-007  0.2000092E+02  0.7818608E-02  0.1745310E+00
          1   -1    0    0  501    0  0.00000000000E+00  0.00000000000E+00  0.25815990107E+02  0.25815990530E+02  0.46700000000E-02 0. -1.
         -1   -1    0    0    0  501 -0.00000000000E+00 -0.00000000000E+00 -0.38739222589E+01  0.38739250737E+01  0.46700000000E-02 0.  1.
       1023    2    1    2    0    0  0.00000000000E+00  0.00000000000E+00  0.21942067849E+02  0.29689915604E+02  0.20000918656E+02 0.  0.
        -11    1    3    3    0    0  0.99993830185E+01  0.14407646092E+00  0.10929903466E+02  0.14814560703E+02  0.51100000000E-03 0.  1.
         11    1    3    3    0    0 -0.99993830185E+01 -0.14407646092E+00  0.11012164382E+02  0.14875354901E+02  0.51100000000E-03 0. -1.
<mgrwt>
<rscale>  0 0.20000919E+02</rscale>
<asrwt>0</asrwt>
<pdfrwt beam="1">  1        1 0.39716911E-02 0.20000919E+02</pdfrwt>
<pdfrwt beam="2">  1       -1 0.59598828E-03 0.20000919E+02</pdfrwt>
<totfact> 0.40155542E+06</totfact>
</mgrwt>
</event>
<event>
 5    1  0.9583198E-007  0.2000035E+02  0.7818608E-02  0.1745321E+00
         -1   -1    0    0    0  501 -0.00000000000E+00  0.00000000000E+00  0.67860746209E+01  0.67860762278E+01  0.46700000000E-02 0.  1.
          1   -1    0    0  501    0  0.00000000000E+00 -0.00000000000E+00 -0.14736568266E+02  0.14736569006E+02  0.46700000000E-02 0. -1.
       1023    2    1    2    0    0  0.00000000000E+00  0.00000000000E+00 -0.79504936455E+01  0.21522645234E+02  0.20000347714E+02 0.  0.
        -11    1    3    3    0    0  0.20485367156E+01 -0.97879404589E+01 -0.40360810802E+01  0.10783794872E+02  0.51100000000E-03 0. -1.
         11    1    3    3    0    0 -0.20485367156E+01  0.97879404589E+01 -0.39144125653E+01  0.10738850362E+02  0.51100000000E-03 0.  1.
<mgrwt>
<rscale>  0 0.20000348E+02</rscale>
<asrwt>0</asrwt>
<pdfrwt beam="2">  1        1 0.22671645E-02 0.20000348E+02</pdfrwt>
<pdfrwt beam="1">  1       -1 0.10440117E-02 0.20000348E+02</pdfrwt>
<totfact> 0.39215751E+06</totfact>
</mgrwt>
</event>
<event>
 5    1  0.9583198E-007  0.2000011E+02  0.7818608E-02  0.1745326E+00
         -1   -1    0    0    0  501 -0.00000000000E+00  0.00000000000E+00  0.58907595073E+01  0.58907613584E+01  0.46700000000E-02 0.  1.
          1   -1    0    0  501    0  0.00000000000E+00 -0.00000000000E+00 -0.16975924445E+02  0.16975925088E+02  0.46700000000E-02 0. -1.
       1023    2    1    2    0    0  0.00000000000E+00  0.00000000000E+00 -0.11085164938E+02  0.22866686446E+02  0.20000111683E+02 0.  0.
        -11    1    3    3    0    0 -0.87240971544E+01 -0.48878180750E+01 -0.55175366512E+01  0.11421201673E+02  0.51100000000E-03 0.  1.
         11    1    3    3    0    0  0.87240971544E+01  0.48878180750E+01 -0.55676282870E+01  0.11445484773E+02  0.51100000000E-03 0. -1.
<mgrwt>
<rscale>  0 0.20000112E+02</rscale>
<asrwt>0</asrwt>
<pdfrwt beam="2">  1        1 0.26116809E-02 0.20000112E+02</pdfrwt>
<pdfrwt beam="1">  1       -1 0.90627089E-03 0.20000112E+02</pdfrwt>
<totfact> 0.39438048E+06</totfact>
</mgrwt>
</event>
<event>
 5    1  0.9583198E-007  0.2000849E+02  0.7818608E-02  0.1745159E+00
         -1   -1    0    0    0  501 -0.00000000000E+00  0.00000000000E+00  0.10668800286E+03  0.10668800296E+03  0.46700000000E-02 0.  1.
          1   -1    0    0  501    0  0.00000000000E+00 -0.00000000000E+00 -0.93810275926E+00  0.93811438313E+00  0.46700000000E-02 0. -1.
       1023    2    1    2    0    0  0.00000000000E+00  0.00000000000E+00  0.10574990010E+03  0.10762611734E+03  0.20008492285E+02 0.  0.
        -11    1    3    3    0    0 -0.94673415201E+01 -0.32313584783E+01  0.52268585028E+02  0.53217264249E+02  0.51100000000E-03 0. -1.
         11    1    3    3    0    0  0.94673415201E+01  0.32313584783E+01  0.53481315072E+02  0.54408853095E+02  0.51100000000E-03 0.  1.
<mgrwt>
<rscale>  0 0.20008492E+02</rscale>
<asrwt>0</asrwt>
<pdfrwt beam="2">  1        1 0.14432437E-03 0.20008492E+02</pdfrwt>
<pdfrwt beam="1">  1       -1 0.16413544E-01 0.20008492E+02</pdfrwt>
<totfact> 0.31484271E+06</totfact>
</mgrwt>
</event>
<event>
 5    1  0.9601918E-007  0.2000090E+02  0.7818608E-02  0.1745310E+00
          1   -1    0    0  501    0  0.00000000000E+00  0.00000000000E+00  0.76591699088E+01  0.76591713325E+01  0.46700000000E-02 0. -1.
         -1   -1    0    0    0  501 -0.00000000000E+00 -0.00000000000E+00 -0.13057418211E+02  0.13057419046E+02  0.46700000000E-02 0.  1.
       1023    2    1    2    0    0  0.00000000000E+00  0.00000000000E+00 -0.53982483020E+01  0.20716590378E+02  0.20000900784E+02 0.  0.
        -11    1    3    3    0    0 -0.21083659734E+01  0.97756360830E+01 -0.26709501479E+01  0.10350953717E+02  0.51100000000E-03 0. -1.
         11    1    3    3    0    0  0.21083659734E+01 -0.97756360830E+01 -0.27272981541E+01  0.10365636661E+02  0.51100000000E-03 0.  1.
<mgrwt>
<rscale>  0 0.20000901E+02</rscale>
<asrwt>0</asrwt>
<pdfrwt beam="1">  1        1 0.11783340E-02 0.20000901E+02</pdfrwt>
<pdfrwt beam="2">  1       -1 0.20088337E-02 0.20000901E+02</pdfrwt>
<totfact> 0.38193481E+06</totfact>
</mgrwt>
</event>
<event>
 5    1  0.9583198E-007  0.2000125E+02  0.7818608E-02  0.1745303E+00
         -1   -1    0    0    0  501 -0.00000000000E+00  0.00000000000E+00  0.56204783171E+02  0.56204783365E+02  0.46700000000E-02 0.  1.
          1   -1    0    0  501    0  0.00000000000E+00 -0.00000000000E+00 -0.17794276925E+01  0.17794338205E+01  0.46700000000E-02 0. -1.
       1023    2    1    2    0    0  0.00000000000E+00  0.00000000000E+00  0.54425355479E+02  0.57984217186E+02  0.20001253052E+02 0.  0.
        -11    1    3    3    0    0 -0.98076602815E+01 -0.19550503734E+01  0.27182481286E+02  0.28963765489E+02  0.51100000000E-03 0.  1.
         11    1    3    3    0    0  0.98076602815E+01  0.19550503734E+01  0.27242874192E+02  0.29020451697E+02  0.51100000000E-03 0. -1.
<mgrwt>
<rscale>  0 0.20001253E+02</rscale>
<asrwt>0</asrwt>
<pdfrwt beam="2">  1        1 0.27375860E-03 0.20001253E+02</pdfrwt>
<pdfrwt beam="1">  1       -1 0.86468900E-02 0.20001253E+02</pdfrwt>
<totfact> 0.34493314E+06</totfact>
</mgrwt>
</event>
<event>
 5    1  0.9941080E-007  0.2000098E+02  0.7818608E-02  0.1745309E+00
         -1   -1    0    0    0  501 -0.00000000000E+00  0.00000000000E+00  0.49519223779E+01  0.49519245800E+01  0.46700000000E-02 0. -1.
          1   -1    0    0  501    0  0.00000000000E+00 -0.00000000000E+00 -0.20196142536E+02  0.20196143076E+02  0.46700000000E-02 0.  1.
       1023    2    1    2    0    0  0.00000000000E+00  0.00000000000E+00 -0.15244220158E+02  0.25148067656E+02  0.20000976441E+02 0.  0.
        -11    1    3    3    0    0  0.79242478187E+01 -0.61001023176E+01 -0.75348845216E+01  0.12521159563E+02  0.51100000000E-03 0.  1.
         11    1    3    3    0    0 -0.79242478187E+01  0.61001023176E+01 -0.77093356364E+01  0.12626908093E+02  0.51100000000E-03 0. -1.
<mgrwt>
<rscale>  0 0.20000976E+02</rscale>
<asrwt>0</asrwt>
<pdfrwt beam="2">  1        1 0.31070990E-02 0.20000976E+02</pdfrwt>
<pdfrwt beam="1">  1       -1 0.76183443E-03 0.20000976E+02</pdfrwt>
<totfact> 0.39717950E+06</totfact>
</mgrwt>
</event>
<event>
 5    1  0.9583198E-007  0.2000667E+02  0.7818608E-02  0.1745195E+00
         -1   -1    0    0    0  501 -0.00000000000E+00  0.00000000000E+00  0.21369900019E+02  0.21369900529E+02  0.46700000000E-02 0.  1.
          1   -1    0    0  501    0  0.00000000000E+00 -0.00000000000E+00 -0.46825990796E+01  0.46826014083E+01  0.46700000000E-02 0. -1.
       1023    2    1    2    0    0  0.00000000000E+00  0.00000000000E+00  0.16687300939E+02  0.26052501937E+02  0.20006670002E+02 0.  0.
        -11    1    3    3    0    0  0.95240286636E+01 -0.30549915745E+01  0.81312082093E+01  0.12890176209E+02  0.51100000000E-03 0. -1.
         11    1    3    3    0    0 -0.95240286636E+01  0.30549915745E+01  0.85560927298E+01  0.13162325728E+02  0.51100000000E-03 0.  1.
<mgrwt>
<rscale>  0 0.20006670E+02</rscale>
<asrwt>0</asrwt>
<pdfrwt beam="2">  1        1 0.72040009E-03 0.20006670E+02</pdfrwt>
<pdfrwt beam="1">  1       -1 0.32876771E-02 0.20006670E+02</pdfrwt>
<totfact> 0.37252125E+06</totfact>
</mgrwt>
</event>
<event>
 5    1  0.1031911E-006  0.2000156E+02  0.7818608E-02  0.1745297E+00
          1   -1    0    0  501    0  0.00000000000E+00  0.00000000000E+00  0.63129854627E+02  0.63129854800E+02  0.46700000000E-02 0.  1.
         -1   -1    0    0    0  501 -0.00000000000E+00 -0.00000000000E+00 -0.15842793095E+01  0.15842861924E+01  0.46700000000E-02 0. -1.
       1023    2    1    2    0    0  0.00000000000E+00  0.00000000000E+00  0.61545575318E+02  0.64714140993E+02  0.20001555019E+02 0.  0.
        -11    1    3    3    0    0 -0.16363220968E+01 -0.98657601468E+01  0.30549160452E+02  0.32144392635E+02  0.51100000000E-03 0. -1.
         11    1    3    3    0    0  0.16363220968E+01  0.98657601468E+01  0.30996414866E+02  0.32569748357E+02  0.51100000000E-03 0.  1.
<mgrwt>
<rscale>  0 0.20001555E+02</rscale>
<asrwt>0</asrwt>
<pdfrwt beam="1">  1        1 0.97122845E-02 0.20001555E+02</pdfrwt>
<pdfrwt beam="2">  1       -1 0.24373585E-03 0.20001555E+02</pdfrwt>
<totfact> 0.42453060E+06</totfact>
</mgrwt>
</event>
<event>
 5    1  0.9819542E-007  0.2000063E+02  0.7818608E-02  0.1745315E+00
          1   -1    0    0  501    0  0.00000000000E+00  0.00000000000E+00  0.95920533835E+02  0.95920533949E+02  0.46700000000E-02 0.  1.
         -1   -1    0    0    0  501 -0.00000000000E+00 -0.00000000000E+00 -0.10425904917E+01  0.10426009507E+01  0.46700000000E-02 0. -1.
       1023    2    1    2    0    0  0.00000000000E+00  0.00000000000E+00  0.94877943343E+02  0.96963134900E+02  0.20000634902E+02 0.  0.
        -11    1    3    3    0    0 -0.99259214776E+01 -0.12166217862E+01  0.47669601391E+02  0.48707237479E+02  0.51100000000E-03 0. -1.
         11    1    3    3    0    0  0.99259214776E+01  0.12166217862E+01  0.47208341952E+02  0.48255897421E+02  0.51100000000E-03 0.  1.
<mgrwt>
<rscale>  0 0.20000635E+02</rscale>
<asrwt>0</asrwt>
<pdfrwt beam="1">  1        1 0.14757011E-01 0.20000635E+02</pdfrwt>
<pdfrwt beam="2">  1       -1 0.16039930E-03 0.20000635E+02</pdfrwt>
<totfact> 0.44158423E+06</totfact>
</mgrwt>
</event>
<event>
 5    1  0.9722823E-007  0.2000219E+02  0.7818608E-02  0.1745285E+00
          1   -1    0    0  501    0  0.00000000000E+00  0.00000000000E+00  0.70909014246E+01  0.70909029624E+01  0.46700000000E-02 0.  1.
         -1   -1    0    0    0  501 -0.00000000000E+00 -0.00000000000E+00 -0.14105660025E+02  0.14105660798E+02  0.46700000000E-02 0. -1.
       1023    2    1    2    0    0  0.00000000000E+00  0.00000000000E+00 -0.70147586003E+01  0.21196563760E+02  0.20002186806E+02 0.  0.
        -11    1    3    3    0    0 -0.22894259430E+01 -0.97353910244E+01 -0.34537674019E+01  0.10580539640E+02  0.51100000000E-03 0.  1.
         11    1    3    3    0    0  0.22894259430E+01  0.97353910244E+01 -0.35609911984E+01  0.10616024120E+02  0.51100000000E-03 0. -1.
<mgrwt>
<rscale>  0 0.20002187E+02</rscale>
<asrwt>0</asrwt>
<pdfrwt beam="1">  1        1 0.10909081E-02 0.20002187E+02</pdfrwt>
<pdfrwt beam="2">  1       -1 0.21701017E-02 0.20002187E+02</pdfrwt>
<totfact> 0.38057546E+06</totfact>
</mgrwt>
</event>
<event>
 5    1  0.9583198E-007  0.2000284E+02  0.7818608E-02  0.1745272E+00
          1   -1    0    0  501    0  0.00000000000E+00  0.00000000000E+00  0.16448637221E+01  0.16448703515E+01  0.46700000000E-02 0.  1.
         -1   -1    0    0    0  501 -0.00000000000E+00 -0.00000000000E+00 -0.60812423158E+02  0.60812423337E+02  0.46700000000E-02 0. -1.
       1023    2    1    2    0    0  0.00000000000E+00  0.00000000000E+00 -0.59167559436E+02  0.62457293689E+02  0.20002835932E+02 0.  0.
        -11    1    3    3    0    0 -0.63803878883E+01  0.77013711926E+01 -0.29306371911E+02  0.30965850589E+02  0.51100000000E-03 0.  1.
         11    1    3    3    0    0  0.63803878883E+01 -0.77013711926E+01 -0.29861187525E+02  0.31491443100E+02  0.51100000000E-03 0. -1.
<mgrwt>
<rscale>  0 0.20002836E+02</rscale>
<asrwt>0</asrwt>
<pdfrwt beam="1">  1        1 0.25305653E-03 0.20002836E+02</pdfrwt>
<pdfrwt beam="2">  1       -1 0.93557562E-02 0.20002836E+02</pdfrwt>
<totfact> 0.34178812E+06</totfact>
</mgrwt>
</event>
<event>
 5    1  0.9583198E-007  0.2000001E+02  0.7818608E-02  0.1745328E+00
         -1   -1    0    0    0  501 -0.00000000000E+00  0.00000000000E+00  0.56028811712E+02  0.56028811907E+02  0.46700000000E-02 0.  1.
          1   -1    0    0  501    0  0.00000000000E+00 -0.00000000000E+00 -0.17847944828E+01  0.17848005924E+01  0.46700000000E-02 0. -1.
       1023    2    1    2    0    0  0.00000000000E+00  0.00000000000E+00  0.54244017230E+02  0.57813612499E+02  0.20000009626E+02 0.  0.
        -11    1    3    3    0    0  0.70541808875E+01 -0.70879200351E+01  0.27134127744E+02  0.28918177105E+02  0.51100000000E-03 0. -1.
         11    1    3    3    0    0 -0.70541808875E+01  0.70879200351E+01  0.27109889486E+02  0.28895435394E+02  0.51100000000E-03 0.  1.
<mgrwt>
<rscale>  0 0.20000010E+02</rscale>
<asrwt>0</asrwt>
<pdfrwt beam="2">  1        1 0.27458424E-03 0.20000010E+02</pdfrwt>
<pdfrwt beam="1">  1       -1 0.86198179E-02 0.20000010E+02</pdfrwt>
<totfact> 0.34510001E+06</totfact>
</mgrwt>
</event>
<event>
 5    1  0.9583198E-007  0.2000043E+02  0.7818608E-02  0.1745320E+00
          1   -1    0    0  501    0  0.00000000000E+00  0.00000000000E+00  0.65124486564E+02  0.65124486731E+02  0.46700000000E-02 0. -1.
         -1   -1    0    0    0  501 -0.00000000000E+00 -0.00000000000E+00 -0.15355832067E+01  0.15355903078E+01  0.46700000000E-02 0.  1.
       1023    2    1    2    0    0  0.00000000000E+00  0.00000000000E+00  0.63588903357E+02  0.66660077039E+02  0.20000431013E+02 0.  0.
        -11    1    3    3    0    0 -0.92439384031E+00 -0.99573994823E+01  0.31790385143E+02  0.33326159338E+02  0.51100000000E-03 0. -1.
         11    1    3    3    0    0  0.92439384031E+00  0.99573994823E+01  0.31798518214E+02  0.33333917701E+02  0.51100000000E-03 0.  1.
<mgrwt>
<rscale>  0 0.20000431E+02</rscale>
<asrwt>0</asrwt>
<pdfrwt beam="1">  1        1 0.10019152E-01 0.20000431E+02</pdfrwt>
<pdfrwt beam="2">  1       -1 0.23624413E-03 0.20000431E+02</pdfrwt>
<totfact> 0.42567872E+06</totfact>
</mgrwt>
</event>
<event>
 5    1  0.9583198E-007  0.2000053E+02  0.7818608E-02  0.1745318E+00
         -1   -1    0    0    0  501 -0.00000000000E+00  0.00000000000E+00  0.74415873828E+02  0.74415873974E+02  0.46700000000E-02 0.  1.
          1   -1    0    0  501    0  0.00000000000E+00 -0.00000000000E+00 -0.13438664218E+01  0.13438745360E+01  0.46700000000E-02 0. -1.
       1023    2    1    2    0    0  0.00000000000E+00  0.00000000000E+00  0.73072007406E+02  0.75759748510E+02  0.20000530693E+02 0.  0.
        -11    1    3    3    0    0  0.42228616291E+01  0.90648461236E+01  0.36673162777E+02  0.38012167315E+02  0.51100000000E-03 0.  1.
         11    1    3    3    0    0 -0.42228616291E+01 -0.90648461236E+01  0.36398844629E+02  0.37747581196E+02  0.51100000000E-03 0. -1.
<mgrwt>
<rscale>  0 0.20000531E+02</rscale>
<asrwt>0</asrwt>
<pdfrwt beam="2">  1        1 0.20674926E-03 0.20000531E+02</pdfrwt>
<pdfrwt beam="1">  1       -1 0.11448600E-01 0.20000531E+02</pdfrwt>
<totfact> 0.33326363E+06</totfact>
</mgrwt>
</event>
<event>
 4    1  0.9583198E-007  0.2003163E+02  0.7818608E-02  0.1744700E+00
         -1   -1    0    0    0  501 -0.00000000000E+00  0.00000000000E+00  0.58049088232E+02  0.58049088420E+02  0.46700000000E-02 0.  1.
          1   -1    0    0  501    0  0.00000000000E+00 -0.00000000000E+00 -0.17281305513E+01  0.17281368613E+01  0.46700000000E-02 0. -1.
        -11    1    1    2    0    0  0.24689937606E+01  0.97000422311E+01  0.27085163441E+02  0.28875471050E+02  0.51100000000E-03 0. -1.
         11    1    1    2    0    0 -0.24689937606E+01 -0.97000422311E+01  0.29235794240E+02  0.30901754232E+02  0.51100000000E-03 0.  1.
<mgrwt>
<rscale>  0 0.20031635E+02</rscale>
<asrwt>0</asrwt>
<pdfrwt beam="2">  1        1 0.26586666E-03 0.20031635E+02</pdfrwt>
<pdfrwt beam="1">  1       -1 0.89306320E-02 0.20031635E+02</pdfrwt>
<totfact> 0.34254262E+06</totfact>
</mgrwt>
</event>
<event>
 5    1  0.9583198E-007  0.2000256E+02  0.7818608E-02  0.1745277E+00
         -1   -1    0    0    0  501 -0.00000000000E+00  0.00000000000E+00  0.50589438077E+01  0.50589459631E+01  0.46700000000E-02 0. -1.
          1   -1    0    0  501    0  0.00000000000E+00 -0.00000000000E+00 -0.19772025870E+02  0.19772026422E+02  0.46700000000E-02 0.  1.
       1023    2    1    2    0    0  0.00000000000E+00  0.00000000000E+00 -0.14713082063E+02  0.24830972385E+02  0.20002559981E+02 0.  0.
        -11    1    3    3    0    0  0.70630085586E+01  0.70796969528E+01 -0.75203026315E+01  0.12512519761E+02  0.51100000000E-03 0. -1.
         11    1    3    3    0    0 -0.70630085586E+01 -0.70796969528E+01 -0.71927794313E+01  0.12318452624E+02  0.51100000000E-03 0.  1.
<mgrwt>
<rscale>  0 0.20002560E+02</rscale>
<asrwt>0</asrwt>
<pdfrwt beam="2">  1        1 0.30418503E-02 0.20002560E+02</pdfrwt>
<pdfrwt beam="1">  1       -1 0.77829926E-03 0.20002560E+02</pdfrwt>
<totfact> 0.39675332E+06</totfact>
</mgrwt>
</event>
<event>
 4    1  0.9583198E-007  0.2009631E+02  0.7818608E-02  0.1743420E+00
          1   -1    0    0  501    0  0.00000000000E+00  0.00000000000E+00  0.90821873722E+02  0.90821873842E+02  0.46700000000E-02 0. -1.
         -1   -1    0    0    0  501 -0.00000000000E+00 -0.00000000000E+00 -0.11116808676E+01  0.11116906766E+01  0.46700000000E-02 0.  1.
        -11    1    1    2    0    0  0.94983831514E+01 -0.32480707530E+01  0.46881151918E+02  0.47943838514E+02  0.51100000000E-03 0. -1.
         11    1    1    2    0    0 -0.94983831514E+01  0.32480707530E+01  0.42829040936E+02  0.43989726004E+02  0.51100000000E-03 0.  1.
<mgrwt>
<rscale>  0 0.20096308E+02</rscale>
<asrwt>0</asrwt>
<pdfrwt beam="1">  1        1 0.13972594E-01 0.20096308E+02</pdfrwt>
<pdfrwt beam="2">  1       -1 0.17102862E-03 0.20096308E+02</pdfrwt>
<totfact> 0.43445403E+06</totfact>
</mgrwt>
</event>
<event>
 5    1  0.9583198E-007  0.2000183E+02  0.7818608E-02  0.1745292E+00
         -1   -1    0    0    0  501 -0.00000000000E+00  0.00000000000E+00  0.65381420595E+02  0.65381420762E+02  0.46700000000E-02 0. -1.
          1   -1    0    0  501    0  0.00000000000E+00 -0.00000000000E+00 -0.15297630877E+01  0.15297702158E+01  0.46700000000E-02 0.  1.
       1023    2    1    2    0    0  0.00000000000E+00  0.00000000000E+00  0.63851657507E+02  0.66911190977E+02  0.20001832706E+02 0.  0.
        -11    1    3    3    0    0  0.87076497502E+01  0.49188576887E+01  0.31931124523E+02  0.33460649108E+02  0.51100000000E-03 0.  1.
         11    1    3    3    0    0 -0.87076497502E+01 -0.49188576887E+01  0.31920532984E+02  0.33450541870E+02  0.51100000000E-03 0. -1.
<mgrwt>
<rscale>  0 0.20001833E+02</rscale>
<asrwt>0</asrwt>
<pdfrwt beam="2">  1        1 0.23534880E-03 0.20001833E+02</pdfrwt>
<pdfrwt beam="1">  1       -1 0.10058678E-01 0.20001833E+02</pdfrwt>
<totfact> 0.33885579E+06</totfact>
</mgrwt>
</event>
<event>
 4    1  0.9583198E-007  0.2002801E+02  0.7818608E-02  0.1744772E+00
          1   -1    0    0  501    0  0.00000000000E+00  0.00000000000E+00  0.91198474556E+00  0.91199670232E+00  0.46700000000E-02 0. -1.
         -1   -1    0    0    0  501 -0.00000000000E+00 -0.00000000000E+00 -0.10995758516E+03  0.10995758526E+03  0.46700000000E-02 0.  1.
        -11    1    1    2    0    0 -0.47259729208E+00  0.10002475562E+02 -0.54045223375E+02  0.54965071050E+02  0.51100000000E-03 0. -1.
         11    1    1    2    0    0  0.47259729208E+00 -0.10002475562E+02 -0.55000377044E+02  0.55904510916E+02  0.51100000000E-03 0.  1.
<mgrwt>
<rscale>  0 0.20028011E+02</rscale>
<asrwt>0</asrwt>
<pdfrwt beam="1">  1        1 0.14030636E-03 0.20028011E+02</pdfrwt>
<pdfrwt beam="2">  1       -1 0.16916542E-01 0.20028011E+02</pdfrwt>
<totfact> 0.31247961E+06</totfact>
</mgrwt>
</event>
<event>
 5    1  0.9583198E-007  0.2000037E+02  0.7818608E-02  0.1745321E+00
          1   -1    0    0  501    0  0.00000000000E+00  0.00000000000E+00  0.10536908438E+02  0.10536909473E+02  0.46700000000E-02 0.  1.
         -1   -1    0    0    0  501 -0.00000000000E+00 -0.00000000000E+00 -0.94907982834E+01  0.94907994324E+01  0.46700000000E-02 0. -1.
       1023    2    1    2    0    0  0.00000000000E+00  0.00000000000E+00  0.10461101544E+01  0.20027708905E+02  0.20000369435E+02 0.  0.
        -11    1    3    3    0    0 -0.51980375197E+01 -0.85429487827E+01  0.56922842842E+00  0.10016266232E+02  0.51100000000E-03 0. -1.
         11    1    3    3    0    0  0.51980375197E+01  0.85429487827E+01  0.47688172593E+00  0.10011442673E+02  0.51100000000E-03 0.  1.
<mgrwt>
<rscale>  0 0.20000369E+02</rscale>
<asrwt>0</asrwt>
<pdfrwt beam="1">  1        1 0.16210630E-02 0.20000369E+02</pdfrwt>
<pdfrwt beam="2">  1       -1 0.14601230E-02 0.20000369E+02</pdfrwt>
<totfact> 0.38703075E+06</totfact>
</mgrwt>
</event>
<event>
 4    1  0.9583198E-007  0.2004179E+02  0.7818608E-02  0.1744498E+00
         -1   -1    0    0    0  501 -0.00000000000E+00  0.00000000000E+00  0.19803463618E+01  0.19803518681E+01  0.46700000000E-02 0.  1.
          1   -1    0    0  501    0  0.00000000000E+00 -0.00000000000E+00 -0.50707403288E+02  0.50707403503E+02  0.46700000000E-02 0. -1.
        -11    1    1    2    0    0 -0.92541944626E+01 -0.38121278410E+01 -0.25667253939E+02  0.27549598161E+02  0.51100000000E-03 0.  1.
         11    1    1    2    0    0  0.92541944626E+01  0.38121278410E+01 -0.23059802988E+02  0.25138157210E+02  0.51100000000E-03 0. -1.
<mgrwt>
<rscale>  0 0.20041794E+02</rscale>
<asrwt>0</asrwt>
<pdfrwt beam="2">  1        1 0.78011384E-02 0.20041794E+02</pdfrwt>
<pdfrwt beam="1">  1       -1 0.30466915E-03 0.20041794E+02</pdfrwt>
<totfact> 0.41562958E+06</totfact>
</mgrwt>
</event>
<event>
 5    1  0.9583198E-007  0.2000623E+02  0.7818608E-02  0.1745204E+00
          1   -1    0    0  501    0  0.00000000000E+00  0.00000000000E+00  0.18455608580E+01  0.18455667664E+01  0.46700000000E-02 0.  1.
         -1   -1    0    0    0  501 -0.00000000000E+00 -0.00000000000E+00 -0.54217734553E+02  0.54217734754E+02  0.46700000000E-02 0. -1.
       1023    2    1    2    0    0  0.00000000000E+00  0.00000000000E+00 -0.52372173695E+02  0.56063301521E+02  0.20006229026E+02 0.  0.
        -11    1    3    3    0    0 -0.81149881604E+01 -0.58460904172E+01 -0.26691228233E+02  0.28503534357E+02  0.51100000000E-03 0. -1.
         11    1    3    3    0    0  0.81149881604E+01  0.58460904172E+01 -0.25680945463E+02  0.27559767164E+02  0.51100000000E-03 0.  1.
<mgrwt>
<rscale>  0 0.20006229E+02</rscale>
<asrwt>0</asrwt>
<pdfrwt beam="1">  1        1 0.28393295E-03 0.20006229E+02</pdfrwt>
<pdfrwt beam="2">  1       -1 0.83411892E-02 0.20006229E+02</pdfrwt>
<totfact> 0.34610462E+06</totfact>
</mgrwt>
</event>
<event>
 5    1  0.9965321E-007  0.2000099E+02  0.7818608E-02  0.1745308E+00
          1   -1    0    0  501    0  0.00000000000E+00  0.00000000000E+00  0.41597159743E+02  0.41597160005E+02  0.46700000000E-02 0. -1.
         -1   -1    0    0    0  501 -0.00000000000E+00 -0.00000000000E+00 -0.24042469135E+01  0.24042514490E+01  0.46700000000E-02 0.  1.
       1023    2    1    2    0    0  0.00000000000E+00  0.00000000000E+00  0.39192912829E+02  0.44001411454E+02  0.20000994822E+02 0.  0.
        -11    1    3    3    0    0  0.95756395427E+01  0.28825098893E+01  0.19795820670E+02  0.22178283346E+02  0.51100000000E-03 0.  1.
         11    1    3    3    0    0 -0.95756395427E+01 -0.28825098893E+01  0.19397092159E+02  0.21823128107E+02  0.51100000000E-03 0. -1.
<mgrwt>
<rscale>  0 0.20000995E+02</rscale>
<asrwt>0</asrwt>
<pdfrwt beam="1">  1        1 0.63995635E-02 0.20000995E+02</pdfrwt>
<pdfrwt beam="2">  1       -1 0.36988450E-03 0.20000995E+02</pdfrwt>
<totfact> 0.41205074E+06</totfact>
</mgrwt>
</event>
<event>
 5    1  0.9583198E-007  0.2000493E+02  0.7818608E-02  0.1745230E+00
          1   -1    0    0  501    0  0.00000000000E+00  0.00000000000E+00  0.29889322163E+02  0.29889322528E+02  0.46700000000E-02 0. -1.
         -1   -1    0    0    0  501 -0.00000000000E+00 -0.00000000000E+00 -0.33473234438E+01  0.33473267015E+01  0.46700000000E-02 0.  1.
       1023    2    1    2    0    0  0.00000000000E+00  0.00000000000E+00  0.26541998719E+02  0.33236649229E+02  0.20004928292E+02 0.  0.
        -11    1    3    3    0    0 -0.89390644472E+01 -0.44879782234E+01  0.13235095387E+02  0.16589652555E+02  0.51100000000E-03 0.  1.
         11    1    3    3    0    0  0.89390644472E+01  0.44879782234E+01  0.13306903332E+02  0.16646996674E+02  0.51100000000E-03 0. -1.
<mgrwt>
<rscale>  0 0.20004928E+02</rscale>
<asrwt>0</asrwt>
<pdfrwt beam="1">  1        1 0.45983576E-02 0.20004928E+02</pdfrwt>
<pdfrwt beam="2">  1       -1 0.51497311E-03 0.20004928E+02</pdfrwt>
<totfact> 0.40426806E+06</totfact>
</mgrwt>
</event>
<event>
 5    1  0.9583198E-007  0.2000065E+02  0.7818608E-02  0.1745315E+00
         -1   -1    0    0    0  501 -0.00000000000E+00  0.00000000000E+00  0.31634848370E+01  0.31634882839E+01  0.46700000000E-02 0.  1.
          1   -1    0    0  501    0  0.00000000000E+00 -0.00000000000E+00 -0.31612743363E+02  0.31612743708E+02  0.46700000000E-02 0. -1.
       1023    2    1    2    0    0  0.00000000000E+00  0.00000000000E+00 -0.28449258526E+02  0.34776231992E+02  0.20000650011E+02 0.  0.
        -11    1    3    3    0    0 -0.99808896004E+01 -0.62181773315E+00 -0.14296012521E+02  0.17446512224E+02  0.51100000000E-03 0. -1.
         11    1    3    3    0    0  0.99808896004E+01  0.62181773315E+00 -0.14153246005E+02  0.17329719769E+02  0.51100000000E-03 0.  1.
<mgrwt>
<rscale>  0 0.20000650E+02</rscale>
<asrwt>0</asrwt>
<pdfrwt beam="2">  1        1 0.48634991E-02 0.20000650E+02</pdfrwt>
<pdfrwt beam="1">  1       -1 0.48669029E-03 0.20000650E+02</pdfrwt>
<totfact> 0.40563711E+06</totfact>
</mgrwt>
</event>
<event>
 5    1  0.9583198E-007  0.2000043E+02  0.7818608E-02  0.1745320E+00
         -1   -1    0    0    0  501 -0.00000000000E+00  0.00000000000E+00  0.40144346888E+02  0.40144347160E+02  0.46700000000E-02 0.  1.
          1   -1    0    0  501    0  0.00000000000E+00 -0.00000000000E+00 -0.24911152243E+01  0.24911196016E+01  0.46700000000E-02 0. -1.
       1023    2    1    2    0    0  0.00000000000E+00  0.00000000000E+00  0.37653231664E+02  0.42635466761E+02  0.20000429276E+02 0.  0.
        -11    1    3    3    0    0 -0.65444509846E+01 -0.75613735541E+01  0.18846133863E+02  0.21334970601E+02  0.51100000000E-03 0. -1.
         11    1    3    3    0    0  0.65444509846E+01  0.75613735541E+01  0.18807097801E+02  0.21300496160E+02  0.51100000000E-03 0.  1.
<mgrwt>
<rscale>  0 0.20000429E+02</rscale>
<asrwt>0</asrwt>
<pdfrwt beam="2">  1        1 0.38324887E-03 0.20000429E+02</pdfrwt>
<pdfrwt beam="1">  1       -1 0.61760535E-02 0.20000429E+02</pdfrwt>
<totfact> 0.35658297E+06</totfact>
</mgrwt>
</event>
<event>
 5    1  0.9583198E-007  0.2000457E+02  0.7818608E-02  0.1745237E+00
          1   -1    0    0  501    0  0.00000000000E+00  0.00000000000E+00  0.71126323339E+02  0.71126323492E+02  0.46700000000E-02 0. -1.
         -1   -1    0    0    0  501 -0.00000000000E+00 -0.00000000000E+00 -0.14065877854E+01  0.14065955378E+01  0.46700000000E-02 0.  1.
       1023    2    1    2    0    0  0.00000000000E+00  0.00000000000E+00  0.69719735553E+02  0.72532919030E+02  0.20004569912E+02 0.  0.
        -11    1    3    3    0    0 -0.43675786689E+01  0.89982256073E+01  0.35017770948E+02  0.36418238425E+02  0.51100000000E-03 0. -1.
         11    1    3    3    0    0  0.43675786689E+01 -0.89982256073E+01  0.34701964605E+02  0.36114680605E+02  0.51100000000E-03 0.  1.
<mgrwt>
<rscale>  0 0.20004570E+02</rscale>
<asrwt>0</asrwt>
<pdfrwt beam="1">  1        1 0.10942509E-01 0.20004570E+02</pdfrwt>
<pdfrwt beam="2">  1       -1 0.21639879E-03 0.20004570E+02</pdfrwt>
<totfact> 0.42872444E+06</totfact>
</mgrwt>
</event>
<event>
 5    1  0.9583198E-007  0.2000014E+02  0.7818608E-02  0.1745325E+00
         -1   -1    0    0    0  501 -0.00000000000E+00  0.00000000000E+00  0.16768040541E+01  0.16768105572E+01  0.46700000000E-02 0.  1.
          1   -1    0    0  501    0  0.00000000000E+00 -0.00000000000E+00 -0.59637983541E+02  0.59637983724E+02  0.46700000000E-02 0. -1.
       1023    2    1    2    0    0  0.00000000000E+00  0.00000000000E+00 -0.57961179487E+02  0.61314794281E+02  0.20000141755E+02 0.  0.
        -11    1    3    3    0    0  0.99969490428E+01 -0.24837982436E+00 -0.29063681008E+02  0.30735943726E+02  0.51100000000E-03 0.  1.
         11    1    3    3    0    0 -0.99969490428E+01  0.24837982436E+00 -0.28897498478E+02  0.30578850555E+02  0.51100000000E-03 0. -1.
<mgrwt>
<rscale>  0 0.20000142E+02</rscale>
<asrwt>0</asrwt>
<pdfrwt beam="2">  1        1 0.91750733E-02 0.20000142E+02</pdfrwt>
<pdfrwt beam="1">  1       -1 0.25797041E-03 0.20000142E+02</pdfrwt>
<totfact> 0.42265702E+06</totfact>
</mgrwt>
</event>
<event>
 5    1  0.9583198E-007  0.2000060E+02  0.7818608E-02  0.1745316E+00
          1   -1    0    0  501    0  0.00000000000E+00  0.00000000000E+00  0.31000830924E+01  0.31000866099E+01  0.46700000000E-02 0. -1.
         -1   -1    0    0    0  501 -0.00000000000E+00 -0.00000000000E+00 -0.32259098888E+02  0.32259099226E+02  0.46700000000E-02 0.  1.
       1023    2    1    2    0    0  0.00000000000E+00  0.00000000000E+00 -0.29159015795E+02  0.35359185835E+02  0.20000595511E+02 0.  0.
        -11    1    3    3    0    0 -0.48473469988E+01  0.87466771013E+01 -0.14702268584E+02  0.17780827737E+02  0.51100000000E-03 0. -1.
         11    1    3    3    0    0  0.48473469988E+01 -0.87466771013E+01 -0.14456747211E+02  0.17578358098E+02  0.51100000000E-03 0.  1.
<mgrwt>
<rscale>  0 0.20000596E+02</rscale>
<asrwt>0</asrwt>
<pdfrwt beam="1">  1        1 0.47693618E-03 0.20000596E+02</pdfrwt>
<pdfrwt beam="2">  1       -1 0.49629384E-02 0.20000596E+02</pdfrwt>
<totfact> 0.36291827E+06</totfact>
</mgrwt>
</event>
<event>
 5    1  0.9911782E-007  0.2000102E+02  0.7818608E-02  0.1745308E+00
          1   -1    0    0  501    0  0.00000000000E+00  0.00000000000E+00  0.53847492695E+02  0.53847492897E+02  0.46700000000E-02 0.  1.
         -1   -1    0    0    0  501 -0.00000000000E+00 -0.00000000000E+00 -0.18572835697E+01  0.18572894408E+01  0.46700000000E-02 0. -1.
       1023    2    1    2    0    0  0.00000000000E+00  0.00000000000E+00  0.51990209125E+02  0.55704782338E+02  0.20001023235E+02 0.  0.
        -11    1    3    3    0    0 -0.57717377254E+01 -0.81663508819E+01  0.26244043869E+02  0.28084730406E+02  0.51100000000E-03 0. -1.
         11    1    3    3    0    0  0.57717377254E+01  0.81663508819E+01  0.25746165256E+02  0.27620051933E+02  0.51100000000E-03 0.  1.
<mgrwt>
<rscale>  0 0.20001023E+02</rscale>
<asrwt>0</asrwt>
<pdfrwt beam="1">  1        1 0.82842291E-02 0.20001023E+02</pdfrwt>
<pdfrwt beam="2">  1       -1 0.28573644E-03 0.20001023E+02</pdfrwt>
<totfact> 0.41933340E+06</totfact>
</mgrwt>
</event>
<event>
 5    1  0.9583198E-007  0.2000366E+02  0.7818608E-02  0.1745255E+00
          1   -1    0    0  501    0  0.00000000000E+00  0.00000000000E+00  0.91497430121E+01  0.91497442039E+01  0.46700000000E-02 0.  1.
         -1   -1    0    0    0  501 -0.00000000000E+00 -0.00000000000E+00 -0.10933264855E+02  0.10933265853E+02  0.46700000000E-02 0. -1.
       1023    2    1    2    0    0  0.00000000000E+00  0.00000000000E+00 -0.17835218431E+01  0.20083010057E+02  0.20003658235E+02 0.  0.
        -11    1    3    3    0    0  0.77673352377E+01 -0.62987673522E+01 -0.71608514285E+00  0.10025903702E+02  0.51100000000E-03 0.  1.
         11    1    3    3    0    0 -0.77673352377E+01  0.62987673522E+01 -0.10674367003E+01  0.10057106354E+02  0.51100000000E-03 0. -1.
<mgrwt>
<rscale>  0 0.20003658E+02</rscale>
<asrwt>0</asrwt>
<pdfrwt beam="1">  1        1 0.14076529E-02 0.20003658E+02</pdfrwt>
<pdfrwt beam="2">  1       -1 0.16820409E-02 0.20003658E+02</pdfrwt>
<totfact> 0.38469151E+06</totfact>
</mgrwt>
</event>
<event>
 5    1  0.9583198E-007  0.2000025E+02  0.7818608E-02  0.1745323E+00
         -1   -1    0    0    0  501 -0.00000000000E+00  0.00000000000E+00  0.14162340763E+01  0.14162417759E+01  0.46700000000E-02 0.  1.
          1   -1    0    0  501    0  0.00000000000E+00 -0.00000000000E+00 -0.70611343135E+02  0.70611343290E+02  0.46700000000E-02 0. -1.
       1023    2    1    2    0    0  0.00000000000E+00  0.00000000000E+00 -0.69195109059E+02  0.72027585066E+02  0.20000247316E+02 0.  0.
        -11    1    3    3    0    0  0.63873409479E+00 -0.99797035149E+01 -0.34586496427E+02  0.36003169289E+02  0.51100000000E-03 0.  1.
         11    1    3    3    0    0 -0.63873409479E+00  0.99797035149E+01 -0.34608612632E+02  0.36024415777E+02  0.51100000000E-03 0. -1.
<mgrwt>
<rscale>  0 0.20000247E+02</rscale>
<asrwt>0</asrwt>
<pdfrwt beam="2">  1        1 0.10863281E-01 0.20000247E+02</pdfrwt>
<pdfrwt beam="1">  1       -1 0.21788283E-03 0.20000247E+02</pdfrwt>
<totfact> 0.42865446E+06</totfact>
</mgrwt>
</event>
<event>
 5    1  0.9583198E-007  0.2000826E+02  0.7818608E-02  0.1745164E+00
          1   -1    0    0  501    0  0.00000000000E+00  0.00000000000E+00  0.13445843419E+02  0.13445844230E+02  0.46700000000E-02 0.  1.
         -1   -1    0    0    0  501 -0.00000000000E+00 -0.00000000000E+00 -0.74433867073E+01  0.74433881723E+01  0.46700000000E-02 0. -1.
       1023    2    1    2    0    0  0.00000000000E+00  0.00000000000E+00  0.60024567117E+01  0.20889232402E+02  0.20008261888E+02 0.  0.
        -11    1    3    3    0    0  0.89184780425E+01 -0.45271133754E+01  0.32314591245E+01  0.10510772305E+02  0.51100000000E-03 0.  1.
         11    1    3    3    0    0 -0.89184780425E+01  0.45271133754E+01  0.27709975872E+01  0.10378460098E+02  0.51100000000E-03 0. -1.
<mgrwt>
<rscale>  0 0.20008262E+02</rscale>
<asrwt>0</asrwt>
<pdfrwt beam="1">  1        1 0.20685915E-02 0.20008262E+02</pdfrwt>
<pdfrwt beam="2">  1       -1 0.11451366E-02 0.20008262E+02</pdfrwt>
<totfact> 0.39040404E+06</totfact>
</mgrwt>
</event>
<event>
 5    1  0.9810918E-007  0.2000081E+02  0.7818608E-02  0.1745312E+00
          1   -1    0    0  501    0  0.00000000000E+00  0.00000000000E+00  0.85223268427E+01  0.85223281222E+01  0.46700000000E-02 0.  1.
         -1   -1    0    0    0  501 -0.00000000000E+00 -0.00000000000E+00 -0.11734837643E+02  0.11734838573E+02  0.46700000000E-02 0. -1.
       1023    2    1    2    0    0  0.00000000000E+00  0.00000000000E+00 -0.32125108008E+01  0.20257166695E+02  0.20000814405E+02 0.  0.
        -11    1    3    3    0    0 -0.23395879640E+01 -0.97228696643E+01 -0.16231304009E+01  0.10131259493E+02  0.51100000000E-03 0.  1.
         11    1    3    3    0    0  0.23395879640E+01  0.97228696643E+01 -0.15893803999E+01  0.10125907202E+02  0.51100000000E-03 0. -1.
<mgrwt>
<rscale>  0 0.20000814E+02</rscale>
<asrwt>0</asrwt>
<pdfrwt beam="1">  1        1 0.13111274E-02 0.20000814E+02</pdfrwt>
<pdfrwt beam="2">  1       -1 0.18053598E-02 0.20000814E+02</pdfrwt>
<totfact> 0.38368422E+06</totfact>
</mgrwt>
</event>
<event>
 5    1  0.9583198E-007  0.2000023E+02  0.7818608E-02  0.1745323E+00
          1   -1    0    0  501    0  0.00000000000E+00  0.00000000000E+00  0.20868277015E+02  0.20868277538E+02  0.46700000000E-02 0. -1.
         -1   -1    0    0    0  501 -0.00000000000E+00 -0.00000000000E+00 -0.47920715689E+01  0.47920738445E+01  0.46700000000E-02 0.  1.
       1023    2    1    2    0    0  0.00000000000E+00  0.00000000000E+00  0.16076205447E+02  0.25660351382E+02  0.20000231286E+02 0.  0.
        -11    1    3    3    0    0 -0.94953243816E+01  0.31370426848E+01  0.80258838636E+01  0.12822520578E+02  0.51100000000E-03 0. -1.
         11    1    3    3    0    0  0.94953243816E+01 -0.31370426848E+01  0.80503215829E+01  0.12837830805E+02  0.51100000000E-03 0.  1.
<mgrwt>
<rscale>  0 0.20000231E+02</rscale>
<asrwt>0</asrwt>
<pdfrwt beam="1">  1        1 0.32105044E-02 0.20000231E+02</pdfrwt>
<pdfrwt beam="2">  1       -1 0.73724198E-03 0.20000231E+02</pdfrwt>
<totfact> 0.39776746E+06</totfact>
</mgrwt>
</event>
<event>
 5    1  0.1005111E-006  0.2000143E+02  0.7818608E-02  0.1745300E+00
         -1   -1    0    0    0  501 -0.00000000000E+00  0.00000000000E+00  0.19048910112E+01  0.19048967357E+01  0.46700000000E-02 0.  1.
          1   -1    0    0  501    0  0.00000000000E+00 -0.00000000000E+00 -0.52503856100E+02  0.52503856307E+02  0.46700000000E-02 0. -1.
       1023    2    1    2    0    0  0.00000000000E+00  0.00000000000E+00 -0.50598965088E+02  0.54408753043E+02  0.20001428441E+02 0.  0.
        -11    1    3    3    0    0  0.63626764417E+01  0.77151266358E+01 -0.25064623748E+02  0.26985962914E+02  0.51100000000E-03 0.  1.
         11    1    3    3    0    0 -0.63626764417E+01 -0.77151266358E+01 -0.25534341340E+02  0.27422790129E+02  0.51100000000E-03 0. -1.
<mgrwt>
<rscale>  0 0.20001428E+02</rscale>
<asrwt>0</asrwt>
<pdfrwt beam="2">  1        1 0.80775157E-02 0.20001428E+02</pdfrwt>
<pdfrwt beam="1">  1       -1 0.29306065E-03 0.20001428E+02</pdfrwt>
<totfact> 0.41853999E+06</totfact>
</mgrwt>
</event>
<event>
 5    1  0.9583198E-007  0.2000032E+02  0.7818608E-02  0.1745322E+00
         -1   -1    0    0    0  501 -0.00000000000E+00  0.00000000000E+00  0.36312760378E+01  0.36312790407E+01  0.46700000000E-02 0.  1.
          1   -1    0    0  501    0  0.00000000000E+00 -0.00000000000E+00 -0.27539392475E+02  0.27539392871E+02  0.46700000000E-02 0. -1.
       1023    2    1    2    0    0  0.00000000000E+00  0.00000000000E+00 -0.23908116437E+02  0.31170671912E+02  0.20000318894E+02 0.  0.
        -11    1    3    3    0    0 -0.94260891448E+01 -0.33391731886E+01 -0.12022960401E+02  0.15638184396E+02  0.51100000000E-03 0.  1.
         11    1    3    3    0    0  0.94260891448E+01  0.33391731886E+01 -0.11885156036E+02  0.15532487515E+02  0.51100000000E-03 0. -1.
<mgrwt>
<rscale>  0 0.20000319E+02</rscale>
<asrwt>0</asrwt>
<pdfrwt beam="2">  1        1 0.42368297E-02 0.20000319E+02</pdfrwt>
<pdfrwt beam="1">  1       -1 0.55865813E-03 0.20000319E+02</pdfrwt>
<totfact> 0.40282914E+06</totfact>
</mgrwt>
</event>
<event>
 5    1  0.9583198E-007  0.2000078E+02  0.7818608E-02  0.1745313E+00
         -1   -1    0    0    0  501 -0.00000000000E+00  0.00000000000E+00  0.10035910894E+03  0.10035910905E+03  0.46700000000E-02 0.  1.
          1   -1    0    0  501    0  0.00000000000E+00 -0.00000000000E+00 -0.99649344916E+00  0.99650439192E+00  0.46700000000E-02 0. -1.
       1023    2    1    2    0    0  0.00000000000E+00  0.00000000000E+00  0.99362615488E+02  0.10135561344E+03  0.20000775453E+02 0.  0.
        -11    1    3    3    0    0  0.61425219787E+01  0.78915388292E+01  0.49538597086E+02  0.50537902240E+02  0.51100000000E-03 0. -1.
         11    1    3    3    0    0 -0.61425219787E+01 -0.78915388292E+01  0.49824018402E+02  0.50817711198E+02  0.51100000000E-03 0.  1.
<mgrwt>
<rscale>  0 0.20000775E+02</rscale>
<asrwt>0</asrwt>
<pdfrwt beam="2">  1        1 0.15330756E-03 0.20000775E+02</pdfrwt>
<pdfrwt beam="1">  1       -1 0.15439861E-01 0.20000775E+02</pdfrwt>
<totfact> 0.31845830E+06</totfact>
</mgrwt>
</event>
<event>
 5    1  0.9583198E-007  0.2000199E+02  0.7818608E-02  0.1745288E+00
          1   -1    0    0  501    0  0.00000000000E+00  0.00000000000E+00  0.55463443996E+01  0.55463463657E+01  0.46700000000E-02 0. -1.
         -1   -1    0    0    0  501 -0.00000000000E+00 -0.00000000000E+00 -0.18033479437E+02  0.18033480042E+02  0.46700000000E-02 0.  1.
       1023    2    1    2    0    0  0.00000000000E+00  0.00000000000E+00 -0.12487135037E+02  0.23579826407E+02  0.20001991700E+02 0.  0.
        -11    1    3    3    0    0  0.79683277033E+01 -0.60426326311E+01 -0.61130249787E+01  0.11720781977E+02  0.51100000000E-03 0. -1.
         11    1    3    3    0    0 -0.79683277033E+01  0.60426326311E+01 -0.63741100586E+01  0.11859044430E+02  0.51100000000E-03 0.  1.
<mgrwt>
<rscale>  0 0.20001992E+02</rscale>
<asrwt>0</asrwt>
<pdfrwt beam="1">  1        1 0.85328396E-03 0.20001992E+02</pdfrwt>
<pdfrwt beam="2">  1       -1 0.27743816E-02 0.20001992E+02</pdfrwt>
<totfact> 0.37613232E+06</totfact>
</mgrwt>
</event>
<event>
 5    1  0.9583198E-007  0.2000026E+02  0.7818608E-02  0.1745323E+00
         -1   -1    0    0    0  501 -0.00000000000E+00  0.00000000000E+00  0.18305880062E+02  0.18305880657E+02  0.46700000000E-02 0.  1.
          1   -1    0    0  501    0  0.00000000000E+00 -0.00000000000E+00 -0.54628686244E+01  0.54628706205E+01  0.46700000000E-02 0. -1.
       1023    2    1    2    0    0  0.00000000000E+00  0.00000000000E+00  0.12843011437E+02  0.23768751278E+02  0.20000264862E+02 0.  0.
        -11    1    3    3    0    0 -0.26390501631E+00  0.99966495076E+01  0.64202386905E+01  0.11883691023E+02  0.51100000000E-03 0. -1.
         11    1    3    3    0    0  0.26390501631E+00 -0.99966495076E+01  0.64227727468E+01  0.11885060255E+02  0.51100000000E-03 0.  1.
<mgrwt>
<rscale>  0 0.20000265E+02</rscale>
<asrwt>0</asrwt>
<pdfrwt beam="2">  1        1 0.84044151E-03 0.20000265E+02</pdfrwt>
<pdfrwt beam="1">  1       -1 0.28162895E-02 0.20000265E+02</pdfrwt>
<totfact> 0.37591450E+06</totfact>
</mgrwt>
</event>
<event>
 5    1  0.9583198E-007  0.2000282E+02  0.7818608E-02  0.1745272E+00
          1   -1    0    0  501    0  0.00000000000E+00  0.00000000000E+00  0.11038536945E+01  0.11038635730E+01  0.46700000000E-02 0. -1.
         -1   -1    0    0    0  501 -0.00000000000E+00 -0.00000000000E+00 -0.90616817804E+02  0.90616817925E+02  0.46700000000E-02 0.  1.
       1023    2    1    2    0    0  0.00000000000E+00  0.00000000000E+00 -0.89512964110E+02  0.91720681498E+02  0.20002816568E+02 0.  0.
        -11    1    3    3    0    0 -0.66107197062E+00 -0.99795353354E+01 -0.44779747953E+02  0.45883046637E+02  0.51100000000E-03 0.  1.
         11    1    3    3    0    0  0.66107197062E+00  0.99795353354E+01 -0.44733216157E+02  0.45837634861E+02  0.51100000000E-03 0. -1.
<mgrwt>
<rscale>  0 0.20002817E+02</rscale>
<asrwt>0</asrwt>
<pdfrwt beam="1">  1        1 0.16982449E-03 0.20002817E+02</pdfrwt>
<pdfrwt beam="2">  1       -1 0.13941044E-01 0.20002817E+02</pdfrwt>
<totfact> 0.32372552E+06</totfact>
</mgrwt>
</event>
<event>
 4    1  0.9583198E-007  0.2001992E+02  0.7818608E-02  0.1744932E+00
          1   -1    0    0  501    0  0.00000000000E+00  0.00000000000E+00  0.30743603133E+01  0.30743638602E+01  0.46700000000E-02 0. -1.
         -1   -1    0    0    0  501 -0.00000000000E+00 -0.00000000000E+00 -0.32591891020E+02  0.32591891355E+02  0.46700000000E-02 0.  1.
        -11    1    1    2    0    0 -0.52049604638E+01  0.85482884430E+01 -0.15089366819E+02  0.18106734658E+02  0.51100000000E-03 0. -1.
         11    1    1    2    0    0  0.52049604638E+01 -0.85482884430E+01 -0.14428163888E+02  0.17559520556E+02  0.51100000000E-03 0.  1.
<mgrwt>
<rscale>  0 0.20019919E+02</rscale>
<asrwt>0</asrwt>
<pdfrwt beam="1">  1        1 0.47297883E-03 0.20019919E+02</pdfrwt>
<pdfrwt beam="2">  1       -1 0.50141371E-02 0.20019919E+02</pdfrwt>
<totfact> 0.36186991E+06</totfact>
</mgrwt>
</event>
<event>
 5    1  0.9583198E-007  0.2000100E+02  0.7818608E-02  0.1745308E+00
         -1   -1    0    0    0  501 -0.00000000000E+00  0.00000000000E+00  0.95667865992E+01  0.95667877391E+01  0.46700000000E-02 0. -1.
          1   -1    0    0  501    0  0.00000000000E+00 -0.00000000000E+00 -0.10453872411E+02  0.10453873454E+02  0.46700000000E-02 0.  1.
       1023    2    1    2    0    0  0.00000000000E+00  0.00000000000E+00 -0.88708581207E+00  0.20020661193E+02  0.20000998810E+02 0.  0.
        -11    1    3    3    0    0  0.73836733142E+01 -0.67446311673E+01 -0.40735639880E+00  0.10008727226E+02  0.51100000000E-03 0. -1.
         11    1    3    3    0    0 -0.73836733142E+01  0.67446311673E+01 -0.47972941327E+00  0.10011933967E+02  0.51100000000E-03 0.  1.
<mgrwt>
<rscale>  0 0.20000999E+02</rscale>
<asrwt>0</asrwt>
<pdfrwt beam="2">  1        1 0.16082882E-02 0.20000999E+02</pdfrwt>
<pdfrwt beam="1">  1       -1 0.14718135E-02 0.20000999E+02</pdfrwt>
<totfact> 0.38688143E+06</totfact>
</mgrwt>
</event>
<event>
 5    1  0.9583198E-007  0.2000959E+02  0.7818608E-02  0.1745138E+00
         -1   -1    0    0    0  501 -0.00000000000E+00  0.00000000000E+00  0.58297895105E+02  0.58297895292E+02  0.46700000000E-02 0. -1.
          1   -1    0    0  501    0  0.00000000000E+00 -0.00000000000E+00 -0.17169690717E+01  0.17169754227E+01  0.46700000000E-02 0.  1.
       1023    2    1    2    0    0  0.00000000000E+00  0.00000000000E+00  0.56580926034E+02  0.60014870715E+02  0.20009585606E+02 0.  0.
        -11    1    3    3    0    0  0.95635392077E+01  0.29365276820E+01  0.28610726053E+02  0.30309373509E+02  0.51100000000E-03 0. -1.
         11    1    3    3    0    0 -0.95635392077E+01 -0.29365276820E+01  0.27970199981E+02  0.29705497206E+02  0.51100000000E-03 0.  1.
<mgrwt>
<rscale>  0 0.20009586E+02</rscale>
<asrwt>0</asrwt>
<pdfrwt beam="2">  1        1 0.26414963E-03 0.20009586E+02</pdfrwt>
<pdfrwt beam="1">  1       -1 0.89689060E-02 0.20009586E+02</pdfrwt>
<totfact> 0.34320566E+06</totfact>
</mgrwt>
</event>
<event>
 5    1  0.9674357E-007  0.2000096E+02  0.7818608E-02  0.1745309E+00
         -1   -1    0    0    0  501 -0.00000000000E+00  0.00000000000E+00  0.10177463938E+02  0.10177465009E+02  0.46700000000E-02 0.  1.
          1   -1    0    0  501    0  0.00000000000E+00 -0.00000000000E+00 -0.98265717668E+01  0.98265728765E+01  0.46700000000E-02 0. -1.
       1023    2    1    2    0    0  0.00000000000E+00  0.00000000000E+00  0.35089217085E+00  0.20004037886E+02  0.20000960137E+02 0.  0.
        -11    1    3    3    0    0 -0.71778072001E+01 -0.69633162183E+01  0.20565642589E+00  0.10002548864E+02  0.51100000000E-03 0. -1.
         11    1    3    3    0    0  0.71778072001E+01  0.69633162183E+01  0.14523574496E+00  0.10001489021E+02  0.51100000000E-03 0.  1.
<mgrwt>
<rscale>  0 0.20000960E+02</rscale>
<asrwt>0</asrwt>
<pdfrwt beam="2">  1        1 0.15117804E-02 0.20000960E+02</pdfrwt>
<pdfrwt beam="1">  1       -1 0.15657639E-02 0.20000960E+02</pdfrwt>
<totfact> 0.38592611E+06</totfact>
</mgrwt>
</event>
<event>
 5    1  0.9583198E-007  0.2000062E+02  0.7818608E-02  0.1745316E+00
          1   -1    0    0  501    0  0.00000000000E+00  0.00000000000E+00  0.24645467760E+02  0.24645468203E+02  0.46700000000E-02 0. -1.
         -1   -1    0    0    0  501 -0.00000000000E+00 -0.00000000000E+00 -0.40577922815E+01  0.40577949688E+01  0.46700000000E-02 0.  1.
       1023    2    1    2    0    0  0.00000000000E+00  0.00000000000E+00  0.20587675479E+02  0.28703263171E+02  0.20000623367E+02 0.  0.
        -11    1    3    3    0    0  0.36323676621E+01 -0.93172209056E+01  0.10237642790E+02  0.14311325249E+02  0.51100000000E-03 0. -1.
         11    1    3    3    0    0 -0.36323676621E+01  0.93172209056E+01  0.10350032689E+02  0.14391937922E+02  0.51100000000E-03 0.  1.
<mgrwt>
<rscale>  0 0.20000623E+02</rscale>
<asrwt>0</asrwt>
<pdfrwt beam="1">  1        1 0.37916107E-02 0.20000623E+02</pdfrwt>
<pdfrwt beam="2">  1       -1 0.62427597E-03 0.20000623E+02</pdfrwt>
<totfact> 0.40070044E+06</totfact>
</mgrwt>
</event>
<event>
 5    1  0.9583198E-007  0.2000026E+02  0.7818608E-02  0.1745323E+00
          1   -1    0    0  501    0  0.00000000000E+00  0.00000000000E+00  0.79297066279E+02  0.79297066417E+02  0.46700000000E-02 0.  1.
         -1   -1    0    0    0  501 -0.00000000000E+00 -0.00000000000E+00 -0.12611085343E+01  0.12611171810E+01  0.46700000000E-02 0. -1.
       1023    2    1    2    0    0  0.00000000000E+00  0.00000000000E+00  0.78035957745E+02  0.80558183598E+02  0.20000256083E+02 0.  0.
        -11    1    3    3    0    0  0.89738673201E+01  0.44125181900E+01  0.39195804537E+02  0.40451349854E+02  0.51100000000E-03 0.  1.
         11    1    3    3    0    0 -0.89738673201E+01 -0.44125181900E+01  0.38840153208E+02  0.40106833744E+02  0.51100000000E-03 0. -1.
<mgrwt>
<rscale>  0 0.20000256E+02</rscale>
<asrwt>0</asrwt>
<pdfrwt beam="1">  1        1 0.12199550E-01 0.20000256E+02</pdfrwt>
<pdfrwt beam="2">  1       -1 0.19401737E-03 0.20000256E+02</pdfrwt>
<totfact> 0.43321865E+06</totfact>
</mgrwt>
</event>
<event>
 5    1  0.9583198E-007  0.2000063E+02  0.7818608E-02  0.1745315E+00
         -1   -1    0    0    0  501 -0.00000000000E+00  0.00000000000E+00  0.69587658795E+02  0.69587658952E+02  0.46700000000E-02 0.  1.
          1   -1    0    0  501    0  0.00000000000E+00 -0.00000000000E+00 -0.14371237197E+01  0.14371313074E+01  0.46700000000E-02 0. -1.
       1023    2    1    2    0    0  0.00000000000E+00  0.00000000000E+00  0.68150535076E+02  0.71024790259E+02  0.20000634997E+02 0.  0.
        -11    1    3    3    0    0  0.38015061605E+01 -0.92495862503E+01  0.34101584756E+02  0.35537647334E+02  0.51100000000E-03 0.  1.
         11    1    3    3    0    0 -0.38015061605E+01  0.92495862503E+01  0.34048950319E+02  0.35487142925E+02  0.51100000000E-03 0. -1.
<mgrwt>
<rscale>  0 0.20000635E+02</rscale>
<asrwt>0</asrwt>
<pdfrwt beam="2">  1        1 0.22109650E-03 0.20000635E+02</pdfrwt>
<pdfrwt beam="1">  1       -1 0.10705797E-01 0.20000635E+02</pdfrwt>
<totfact> 0.33623839E+06</totfact>
</mgrwt>
</event>
<event>
 5    1  0.9583198E-007  0.2000063E+02  0.7818608E-02  0.1745316E+00
         -1   -1    0    0    0  501 -0.00000000000E+00  0.00000000000E+00  0.16623698567E+02  0.16623699223E+02  0.46700000000E-02 0. -1.
          1   -1    0    0  501    0  0.00000000000E+00 -0.00000000000E+00 -0.60158834656E+01  0.60158852782E+01  0.46700000000E-02 0.  1.
       1023    2    1    2    0    0  0.00000000000E+00  0.00000000000E+00  0.10607815101E+02  0.22639584501E+02  0.20000626119E+02 0.  0.
        -11    1    3    3    0    0 -0.44837866099E+01 -0.89387872881E+01  0.53046950072E+01  0.11320161215E+02  0.51100000000E-03 0. -1.
         11    1    3    3    0    0  0.44837866099E+01  0.89387872881E+01  0.53031200940E+01  0.11319423286E+02  0.51100000000E-03 0.  1.
<mgrwt>
<rscale>  0 0.20000626E+02</rscale>
<asrwt>0</asrwt>
<pdfrwt beam="2">  1        1 0.92552075E-03 0.20000626E+02</pdfrwt>
<pdfrwt beam="1">  1       -1 0.25574922E-02 0.20000626E+02</pdfrwt>
<totfact> 0.37772114E+06</totfact>
</mgrwt>
</event>
<event>
 5    1  0.9583198E-007  0.2000690E+02  0.7818608E-02  0.1745191E+00
         -1   -1    0    0    0  501 -0.00000000000E+00  0.00000000000E+00  0.96888898829E+02  0.96888898941E+02  0.46700000000E-02 0.  1.
          1   -1    0    0  501    0  0.00000000000E+00 -0.00000000000E+00 -0.10328164669E+01  0.10328270248E+01  0.46700000000E-02 0. -1.
       1023    2    1    2    0    0  0.00000000000E+00  0.00000000000E+00  0.95856082362E+02  0.97921725966E+02  0.20006896072E+02 0.  0.
        -11    1    3    3    0    0  0.98876723546E+01 -0.14970105867E+01  0.49145429305E+02  0.50152570494E+02  0.51100000000E-03 0. -1.
         11    1    3    3    0    0 -0.98876723546E+01  0.14970105867E+01  0.46710653057E+02  0.47769155472E+02  0.51100000000E-03 0.  1.
<mgrwt>
<rscale>  0 0.20006896E+02</rscale>
<asrwt>0</asrwt>
<pdfrwt beam="2">  1        1 0.15889557E-03 0.20006896E+02</pdfrwt>
<pdfrwt beam="1">  1       -1 0.14905994E-01 0.20006896E+02</pdfrwt>
<totfact> 0.32011844E+06</totfact>
</mgrwt>
</event>
<event>
 5    1  0.9583198E-007  0.2000033E+02  0.7818608E-02  0.1745321E+00
         -1   -1    0    0    0  501 -0.00000000000E+00  0.00000000000E+00  0.14404490230E+01  0.14404565931E+01  0.46700000000E-02 0. -1.
          1   -1    0    0  501    0  0.00000000000E+00 -0.00000000000E+00 -0.69424911153E+02  0.69424911310E+02  0.46700000000E-02 0.  1.
       1023    2    1    2    0    0  0.00000000000E+00  0.00000000000E+00 -0.67984462130E+02  0.70865367904E+02  0.20000331921E+02 0.  0.
        -11    1    3    3    0    0 -0.33534447834E+01 -0.94209938642E+01 -0.33811504127E+02  0.35259304147E+02  0.51100000000E-03 0.  1.
         11    1    3    3    0    0  0.33534447834E+01  0.94209938642E+01 -0.34172958003E+02  0.35606063757E+02  0.51100000000E-03 0. -1.
<mgrwt>
<rscale>  0 0.20000332E+02</rscale>
<asrwt>0</asrwt>
<pdfrwt beam="2">  1        1 0.10680754E-01 0.20000332E+02</pdfrwt>
<pdfrwt beam="1">  1       -1 0.22160819E-03 0.20000332E+02</pdfrwt>
<totfact> 0.42801436E+06</totfact>
</mgrwt>
</event>
<event>
 5    1  0.9583198E-007  0.2000432E+02  0.7818608E-02  0.1745242E+00
          1   -1    0    0  501    0  0.00000000000E+00  0.00000000000E+00  0.21106612411E+02  0.21106612928E+02  0.46700000000E-02 0.  1.
         -1   -1    0    0    0  501 -0.00000000000E+00 -0.00000000000E+00 -0.47398980198E+01  0.47399003203E+01  0.46700000000E-02 0. -1.
       1023    2    1    2    0    0  0.00000000000E+00  0.00000000000E+00  0.16366714391E+02  0.25846513248E+02  0.20004322211E+02 0.  0.
        -11    1    3    3    0    0  0.40727139955E+01  0.91354363179E+01  0.81762204329E+01  0.12918737432E+02  0.51100000000E-03 0.  1.
         11    1    3    3    0    0 -0.40727139955E+01 -0.91354363179E+01  0.81904939584E+01  0.12927775816E+02  0.51100000000E-03 0. -1.
<mgrwt>
<rscale>  0 0.20004322E+02</rscale>
<asrwt>0</asrwt>
<pdfrwt beam="1">  1        1 0.32471714E-02 0.20004322E+02</pdfrwt>
<pdfrwt beam="2">  1       -1 0.72921528E-03 0.20004322E+02</pdfrwt>
<totfact> 0.39777930E+06</totfact>
</mgrwt>
</event>
<event>
 5    1  0.1017852E-006  0.2000103E+02  0.7818608E-02  0.1745308E+00
         -1   -1    0    0    0  501 -0.00000000000E+00  0.00000000000E+00  0.11475076468E+01  0.11475171495E+01  0.46700000000E-02 0.  1.
          1   -1    0    0  501    0  0.00000000000E+00 -0.00000000000E+00 -0.87154021972E+02  0.87154022097E+02  0.46700000000E-02 0. -1.
       1023    2    1    2    0    0  0.00000000000E+00  0.00000000000E+00 -0.86006514325E+02  0.88301539246E+02  0.20001033147E+02 0.  0.
        -11    1    3    3    0    0 -0.96327222450E+01  0.26871901334E+01 -0.42995854545E+02  0.44143559405E+02  0.51100000000E-03 0.  1.
         11    1    3    3    0    0  0.96327222450E+01 -0.26871901334E+01 -0.43010659780E+02  0.44157979841E+02  0.51100000000E-03 0. -1.
<mgrwt>
<rscale>  0 0.20001033E+02</rscale>
<asrwt>0</asrwt>
<pdfrwt beam="2">  1        1 0.13408307E-01 0.20001033E+02</pdfrwt>
<pdfrwt beam="1">  1       -1 0.17654045E-03 0.20001033E+02</pdfrwt>
<totfact> 0.43719683E+06</totfact>
</mgrwt>
</event>
<event>
 5    1  0.9583198E-007  0.2000056E+02  0.7818608E-02  0.1745317E+00
         -1   -1    0    0    0  501 -0.00000000000E+00  0.00000000000E+00  0.20131263732E+01  0.20131317899E+01  0.46700000000E-02 0. -1.
          1   -1    0    0  501    0  0.00000000000E+00 -0.00000000000E+00 -0.49676666592E+02  0.49676666812E+02  0.46700000000E-02 0.  1.
       1023    2    1    2    0    0  0.00000000000E+00  0.00000000000E+00 -0.47663540219E+02  0.51689798601E+02  0.20000555324E+02 0.  0.
        -11    1    3    3    0    0 -0.60004377745E+01 -0.80000174581E+01 -0.23820143043E+02  0.25834177898E+02  0.51100000000E-03 0. -1.
         11    1    3    3    0    0  0.60004377745E+01  0.80000174581E+01 -0.23843397176E+02  0.25855620704E+02  0.51100000000E-03 0.  1.
<mgrwt>
<rscale>  0 0.20000555E+02</rscale>
<asrwt>0</asrwt>
<pdfrwt beam="2">  1        1 0.76425636E-02 0.20000555E+02</pdfrwt>
<pdfrwt beam="1">  1       -1 0.30971222E-03 0.20000555E+02</pdfrwt>
<totfact> 0.41693284E+06</totfact>
</mgrwt>
</event>
<event>
 5    1  0.9583198E-007  0.2000106E+02  0.7818608E-02  0.1745307E+00
          1   -1    0    0  501    0  0.00000000000E+00  0.00000000000E+00  0.16943700950E+01  0.16943765307E+01  0.46700000000E-02 0. -1.
         -1   -1    0    0    0  501 -0.00000000000E+00 -0.00000000000E+00 -0.59025139901E+02  0.59025140085E+02  0.46700000000E-02 0.  1.
       1023    2    1    2    0    0  0.00000000000E+00  0.00000000000E+00 -0.57330769806E+02  0.60719516616E+02  0.20001063261E+02 0.  0.
        -11    1    3    3    0    0  0.47550738765E+01 -0.87976672340E+01 -0.28571504879E+02  0.30271117714E+02  0.51100000000E-03 0. -1.
         11    1    3    3    0    0 -0.47550738765E+01  0.87976672340E+01 -0.28759264927E+02  0.30448398902E+02  0.51100000000E-03 0.  1.
<mgrwt>
<rscale>  0 0.20001063E+02</rscale>
<asrwt>0</asrwt>
<pdfrwt beam="1">  1        1 0.26067288E-03 0.20001063E+02</pdfrwt>
<pdfrwt beam="2">  1       -1 0.90807897E-02 0.20001063E+02</pdfrwt>
<totfact> 0.34304046E+06</totfact>
</mgrwt>
</event>
<event>
 5    1  0.9583198E-007  0.2000038E+02  0.7818608E-02  0.1745321E+00
          1   -1    0    0  501    0  0.00000000000E+00  0.00000000000E+00  0.15934196176E+01  0.15934264610E+01  0.46700000000E-02 0. -1.
         -1   -1    0    0    0  501 -0.00000000000E+00 -0.00000000000E+00 -0.62760343155E+02  0.62760343329E+02  0.46700000000E-02 0.  1.
       1023    2    1    2    0    0  0.00000000000E+00  0.00000000000E+00 -0.61166923537E+02  0.64353769790E+02  0.20000378775E+02 0.  0.
        -11    1    3    3    0    0 -0.38822959416E+01  0.92158160075E+01 -0.30639291016E+02  0.32229949437E+02  0.51100000000E-03 0.  1.
         11    1    3    3    0    0  0.38822959416E+01 -0.92158160075E+01 -0.30527632521E+02  0.32123820353E+02  0.51100000000E-03 0. -1.
<mgrwt>
<rscale>  0 0.20000379E+02</rscale>
<asrwt>0</asrwt>
<pdfrwt beam="1">  1        1 0.24514207E-03 0.20000379E+02</pdfrwt>
<pdfrwt beam="2">  1       -1 0.96554361E-02 0.20000379E+02</pdfrwt>
<totfact> 0.34060345E+06</totfact>
</mgrwt>
</event>
<event>
 5    1  0.1012885E-006  0.2000212E+02  0.7818608E-02  0.1745286E+00
          1   -1    0    0  501    0  0.00000000000E+00  0.00000000000E+00  0.86606662607E+02  0.86606662733E+02  0.46700000000E-02 0.  1.
         -1   -1    0    0    0  501 -0.00000000000E+00 -0.00000000000E+00 -0.11548854355E+01  0.11548948775E+01  0.46700000000E-02 0. -1.
       1023    2    1    2    0    0  0.00000000000E+00  0.00000000000E+00  0.85451777172E+02  0.87761557611E+02  0.20002119199E+02 0.  0.
        -11    1    3    3    0    0  0.45229718635E+01  0.89191132167E+01  0.42219165797E+02  0.43387392361E+02  0.51100000000E-03 0. -1.
         11    1    3    3    0    0 -0.45229718635E+01 -0.89191132167E+01  0.43232611375E+02  0.44374165250E+02  0.51100000000E-03 0.  1.
<mgrwt>
<rscale>  0 0.20002119E+02</rscale>
<asrwt>0</asrwt>
<pdfrwt beam="1">  1        1 0.13324108E-01 0.20002119E+02</pdfrwt>
<pdfrwt beam="2">  1       -1 0.17767535E-03 0.20002119E+02</pdfrwt>
<totfact> 0.43686759E+06</totfact>
</mgrwt>
</event>
<event>
 5    1  0.9583198E-007  0.2000730E+02  0.7818608E-02  0.1745183E+00
         -1   -1    0    0    0  501 -0.00000000000E+00  0.00000000000E+00  0.18543079281E+02  0.18543079870E+02  0.46700000000E-02 0.  1.
          1   -1    0    0  501    0  0.00000000000E+00 -0.00000000000E+00 -0.53967848182E+01  0.53967868388E+01  0.46700000000E-02 0. -1.
       1023    2    1    2    0    0  0.00000000000E+00  0.00000000000E+00  0.13146294463E+02  0.23939866708E+02  0.20007302664E+02 0.  0.
        -11    1    3    3    0    0 -0.95348137241E+01  0.30254967382E+01  0.64749388289E+01  0.11916003372E+02  0.51100000000E-03 0.  1.
         11    1    3    3    0    0  0.95348137241E+01 -0.30254967382E+01  0.66713556344E+01  0.12023863336E+02  0.51100000000E-03 0. -1.
<mgrwt>
<rscale>  0 0.20007303E+02</rscale>
<asrwt>0</asrwt>
<pdfrwt beam="2">  1        1 0.83027479E-03 0.20007303E+02</pdfrwt>
<pdfrwt beam="1">  1       -1 0.28527816E-02 0.20007303E+02</pdfrwt>
<totfact> 0.37537420E+06</totfact>
</mgrwt>
</event>
<event>
 5    1  0.1003337E-006  0.2000115E+02  0.7818608E-02  0.1745305E+00
          1   -1    0    0  501    0  0.00000000000E+00  0.00000000000E+00  0.22930473480E+02  0.22930473955E+02  0.46700000000E-02 0. -1.
         -1   -1    0    0    0  501 -0.00000000000E+00 -0.00000000000E+00 -0.43615072810E+01  0.43615097811E+01  0.46700000000E-02 0.  1.
       1023    2    1    2    0    0  0.00000000000E+00  0.00000000000E+00  0.18568966199E+02  0.27291983737E+02  0.20001146732E+02 0.  0.
        -11    1    3    3    0    0  0.67823148271E+01  0.73490794137E+01  0.92135182837E+01  0.13597708707E+02  0.51100000000E-03 0. -1.
         11    1    3    3    0    0 -0.67823148271E+01 -0.73490794137E+01  0.93554479152E+01  0.13694275030E+02  0.51100000000E-03 0.  1.
<mgrwt>
<rscale>  0 0.20001147E+02</rscale>
<asrwt>0</asrwt>
<pdfrwt beam="1">  1        1 0.35277654E-02 0.20001147E+02</pdfrwt>
<pdfrwt beam="2">  1       -1 0.67100134E-03 0.20001147E+02</pdfrwt>
<totfact> 0.39936856E+06</totfact>
</mgrwt>
</event>
<event>
 5    1  0.9750398E-007  0.2000228E+02  0.7818608E-02  0.1745283E+00
         -1   -1    0    0    0  501 -0.00000000000E+00  0.00000000000E+00  0.77658799812E+01  0.77658813853E+01  0.46700000000E-02 0.  1.
          1   -1    0    0  501    0  0.00000000000E+00 -0.00000000000E+00 -0.12879773220E+02  0.12879774066E+02  0.46700000000E-02 0. -1.
       1023    2    1    2    0    0  0.00000000000E+00  0.00000000000E+00 -0.51138932386E+01  0.20645655452E+02  0.20002279495E+02 0.  0.
        -11    1    3    3    0    0 -0.13767545464E+01  0.99057033956E+01 -0.24886118299E+01  0.10305901316E+02  0.51100000000E-03 0. -1.
         11    1    3    3    0    0  0.13767545464E+01 -0.99057033956E+01 -0.26252814087E+01  0.10339754135E+02  0.51100000000E-03 0.  1.
<mgrwt>
<rscale>  0 0.20002279E+02</rscale>
<asrwt>0</asrwt>
<pdfrwt beam="2">  1        1 0.19815037E-02 0.20002279E+02</pdfrwt>
<pdfrwt beam="1">  1       -1 0.11947509E-02 0.20002279E+02</pdfrwt>
<totfact> 0.39001182E+06</totfact>
</mgrwt>
</event>
<event>
 4    1  0.9583198E-007  0.2007772E+02  0.7818608E-02  0.1743787E+00
         -1   -1    0    0    0  501 -0.00000000000E+00  0.00000000000E+00  0.18372995565E+02  0.18372996158E+02  0.46700000000E-02 0. -1.
          1   -1    0    0  501    0  0.00000000000E+00 -0.00000000000E+00 -0.54851504665E+01  0.54851524545E+01  0.46700000000E-02 0.  1.
        -11    1    1    2    0    0 -0.55357632028E+01  0.83736461967E+01  0.62933757305E+01  0.11847750977E+02  0.51100000000E-03 0.  1.
         11    1    1    2    0    0  0.55357632028E+01 -0.83736461967E+01  0.65944693676E+01  0.12010397636E+02  0.51100000000E-03 0. -1.
<mgrwt>
<rscale>  0 0.20077717E+02</rscale>
<asrwt>0</asrwt>
<pdfrwt beam="2">  1        1 0.84386951E-03 0.20077717E+02</pdfrwt>
<pdfrwt beam="1">  1       -1 0.28266149E-02 0.20077717E+02</pdfrwt>
<totfact> 0.37266557E+06</totfact>
</mgrwt>
</event>
<event>
 5    1  0.9583198E-007  0.2000305E+02  0.7818608E-02  0.1745267E+00
          1   -1    0    0  501    0  0.00000000000E+00  0.00000000000E+00  0.27810747638E+01  0.27810786847E+01  0.46700000000E-02 0.  1.
         -1   -1    0    0    0  501 -0.00000000000E+00 -0.00000000000E+00 -0.35968255847E+02  0.35968256151E+02  0.46700000000E-02 0. -1.
       1023    2    1    2    0    0  0.00000000000E+00  0.00000000000E+00 -0.33187181084E+02  0.38749334835E+02  0.20003048815E+02 0.  0.
        -11    1    3    3    0    0 -0.74552947928E+01 -0.66656431009E+01 -0.16855444380E+02  0.19598934254E+02  0.51100000000E-03 0.  1.
         11    1    3    3    0    0  0.74552947928E+01  0.66656431009E+01 -0.16331736704E+02  0.19150400581E+02  0.51100000000E-03 0. -1.
<mgrwt>
<rscale>  0 0.20003049E+02</rscale>
<asrwt>0</asrwt>
<pdfrwt beam="1">  1        1 0.42785801E-03 0.20003049E+02</pdfrwt>
<pdfrwt beam="2">  1       -1 0.55335778E-02 0.20003049E+02</pdfrwt>
<totfact> 0.35977251E+06</totfact>
</mgrwt>
</event>
<event>
 5    1  0.9583198E-007  0.2000009E+02  0.7818608E-02  0.1745326E+00
         -1   -1    0    0    0  501 -0.00000000000E+00  0.00000000000E+00  0.12540688959E+02  0.12540689828E+02  0.46700000000E-02 0. -1.
          1   -1    0    0  501    0  0.00000000000E+00 -0.00000000000E+00 -0.79741167776E+01  0.79741181451E+01  0.46700000000E-02 0.  1.
       1023    2    1    2    0    0  0.00000000000E+00  0.00000000000E+00  0.45665721809E+01  0.20514807973E+02  0.20000094117E+02 0.  0.
        -11    1    3    3    0    0 -0.78134678556E+01 -0.62410226897E+01  0.22656158065E+01  0.10253470602E+02  0.51100000000E-03 0. -1.
         11    1    3    3    0    0  0.78134678556E+01  0.62410226897E+01  0.23009563744E+01  0.10261337371E+02  0.51100000000E-03 0.  1.
<mgrwt>
<rscale>  0 0.20000094E+02</rscale>
<asrwt>0</asrwt>
<pdfrwt beam="2">  1        1 0.12267874E-02 0.20000094E+02</pdfrwt>
<pdfrwt beam="1">  1       -1 0.19293369E-02 0.20000094E+02</pdfrwt>
<totfact> 0.38263568E+06</totfact>
</mgrwt>
</event>
<event>
 5    1  0.9583198E-007  0.2000016E+02  0.7818608E-02  0.1745325E+00
          1   -1    0    0  501    0  0.00000000000E+00  0.00000000000E+00  0.14930318368E+01  0.14930391404E+01  0.46700000000E-02 0.  1.
         -1   -1    0    0    0  501 -0.00000000000E+00 -0.00000000000E+00 -0.66978737730E+02  0.66978737893E+02  0.46700000000E-02 0. -1.
       1023    2    1    2    0    0  0.00000000000E+00  0.00000000000E+00 -0.65485705893E+02  0.68471777033E+02  0.20000164343E+02 0.  0.
        -11    1    3    3    0    0 -0.81721669609E+01  0.57634477171E+01 -0.32745823684E+02  0.34238729700E+02  0.51100000000E-03 0.  1.
         11    1    3    3    0    0  0.81721669609E+01 -0.57634477171E+01 -0.32739882209E+02  0.34233047333E+02  0.51100000000E-03 0. -1.
<mgrwt>
<rscale>  0 0.20000164E+02</rscale>
<asrwt>0</asrwt>
<pdfrwt beam="1">  1        1 0.22969783E-03 0.20000164E+02</pdfrwt>
<pdfrwt beam="2">  1       -1 0.10304419E-01 0.20000164E+02</pdfrwt>
<totfact> 0.33789904E+06</totfact>
</mgrwt>
</event>
<event>
 5    1  0.9583198E-007  0.2000138E+02  0.7818608E-02  0.1745301E+00
          1   -1    0    0  501    0  0.00000000000E+00  0.00000000000E+00  0.14343794597E+01  0.14343870619E+01  0.46700000000E-02 0. -1.
         -1   -1    0    0    0  501 -0.00000000000E+00 -0.00000000000E+00 -0.69725983047E+02  0.69725983204E+02  0.46700000000E-02 0.  1.
       1023    2    1    2    0    0  0.00000000000E+00  0.00000000000E+00 -0.68291603588E+02  0.71160370266E+02  0.20001379347E+02 0.  0.
        -11    1    3    3    0    0  0.77899635247E+01 -0.62706357280E+01 -0.33801054976E+02  0.35249336475E+02  0.51100000000E-03 0. -1.
         11    1    3    3    0    0 -0.77899635247E+01  0.62706357280E+01 -0.34490548612E+02  0.35911033791E+02  0.51100000000E-03 0.  1.
<mgrwt>
<rscale>  0 0.20001379E+02</rscale>
<asrwt>0</asrwt>
<pdfrwt beam="1">  1        1 0.22067441E-03 0.20001379E+02</pdfrwt>
<pdfrwt beam="2">  1       -1 0.10727072E-01 0.20001379E+02</pdfrwt>
<totfact> 0.33612454E+06</totfact>
</mgrwt>
</event>
<event>
 5    1  0.9583198E-007  0.2000057E+02  0.7818608E-02  0.1745317E+00
         -1   -1    0    0    0  501 -0.00000000000E+00  0.00000000000E+00  0.23603860816E+01  0.23603907014E+01  0.46700000000E-02 0. -1.
          1   -1    0    0  501    0  0.00000000000E+00 -0.00000000000E+00 -0.42368317092E+02  0.42368317349E+02  0.46700000000E-02 0.  1.
       1023    2    1    2    0    0  0.00000000000E+00  0.00000000000E+00 -0.40007931010E+02  0.44728708051E+02  0.20000569496E+02 0.  0.
        -11    1    3    3    0    0  0.76326118338E+01  0.64610007481E+01 -0.19855609503E+02  0.22231655878E+02  0.51100000000E-03 0. -1.
         11    1    3    3    0    0 -0.76326118338E+01 -0.64610007481E+01 -0.20152321507E+02  0.22497052173E+02  0.51100000000E-03 0.  1.
<mgrwt>
<rscale>  0 0.20000569E+02</rscale>
<asrwt>0</asrwt>
<pdfrwt beam="2">  1        1 0.65182024E-02 0.20000569E+02</pdfrwt>
<pdfrwt beam="1">  1       -1 0.36313673E-03 0.20000569E+02</pdfrwt>
<totfact> 0.41254537E+06</totfact>
</mgrwt>
</event>
<event>
 5    1  0.9583198E-007  0.2000111E+02  0.7818608E-02  0.1745306E+00
         -1   -1    0    0    0  501 -0.00000000000E+00  0.00000000000E+00  0.64229162568E+02  0.64229162738E+02  0.46700000000E-02 0.  1.
          1   -1    0    0  501    0  0.00000000000E+00 -0.00000000000E+00 -0.15570940269E+01  0.15571010300E+01  0.46700000000E-02 0. -1.
       1023    2    1    2    0    0  0.00000000000E+00  0.00000000000E+00  0.62672068541E+02  0.65786263768E+02  0.20001108102E+02 0.  0.
        -11    1    3    3    0    0  0.39078696424E+01 -0.92050491579E+01  0.31066688365E+02  0.32636536296E+02  0.51100000000E-03 0.  1.
         11    1    3    3    0    0 -0.39078696424E+01  0.92050491579E+01  0.31605380176E+02  0.33149727472E+02  0.51100000000E-03 0. -1.
<mgrwt>
<rscale>  0 0.20001108E+02</rscale>
<asrwt>0</asrwt>
<pdfrwt beam="2">  1        1 0.23955351E-03 0.20001108E+02</pdfrwt>
<pdfrwt beam="1">  1       -1 0.98814089E-02 0.20001108E+02</pdfrwt>
<totfact> 0.33962379E+06</totfact>
</mgrwt>
</event>
<event>
 5    1  0.1063424E-006  0.2000162E+02  0.7818608E-02  0.1745296E+00
         -1   -1    0    0    0  501 -0.00000000000E+00  0.00000000000E+00  0.10976329410E+01  0.10976428754E+01  0.46700000000E-02 0.  1.
          1   -1    0    0  501    0  0.00000000000E+00 -0.00000000000E+00 -0.91119518311E+02  0.91119518431E+02  0.46700000000E-02 0. -1.
       1023    2    1    2    0    0  0.00000000000E+00  0.00000000000E+00 -0.90021885370E+02  0.92217161306E+02  0.20001624778E+02 0.  0.
        -11    1    3    3    0    0 -0.22744723113E+01  0.97380776632E+01 -0.45533929116E+02  0.46619117129E+02  0.51100000000E-03 0. -1.
         11    1    3    3    0    0  0.22744723113E+01 -0.97380776632E+01 -0.44487956254E+02  0.45598044177E+02  0.51100000000E-03 0.  1.
<mgrwt>
<rscale>  0 0.20001625E+02</rscale>
<asrwt>0</asrwt>
<pdfrwt beam="2">  1        1 0.14018382E-01 0.20001625E+02</pdfrwt>
<pdfrwt beam="1">  1       -1 0.16886745E-03 0.20001625E+02</pdfrwt>
<totfact> 0.43915926E+06</totfact>
</mgrwt>
</event>
<event>
 5    1  0.9583198E-007  0.2000021E+02  0.7818608E-02  0.1745324E+00
         -1   -1    0    0    0  501 -0.00000000000E+00  0.00000000000E+00  0.53382030373E+01  0.53382050801E+01  0.46700000000E-02 0.  1.
          1   -1    0    0  501    0  0.00000000000E+00 -0.00000000000E+00 -0.18733283084E+02  0.18733283667E+02  0.46700000000E-02 0. -1.
       1023    2    1    2    0    0  0.00000000000E+00  0.00000000000E+00 -0.13395080047E+02  0.24071488747E+02  0.20000210024E+02 0.  0.
        -11    1    3    3    0    0 -0.83749973173E+01  0.54644091749E+01 -0.66471583985E+01  0.12007708471E+02  0.51100000000E-03 0. -1.
         11    1    3    3    0    0  0.83749973173E+01 -0.54644091749E+01 -0.67479216486E+01  0.12063780275E+02  0.51100000000E-03 0.  1.
<mgrwt>
<rscale>  0 0.20000210E+02</rscale>
<asrwt>0</asrwt>
<pdfrwt beam="2">  1        1 0.28820437E-02 0.20000210E+02</pdfrwt>
<pdfrwt beam="1">  1       -1 0.82126222E-03 0.20000210E+02</pdfrwt>
<totfact> 0.39596573E+06</totfact>
</mgrwt>
</event>
<event>
 5    1  0.9583198E-007  0.2000082E+02  0.7818608E-02  0.1745312E+00
          1   -1    0    0  501    0  0.00000000000E+00  0.00000000000E+00  0.32100473817E+01  0.32100507786E+01  0.46700000000E-02 0. -1.
         -1   -1    0    0    0  501 -0.00000000000E+00 -0.00000000000E+00 -0.31154723500E+02  0.31154723850E+02  0.46700000000E-02 0.  1.
       1023    2    1    2    0    0  0.00000000000E+00  0.00000000000E+00 -0.27944676118E+02  0.34364774628E+02  0.20000820281E+02 0.  0.
        -11    1    3    3    0    0 -0.83742503807E+01  0.54656940392E+01 -0.13835725334E+02  0.17071296862E+02  0.51100000000E-03 0.  1.
         11    1    3    3    0    0  0.83742503807E+01 -0.54656940392E+01 -0.14108950783E+02  0.17293477766E+02  0.51100000000E-03 0. -1.
<mgrwt>
<rscale>  0 0.20000820E+02</rscale>
<asrwt>0</asrwt>
<pdfrwt beam="1">  1        1 0.49385375E-03 0.20000820E+02</pdfrwt>
<pdfrwt beam="2">  1       -1 0.47930345E-02 0.20000820E+02</pdfrwt>
<totfact> 0.36384261E+06</totfact>
</mgrwt>
</event>
<event>
 5    1  0.9583198E-007  0.2000035E+02  0.7818608E-02  0.1745321E+00
          1   -1    0    0  501    0  0.00000000000E+00  0.00000000000E+00  0.79089634152E+02  0.79089634290E+02  0.46700000000E-02 0.  1.
         -1   -1    0    0    0  501 -0.00000000000E+00 -0.00000000000E+00 -0.12644276649E+01  0.12644362889E+01  0.46700000000E-02 0. -1.
       1023    2    1    2    0    0  0.00000000000E+00  0.00000000000E+00  0.77825206487E+02  0.80354070579E+02  0.20000347342E+02 0.  0.
        -11    1    3    3    0    0 -0.63199043088E+01 -0.77499774220E+01  0.38866325913E+02  0.40132214376E+02  0.51100000000E-03 0. -1.
         11    1    3    3    0    0  0.63199043088E+01  0.77499774220E+01  0.38958880574E+02  0.40221856202E+02  0.51100000000E-03 0.  1.
<mgrwt>
<rscale>  0 0.20000347E+02</rscale>
<asrwt>0</asrwt>
<pdfrwt beam="1">  1        1 0.12167638E-01 0.20000347E+02</pdfrwt>
<pdfrwt beam="2">  1       -1 0.19452799E-03 0.20000347E+02</pdfrwt>
<totfact> 0.43310694E+06</totfact>
</mgrwt>
</event>
<event>
 5    1  0.9999368E-007  0.2000079E+02  0.7818608E-02  0.1745312E+00
         -1   -1    0    0    0  501 -0.00000000000E+00  0.00000000000E+00  0.59911787680E+01  0.59911805881E+01  0.46700000000E-02 0.  1.
          1   -1    0    0  501    0  0.00000000000E+00 -0.00000000000E+00 -0.16692513900E+02  0.16692514553E+02  0.46700000000E-02 0. -1.
       1023    2    1    2    0    0  0.00000000000E+00  0.00000000000E+00 -0.10701335132E+02  0.22683695141E+02  0.20000786276E+02 0.  0.
        -11    1    3    3    0    0 -0.87263074312E+01 -0.48841510252E+01 -0.54266636718E+01  0.11377699745E+02  0.51100000000E-03 0. -1.
         11    1    3    3    0    0  0.87263074312E+01  0.48841510252E+01 -0.52746714598E+01  0.11305995396E+02  0.51100000000E-03 0.  1.
<mgrwt>
<rscale>  0 0.20000786E+02</rscale>
<asrwt>0</asrwt>
<pdfrwt beam="2">  1        1 0.25680792E-02 0.20000786E+02</pdfrwt>
<pdfrwt beam="1">  1       -1 0.92172000E-03 0.20000786E+02</pdfrwt>
<totfact> 0.39408351E+06</totfact>
</mgrwt>
</event>
<event>
 5    1  0.9583198E-007  0.2000050E+02  0.7818608E-02  0.1745318E+00
          1   -1    0    0  501    0  0.00000000000E+00  0.00000000000E+00  0.44115507012E+02  0.44115507259E+02  0.46700000000E-02 0.  1.
         -1   -1    0    0    0  501 -0.00000000000E+00 -0.00000000000E+00 -0.22668866735E+01  0.22668914838E+01  0.46700000000E-02 0. -1.
       1023    2    1    2    0    0  0.00000000000E+00  0.00000000000E+00  0.41848620338E+02  0.46382398743E+02  0.20000497216E+02 0.  0.
        -11    1    3    3    0    0  0.46474837058E+01  0.88546929005E+01  0.20963171414E+02  0.23226262014E+02  0.51100000000E-03 0. -1.
         11    1    3    3    0    0 -0.46474837058E+01 -0.88546929005E+01  0.20885448924E+02  0.23156136728E+02  0.51100000000E-03 0.  1.
<mgrwt>
<rscale>  0 0.20000497E+02</rscale>
<asrwt>0</asrwt>
<pdfrwt beam="1">  1        1 0.67870005E-02 0.20000497E+02</pdfrwt>
<pdfrwt beam="2">  1       -1 0.34875223E-03 0.20000497E+02</pdfrwt>
<totfact> 0.41361588E+06</totfact>
</mgrwt>
</event>
<event>
 5    1  0.9583198E-007  0.2000274E+02  0.7818608E-02  0.1745274E+00
         -1   -1    0    0    0  501 -0.00000000000E+00  0.00000000000E+00  0.17740325255E+02  0.17740325869E+02  0.46700000000E-02 0.  1.
          1   -1    0    0  501    0  0.00000000000E+00 -0.00000000000E+00 -0.56384171329E+01  0.56384190669E+01  0.46700000000E-02 0. -1.
       1023    2    1    2    0    0  0.00000000000E+00  0.00000000000E+00  0.12101908122E+02  0.23378744936E+02  0.20002738178E+02 0.  0.
        -11    1    3    3    0    0  0.51978755626E+00  0.99874170357E+01  0.61600031819E+01  0.11745821283E+02  0.51100000000E-03 0.  1.
         11    1    3    3    0    0 -0.51978755626E+00 -0.99874170357E+01  0.59419049400E+01  0.11632923653E+02  0.51100000000E-03 0. -1.
<mgrwt>
<rscale>  0 0.20002738E+02</rscale>
<asrwt>0</asrwt>
<pdfrwt beam="2">  1        1 0.86744899E-03 0.20002738E+02</pdfrwt>
<pdfrwt beam="1">  1       -1 0.27292810E-02 0.20002738E+02</pdfrwt>
<totfact> 0.37641499E+06</totfact>
</mgrwt>
</event>
<event>
 5    1  0.9583198E-007  0.2000174E+02  0.7818608E-02  0.1745293E+00
          1   -1    0    0  501    0  0.00000000000E+00  0.00000000000E+00  0.22785470367E+01  0.22785518224E+01  0.46700000000E-02 0.  1.
         -1   -1    0    0    0  501 -0.00000000000E+00 -0.00000000000E+00 -0.43895207070E+02  0.43895207318E+02  0.46700000000E-02 0. -1.
       1023    2    1    2    0    0  0.00000000000E+00  0.00000000000E+00 -0.41616660033E+02  0.46173759141E+02  0.20001740946E+02 0.  0.
        -11    1    3    3    0    0 -0.10000004496E+02  0.11747710815E-01 -0.20505732927E+02  0.22814147169E+02  0.51100000000E-03 0. -1.
         11    1    3    3    0    0  0.10000004496E+02 -0.11747710815E-01 -0.21110927106E+02  0.23359611971E+02  0.51100000000E-03 0.  1.
<mgrwt>
<rscale>  0 0.20001741E+02</rscale>
<asrwt>0</asrwt>
<pdfrwt beam="1">  1        1 0.35054612E-03 0.20001741E+02</pdfrwt>
<pdfrwt beam="2">  1       -1 0.67531085E-02 0.20001741E+02</pdfrwt>
<totfact> 0.35368001E+06</totfact>
</mgrwt>
</event>
<event>
 5    1  0.9583198E-007  0.2000034E+02  0.7818608E-02  0.1745321E+00
          1   -1    0    0  501    0  0.00000000000E+00  0.00000000000E+00  0.69379628816E+02  0.69379628973E+02  0.46700000000E-02 0.  1.
         -1   -1    0    0    0  501 -0.00000000000E+00 -0.00000000000E+00 -0.14413898663E+01  0.14413974315E+01  0.46700000000E-02 0. -1.
       1023    2    1    2    0    0  0.00000000000E+00  0.00000000000E+00  0.67938238950E+02  0.70821026405E+02  0.20000336733E+02 0.  0.
        -11    1    3    3    0    0  0.57051131872E+01 -0.82130748115E+01  0.34044465045E+02  0.35482791812E+02  0.51100000000E-03 0. -1.
         11    1    3    3    0    0 -0.57051131872E+01  0.82130748115E+01  0.33893773905E+02  0.35338234592E+02  0.51100000000E-03 0.  1.
<mgrwt>
<rscale>  0 0.20000337E+02</rscale>
<asrwt>0</asrwt>
<pdfrwt beam="1">  1        1 0.10673792E-01 0.20000337E+02</pdfrwt>
<pdfrwt beam="2">  1       -1 0.22175283E-03 0.20000337E+02</pdfrwt>
<totfact> 0.42798982E+06</totfact>
</mgrwt>
</event>
<event>
 5    1  0.9663030E-007  0.2000114E+02  0.7818608E-02  0.1745305E+00
         -1   -1    0    0    0  501 -0.00000000000E+00  0.00000000000E+00  0.13665736661E+02  0.13665737459E+02  0.46700000000E-02 0. -1.
          1   -1    0    0  501    0  0.00000000000E+00 -0.00000000000E+00 -0.73184020603E+01  0.73184035503E+01  0.46700000000E-02 0.  1.
       1023    2    1    2    0    0  0.00000000000E+00  0.00000000000E+00  0.63473346011E+01  0.20984141010E+02  0.20001137902E+02 0.  0.
        -11    1    3    3    0    0 -0.59839359403E+01  0.80126004929E+01  0.31253257862E+01  0.10477448045E+02  0.51100000000E-03 0.  1.
         11    1    3    3    0    0  0.59839359403E+01 -0.80126004929E+01  0.32220088149E+01  0.10506692965E+02  0.51100000000E-03 0. -1.
<mgrwt>
<rscale>  0 0.20001138E+02</rscale>
<asrwt>0</asrwt>
<pdfrwt beam="2">  1        1 0.11259082E-02 0.20001138E+02</pdfrwt>
<pdfrwt beam="1">  1       -1 0.21024212E-02 0.20001138E+02</pdfrwt>
<totfact> 0.38115954E+06</totfact>
</mgrwt>
</event>
<event>
 5    1  0.9583198E-007  0.2000204E+02  0.7818608E-02  0.1745288E+00
          1   -1    0    0  501    0  0.00000000000E+00  0.00000000000E+00  0.94119522090E+00  0.94120680657E+00  0.46700000000E-02 0. -1.
         -1   -1    0    0    0  501 -0.00000000000E+00 -0.00000000000E+00 -0.10626885926E+03  0.10626885937E+03  0.46700000000E-02 0.  1.
       1023    2    1    2    0    0  0.00000000000E+00  0.00000000000E+00 -0.10532766404E+03  0.10721006617E+03  0.20002036798E+02 0.  0.
        -11    1    3    3    0    0 -0.91175142189E+01  0.41074847559E+01 -0.53419418848E+02  0.54347353264E+02  0.51100000000E-03 0.  1.
         11    1    3    3    0    0  0.91175142189E+01 -0.41074847559E+01 -0.51908245194E+02  0.52862712907E+02  0.51100000000E-03 0. -1.
<mgrwt>
<rscale>  0 0.20002037E+02</rscale>
<asrwt>0</asrwt>
<pdfrwt beam="1">  1        1 0.14480025E-03 0.20002037E+02</pdfrwt>
<pdfrwt beam="2">  1       -1 0.16349047E-01 0.20002037E+02</pdfrwt>
<totfact> 0.31528445E+06</totfact>
</mgrwt>
</event>
<event>
 5    1  0.9583198E-007  0.2000006E+02  0.7818608E-02  0.1745327E+00
         -1   -1    0    0    0  501 -0.00000000000E+00  0.00000000000E+00  0.47008420590E+01  0.47008443787E+01  0.46700000000E-02 0.  1.
          1   -1    0    0  501    0  0.00000000000E+00 -0.00000000000E+00 -0.21272905609E+02  0.21272906121E+02  0.46700000000E-02 0. -1.
       1023    2    1    2    0    0  0.00000000000E+00  0.00000000000E+00 -0.16572063550E+02  0.25973750500E+02  0.20000060618E+02 0.  0.
        -11    1    3    3    0    0 -0.69299364511E+01  0.72094783805E+01 -0.82897482100E+01  0.12989246452E+02  0.51100000000E-03 0.  1.
         11    1    3    3    0    0  0.69299364511E+01 -0.72094783805E+01 -0.82823153398E+01  0.12984504048E+02  0.51100000000E-03 0. -1.
<mgrwt>
<rscale>  0 0.20000061E+02</rscale>
<asrwt>0</asrwt>
<pdfrwt beam="2">  1        1 0.32727549E-02 0.20000061E+02</pdfrwt>
<pdfrwt beam="1">  1       -1 0.72320670E-03 0.20000061E+02</pdfrwt>
<totfact> 0.39810407E+06</totfact>
</mgrwt>
</event>
<event>
 4    1  0.9583198E-007  0.2005975E+02  0.7818608E-02  0.1744143E+00
          1   -1    0    0  501    0  0.00000000000E+00  0.00000000000E+00  0.15348168467E+01  0.15348239514E+01  0.46700000000E-02 0.  1.
         -1   -1    0    0    0  501 -0.00000000000E+00 -0.00000000000E+00 -0.65544060838E+02  0.65544061005E+02  0.46700000000E-02 0. -1.
        -11    1    1    2    0    0  0.83203521974E+01  0.55951646189E+01 -0.31157046061E+02  0.32730653023E+02  0.51100000000E-03 0.  1.
         11    1    1    2    0    0 -0.83203521974E+01 -0.55951646189E+01 -0.32852197931E+02  0.34348231933E+02  0.51100000000E-03 0. -1.
<mgrwt>
<rscale>  0 0.20059748E+02</rscale>
<asrwt>0</asrwt>
<pdfrwt beam="1">  1        1 0.23612628E-03 0.20059748E+02</pdfrwt>
<pdfrwt beam="2">  1       -1 0.10083700E-01 0.20059748E+02</pdfrwt>
<totfact> 0.33660751E+06</totfact>
</mgrwt>
</event>
<event>
 5    1  0.1103859E-006  0.2000248E+02  0.7818608E-02  0.1745279E+00
          1   -1    0    0  501    0  0.00000000000E+00  0.00000000000E+00  0.15254983101E+01  0.15255054582E+01  0.46700000000E-02 0. -1.
         -1   -1    0    0    0  501 -0.00000000000E+00 -0.00000000000E+00 -0.65568455454E+02  0.65568455620E+02  0.46700000000E-02 0.  1.
       1023    2    1    2    0    0  0.00000000000E+00  0.00000000000E+00 -0.64042957144E+02  0.67093961079E+02  0.20002481183E+02 0.  0.
        -11    1    3    3    0    0 -0.99967709408E+01 -0.28057554372E+00 -0.31675138127E+02  0.33216389441E+02  0.51100000000E-03 0. -1.
         11    1    3    3    0    0  0.99967709408E+01  0.28057554372E+00 -0.32367819017E+02  0.33877571637E+02  0.51100000000E-03 0.  1.
<mgrwt>
<rscale>  0 0.20002481E+02</rscale>
<asrwt>0</asrwt>
<pdfrwt beam="1">  1        1 0.23469266E-03 0.20002481E+02</pdfrwt>
<pdfrwt beam="2">  1       -1 0.10087453E-01 0.20002481E+02</pdfrwt>
<totfact> 0.33871189E+06</totfact>
</mgrwt>
</event>
<event>
 5    1  0.1007297E-006  0.2000068E+02  0.7818608E-02  0.1745315E+00
          1   -1    0    0  501    0  0.00000000000E+00  0.00000000000E+00  0.10148638044E+03  0.10148638055E+03  0.46700000000E-02 0. -1.
         -1   -1    0    0    0  501 -0.00000000000E+00 -0.00000000000E+00 -0.98541480167E+00  0.98542586745E+00  0.46700000000E-02 0.  1.
       1023    2    1    2    0    0  0.00000000000E+00  0.00000000000E+00  0.10050096564E+03  0.10247180641E+03  0.20000675381E+02 0.  0.
        -11    1    3    3    0    0  0.19411801070E+01  0.98100564741E+01  0.50061163746E+02  0.51050225309E+02  0.51100000000E-03 0. -1.
         11    1    3    3    0    0 -0.19411801070E+01 -0.98100564741E+01  0.50439801893E+02  0.51421581106E+02  0.51100000000E-03 0.  1.
<mgrwt>
<rscale>  0 0.20000675E+02</rscale>
<asrwt>0</asrwt>
<pdfrwt beam="1">  1        1 0.15613282E-01 0.20000675E+02</pdfrwt>
<pdfrwt beam="2">  1       -1 0.15160321E-03 0.20000675E+02</pdfrwt>
<totfact> 0.44429295E+06</totfact>
</mgrwt>
</event>
<event>
 5    1  0.9583198E-007  0.2000009E+02  0.7818608E-02  0.1745326E+00
          1   -1    0    0  501    0  0.00000000000E+00  0.00000000000E+00  0.62475050614E+02  0.62475050788E+02  0.46700000000E-02 0. -1.
         -1   -1    0    0    0  501 -0.00000000000E+00 -0.00000000000E+00 -0.16006489829E+01  0.16006557954E+01  0.46700000000E-02 0.  1.
       1023    2    1    2    0    0  0.00000000000E+00  0.00000000000E+00  0.60874401631E+02  0.64075706584E+02  0.20000085007E+02 0.  0.
        -11    1    3    3    0    0  0.84625904654E+01 -0.53277932111E+01  0.30455302659E+02  0.32055050744E+02  0.51100000000E-03 0. -1.
         11    1    3    3    0    0 -0.84625904654E+01  0.53277932111E+01  0.30419098972E+02  0.32020655839E+02  0.51100000000E-03 0.  1.
<mgrwt>
<rscale>  0 0.20000085E+02</rscale>
<asrwt>0</asrwt>
<pdfrwt beam="1">  1        1 0.96115453E-02 0.20000085E+02</pdfrwt>
<pdfrwt beam="2">  1       -1 0.24625427E-03 0.20000085E+02</pdfrwt>
<totfact> 0.42423820E+06</totfact>
</mgrwt>
</event>
<event>
 5    1  0.9583198E-007  0.2000444E+02  0.7818608E-02  0.1745240E+00
          1   -1    0    0  501    0  0.00000000000E+00  0.00000000000E+00  0.44579870583E+01  0.44579895043E+01  0.46700000000E-02 0. -1.
         -1   -1    0    0    0  501 -0.00000000000E+00 -0.00000000000E+00 -0.22441590152E+02  0.22441590638E+02  0.46700000000E-02 0.  1.
       1023    2    1    2    0    0  0.00000000000E+00  0.00000000000E+00 -0.17983603093E+02  0.26899580142E+02  0.20004435298E+02 0.  0.
        -11    1    3    3    0    0 -0.97333248374E+01  0.23020308889E+01 -0.91074678034E+01  0.13527118269E+02  0.51100000000E-03 0.  1.
         11    1    3    3    0    0  0.97333248374E+01 -0.23020308889E+01 -0.88761352900E+01  0.13372461873E+02  0.51100000000E-03 0. -1.
<mgrwt>
<rscale>  0 0.20004435E+02</rscale>
<asrwt>0</asrwt>
<pdfrwt beam="1">  1        1 0.68584440E-03 0.20004435E+02</pdfrwt>
<pdfrwt beam="2">  1       -1 0.34525525E-02 0.20004435E+02</pdfrwt>
<totfact> 0.37156546E+06</totfact>
</mgrwt>
</event>
<event>
 4    1  0.9583198E-007  0.2013556E+02  0.7818608E-02  0.1742646E+00
          1   -1    0    0  501    0  0.00000000000E+00  0.00000000000E+00  0.20874320319E+01  0.20874372558E+01  0.46700000000E-02 0. -1.
         -1   -1    0    0    0  501 -0.00000000000E+00 -0.00000000000E+00 -0.48557281026E+02  0.48557281251E+02  0.46700000000E-02 0.  1.
        -11    1    1    2    0    0  0.11477455742E+01  0.10000912123E+02 -0.22840446140E+02  0.24960399503E+02  0.51100000000E-03 0. -1.
         11    1    1    2    0    0 -0.11477455742E+01 -0.10000912123E+02 -0.23629402854E+02  0.25684319004E+02  0.51100000000E-03 0.  1.
<mgrwt>
<rscale>  0 0.20135557E+02</rscale>
<asrwt>0</asrwt>
<pdfrwt beam="1">  1        1 0.32114385E-03 0.20135557E+02</pdfrwt>
<pdfrwt beam="2">  1       -1 0.74703505E-02 0.20135557E+02</pdfrwt>
<totfact> 0.34516215E+06</totfact>
</mgrwt>
</event>
<event>
 5    1  0.9583198E-007  0.2000120E+02  0.7818608E-02  0.1745304E+00
          1   -1    0    0  501    0  0.00000000000E+00  0.00000000000E+00  0.95475432990E+00  0.95476575105E+00  0.46700000000E-02 0. -1.
         -1   -1    0    0    0  501 -0.00000000000E+00 -0.00000000000E+00 -0.10475086810E+03  0.10475086820E+03  0.46700000000E-02 0.  1.
       1023    2    1    2    0    0  0.00000000000E+00  0.00000000000E+00 -0.10379611377E+03  0.10570563395E+03  0.20001195366E+02 0.  0.
        -11    1    3    3    0    0  0.84590297946E+01  0.53338379984E+01 -0.51457755502E+02  0.52420469422E+02  0.51100000000E-03 0.  1.
         11    1    3    3    0    0 -0.84590297946E+01 -0.53338379984E+01 -0.52338358267E+02  0.53285164532E+02  0.51100000000E-03 0. -1.
<mgrwt>
<rscale>  0 0.20001195E+02</rscale>
<asrwt>0</asrwt>
<pdfrwt beam="1">  1        1 0.14688625E-03 0.20001195E+02</pdfrwt>
<pdfrwt beam="2">  1       -1 0.16115510E-01 0.20001195E+02</pdfrwt>
<totfact> 0.31611065E+06</totfact>
</mgrwt>
</event>
<event>
 5    1  0.9583198E-007  0.2000177E+02  0.7818608E-02  0.1745293E+00
         -1   -1    0    0    0  501 -0.00000000000E+00  0.00000000000E+00  0.10381383672E+02  0.10381384722E+02  0.46700000000E-02 0.  1.
          1   -1    0    0  501    0  0.00000000000E+00 -0.00000000000E+00 -0.96343283550E+01  0.96343294869E+01  0.46700000000E-02 0. -1.
       1023    2    1    2    0    0  0.00000000000E+00  0.00000000000E+00  0.74705531685E+00  0.20015714209E+02  0.20001768013E+02 0.  0.
        -11    1    3    3    0    0  0.74606820046E+01  0.66600052192E+01  0.35818206274E+00  0.10007284354E+02  0.51100000000E-03 0. -1.
         11    1    3    3    0    0 -0.74606820046E+01 -0.66600052192E+01  0.38887325411E+00  0.10008429855E+02  0.51100000000E-03 0.  1.
<mgrwt>
<rscale>  0 0.20001768E+02</rscale>
<asrwt>0</asrwt>
<pdfrwt beam="2">  1        1 0.14822045E-02 0.20001768E+02</pdfrwt>
<pdfrwt beam="1">  1       -1 0.15971361E-02 0.20001768E+02</pdfrwt>
<totfact> 0.38558319E+06</totfact>
</mgrwt>
</event>
<event>
 5    1  0.9583198E-007  0.2000045E+02  0.7818608E-02  0.1745319E+00
          1   -1    0    0  501    0  0.00000000000E+00  0.00000000000E+00  0.29170191089E+02  0.29170191463E+02  0.46700000000E-02 0.  1.
         -1   -1    0    0    0  501 -0.00000000000E+00 -0.00000000000E+00 -0.34283100849E+01  0.34283132656E+01  0.46700000000E-02 0. -1.
       1023    2    1    2    0    0  0.00000000000E+00  0.00000000000E+00  0.25741881004E+02  0.32598504728E+02  0.20000451817E+02 0.  0.
        -11    1    3    3    0    0  0.10959858320E+01  0.99398719005E+01  0.12793120855E+02  0.16237800954E+02  0.51100000000E-03 0.  1.
         11    1    3    3    0    0 -0.10959858320E+01 -0.99398719005E+01  0.12948760148E+02  0.16360703774E+02  0.51100000000E-03 0. -1.
<mgrwt>
<rscale>  0 0.20000452E+02</rscale>
<asrwt>0</asrwt>
<pdfrwt beam="1">  1        1 0.44877220E-02 0.20000452E+02</pdfrwt>
<pdfrwt beam="2">  1       -1 0.52743259E-03 0.20000452E+02</pdfrwt>
<totfact> 0.40397185E+06</totfact>
</mgrwt>
</event>
<event>
 5    1  0.9865682E-007  0.2000153E+02  0.7818608E-02  0.1745298E+00
         -1   -1    0    0    0  501 -0.00000000000E+00  0.00000000000E+00  0.26287399106E+01  0.26287440588E+01  0.46700000000E-02 0.  1.
          1   -1    0    0  501    0  0.00000000000E+00 -0.00000000000E+00 -0.38046820616E+02  0.38046820903E+02  0.46700000000E-02 0. -1.
       1023    2    1    2    0    0  0.00000000000E+00  0.00000000000E+00 -0.35418080706E+02  0.40675564962E+02  0.20001528544E+02 0.  0.
        -11    1    3    3    0    0  0.45210396580E+01 -0.89201188411E+01 -0.17539308616E+02  0.20189989270E+02  0.51100000000E-03 0. -1.
         11    1    3    3    0    0 -0.45210396580E+01  0.89201188411E+01 -0.17878772089E+02  0.20485575692E+02  0.51100000000E-03 0.  1.
<mgrwt>
<rscale>  0 0.20001529E+02</rscale>
<asrwt>0</asrwt>
<pdfrwt beam="2">  1        1 0.58533570E-02 0.20001529E+02</pdfrwt>
<pdfrwt beam="1">  1       -1 0.40442189E-03 0.20001529E+02</pdfrwt>
<totfact> 0.40980362E+06</totfact>
</mgrwt>
</event>
<event>
 5    1  0.9583198E-007  0.2000461E+02  0.7818608E-02  0.1745236E+00
          1   -1    0    0  501    0  0.00000000000E+00  0.00000000000E+00  0.57720905898E+01  0.57720924790E+01  0.46700000000E-02 0.  1.
         -1   -1    0    0    0  501 -0.00000000000E+00 -0.00000000000E+00 -0.17332732728E+02  0.17332733357E+02  0.46700000000E-02 0. -1.
       1023    2    1    2    0    0  0.00000000000E+00  0.00000000000E+00 -0.11560642138E+02  0.23104825836E+02  0.20004612725E+02 0.  0.
        -11    1    3    3    0    0 -0.92346550911E+01  0.38396271916E+01 -0.59612532851E+01  0.11642943469E+02  0.51100000000E-03 0.  1.
         11    1    3    3    0    0  0.92346550911E+01 -0.38396271916E+01 -0.55993888534E+01  0.11461882368E+02  0.51100000000E-03 0. -1.
<mgrwt>
<rscale>  0 0.20004613E+02</rscale>
<asrwt>0</asrwt>
<pdfrwt beam="1">  1        1 0.88801414E-03 0.20004613E+02</pdfrwt>
<pdfrwt beam="2">  1       -1 0.26665744E-02 0.20004613E+02</pdfrwt>
<totfact> 0.37677762E+06</totfact>
</mgrwt>
</event>
<event>
 5    1  0.9583198E-007  0.2000621E+02  0.7818608E-02  0.1745205E+00
          1   -1    0    0  501    0  0.00000000000E+00  0.00000000000E+00  0.27416101690E+01  0.27416141464E+01  0.46700000000E-02 0.  1.
         -1   -1    0    0    0  501 -0.00000000000E+00 -0.00000000000E+00 -0.36497554790E+02  0.36497555089E+02  0.46700000000E-02 0. -1.
       1023    2    1    2    0    0  0.00000000000E+00  0.00000000000E+00 -0.33755944621E+02  0.39239169235E+02  0.20006214160E+02 0.  0.
        -11    1    3    3    0    0 -0.86236722080E+01  0.50689052644E+01 -0.16927125994E+02  0.19661869636E+02  0.51100000000E-03 0.  1.
         11    1    3    3    0    0  0.86236722080E+01 -0.50689052644E+01 -0.16828818627E+02  0.19577299599E+02  0.51100000000E-03 0. -1.
<mgrwt>
<rscale>  0 0.20006214E+02</rscale>
<asrwt>0</asrwt>
<pdfrwt beam="1">  1        1 0.42178653E-03 0.20006214E+02</pdfrwt>
<pdfrwt beam="2">  1       -1 0.56150084E-02 0.20006214E+02</pdfrwt>
<totfact> 0.35922253E+06</totfact>
</mgrwt>
</event>
<event>
 4    1  0.9583198E-007  0.2026228E+02  0.7818608E-02  0.1740162E+00
          1   -1    0    0  501    0  0.00000000000E+00  0.00000000000E+00  0.93988098222E+02  0.93988098338E+02  0.46700000000E-02 0. -1.
         -1   -1    0    0    0  501 -0.00000000000E+00 -0.00000000000E+00 -0.10920484067E+01  0.10920583919E+01  0.46700000000E-02 0.  1.
        -11    1    1    2    0    0 -0.89775727268E+01  0.46811195697E+01  0.44753917328E+02  0.45884886498E+02  0.51100000000E-03 0. -1.
         11    1    1    2    0    0  0.89775727268E+01 -0.46811195697E+01  0.48142132488E+02  0.49195270232E+02  0.51100000000E-03 0.  1.
<mgrwt>
<rscale>  0 0.20262283E+02</rscale>
<asrwt>0</asrwt>
<pdfrwt beam="1">  1        1 0.14459710E-01 0.20262283E+02</pdfrwt>
<pdfrwt beam="2">  1       -1 0.16800821E-03 0.20262283E+02</pdfrwt>
<totfact> 0.42815441E+06</totfact>
</mgrwt>
</event>
<event>
 5    1  0.9583198E-007  0.2001208E+02  0.7818608E-02  0.1745088E+00
         -1   -1    0    0    0  501 -0.00000000000E+00  0.00000000000E+00  0.41941408938E+01  0.41941434937E+01  0.46700000000E-02 0.  1.
          1   -1    0    0  501    0  0.00000000000E+00 -0.00000000000E+00 -0.23871576949E+02  0.23871577406E+02  0.46700000000E-02 0. -1.
       1023    2    1    2    0    0  0.00000000000E+00  0.00000000000E+00 -0.19677436055E+02  0.28065720899E+02  0.20012076352E+02 0.  0.
        -11    1    3    3    0    0 -0.79532421772E+01 -0.60717648848E+01 -0.98103287973E+01  0.14012956195E+02  0.51100000000E-03 0.  1.
         11    1    3    3    0    0  0.79532421772E+01  0.60717648848E+01 -0.98671072577E+01  0.14052764705E+02  0.51100000000E-03 0. -1.
<mgrwt>
<rscale>  0 0.20012076E+02</rscale>
<asrwt>0</asrwt>
<pdfrwt beam="2">  1        1 0.36725505E-02 0.20012076E+02</pdfrwt>
<pdfrwt beam="1">  1       -1 0.64525269E-03 0.20012076E+02</pdfrwt>
<totfact> 0.39960325E+06</totfact>
</mgrwt>
</event>
<event>
 5    1  0.9742204E-007  0.2000087E+02  0.7818608E-02  0.1745311E+00
          1   -1    0    0  501    0  0.00000000000E+00  0.00000000000E+00  0.29931430270E+02  0.29931430634E+02  0.46700000000E-02 0. -1.
         -1   -1    0    0    0  501 -0.00000000000E+00 -0.00000000000E+00 -0.33412587701E+01  0.33412620337E+01  0.46700000000E-02 0.  1.
       1023    2    1    2    0    0  0.00000000000E+00  0.00000000000E+00  0.26590171500E+02  0.33272692668E+02  0.20000871406E+02 0.  0.
        -11    1    3    3    0    0  0.32735385040E+01 -0.94492252455E+01  0.13179807898E+02  0.16544221002E+02  0.51100000000E-03 0.  1.
         11    1    3    3    0    0 -0.32735385040E+01  0.94492252455E+01  0.13410363601E+02  0.16728471665E+02  0.51100000000E-03 0. -1.
<mgrwt>
<rscale>  0 0.20000871E+02</rscale>
<asrwt>0</asrwt>
<pdfrwt beam="1">  1        1 0.46048358E-02 0.20000871E+02</pdfrwt>
<pdfrwt beam="2">  1       -1 0.51404008E-03 0.20000871E+02</pdfrwt>
<totfact> 0.40448025E+06</totfact>
</mgrwt>
</event>
<event>
 5    1  0.9583198E-007  0.2000547E+02  0.7818608E-02  0.1745219E+00
          1   -1    0    0  501    0  0.00000000000E+00  0.00000000000E+00  0.97696398250E+00  0.97697514401E+00  0.46700000000E-02 0. -1.
         -1   -1    0    0    0  501 -0.00000000000E+00 -0.00000000000E+00 -0.10241335543E+03  0.10241335554E+03  0.46700000000E-02 0.  1.
       1023    2    1    2    0    0  0.00000000000E+00  0.00000000000E+00 -0.10143639145E+03  0.10339033068E+03  0.20005473459E+02 0.  0.
        -11    1    3    3    0    0 -0.87257320174E+01 -0.48870370235E+01 -0.51660034840E+02  0.52619204955E+02  0.51100000000E-03 0. -1.
         11    1    3    3    0    0  0.87257320174E+01  0.48870370235E+01 -0.49776356606E+02  0.50771125725E+02  0.51100000000E-03 0.  1.
<mgrwt>
<rscale>  0 0.20005473E+02</rscale>
<asrwt>0</asrwt>
<pdfrwt beam="1">  1        1 0.15030310E-03 0.20005473E+02</pdfrwt>
<pdfrwt beam="2">  1       -1 0.15755893E-01 0.20005473E+02</pdfrwt>
<totfact> 0.31719871E+06</totfact>
</mgrwt>
</event>
<event>
 5    1  0.9634236E-007  0.2000088E+02  0.7818608E-02  0.1745311E+00
          1   -1    0    0  501    0  0.00000000000E+00  0.00000000000E+00  0.75907012349E+01  0.75907026714E+01  0.46700000000E-02 0. -1.
         -1   -1    0    0    0  501 -0.00000000000E+00 -0.00000000000E+00 -0.13175168456E+02  0.13175169283E+02  0.46700000000E-02 0.  1.
       1023    2    1    2    0    0  0.00000000000E+00  0.00000000000E+00 -0.55844672210E+01  0.20765871955E+02  0.20000879078E+02 0.  0.
        -11    1    3    3    0    0 -0.90896889686E+01  0.41696781133E+01 -0.27804139752E+01  0.10379757379E+02  0.51100000000E-03 0.  1.
         11    1    3    3    0    0  0.90896889686E+01 -0.41696781133E+01 -0.28040532457E+01  0.10386114576E+02  0.51100000000E-03 0. -1.
<mgrwt>
<rscale>  0 0.20000879E+02</rscale>
<asrwt>0</asrwt>
<pdfrwt beam="1">  1        1 0.11678004E-02 0.20000879E+02</pdfrwt>
<pdfrwt beam="2">  1       -1 0.20269492E-02 0.20000879E+02</pdfrwt>
<totfact> 0.38178583E+06</totfact>
</mgrwt>
</event>
<event>
 5    1  0.9583198E-007  0.2000084E+02  0.7818608E-02  0.1745311E+00
          1   -1    0    0  501    0  0.00000000000E+00  0.00000000000E+00  0.40614317964E+01  0.40614344812E+01  0.46700000000E-02 0. -1.
         -1   -1    0    0    0  501 -0.00000000000E+00 -0.00000000000E+00 -0.24623923235E+02  0.24623923678E+02  0.46700000000E-02 0.  1.
       1023    2    1    2    0    0  0.00000000000E+00  0.00000000000E+00 -0.20562491439E+02  0.28685358159E+02  0.20000842946E+02 0.  0.
        -11    1    3    3    0    0  0.57523839956E+01 -0.81803266660E+01 -0.10320871946E+02  0.14371084301E+02  0.51100000000E-03 0. -1.
         11    1    3    3    0    0 -0.57523839956E+01  0.81803266660E+01 -0.10241619493E+02  0.14314273858E+02  0.51100000000E-03 0.  1.
<mgrwt>
<rscale>  0 0.20000843E+02</rscale>
<asrwt>0</asrwt>
<pdfrwt beam="1">  1        1 0.62483591E-03 0.20000843E+02</pdfrwt>
<pdfrwt beam="2">  1       -1 0.37882960E-02 0.20000843E+02</pdfrwt>
<totfact> 0.36964233E+06</totfact>
</mgrwt>
</event>
<event>
 5    1  0.9583198E-007  0.2000179E+02  0.7818608E-02  0.1745293E+00
         -1   -1    0    0    0  501 -0.00000000000E+00  0.00000000000E+00  0.21661247440E+02  0.21661247943E+02  0.46700000000E-02 0. -1.
          1   -1    0    0  501    0  0.00000000000E+00 -0.00000000000E+00 -0.46173617974E+01  0.46173641590E+01  0.46700000000E-02 0.  1.
       1023    2    1    2    0    0  0.00000000000E+00  0.00000000000E+00  0.17043885643E+02  0.26278612102E+02  0.20001785326E+02 0.  0.
        -11    1    3    3    0    0 -0.96321396242E+01 -0.26883516092E+01  0.83750206412E+01  0.13044014685E+02  0.51100000000E-03 0. -1.
         11    1    3    3    0    0  0.96321396242E+01  0.26883516092E+01  0.86688650014E+01  0.13234597417E+02  0.51100000000E-03 0.  1.
<mgrwt>
<rscale>  0 0.20001785E+02</rscale>
<asrwt>0</asrwt>
<pdfrwt beam="2">  1        1 0.71036357E-03 0.20001785E+02</pdfrwt>
<pdfrwt beam="1">  1       -1 0.33324998E-02 0.20001785E+02</pdfrwt>
<totfact> 0.37243424E+06</totfact>
</mgrwt>
</event>
<event>
 5    1  0.9583198E-007  0.2000060E+02  0.7818608E-02  0.1745316E+00
         -1   -1    0    0    0  501 -0.00000000000E+00  0.00000000000E+00  0.29574455807E+02  0.29574456175E+02  0.46700000000E-02 0. -1.
          1   -1    0    0  501    0  0.00000000000E+00 -0.00000000000E+00 -0.33814974111E+01  0.33815006359E+01  0.46700000000E-02 0.  1.
       1023    2    1    2    0    0  0.00000000000E+00  0.00000000000E+00  0.26192958395E+02  0.32955956811E+02  0.20000600487E+02 0.  0.
        -11    1    3    3    0    0  0.65579230244E+01  0.75497815335E+01  0.13061560231E+02  0.16450225273E+02  0.51100000000E-03 0.  1.
         11    1    3    3    0    0 -0.65579230244E+01 -0.75497815335E+01  0.13131398165E+02  0.16505731538E+02  0.51100000000E-03 0. -1.
<mgrwt>
<rscale>  0 0.20000600E+02</rscale>
<asrwt>0</asrwt>
<pdfrwt beam="2">  1        1 0.52023064E-03 0.20000600E+02</pdfrwt>
<pdfrwt beam="1">  1       -1 0.45499166E-02 0.20000600E+02</pdfrwt>
<totfact> 0.36520930E+06</totfact>
</mgrwt>
</event>
<event>
 5    1  0.9583198E-007  0.2000011E+02  0.7818608E-02  0.1745326E+00
          1   -1    0    0  501    0  0.00000000000E+00  0.00000000000E+00  0.63360110378E+01  0.63360127589E+01  0.46700000000E-02 0. -1.
         -1   -1    0    0    0  501 -0.00000000000E+00 -0.00000000000E+00 -0.15782963033E+02  0.15782963724E+02  0.46700000000E-02 0.  1.
       1023    2    1    2    0    0  0.00000000000E+00  0.00000000000E+00 -0.94469519951E+01  0.22118976483E+02  0.20000105466E+02 0.  0.
        -11    1    3    3    0    0  0.80715715055E+01  0.59034156237E+01 -0.46994537196E+01  0.11049228395E+02  0.51100000000E-03 0. -1.
         11    1    3    3    0    0 -0.80715715055E+01 -0.59034156237E+01 -0.47474982754E+01  0.11069748088E+02  0.51100000000E-03 0.  1.
<mgrwt>
<rscale>  0 0.20000105E+02</rscale>
<asrwt>0</asrwt>
<pdfrwt beam="1">  1        1 0.97477112E-03 0.20000105E+02</pdfrwt>
<pdfrwt beam="2">  1       -1 0.24281483E-02 0.20000105E+02</pdfrwt>
<totfact> 0.37868861E+06</totfact>
</mgrwt>
</event>
<event>
 5    1  0.9646966E-007  0.2000256E+02  0.7818608E-02  0.1745277E+00
          1   -1    0    0  501    0  0.00000000000E+00  0.00000000000E+00  0.69045297527E+02  0.69045297685E+02  0.46700000000E-02 0.  1.
         -1   -1    0    0    0  501 -0.00000000000E+00 -0.00000000000E+00 -0.14486920186E+01  0.14486995457E+01  0.46700000000E-02 0. -1.
       1023    2    1    2    0    0  0.00000000000E+00  0.00000000000E+00  0.67596605508E+02  0.70493997231E+02  0.20002564068E+02 0.  0.
        -11    1    3    3    0    0  0.40465364462E+01 -0.91456027462E+01  0.33461460223E+02  0.34924000734E+02  0.51100000000E-03 0.  1.
         11    1    3    3    0    0 -0.40465364462E+01  0.91456027462E+01  0.34135145286E+02  0.35569996496E+02  0.51100000000E-03 0. -1.
<mgrwt>
<rscale>  0 0.20002564E+02</rscale>
<asrwt>0</asrwt>
<pdfrwt beam="1">  1        1 0.10622354E-01 0.20002564E+02</pdfrwt>
<pdfrwt beam="2">  1       -1 0.22287630E-03 0.20002564E+02</pdfrwt>
<totfact> 0.42770449E+06</totfact>
</mgrwt>
</event>
<event>
 5    1  0.9583198E-007  0.2001016E+02  0.7818608E-02  0.1745126E+00
         -1   -1    0    0    0  501 -0.00000000000E+00  0.00000000000E+00  0.10039380609E+03  0.10039380620E+03  0.46700000000E-02 0.  1.
          1   -1    0    0  501    0  0.00000000000E+00 -0.00000000000E+00 -0.99708412521E+00  0.99709506148E+00  0.46700000000E-02 0. -1.
       1023    2    1    2    0    0  0.00000000000E+00  0.00000000000E+00  0.99396721963E+02  0.10139090126E+03  0.20010160444E+02 0.  0.
        -11    1    3    3    0    0 -0.90059570119E+01 -0.43574035538E+01  0.50134313491E+02  0.51122828725E+02  0.51100000000E-03 0.  1.
         11    1    3    3    0    0  0.90059570119E+01  0.43574035538E+01  0.49262408472E+02  0.50268072533E+02  0.51100000000E-03 0. -1.
<mgrwt>
<rscale>  0 0.20010160E+02</rscale>
<asrwt>0</asrwt>
<pdfrwt beam="2">  1        1 0.15339839E-03 0.20010160E+02</pdfrwt>
<pdfrwt beam="1">  1       -1 0.15445203E-01 0.20010160E+02</pdfrwt>
<totfact> 0.31811262E+06</totfact>
</mgrwt>
</event>
<event>
 5    1  0.9583198E-007  0.2000996E+02  0.7818608E-02  0.1745130E+00
         -1   -1    0    0    0  501 -0.00000000000E+00  0.00000000000E+00  0.64371043027E+01  0.64371059967E+01  0.46700000000E-02 0. -1.
          1   -1    0    0  501    0  0.00000000000E+00 -0.00000000000E+00 -0.15550407472E+02  0.15550408173E+02  0.46700000000E-02 0.  1.
       1023    2    1    2    0    0  0.00000000000E+00  0.00000000000E+00 -0.91133031691E+01  0.21987514170E+02  0.20009959638E+02 0.  0.
        -11    1    3    3    0    0  0.11060340702E+01 -0.99423900759E+01 -0.43822555886E+01  0.10921474081E+02  0.51100000000E-03 0.  1.
         11    1    3    3    0    0 -0.11060340702E+01  0.99423900759E+01 -0.47310475805E+01  0.11066040089E+02  0.51100000000E-03 0. -1.
<mgrwt>
<rscale>  0 0.20009960E+02</rscale>
<asrwt>0</asrwt>
<pdfrwt beam="2">  1        1 0.23923706E-02 0.20009960E+02</pdfrwt>
<pdfrwt beam="1">  1       -1 0.99032393E-03 0.20009960E+02</pdfrwt>
<totfact> 0.39256592E+06</totfact>
</mgrwt>
</event>
<event>
 5    1  0.9583198E-007  0.2000058E+02  0.7818608E-02  0.1745317E+00
         -1   -1    0    0    0  501 -0.00000000000E+00  0.00000000000E+00  0.11197151812E+03  0.11197151822E+03  0.46700000000E-02 0.  1.
          1   -1    0    0  501    0  0.00000000000E+00 -0.00000000000E+00 -0.89312940942E+00  0.89314161860E+00  0.46700000000E-02 0. -1.
       1023    2    1    2    0    0  0.00000000000E+00  0.00000000000E+00  0.11107838871E+03  0.11286465984E+03  0.20000575026E+02 0.  0.
        -11    1    3    3    0    0 -0.81351264502E+01  0.58159650572E+01  0.55515138826E+02  0.56408655107E+02  0.51100000000E-03 0. -1.
         11    1    3    3    0    0  0.81351264502E+01 -0.58159650572E+01  0.55563249887E+02  0.56456004731E+02  0.51100000000E-03 0.  1.
<mgrwt>
<rscale>  0 0.20000575E+02</rscale>
<asrwt>0</asrwt>
<pdfrwt beam="2">  1        1 0.13740560E-03 0.20000575E+02</pdfrwt>
<pdfrwt beam="1">  1       -1 0.17226372E-01 0.20000575E+02</pdfrwt>
<totfact> 0.31238494E+06</totfact>
</mgrwt>
</event>
<event>
 5    1  0.9583198E-007  0.2000133E+02  0.7818608E-02  0.1745302E+00
         -1   -1    0    0    0  501 -0.00000000000E+00  0.00000000000E+00  0.94412329058E+01  0.94412340608E+01  0.46700000000E-02 0. -1.
          1   -1    0    0  501    0  0.00000000000E+00 -0.00000000000E+00 -0.10593243062E+02  0.10593244091E+02  0.46700000000E-02 0.  1.
       1023    2    1    2    0    0  0.00000000000E+00  0.00000000000E+00 -0.11520101561E+01  0.20034478152E+02  0.20001329641E+02 0.  0.
        -11    1    3    3    0    0  0.94722801088E+01  0.32069943864E+01 -0.50961445102E+00  0.10013421523E+02  0.51100000000E-03 0. -1.
         11    1    3    3    0    0 -0.94722801088E+01 -0.32069943864E+01 -0.64239570509E+00  0.10021056629E+02  0.51100000000E-03 0.  1.
<mgrwt>
<rscale>  0 0.20001330E+02</rscale>
<asrwt>0</asrwt>
<pdfrwt beam="2">  1        1 0.16297299E-02 0.20001330E+02</pdfrwt>
<pdfrwt beam="1">  1       -1 0.14524975E-02 0.20001330E+02</pdfrwt>
<totfact> 0.38707068E+06</totfact>
</mgrwt>
</event>
<event>
 5    1  0.9583198E-007  0.2000028E+02  0.7818608E-02  0.1745322E+00
          1   -1    0    0  501    0  0.00000000000E+00  0.00000000000E+00  0.43227550350E+01  0.43227575576E+01  0.46700000000E-02 0.  1.
         -1   -1    0    0    0  501 -0.00000000000E+00 -0.00000000000E+00 -0.23134036368E+02  0.23134036839E+02  0.46700000000E-02 0. -1.
       1023    2    1    2    0    0  0.00000000000E+00  0.00000000000E+00 -0.18811281333E+02  0.27456794397E+02  0.20000281327E+02 0.  0.
        -11    1    3    3    0    0  0.78345106260E+01 -0.62147604680E+01 -0.94096681305E+01  0.13731156507E+02  0.51100000000E-03 0. -1.
         11    1    3    3    0    0 -0.78345106260E+01  0.62147604680E+01 -0.94016132023E+01  0.13725637890E+02  0.51100000000E-03 0.  1.
<mgrwt>
<rscale>  0 0.20000281E+02</rscale>
<asrwt>0</asrwt>
<pdfrwt beam="1">  1        1 0.66503948E-03 0.20000281E+02</pdfrwt>
<pdfrwt beam="2">  1       -1 0.35590827E-02 0.20000281E+02</pdfrwt>
<totfact> 0.37106956E+06</totfact>
</mgrwt>
</event>
<event>
 5    1  0.9583198E-007  0.2000065E+02  0.7818608E-02  0.1745315E+00
          1   -1    0    0  501    0  0.00000000000E+00  0.00000000000E+00  0.62642841048E+02  0.62642841222E+02  0.46700000000E-02 0.  1.
         -1   -1    0    0    0  501 -0.00000000000E+00 -0.00000000000E+00 -0.15964514892E+01  0.15964583196E+01  0.46700000000E-02 0. -1.
       1023    2    1    2    0    0  0.00000000000E+00  0.00000000000E+00  0.61046389559E+02  0.64239299542E+02  0.20000648175E+02 0.  0.
        -11    1    3    3    0    0  0.89148622916E+01 -0.45309637056E+01  0.30376717801E+02  0.31980453193E+02  0.51100000000E-03 0. -1.
         11    1    3    3    0    0 -0.89148622916E+01  0.45309637056E+01  0.30669671758E+02  0.32258846349E+02  0.51100000000E-03 0.  1.
<mgrwt>
<rscale>  0 0.20000648E+02</rscale>
<asrwt>0</asrwt>
<pdfrwt beam="1">  1        1 0.96373606E-02 0.20000648E+02</pdfrwt>
<pdfrwt beam="2">  1       -1 0.24560846E-03 0.20000648E+02</pdfrwt>
<totfact> 0.42430446E+06</totfact>
</mgrwt>
</event>
<event>
 5    1  0.9583198E-007  0.2000039E+02  0.7818608E-02  0.1745320E+00
         -1   -1    0    0    0  501 -0.00000000000E+00  0.00000000000E+00  0.95334009312E+00  0.95335153120E+00  0.46700000000E-02 0.  1.
          1   -1    0    0  501    0  0.00000000000E+00 -0.00000000000E+00 -0.10489783294E+03  0.10489783304E+03  0.46700000000E-02 0. -1.
       1023    2    1    2    0    0  0.00000000000E+00  0.00000000000E+00 -0.10394449284E+03  0.10585118457E+03  0.20000392065E+02 0.  0.
        -11    1    3    3    0    0  0.39385724867E+01 -0.91918432097E+01 -0.52182990016E+02  0.53132539767E+02  0.51100000000E-03 0.  1.
         11    1    3    3    0    0 -0.39385724867E+01  0.91918432097E+01 -0.51761502826E+02  0.52718644804E+02  0.51100000000E-03 0. -1.
<mgrwt>
<rscale>  0 0.20000392E+02</rscale>
<asrwt>0</asrwt>
<pdfrwt beam="2">  1        1 0.16138120E-01 0.20000392E+02</pdfrwt>
<pdfrwt beam="1">  1       -1 0.14666868E-03 0.20000392E+02</pdfrwt>
<totfact> 0.44594377E+06</totfact>
</mgrwt>
</event>
<event>
 5    1  0.9583198E-007  0.2000199E+02  0.7818608E-02  0.1745289E+00
          1   -1    0    0  501    0  0.00000000000E+00  0.00000000000E+00  0.11561810637E+02  0.11561811580E+02  0.46700000000E-02 0.  1.
         -1   -1    0    0    0  501 -0.00000000000E+00 -0.00000000000E+00 -0.86508801511E+01  0.86508814116E+01  0.46700000000E-02 0. -1.
       1023    2    1    2    0    0  0.00000000000E+00  0.00000000000E+00  0.29109304859E+01  0.20212692992E+02  0.20001985943E+02 0.  0.
        -11    1    3    3    0    0  0.35653454847E+01  0.93438799792E+01  0.14644282622E+01  0.10107637305E+02  0.51100000000E-03 0.  1.
         11    1    3    3    0    0 -0.35653454847E+01 -0.93438799792E+01  0.14465022238E+01  0.10105055687E+02  0.51100000000E-03 0. -1.
<mgrwt>
<rscale>  0 0.20001986E+02</rscale>
<asrwt>0</asrwt>
<pdfrwt beam="1">  1        1 0.17787403E-02 0.20001986E+02</pdfrwt>
<pdfrwt beam="2">  1       -1 0.13309048E-02 0.20001986E+02</pdfrwt>
<totfact> 0.38838053E+06</totfact>
</mgrwt>
</event>
<event>
 5    1  0.9643868E-007  0.2000109E+02  0.7818608E-02  0.1745306E+00
         -1   -1    0    0    0  501 -0.00000000000E+00  0.00000000000E+00  0.13367193279E+02  0.13367194095E+02  0.46700000000E-02 0. -1.
          1   -1    0    0  501    0  0.00000000000E+00 -0.00000000000E+00 -0.74818147360E+01  0.74818161935E+01  0.46700000000E-02 0.  1.
       1023    2    1    2    0    0  0.00000000000E+00  0.00000000000E+00  0.58853785430E+01  0.20849010288E+02  0.20001088705E+02 0.  0.
        -11    1    3    3    0    0 -0.38717900210E+01 -0.92203915005E+01  0.28726880397E+01  0.10404744794E+02  0.51100000000E-03 0. -1.
         11    1    3    3    0    0  0.38717900210E+01  0.92203915005E+01  0.30126905032E+01  0.10444265494E+02  0.51100000000E-03 0.  1.
<mgrwt>
<rscale>  0 0.20001089E+02</rscale>
<asrwt>0</asrwt>
<pdfrwt beam="2">  1        1 0.11510486E-02 0.20001089E+02</pdfrwt>
<pdfrwt beam="1">  1       -1 0.20564914E-02 0.20001089E+02</pdfrwt>
<totfact> 0.38153445E+06</totfact>
</mgrwt>
</event>
<event>
 5    1  0.9604144E-007  0.2000099E+02  0.7818608E-02  0.1745308E+00
         -1   -1    0    0    0  501 -0.00000000000E+00  0.00000000000E+00  0.19655511923E+02  0.19655512478E+02  0.46700000000E-02 0. -1.
          1   -1    0    0  501    0  0.00000000000E+00 -0.00000000000E+00 -0.50881343576E+01  0.50881365007E+01  0.46700000000E-02 0.  1.
       1023    2    1    2    0    0  0.00000000000E+00  0.00000000000E+00  0.14567377565E+02  0.24743648978E+02  0.20000991866E+02 0.  0.
        -11    1    3    3    0    0 -0.77041251392E+01 -0.63762343067E+01  0.72877073631E+01  0.12374190356E+02  0.51100000000E-03 0. -1.
         11    1    3    3    0    0  0.77041251392E+01  0.63762343067E+01  0.72796702021E+01  0.12369458622E+02  0.51100000000E-03 0.  1.
<mgrwt>
<rscale>  0 0.20000992E+02</rscale>
<asrwt>0</asrwt>
<pdfrwt beam="2">  1        1 0.78279012E-03 0.20000992E+02</pdfrwt>
<pdfrwt beam="1">  1       -1 0.30239251E-02 0.20000992E+02</pdfrwt>
<totfact> 0.37447910E+06</totfact>
</mgrwt>
</event>
<event>
 5    1  0.9707469E-007  0.2000129E+02  0.7818608E-02  0.1745302E+00
         -1   -1    0    0    0  501 -0.00000000000E+00  0.00000000000E+00  0.20717735517E+02  0.20717736044E+02  0.46700000000E-02 0.  1.
          1   -1    0    0  501    0  0.00000000000E+00 -0.00000000000E+00 -0.48274035519E+01  0.48274058108E+01  0.46700000000E-02 0. -1.
       1023    2    1    2    0    0  0.00000000000E+00  0.00000000000E+00  0.15890331965E+02  0.25545141854E+02  0.20001290518E+02 0.  0.
        -11    1    3    3    0    0 -0.72481793011E+01 -0.68895428732E+01  0.80791242222E+01  0.12855899527E+02  0.51100000000E-03 0.  1.
         11    1    3    3    0    0  0.72481793011E+01  0.68895428732E+01  0.78112077431E+01  0.12689242328E+02  0.51100000000E-03 0. -1.
<mgrwt>
<rscale>  0 0.20001291E+02</rscale>
<asrwt>0</asrwt>
<pdfrwt beam="2">  1        1 0.74267767E-03 0.20001291E+02</pdfrwt>
<pdfrwt beam="1">  1       -1 0.31873442E-02 0.20001291E+02</pdfrwt>
<totfact> 0.37339026E+06</totfact>
</mgrwt>
</event>
<event>
 4    1  0.1219581E-006  0.2007502E+02  0.7818608E-02  0.1743840E+00
          1   -1    0    0  501    0  0.00000000000E+00  0.00000000000E+00  0.34084622750E+02  0.34084623070E+02  0.46700000000E-02 0.  1.
         -1   -1    0    0    0  501 -0.00000000000E+00 -0.00000000000E+00 -0.29559244849E+01  0.29559281739E+01  0.46700000000E-02 0. -1.
        -11    1    1    2    0    0  0.23281003252E+01  0.97271772599E+01  0.17123017679E+02  0.19830173052E+02  0.51100000000E-03 0.  1.
         11    1    1    2    0    0 -0.23281003252E+01 -0.97271772599E+01  0.14005680586E+02  0.17210378192E+02  0.51100000000E-03 0. -1.
<mgrwt>
<rscale>  0 0.20075024E+02</rscale>
<asrwt>0</asrwt>
<pdfrwt beam="1">  1        1 0.52437885E-02 0.20075024E+02</pdfrwt>
<pdfrwt beam="2">  1       -1 0.45475792E-03 0.20075024E+02</pdfrwt>
<totfact> 0.40392488E+06</totfact>
</mgrwt>
</event>
<event>
 5    1  0.9583198E-007  0.2000057E+02  0.7818608E-02  0.1745317E+00
          1   -1    0    0  501    0  0.00000000000E+00  0.00000000000E+00  0.14237935534E+01  0.14238012121E+01  0.46700000000E-02 0. -1.
         -1   -1    0    0    0  501 -0.00000000000E+00 -0.00000000000E+00 -0.70238718949E+02  0.70238719104E+02  0.46700000000E-02 0.  1.
       1023    2    1    2    0    0  0.00000000000E+00  0.00000000000E+00 -0.68814925395E+02  0.71662520316E+02  0.20000571514E+02 0.  0.
        -11    1    3    3    0    0  0.19529052003E+00  0.99981505607E+01 -0.34649467780E+02  0.36063648883E+02  0.51100000000E-03 0.  1.
         11    1    3    3    0    0 -0.19529052003E+00 -0.99981505607E+01 -0.34165457615E+02  0.35598871434E+02  0.51100000000E-03 0. -1.
<mgrwt>
<rscale>  0 0.20000572E+02</rscale>
<asrwt>0</asrwt>
<pdfrwt beam="1">  1        1 0.21904582E-03 0.20000572E+02</pdfrwt>
<pdfrwt beam="2">  1       -1 0.10805955E-01 0.20000572E+02</pdfrwt>
<totfact> 0.33583459E+06</totfact>
</mgrwt>
</event>
<event>
 5    1  0.9583198E-007  0.2000033E+02  0.7818608E-02  0.1745322E+00
          1   -1    0    0  501    0  0.00000000000E+00  0.00000000000E+00  0.34241317768E+02  0.34241318086E+02  0.46700000000E-02 0.  1.
         -1   -1    0    0    0  501 -0.00000000000E+00 -0.00000000000E+00 -0.29205422837E+01  0.29205460174E+01  0.46700000000E-02 0. -1.
       1023    2    1    2    0    0  0.00000000000E+00  0.00000000000E+00  0.31320775484E+02  0.37161864104E+02  0.20000329165E+02 0.  0.
        -11    1    3    3    0    0  0.66417730588E+01  0.74757709536E+01  0.15762000251E+02  0.18666573143E+02  0.51100000000E-03 0.  1.
         11    1    3    3    0    0 -0.66417730588E+01 -0.74757709536E+01  0.15558775233E+02  0.18495290961E+02  0.51100000000E-03 0. -1.
<mgrwt>
<rscale>  0 0.20000329E+02</rscale>
<asrwt>0</asrwt>
<pdfrwt beam="1">  1        1 0.52678951E-02 0.20000329E+02</pdfrwt>
<pdfrwt beam="2">  1       -1 0.44931453E-03 0.20000329E+02</pdfrwt>
<totfact> 0.40740153E+06</totfact>
</mgrwt>
</event>
<event>
 5    1  0.9647990E-007  0.2000219E+02  0.7818608E-02  0.1745284E+00
          1   -1    0    0  501    0  0.00000000000E+00  0.00000000000E+00  0.24208276512E+02  0.24208276962E+02  0.46700000000E-02 0.  1.
         -1   -1    0    0    0  501 -0.00000000000E+00 -0.00000000000E+00 -0.41317233666E+01  0.41317260058E+01  0.46700000000E-02 0. -1.
       1023    2    1    2    0    0  0.00000000000E+00  0.00000000000E+00  0.20076553145E+02  0.28340002968E+02  0.20002194431E+02 0.  0.
        -11    1    3    3    0    0 -0.95615874709E+01  0.29321767494E+01  0.10064006826E+02  0.14188229245E+02  0.51100000000E-03 0.  1.
         11    1    3    3    0    0  0.95615874709E+01 -0.29321767494E+01  0.10012546319E+02  0.14151773723E+02  0.51100000000E-03 0. -1.
<mgrwt>
<rscale>  0 0.20002194E+02</rscale>
<asrwt>0</asrwt>
<pdfrwt beam="1">  1        1 0.37243506E-02 0.20002194E+02</pdfrwt>
<pdfrwt beam="2">  1       -1 0.63564997E-03 0.20002194E+02</pdfrwt>
<totfact> 0.40030081E+06</totfact>
</mgrwt>
</event>
<event>
 5    1  0.9583198E-007  0.2000035E+02  0.7818608E-02  0.1745321E+00
         -1   -1    0    0    0  501 -0.00000000000E+00  0.00000000000E+00  0.29077071782E+02  0.29077072157E+02  0.46700000000E-02 0.  1.
          1   -1    0    0  501    0  0.00000000000E+00 -0.00000000000E+00 -0.34392557919E+01  0.34392589625E+01  0.46700000000E-02 0. -1.
       1023    2    1    2    0    0  0.00000000000E+00  0.00000000000E+00  0.25637815990E+02  0.32516331119E+02  0.20000354515E+02 0.  0.
        -11    1    3    3    0    0  0.83025695251E+01 -0.55740741855E+01  0.12779714099E+02  0.16227262753E+02  0.51100000000E-03 0.  1.
         11    1    3    3    0    0 -0.83025695251E+01  0.55740741855E+01  0.12858101891E+02  0.16289068366E+02  0.51100000000E-03 0. -1.
<mgrwt>
<rscale>  0 0.20000355E+02</rscale>
<asrwt>0</asrwt>
<pdfrwt beam="2">  1        1 0.52911653E-03 0.20000355E+02</pdfrwt>
<pdfrwt beam="1">  1       -1 0.44733961E-02 0.20000355E+02</pdfrwt>
<totfact> 0.36565231E+06</totfact>
</mgrwt>
</event>
<event>
 5    1  0.9583198E-007  0.2000299E+02  0.7818608E-02  0.1745269E+00
          1   -1    0    0  501    0  0.00000000000E+00  0.00000000000E+00  0.31150937242E+01  0.31150972248E+01  0.46700000000E-02 0.  1.
         -1   -1    0    0    0  501 -0.00000000000E+00 -0.00000000000E+00 -0.32111330194E+02  0.32111330534E+02  0.46700000000E-02 0. -1.
       1023    2    1    2    0    0  0.00000000000E+00  0.00000000000E+00 -0.28996236470E+02  0.35226427758E+02  0.20002986857E+02 0.  0.
        -11    1    3    3    0    0  0.98940761843E+00  0.99516143595E+01 -0.14723056787E+02  0.17798369510E+02  0.51100000000E-03 0. -1.
         11    1    3    3    0    0 -0.98940761843E+00 -0.99516143595E+01 -0.14273179683E+02  0.17428058248E+02  0.51100000000E-03 0.  1.
<mgrwt>
<rscale>  0 0.20002987E+02</rscale>
<asrwt>0</asrwt>
<pdfrwt beam="1">  1        1 0.47924551E-03 0.20002987E+02</pdfrwt>
<pdfrwt beam="2">  1       -1 0.49402047E-02 0.20002987E+02</pdfrwt>
<totfact> 0.36294698E+06</totfact>
</mgrwt>
</event>
<event>
 5    1  0.9583198E-007  0.2000722E+02  0.7818608E-02  0.1745185E+00
         -1   -1    0    0    0  501 -0.00000000000E+00  0.00000000000E+00  0.85984324791E+00  0.85985592972E+00  0.46700000000E-02 0.  1.
          1   -1    0    0  501    0  0.00000000000E+00 -0.00000000000E+00 -0.11638333420E+03  0.11638333430E+03  0.46700000000E-02 0. -1.
       1023    2    1    2    0    0  0.00000000000E+00  0.00000000000E+00 -0.11552349095E+03  0.11724319023E+03  0.20007215999E+02 0.  0.
        -11    1    3    3    0    0 -0.24603316033E+01 -0.96953700889E+01 -0.58563950825E+02  0.59412033876E+02  0.51100000000E-03 0.  1.
         11    1    3    3    0    0  0.24603316033E+01  0.96953700889E+01 -0.56959540129E+02  0.57831156350E+02  0.51100000000E-03 0. -1.
<mgrwt>
<rscale>  0 0.20007216E+02</rscale>
<asrwt>0</asrwt>
<pdfrwt beam="2">  1        1 0.17905117E-01 0.20007216E+02</pdfrwt>
<pdfrwt beam="1">  1       -1 0.13228465E-03 0.20007216E+02</pdfrwt>
<totfact> 0.45098648E+06</totfact>
</mgrwt>
</event>
<event>
 5    1  0.9827860E-007  0.2000158E+02  0.7818608E-02  0.1745297E+00
         -1   -1    0    0    0  501 -0.00000000000E+00  0.00000000000E+00  0.75981903031E+01  0.75981917382E+01  0.46700000000E-02 0. -1.
          1   -1    0    0  501    0  0.00000000000E+00 -0.00000000000E+00 -0.13163105481E+02  0.13163106309E+02  0.46700000000E-02 0.  1.
       1023    2    1    2    0    0  0.00000000000E+00  0.00000000000E+00 -0.55649151776E+01  0.20761298047E+02  0.20001580329E+02 0.  0.
        -11    1    3    3    0    0  0.51431281457E+01  0.85769196407E+01 -0.27595745522E+01  0.10374515392E+02  0.51100000000E-03 0. -1.
         11    1    3    3    0    0 -0.51431281457E+01 -0.85769196407E+01 -0.28053406254E+01  0.10386782655E+02  0.51100000000E-03 0.  1.
<mgrwt>
<rscale>  0 0.20001580E+02</rscale>
<asrwt>0</asrwt>
<pdfrwt beam="2">  1        1 0.20250933E-02 0.20001580E+02</pdfrwt>
<pdfrwt beam="1">  1       -1 0.11689525E-02 0.20001580E+02</pdfrwt>
<totfact> 0.39037421E+06</totfact>
</mgrwt>
</event>
<event>
 5    1  0.9583198E-007  0.2000032E+02  0.7818608E-02  0.1745322E+00
          1   -1    0    0  501    0  0.00000000000E+00  0.00000000000E+00  0.76823239408E+02  0.76823239550E+02  0.46700000000E-02 0.  1.
         -1   -1    0    0    0  501 -0.00000000000E+00 -0.00000000000E+00 -0.13017271259E+01  0.13017355028E+01  0.46700000000E-02 0. -1.
       1023    2    1    2    0    0  0.00000000000E+00  0.00000000000E+00  0.75521512282E+02  0.78124975053E+02  0.20000322738E+02 0.  0.
        -11    1    3    3    0    0 -0.87796812593E+01  0.47873296494E+01  0.37930976167E+02  0.39227035084E+02  0.51100000000E-03 0. -1.
         11    1    3    3    0    0  0.87796812593E+01 -0.47873296494E+01  0.37590536115E+02  0.38897939969E+02  0.51100000000E-03 0.  1.
<mgrwt>
<rscale>  0 0.20000323E+02</rscale>
<asrwt>0</asrwt>
<pdfrwt beam="1">  1        1 0.11818960E-01 0.20000323E+02</pdfrwt>
<pdfrwt beam="2">  1       -1 0.20026637E-03 0.20000323E+02</pdfrwt>
<totfact> 0.43193022E+06</totfact>
</mgrwt>
</event>
<event>
 5    1  0.1021365E-006  0.2000146E+02  0.7818608E-02  0.1745299E+00
          1   -1    0    0  501    0  0.00000000000E+00  0.00000000000E+00  0.10490700656E+03  0.10490700666E+03  0.46700000000E-02 0.  1.
         -1   -1    0    0    0  501 -0.00000000000E+00 -0.00000000000E+00 -0.95335846970E+00  0.95336990757E+00  0.46700000000E-02 0. -1.
       1023    2    1    2    0    0  0.00000000000E+00  0.00000000000E+00  0.10395364809E+03  0.10586037657E+03  0.20001459361E+02 0.  0.
        -11    1    3    3    0    0  0.51012313928E+01 -0.86018468353E+01  0.51890962176E+02  0.52845872937E+02  0.51100000000E-03 0. -1.
         11    1    3    3    0    0 -0.51012313928E+01  0.86018468353E+01  0.52062685914E+02  0.53014503634E+02  0.51100000000E-03 0.  1.
<mgrwt>
<rscale>  0 0.20001459E+02</rscale>
<asrwt>0</asrwt>
<pdfrwt beam="1">  1        1 0.16139529E-01 0.20001459E+02</pdfrwt>
<pdfrwt beam="2">  1       -1 0.14667153E-03 0.20001459E+02</pdfrwt>
<totfact> 0.44589567E+06</totfact>
</mgrwt>
</event>
<event>
 5    1  0.9583198E-007  0.2000046E+02  0.7818608E-02  0.1745319E+00
         -1   -1    0    0    0  501 -0.00000000000E+00  0.00000000000E+00  0.43766558114E+01  0.43766583029E+01  0.46700000000E-02 0. -1.
          1   -1    0    0  501    0  0.00000000000E+00 -0.00000000000E+00 -0.22849541195E+02  0.22849541672E+02  0.46700000000E-02 0.  1.
       1023    2    1    2    0    0  0.00000000000E+00  0.00000000000E+00 -0.18472885384E+02  0.27226199975E+02  0.20000461762E+02 0.  0.
        -11    1    3    3    0    0  0.13576938881E+01  0.99074097469E+01 -0.91449547840E+01  0.13551025749E+02  0.51100000000E-03 0. -1.
         11    1    3    3    0    0 -0.13576938881E+01 -0.99074097469E+01 -0.93279305997E+01  0.13675174226E+02  0.51100000000E-03 0.  1.
<mgrwt>
<rscale>  0 0.20000462E+02</rscale>
<asrwt>0</asrwt>
<pdfrwt beam="2">  1        1 0.35153142E-02 0.20000462E+02</pdfrwt>
<pdfrwt beam="1">  1       -1 0.67333191E-03 0.20000462E+02</pdfrwt>
<totfact> 0.39933627E+06</totfact>
</mgrwt>
</event>
<event>
 5    1  0.9583198E-007  0.2000018E+02  0.7818608E-02  0.1745324E+00
         -1   -1    0    0    0  501 -0.00000000000E+00  0.00000000000E+00  0.12438954409E+01  0.12439042072E+01  0.46700000000E-02 0. -1.
          1   -1    0    0  501    0  0.00000000000E+00 -0.00000000000E+00 -0.80393773034E+02  0.80393773170E+02  0.46700000000E-02 0.  1.
       1023    2    1    2    0    0  0.00000000000E+00  0.00000000000E+00 -0.79149877593E+02  0.81637677377E+02  0.20000181111E+02 0.  0.
        -11    1    3    3    0    0 -0.58449690778E+01  0.81139626688E+01 -0.39403834444E+02  0.40652948514E+02  0.51100000000E-03 0. -1.
         11    1    3    3    0    0  0.58449690778E+01 -0.81139626688E+01 -0.39746043149E+02  0.40984728863E+02  0.51100000000E-03 0.  1.
<mgrwt>
<rscale>  0 0.20000181E+02</rscale>
<asrwt>0</asrwt>
<pdfrwt beam="2">  1        1 0.12368269E-01 0.20000181E+02</pdfrwt>
<pdfrwt beam="1">  1       -1 0.19136928E-03 0.20000181E+02</pdfrwt>
<totfact> 0.43378847E+06</totfact>
</mgrwt>
</event>
<event>
 5    1  0.9583198E-007  0.2000032E+02  0.7818608E-02  0.1745322E+00
         -1   -1    0    0    0  501 -0.00000000000E+00  0.00000000000E+00  0.94842651090E+01  0.94842662587E+01  0.46700000000E-02 0.  1.
          1   -1    0    0  501    0  0.00000000000E+00 -0.00000000000E+00 -0.10544116327E+02  0.10544117361E+02  0.46700000000E-02 0. -1.
       1023    2    1    2    0    0  0.00000000000E+00  0.00000000000E+00 -0.10598512179E+01  0.20028383620E+02  0.20000321643E+02 0.  0.
        -11    1    3    3    0    0 -0.90358331473E+01 -0.42843043294E+01 -0.57087234655E+00  0.10016358607E+02  0.51100000000E-03 0.  1.
         11    1    3    3    0    0  0.90358331473E+01  0.42843043294E+01 -0.48897887137E+00  0.10012025012E+02  0.51100000000E-03 0. -1.
<mgrwt>
<rscale>  0 0.20000322E+02</rscale>
<asrwt>0</asrwt>
<pdfrwt beam="2">  1        1 0.16221719E-02 0.20000322E+02</pdfrwt>
<pdfrwt beam="1">  1       -1 0.14591179E-02 0.20000322E+02</pdfrwt>
<totfact> 0.38704336E+06</totfact>
</mgrwt>
</event>
<event>
 5    1  0.9583198E-007  0.2000068E+02  0.7818608E-02  0.1745315E+00
          1   -1    0    0  501    0  0.00000000000E+00  0.00000000000E+00  0.31761497320E+01  0.31761531652E+01  0.46700000000E-02 0.  1.
         -1   -1    0    0    0  501 -0.00000000000E+00 -0.00000000000E+00 -0.31486788659E+02  0.31486789005E+02  0.46700000000E-02 0. -1.
       1023    2    1    2    0    0  0.00000000000E+00  0.00000000000E+00 -0.28310638927E+02  0.34662942170E+02  0.20000682075E+02 0.  0.
        -11    1    3    3    0    0  0.90525766775E+01  0.42490272418E+01 -0.14257020867E+02  0.17414534770E+02  0.51100000000E-03 0.  1.
         11    1    3    3    0    0 -0.90525766775E+01 -0.42490272418E+01 -0.14053618060E+02  0.17248407400E+02  0.51100000000E-03 0. -1.
<mgrwt>
<rscale>  0 0.20000682E+02</rscale>
<asrwt>0</asrwt>
<pdfrwt beam="1">  1        1 0.48863873E-03 0.20000682E+02</pdfrwt>
<pdfrwt beam="2">  1       -1 0.48441214E-02 0.20000682E+02</pdfrwt>
<totfact> 0.36356620E+06</totfact>
</mgrwt>
</event>
<event>
 5    1  0.9583198E-007  0.2000366E+02  0.7818608E-02  0.1745255E+00
         -1   -1    0    0    0  501 -0.00000000000E+00  0.00000000000E+00  0.22015386219E+01  0.22015435750E+01  0.46700000000E-02 0.  1.
          1   -1    0    0  501    0  0.00000000000E+00 -0.00000000000E+00 -0.45439357883E+02  0.45439358123E+02  0.46700000000E-02 0. -1.
       1023    2    1    2    0    0  0.00000000000E+00  0.00000000000E+00 -0.43237819262E+02  0.47640901698E+02  0.20003662168E+02 0.  0.
        -11    1    3    3    0    0 -0.92162199052E+01  0.38854355958E+01 -0.21704966616E+02  0.23898554249E+02  0.51100000000E-03 0. -1.
         11    1    3    3    0    0  0.92162199052E+01 -0.38854355958E+01 -0.21532852646E+02  0.23742347450E+02  0.51100000000E-03 0.  1.
<mgrwt>
<rscale>  0 0.20003662E+02</rscale>
<asrwt>0</asrwt>
<pdfrwt beam="2">  1        1 0.69906702E-02 0.20003662E+02</pdfrwt>
<pdfrwt beam="1">  1       -1 0.33869868E-03 0.20003662E+02</pdfrwt>
<totfact> 0.41427053E+06</totfact>
</mgrwt>
</event>
<event>
 5    1  0.9583198E-007  0.2000067E+02  0.7818608E-02  0.1745315E+00
          1   -1    0    0  501    0  0.00000000000E+00  0.00000000000E+00  0.11701991219E+02  0.11701992150E+02  0.46700000000E-02 0.  1.
         -1   -1    0    0    0  501 -0.00000000000E+00 -0.00000000000E+00 -0.85461226151E+01  0.85461238911E+01  0.46700000000E-02 0. -1.
       1023    2    1    2    0    0  0.00000000000E+00  0.00000000000E+00  0.31558686035E+01  0.20248116042E+02  0.20000667404E+02 0.  0.
        -11    1    3    3    0    0 -0.81327221363E+01  0.58194072401E+01  0.15759317081E+01  0.10123745897E+02  0.51100000000E-03 0.  1.
         11    1    3    3    0    0  0.81327221363E+01 -0.58194072401E+01  0.15799368954E+01  0.10124370145E+02  0.51100000000E-03 0. -1.
<mgrwt>
<rscale>  0 0.20000667E+02</rscale>
<asrwt>0</asrwt>
<pdfrwt beam="1">  1        1 0.18003065E-02 0.20000667E+02</pdfrwt>
<pdfrwt beam="2">  1       -1 0.13147883E-02 0.20000667E+02</pdfrwt>
<totfact> 0.38862206E+06</totfact>
</mgrwt>
</event>
<event>
 5    1  0.9583198E-007  0.2000048E+02  0.7818608E-02  0.1745319E+00
          1   -1    0    0  501    0  0.00000000000E+00  0.00000000000E+00  0.15762726683E+02  0.15762727374E+02  0.46700000000E-02 0. -1.
         -1   -1    0    0    0  501 -0.00000000000E+00 -0.00000000000E+00 -0.63443832812E+01  0.63443849999E+01  0.46700000000E-02 0.  1.
       1023    2    1    2    0    0  0.00000000000E+00  0.00000000000E+00  0.94183434014E+01  0.22107112374E+02  0.20000480622E+02 0.  0.
        -11    1    3    3    0    0 -0.95708468414E+01 -0.28989061369E+01  0.47161590738E+01  0.11056533034E+02  0.51100000000E-03 0. -1.
         11    1    3    3    0    0  0.95708468414E+01  0.28989061369E+01  0.47021843277E+01  0.11050579341E+02  0.51100000000E-03 0.  1.
<mgrwt>
<rscale>  0 0.20000481E+02</rscale>
<asrwt>0</asrwt>
<pdfrwt beam="1">  1        1 0.24250350E-02 0.20000481E+02</pdfrwt>
<pdfrwt beam="2">  1       -1 0.97605916E-03 0.20000481E+02</pdfrwt>
<totfact> 0.39319612E+06</totfact>
</mgrwt>
</event>
<event>
 5    1  0.9583198E-007  0.2000490E+02  0.7818608E-02  0.1745231E+00
         -1   -1    0    0    0  501 -0.00000000000E+00  0.00000000000E+00  0.13010542520E+02  0.13010543359E+02  0.46700000000E-02 0. -1.
          1   -1    0    0  501    0  0.00000000000E+00 -0.00000000000E+00 -0.76898372445E+01  0.76898386625E+01  0.46700000000E-02 0.  1.
       1023    2    1    2    0    0  0.00000000000E+00  0.00000000000E+00  0.53207052760E+01  0.20700382021E+02  0.20004897180E+02 0.  0.
        -11    1    3    3    0    0 -0.54862403893E+00 -0.99857515137E+01  0.24730746061E+01  0.10302054159E+02  0.51100000000E-03 0. -1.
         11    1    3    3    0    0  0.54862403893E+00  0.99857515137E+01  0.28476306699E+01  0.10398327862E+02  0.51100000000E-03 0.  1.
<mgrwt>
<rscale>  0 0.20004897E+02</rscale>
<asrwt>0</asrwt>
<pdfrwt beam="2">  1        1 0.11830521E-02 0.20004897E+02</pdfrwt>
<pdfrwt beam="1">  1       -1 0.20016221E-02 0.20004897E+02</pdfrwt>
<totfact> 0.38182739E+06</totfact>
</mgrwt>
</event>
<event>
 5    1  0.9583198E-007  0.2000196E+02  0.7818608E-02  0.1745289E+00
         -1   -1    0    0    0  501 -0.00000000000E+00  0.00000000000E+00  0.10543757973E+03  0.10543757983E+03  0.46700000000E-02 0. -1.
          1   -1    0    0  501    0  0.00000000000E+00 -0.00000000000E+00 -0.94860812393E+00  0.94861961908E+00  0.46700000000E-02 0.  1.
       1023    2    1    2    0    0  0.00000000000E+00  0.00000000000E+00  0.10448897160E+03  0.10638619945E+03  0.20001956070E+02 0.  0.
        -11    1    3    3    0    0  0.97686932453E+01 -0.21413470255E+01  0.51805030270E+02  0.52761481180E+02  0.51100000000E-03 0. -1.
         11    1    3    3    0    0 -0.97686932453E+01  0.21413470255E+01  0.52683941334E+02  0.53624718270E+02  0.51100000000E-03 0.  1.
<mgrwt>
<rscale>  0 0.20001956E+02</rscale>
<asrwt>0</asrwt>
<pdfrwt beam="2">  1        1 0.14594057E-03 0.20001956E+02</pdfrwt>
<pdfrwt beam="1">  1       -1 0.16221171E-01 0.20001956E+02</pdfrwt>
<totfact> 0.31572305E+06</totfact>
</mgrwt>
</event>
<event>
 5    1  0.9583198E-007  0.2000142E+02  0.7818608E-02  0.1745300E+00
          1   -1    0    0  501    0  0.00000000000E+00  0.00000000000E+00  0.12491181914E+01  0.12491269211E+01  0.46700000000E-02 0. -1.
         -1   -1    0    0    0  501 -0.00000000000E+00 -0.00000000000E+00 -0.80067593694E+02  0.80067593830E+02  0.46700000000E-02 0.  1.
       1023    2    1    2    0    0  0.00000000000E+00  0.00000000000E+00 -0.78818475503E+02  0.81316720751E+02  0.20001424779E+02 0.  0.
        -11    1    3    3    0    0 -0.36023695656E+01  0.93286405878E+01 -0.39884164744E+02  0.41118696469E+02  0.51100000000E-03 0.  1.
         11    1    3    3    0    0  0.36023695656E+01 -0.93286405878E+01 -0.38934310759E+02  0.40198024282E+02  0.51100000000E-03 0. -1.
<mgrwt>
<rscale>  0 0.20001425E+02</rscale>
<asrwt>0</asrwt>
<pdfrwt beam="1">  1        1 0.19217277E-03 0.20001425E+02</pdfrwt>
<pdfrwt beam="2">  1       -1 0.12318088E-01 0.20001425E+02</pdfrwt>
<totfact> 0.32984269E+06</totfact>
</mgrwt>
</event>
<event>
 5    1  0.9583198E-007  0.2000109E+02  0.7818608E-02  0.1745306E+00
         -1   -1    0    0    0  501 -0.00000000000E+00  0.00000000000E+00  0.28266093528E+02  0.28266093914E+02  0.46700000000E-02 0.  1.
          1   -1    0    0  501    0  0.00000000000E+00 -0.00000000000E+00 -0.35381918024E+01  0.35381948843E+01  0.46700000000E-02 0. -1.
       1023    2    1    2    0    0  0.00000000000E+00  0.00000000000E+00  0.24727901726E+02  0.31804288798E+02  0.20001091525E+02 0.  0.
        -11    1    3    3    0    0 -0.58627784024E+01  0.81011663595E+01  0.12206148733E+02  0.15779452910E+02  0.51100000000E-03 0. -1.
         11    1    3    3    0    0  0.58627784024E+01 -0.81011663595E+01  0.12521752993E+02  0.16024835889E+02  0.51100000000E-03 0.  1.
<mgrwt>
<rscale>  0 0.20001092E+02</rscale>
<asrwt>0</asrwt>
<pdfrwt beam="2">  1        1 0.54433747E-03 0.20001092E+02</pdfrwt>
<pdfrwt beam="1">  1       -1 0.43486300E-02 0.20001092E+02</pdfrwt>
<totfact> 0.36633503E+06</totfact>
</mgrwt>
</event>
<event>
 5    1  0.9583198E-007  0.2000193E+02  0.7818608E-02  0.1745290E+00
          1   -1    0    0  501    0  0.00000000000E+00  0.00000000000E+00  0.15752793235E+01  0.15752862457E+01  0.46700000000E-02 0.  1.
         -1   -1    0    0    0  501 -0.00000000000E+00 -0.00000000000E+00 -0.63492904178E+02  0.63492904350E+02  0.46700000000E-02 0. -1.
       1023    2    1    2    0    0  0.00000000000E+00  0.00000000000E+00 -0.61917624855E+02  0.65068190596E+02  0.20001928900E+02 0.  0.
        -11    1    3    3    0    0  0.76208460701E+01 -0.64761931227E+01 -0.30860276076E+02  0.32440330022E+02  0.51100000000E-03 0.  1.
         11    1    3    3    0    0 -0.76208460701E+01  0.64761931227E+01 -0.31057348779E+02  0.32627860574E+02  0.51100000000E-03 0. -1.
<mgrwt>
<rscale>  0 0.20001929E+02</rscale>
<asrwt>0</asrwt>
<pdfrwt beam="1">  1        1 0.24235126E-03 0.20001929E+02</pdfrwt>
<pdfrwt beam="2">  1       -1 0.97681377E-02 0.20001929E+02</pdfrwt>
<totfact> 0.34006944E+06</totfact>
</mgrwt>
</event>
<event>
 5    1  0.9583198E-007  0.2000356E+02  0.7818608E-02  0.1745257E+00
         -1   -1    0    0    0  501 -0.00000000000E+00  0.00000000000E+00  0.26926559587E+01  0.26926600084E+01  0.46700000000E-02 0. -1.
          1   -1    0    0  501    0  0.00000000000E+00 -0.00000000000E+00 -0.37151239436E+02  0.37151239729E+02  0.46700000000E-02 0.  1.
       1023    2    1    2    0    0  0.00000000000E+00  0.00000000000E+00 -0.34458583477E+02  0.39843899737E+02  0.20003558960E+02 0.  0.
        -11    1    3    3    0    0  0.30467722592E-01 -0.10001184786E+02 -0.17437885124E+02  0.20102349695E+02  0.51100000000E-03 0. -1.
         11    1    3    3    0    0 -0.30467722592E-01  0.10001184786E+02 -0.17020698353E+02  0.19741550042E+02  0.51100000000E-03 0.  1.
<mgrwt>
<rscale>  0 0.20003559E+02</rscale>
<asrwt>0</asrwt>
<pdfrwt beam="2">  1        1 0.57155753E-02 0.20003559E+02</pdfrwt>
<pdfrwt beam="1">  1       -1 0.41425512E-03 0.20003559E+02</pdfrwt>
<totfact> 0.40914038E+06</totfact>
</mgrwt>
</event>
<event>
 5    1  0.1031993E-006  0.2000135E+02  0.7818608E-02  0.1745301E+00
         -1   -1    0    0    0  501 -0.00000000000E+00  0.00000000000E+00  0.13139721334E+01  0.13139804323E+01  0.46700000000E-02 0.  1.
          1   -1    0    0  501    0  0.00000000000E+00 -0.00000000000E+00 -0.76115116750E+02  0.76115116893E+02  0.46700000000E-02 0. -1.
       1023    2    1    2    0    0  0.00000000000E+00  0.00000000000E+00 -0.74801144617E+02  0.77429097326E+02  0.20001346872E+02 0.  0.
        -11    1    3    3    0    0 -0.98647085753E+01 -0.16401603343E+01 -0.36997006754E+02  0.38324680171E+02  0.51100000000E-03 0. -1.
         11    1    3    3    0    0  0.98647085753E+01  0.16401603343E+01 -0.37804137862E+02  0.39104417154E+02  0.51100000000E-03 0.  1.
<mgrwt>
<rscale>  0 0.20001347E+02</rscale>
<asrwt>0</asrwt>
<pdfrwt beam="2">  1        1 0.11710015E-01 0.20001347E+02</pdfrwt>
<pdfrwt beam="1">  1       -1 0.20215027E-03 0.20001347E+02</pdfrwt>
<totfact> 0.43151135E+06</totfact>
</mgrwt>
</event>
<event>
 5    1  0.9583198E-007  0.2000016E+02  0.7818608E-02  0.1745325E+00
         -1   -1    0    0    0  501 -0.00000000000E+00  0.00000000000E+00  0.11179605245E+02  0.11179606221E+02  0.46700000000E-02 0.  1.
          1   -1    0    0  501    0  0.00000000000E+00 -0.00000000000E+00 -0.89449981638E+01  0.89449993828E+01  0.46700000000E-02 0. -1.
       1023    2    1    2    0    0  0.00000000000E+00  0.00000000000E+00  0.22346070815E+01  0.20124605603E+02  0.20000157047E+02 0.  0.
        -11    1    3    3    0    0  0.87388380872E+01 -0.48614595896E+01  0.10950354250E+01  0.10059830182E+02  0.51100000000E-03 0.  1.
         11    1    3    3    0    0 -0.87388380872E+01  0.48614595896E+01  0.11395716565E+01  0.10064775421E+02  0.51100000000E-03 0. -1.
<mgrwt>
<rscale>  0 0.20000157E+02</rscale>
<asrwt>0</asrwt>
<pdfrwt beam="2">  1        1 0.13761537E-02 0.20000157E+02</pdfrwt>
<pdfrwt beam="1">  1       -1 0.17199394E-02 0.20000157E+02</pdfrwt>
<totfact> 0.38448638E+06</totfact>
</mgrwt>
</event>
<event>
 5    1  0.9583198E-007  0.2000368E+02  0.7818608E-02  0.1745255E+00
         -1   -1    0    0    0  501 -0.00000000000E+00  0.00000000000E+00  0.55976660674E+02  0.55976660869E+02  0.46700000000E-02 0.  1.
          1   -1    0    0  501    0  0.00000000000E+00 -0.00000000000E+00 -0.17871134518E+01  0.17871195535E+01  0.46700000000E-02 0. -1.
       1023    2    1    2    0    0  0.00000000000E+00  0.00000000000E+00  0.54189547222E+02  0.57763780423E+02  0.20003682174E+02 0.  0.
        -11    1    3    3    0    0 -0.72592789932E+01 -0.68778877498E+01  0.27629991948E+02  0.29383990993E+02  0.51100000000E-03 0.  1.
         11    1    3    3    0    0  0.72592789932E+01  0.68778877498E+01  0.26559555275E+02  0.28379789429E+02  0.51100000000E-03 0. -1.
<mgrwt>
<rscale>  0 0.20003682E+02</rscale>
<asrwt>0</asrwt>
<pdfrwt beam="2">  1        1 0.27494099E-03 0.20003682E+02</pdfrwt>
<pdfrwt beam="1">  1       -1 0.86117953E-02 0.20003682E+02</pdfrwt>
<totfact> 0.34499633E+06</totfact>
</mgrwt>
</event>
<event>
 5    1  0.9583198E-007  0.2000056E+02  0.7818608E-02  0.1745317E+00
         -1   -1    0    0    0  501 -0.00000000000E+00  0.00000000000E+00  0.30204636445E+02  0.30204636806E+02  0.46700000000E-02 0.  1.
          1   -1    0    0  501    0  0.00000000000E+00 -0.00000000000E+00 -0.33109342862E+01  0.33109375797E+01  0.46700000000E-02 0. -1.
       1023    2    1    2    0    0  0.00000000000E+00  0.00000000000E+00  0.26893702159E+02  0.33515574386E+02  0.20000562757E+02 0.  0.
        -11    1    3    3    0    0  0.99222753815E+01  0.12459273202E+01  0.13376875400E+02  0.16701637026E+02  0.51100000000E-03 0.  1.
         11    1    3    3    0    0 -0.99222753815E+01 -0.12459273202E+01  0.13516826759E+02  0.16813937359E+02  0.51100000000E-03 0. -1.
<mgrwt>
<rscale>  0 0.20000563E+02</rscale>
<asrwt>0</asrwt>
<pdfrwt beam="2">  1        1 0.50937482E-03 0.20000563E+02</pdfrwt>
<pdfrwt beam="1">  1       -1 0.46468672E-02 0.20000563E+02</pdfrwt>
<totfact> 0.36466605E+06</totfact>
</mgrwt>
</event>
<event>
 5    1  0.9882305E-007  0.2000107E+02  0.7818608E-02  0.1745307E+00
         -1   -1    0    0    0  501 -0.00000000000E+00  0.00000000000E+00  0.14056930844E+02  0.14056931620E+02  0.46700000000E-02 0.  1.
          1   -1    0    0  501    0  0.00000000000E+00 -0.00000000000E+00 -0.71146873200E+01  0.71146888526E+01  0.46700000000E-02 0. -1.
       1023    2    1    2    0    0  0.00000000000E+00  0.00000000000E+00  0.69422435240E+01  0.21171620472E+02  0.20001069178E+02 0.  0.
        -11    1    3    3    0    0  0.98351039858E+01 -0.18090896915E+01  0.35693758932E+01  0.10618028087E+02  0.51100000000E-03 0. -1.
         11    1    3    3    0    0 -0.98351039858E+01  0.18090896915E+01  0.33728676308E+01  0.10553592386E+02  0.51100000000E-03 0.  1.
<mgrwt>
<rscale>  0 0.20001069E+02</rscale>
<asrwt>0</asrwt>
<pdfrwt beam="2">  1        1 0.10945675E-02 0.20001069E+02</pdfrwt>
<pdfrwt beam="1">  1       -1 0.21626049E-02 0.20001069E+02</pdfrwt>
<totfact> 0.38068143E+06</totfact>
</mgrwt>
</event>
<event>
 5    1  0.9583198E-007  0.2000395E+02  0.7818608E-02  0.1745250E+00
          1   -1    0    0  501    0  0.00000000000E+00  0.00000000000E+00  0.17403663431E+01  0.17403726087E+01  0.46700000000E-02 0. -1.
         -1   -1    0    0    0  501 -0.00000000000E+00 -0.00000000000E+00 -0.57481734323E+02  0.57481734513E+02  0.46700000000E-02 0.  1.
       1023    2    1    2    0    0  0.00000000000E+00  0.00000000000E+00 -0.55741367980E+02  0.59222107122E+02  0.20003946301E+02 0.  0.
        -11    1    3    3    0    0  0.88113776069E+01  0.47317113691E+01 -0.28166718830E+02  0.29889689154E+02  0.51100000000E-03 0.  1.
         11    1    3    3    0    0 -0.88113776069E+01 -0.47317113691E+01 -0.27574649150E+02  0.29332417967E+02  0.51100000000E-03 0. -1.
<mgrwt>
<rscale>  0 0.20003946E+02</rscale>
<asrwt>0</asrwt>
<pdfrwt beam="1">  1        1 0.26774921E-03 0.20003946E+02</pdfrwt>
<pdfrwt beam="2">  1       -1 0.88433428E-02 0.20003946E+02</pdfrwt>
<totfact> 0.34396684E+06</totfact>
</mgrwt>
</event>
<event>
 5    1  0.9583198E-007  0.2000897E+02  0.7818608E-02  0.1745150E+00
          1   -1    0    0  501    0  0.00000000000E+00  0.00000000000E+00  0.50025418325E+01  0.50025440123E+01  0.46700000000E-02 0. -1.
         -1   -1    0    0    0  501 -0.00000000000E+00 -0.00000000000E+00 -0.20007757316E+02  0.20007757861E+02  0.46700000000E-02 0.  1.
       1023    2    1    2    0    0  0.00000000000E+00  0.00000000000E+00 -0.15005215484E+02  0.25010301874E+02  0.20008965693E+02 0.  0.
        -11    1    3    3    0    0  0.23079964493E+01 -0.97310255039E+01 -0.78332480556E+01  0.12703522359E+02  0.51100000000E-03 0.  1.
         11    1    3    3    0    0 -0.23079964493E+01  0.97310255039E+01 -0.71719674284E+01  0.12306779515E+02  0.51100000000E-03 0. -1.
<mgrwt>
<rscale>  0 0.20008966E+02</rscale>
<asrwt>0</asrwt>
<pdfrwt beam="1">  1        1 0.76962204E-03 0.20008966E+02</pdfrwt>
<pdfrwt beam="2">  1       -1 0.30781167E-02 0.20008966E+02</pdfrwt>
<totfact> 0.37379170E+06</totfact>
</mgrwt>
</event>
<event>
 5    1  0.9583198E-007  0.2000279E+02  0.7818608E-02  0.1745273E+00
          1   -1    0    0  501    0  0.00000000000E+00  0.00000000000E+00  0.16713936597E+02  0.16713937249E+02  0.46700000000E-02 0.  1.
         -1   -1    0    0    0  501 -0.00000000000E+00 -0.00000000000E+00 -0.59846972902E+01  0.59846991122E+01  0.46700000000E-02 0. -1.
       1023    2    1    2    0    0  0.00000000000E+00  0.00000000000E+00  0.10729239307E+02  0.22698636362E+02  0.20002787720E+02 0.  0.
        -11    1    3    3    0    0  0.95707709683E+01  0.29028735502E+01  0.53199853026E+01  0.11328220322E+02  0.51100000000E-03 0. -1.
         11    1    3    3    0    0 -0.95707709683E+01 -0.29028735502E+01  0.54092540043E+01  0.11370416040E+02  0.51100000000E-03 0.  1.
<mgrwt>
<rscale>  0 0.20002788E+02</rscale>
<asrwt>0</asrwt>
<pdfrwt beam="1">  1        1 0.25713750E-02 0.20002788E+02</pdfrwt>
<pdfrwt beam="2">  1       -1 0.92072286E-03 0.20002788E+02</pdfrwt>
<totfact> 0.39401519E+06</totfact>
</mgrwt>
</event>
<event>
 5    1  0.9583198E-007  0.2000025E+02  0.7818608E-02  0.1745323E+00
         -1   -1    0    0    0  501 -0.00000000000E+00  0.00000000000E+00  0.42867107599E+02  0.42867107854E+02  0.46700000000E-02 0.  1.
          1   -1    0    0  501    0  0.00000000000E+00 -0.00000000000E+00 -0.23328460487E+01  0.23328507230E+01  0.46700000000E-02 0. -1.
       1023    2    1    2    0    0  0.00000000000E+00  0.00000000000E+00  0.40534261551E+02  0.45199958577E+02  0.20000247396E+02 0.  0.
        -11    1    3    3    0    0 -0.58798033178E+01 -0.80888984248E+01  0.20243543789E+02  0.22578827033E+02  0.51100000000E-03 0.  1.
         11    1    3    3    0    0  0.58798033178E+01  0.80888984248E+01  0.20290717761E+02  0.22621131544E+02  0.51100000000E-03 0. -1.
<mgrwt>
<rscale>  0 0.20000247E+02</rscale>
<asrwt>0</asrwt>
<pdfrwt beam="2">  1        1 0.35889975E-03 0.20000247E+02</pdfrwt>
<pdfrwt beam="1">  1       -1 0.65949405E-02 0.20000247E+02</pdfrwt>
<totfact> 0.35451034E+06</totfact>
</mgrwt>
</event>
<event>
 5    1  0.9712984E-007  0.2000146E+02  0.7818608E-02  0.1745299E+00
          1   -1    0    0  501    0  0.00000000000E+00  0.00000000000E+00  0.38379386688E+02  0.38379386972E+02  0.46700000000E-02 0. -1.
         -1   -1    0    0    0  501 -0.00000000000E+00 -0.00000000000E+00 -0.26059432465E+01  0.26059474309E+01  0.46700000000E-02 0.  1.
       1023    2    1    2    0    0  0.00000000000E+00  0.00000000000E+00  0.35773443442E+02  0.40985334403E+02  0.20001459458E+02 0.  0.
        -11    1    3    3    0    0 -0.53194560324E+01 -0.84684260506E+01  0.17761363294E+02  0.20383249951E+02  0.51100000000E-03 0.  1.
         11    1    3    3    0    0  0.53194560324E+01  0.84684260506E+01  0.18012080148E+02  0.20602084452E+02  0.51100000000E-03 0. -1.
<mgrwt>
<rscale>  0 0.20001459E+02</rscale>
<asrwt>0</asrwt>
<pdfrwt beam="1">  1        1 0.59045211E-02 0.20001459E+02</pdfrwt>
<pdfrwt beam="2">  1       -1 0.40091471E-03 0.20001459E+02</pdfrwt>
<totfact> 0.41001761E+06</totfact>
</mgrwt>
</event>
<event>
 5    1  0.9697412E-007  0.2000188E+02  0.7818608E-02  0.1745291E+00
          1   -1    0    0  501    0  0.00000000000E+00  0.00000000000E+00  0.38645440961E+02  0.38645441244E+02  0.46700000000E-02 0.  1.
         -1   -1    0    0    0  501 -0.00000000000E+00 -0.00000000000E+00 -0.25881108564E+01  0.25881150697E+01  0.46700000000E-02 0. -1.
       1023    2    1    2    0    0  0.00000000000E+00  0.00000000000E+00  0.36057330105E+02  0.41233556313E+02  0.20001877710E+02 0.  0.
        -11    1    3    3    0    0 -0.83686913638E-01 -0.10000517810E+02  0.17951043702E+02  0.20548900949E+02  0.51100000000E-03 0. -1.
         11    1    3    3    0    0  0.83686913638E-01  0.10000517810E+02  0.18106286403E+02  0.20684655364E+02  0.51100000000E-03 0.  1.
<mgrwt>
<rscale>  0 0.20001878E+02</rscale>
<asrwt>0</asrwt>
<pdfrwt beam="1">  1        1 0.59454524E-02 0.20001878E+02</pdfrwt>
<pdfrwt beam="2">  1       -1 0.39817128E-03 0.20001878E+02</pdfrwt>
<totfact> 0.41016675E+06</totfact>
</mgrwt>
</event>
<event>
 5    1  0.9583198E-007  0.2000267E+02  0.7818608E-02  0.1745275E+00
         -1   -1    0    0    0  501 -0.00000000000E+00  0.00000000000E+00  0.25219354336E+01  0.25219397574E+01  0.46700000000E-02 0.  1.
          1   -1    0    0  501    0  0.00000000000E+00 -0.00000000000E+00 -0.39662631452E+02  0.39662631727E+02  0.46700000000E-02 0. -1.
       1023    2    1    2    0    0  0.00000000000E+00  0.00000000000E+00 -0.37140696019E+02  0.42184571484E+02  0.20002669087E+02 0.  0.
        -11    1    3    3    0    0 -0.85647537740E+01 -0.51641897765E+01 -0.18458174060E+02  0.20993524076E+02  0.51100000000E-03 0.  1.
         11    1    3    3    0    0  0.85647537740E+01  0.51641897765E+01 -0.18682521958E+02  0.21191047408E+02  0.51100000000E-03 0. -1.
<mgrwt>
<rscale>  0 0.20002669E+02</rscale>
<asrwt>0</asrwt>
<pdfrwt beam="2">  1        1 0.61019432E-02 0.20002669E+02</pdfrwt>
<pdfrwt beam="1">  1       -1 0.38799045E-03 0.20002669E+02</pdfrwt>
<totfact> 0.41077052E+06</totfact>
</mgrwt>
</event>
<event>
 4    1  0.9583198E-007  0.2004550E+02  0.7818608E-02  0.1744425E+00
         -1   -1    0    0    0  501 -0.00000000000E+00  0.00000000000E+00  0.29853512744E+01  0.29853549270E+01  0.46700000000E-02 0. -1.
          1   -1    0    0  501    0  0.00000000000E+00 -0.00000000000E+00 -0.33649446938E+02  0.33649447262E+02  0.46700000000E-02 0.  1.
        -11    1    1    2    0    0  0.33309434805E+01  0.94385323374E+01 -0.16289419825E+02  0.19118741477E+02  0.51100000000E-03 0.  1.
         11    1    1    2    0    0 -0.33309434805E+01 -0.94385323374E+01 -0.14374675839E+02  0.17516060712E+02  0.51100000000E-03 0. -1.
<mgrwt>
<rscale>  0 0.20045497E+02</rscale>
<asrwt>0</asrwt>
<pdfrwt beam="2">  1        1 0.51768380E-02 0.20045497E+02</pdfrwt>
<pdfrwt beam="1">  1       -1 0.45928514E-03 0.20045497E+02</pdfrwt>
<totfact> 0.40496819E+06</totfact>
</mgrwt>
</event>
<event>
 5    1  0.9583198E-007  0.2000274E+02  0.7818608E-02  0.1745274E+00
          1   -1    0    0  501    0  0.00000000000E+00  0.00000000000E+00  0.22675948807E+02  0.22675949288E+02  0.46700000000E-02 0. -1.
         -1   -1    0    0    0  501 -0.00000000000E+00 -0.00000000000E+00 -0.44111645111E+01  0.44111669831E+01  0.46700000000E-02 0.  1.
       1023    2    1    2    0    0  0.00000000000E+00  0.00000000000E+00  0.18264784296E+02  0.27087116271E+02  0.20002737875E+02 0.  0.
        -11    1    3    3    0    0 -0.98745048060E+01 -0.15819983258E+01  0.89466361936E+01  0.13418303295E+02  0.51100000000E-03 0. -1.
         11    1    3    3    0    0  0.98745048060E+01  0.15819983258E+01  0.93181481026E+01  0.13668812977E+02  0.51100000000E-03 0.  1.
<mgrwt>
<rscale>  0 0.20002738E+02</rscale>
<asrwt>0</asrwt>
<pdfrwt beam="1">  1        1 0.34886077E-02 0.20002738E+02</pdfrwt>
<pdfrwt beam="2">  1       -1 0.67864092E-03 0.20002738E+02</pdfrwt>
<totfact> 0.39909921E+06</totfact>
</mgrwt>
</event>
