<event>
 5    1  0.1310593E+001  0.9652112E+02  0.7546771E-02  0.1287786E+00
         -2   -1    0    0    0  501 -0.00000000000E+00  0.00000000000E+00  0.23389065140E+02  0.23389065140E+02  0.00000000000E+00 0.  1.
          2   -1    0    0  501    0  0.00000000000E+00 -0.00000000000E+00 -0.99579934159E+02  0.99579934159E+02  0.00000000000E+00 0. -1.
         23    2    1    2    0    0  0.00000000000E+00  0.00000000000E+00 -0.76190869019E+02  0.12296899930E+03  0.96521118242E+02 0.  0.
        -13    1    3    3    0    0 -0.44928706942E+02 -0.48818913751E+01 -0.16525102036E+02  0.48119648463E+02  0.00000000000E+00 0.  1.
         13    1    3    3    0    0  0.44928706942E+02  0.48818913751E+01 -0.59665766983E+02  0.74849350836E+02  0.00000000000E+00 0. -1.
<mgrwt>
<rscale>  0 0.96521118E+02</rscale>
<asrwt>0</asrwt>
<pdfrwt beam="2">  1        2 0.15319990E-01 0.96521118E+02</pdfrwt>
<pdfrwt beam="1">  1       -2 0.35983178E-02 0.96521118E+02</pdfrwt>
<totfact> 0.10465202E+05</totfact>
</mgrwt>
</event>
<event>
 5    1  0.1310593E+001  0.9274915E+02  0.7546771E-02  0.1296328E+00
         -1   -1    0    0    0  501 -0.00000000000E+00  0.00000000000E+00  0.11592627804E+02  0.11592627804E+02  0.00000000000E+00 0.  1.
          1   -1    0    0  501    0  0.00000000000E+00 -0.00000000000E+00 -0.18551457483E+03  0.18551457483E+03  0.00000000000E+00 0. -1.
         23    2    1    2    0    0  0.00000000000E+00  0.00000000000E+00 -0.17392194702E+03  0.19710720263E+03  0.92749154567E+02 0.  0.
        -11    1    3    3    0    0  0.25443041496E+02  0.35215487246E+02 -0.52488571865E+02  0.68136107014E+02  0.00000000000E+00 0.  1.
         11    1    3    3    0    0 -0.25443041496E+02 -0.35215487246E+02 -0.12143337516E+03  0.12897109562E+03  0.00000000000E+00 0. -1.
<mgrwt>
<rscale>  0 0.92749155E+02</rscale>
<asrwt>0</asrwt>
<pdfrwt beam="2">  1        1 0.28540702E-01 0.92749155E+02</pdfrwt>
<pdfrwt beam="1">  1       -1 0.17834813E-02 0.92749155E+02</pdfrwt>
<totfact> 0.11145312E+05</totfact>
</mgrwt>
</event>
<event>
 5    1  0.1310593E+001  0.9245897E+02  0.7546771E-02  0.1297004E+00
          3   -1    0    0  501    0  0.00000000000E+00  0.00000000000E+00  0.32225235484E+03  0.32225235484E+03  0.00000000000E+00 0. -1.
         -3   -1    0    0    0  501 -0.00000000000E+00 -0.00000000000E+00 -0.66319622076E+01  0.66319622076E+01  0.00000000000E+00 0.  1.
         23    2    1    2    0    0  0.00000000000E+00  0.00000000000E+00  0.31562039264E+03  0.32888431705E+03  0.92458973359E+02 0.  0.
        -11    1    3    3    0    0  0.27448507327E+02 -0.31054942474E+02  0.84969367678E+02  0.94539004914E+02  0.00000000000E+00 0.  1.
         11    1    3    3    0    0 -0.27448507327E+02  0.31054942474E+02  0.23065102496E+03  0.23434531214E+03  0.00000000000E+00 0. -1.
<mgrwt>
<rscale>  0 0.92458973E+02</rscale>
<asrwt>0</asrwt>
<pdfrwt beam="1">  1        3 0.49577273E-01 0.92458973E+02</pdfrwt>
<pdfrwt beam="2">  1       -3 0.10203021E-02 0.92458973E+02</pdfrwt>
<totfact> 0.22109883E+04</totfact>
</mgrwt>
</event>
<event>
 5    1  0.1310593E+001  0.9206196E+02  0.7546771E-02  0.1297934E+00
         -1   -1    0    0    0  501 -0.00000000000E+00  0.00000000000E+00  0.56879690580E+02  0.56879690580E+02  0.00000000000E+00 0.  1.
          1   -1    0    0  501    0  0.00000000000E+00 -0.00000000000E+00 -0.37251456378E+02  0.37251456378E+02  0.00000000000E+00 0. -1.
         23    2    1    2    0    0  0.00000000000E+00  0.00000000000E+00  0.19628234202E+02  0.94131146957E+02  0.92061964185E+02 0.  0.
        -11    1    3    3    0    0  0.61017086665E+00 -0.41220821489E+02 -0.11123506768E+02  0.42699658495E+02  0.00000000000E+00 0. -1.
         11    1    3    3    0    0 -0.61017086665E+00  0.41220821489E+02  0.30751740970E+02  0.51431488462E+02  0.00000000000E+00 0.  1.
<mgrwt>
<rscale>  0 0.92061964E+02</rscale>
<asrwt>0</asrwt>
<pdfrwt beam="2">  1        1 0.57309933E-02 0.92061964E+02</pdfrwt>
<pdfrwt beam="1">  1       -1 0.87507216E-02 0.92061964E+02</pdfrwt>
<totfact> 0.87255731E+04</totfact>
</mgrwt>
</event>
<event>
 5    1  0.1310593E+001  0.8578213E+02  0.7546771E-02  0.1313400E+00
         -1   -1    0    0    0  501 -0.00000000000E+00  0.00000000000E+00  0.49472334189E+02  0.49472334189E+02  0.00000000000E+00 0.  1.
          1   -1    0    0  501    0  0.00000000000E+00 -0.00000000000E+00 -0.37185294920E+02  0.37185294920E+02  0.00000000000E+00 0. -1.
         23    2    1    2    0    0  0.00000000000E+00  0.00000000000E+00  0.12287039269E+02  0.86657629109E+02  0.85782127210E+02 0.  0.
        -11    1    3    3    0    0  0.15411653561E+02  0.26136279949E+02 -0.24481210469E+02  0.38986585656E+02  0.00000000000E+00 0. -1.
         11    1    3    3    0    0 -0.15411653561E+02 -0.26136279949E+02  0.36768249738E+02  0.47671043453E+02  0.00000000000E+00 0.  1.
<mgrwt>
<rscale>  0 0.85782127E+02</rscale>
<asrwt>0</asrwt>
<pdfrwt beam="2">  1        1 0.57208146E-02 0.85782127E+02</pdfrwt>
<pdfrwt beam="1">  1       -1 0.76111284E-02 0.85782127E+02</pdfrwt>
<totfact> 0.10647280E+05</totfact>
</mgrwt>
</event>
<event>
 5    1  0.1310593E+001  0.9189659E+02  0.7546771E-02  0.1298323E+00
          1   -1    0    0  501    0  0.00000000000E+00  0.00000000000E+00  0.10676022483E+03  0.10676022483E+03  0.00000000000E+00 0. -1.
         -1   -1    0    0    0  501 -0.00000000000E+00 -0.00000000000E+00 -0.19775585765E+02  0.19775585765E+02  0.00000000000E+00 0.  1.
         23    2    1    2    0    0  0.00000000000E+00  0.00000000000E+00  0.86984639062E+02  0.12653581059E+03  0.91896593678E+02 0.  0.
        -11    1    3    3    0    0  0.10662759737E+02  0.37225124281E+02  0.94331887734E+01  0.39854602913E+02  0.00000000000E+00 0.  1.
         11    1    3    3    0    0 -0.10662759737E+02 -0.37225124281E+02  0.77551450288E+02  0.86681207679E+02  0.00000000000E+00 0. -1.
<mgrwt>
<rscale>  0 0.91896594E+02</rscale>
<asrwt>0</asrwt>
<pdfrwt beam="1">  1        1 0.16424650E-01 0.91896594E+02</pdfrwt>
<pdfrwt beam="2">  1       -1 0.30423979E-02 0.91896594E+02</pdfrwt>
<totfact> 0.10336454E+05</totfact>
</mgrwt>
</event>
<event>
 5    1  0.1310593E+001  0.9067013E+02  0.7546771E-02  0.1301237E+00
         -2   -1    0    0    0  501 -0.00000000000E+00  0.00000000000E+00  0.86750038256E+01  0.86750038256E+01  0.00000000000E+00 0. -1.
          2   -1    0    0  501    0  0.00000000000E+00 -0.00000000000E+00 -0.23691843238E+03  0.23691843238E+03  0.00000000000E+00 0.  1.
         23    2    1    2    0    0  0.00000000000E+00  0.00000000000E+00 -0.22824342855E+03  0.24559343620E+03  0.90670134161E+02 0.  0.
        -13    1    3    3    0    0  0.14778232774E+02  0.37456914790E+02 -0.57703006104E+02  0.70363723202E+02  0.00000000000E+00 0. -1.
         13    1    3    3    0    0 -0.14778232774E+02 -0.37456914790E+02 -0.17054042245E+03  0.17522971300E+03  0.00000000000E+00 0.  1.
<mgrwt>
<rscale>  0 0.90670134E+02</rscale>
<asrwt>0</asrwt>
<pdfrwt beam="2">  1        2 0.36448993E-01 0.90670134E+02</pdfrwt>
<pdfrwt beam="1">  1       -2 0.13346158E-02 0.90670134E+02</pdfrwt>
<totfact> 0.16703635E+05</totfact>
</mgrwt>
</event>
<event>
 5    1  0.1310593E+001  0.9239006E+02  0.7546771E-02  0.1297165E+00
         -2   -1    0    0    0  501 -0.00000000000E+00  0.00000000000E+00  0.16162429476E+02  0.16162429476E+02  0.00000000000E+00 0.  1.
          2   -1    0    0  501    0  0.00000000000E+00 -0.00000000000E+00 -0.13203342532E+03  0.13203342532E+03  0.00000000000E+00 0. -1.
         23    2    1    2    0    0  0.00000000000E+00  0.00000000000E+00 -0.11587099585E+03  0.14819585480E+03  0.92390062781E+02 0.  0.
        -11    1    3    3    0    0 -0.20795102122E+02 -0.26165994716E+02 -0.67853617539E+01  0.34104789779E+02  0.00000000000E+00 0.  1.
         11    1    3    3    0    0  0.20795102122E+02  0.26165994716E+02 -0.10908563409E+03  0.11409106502E+03  0.00000000000E+00 0. -1.
<mgrwt>
<rscale>  0 0.92390063E+02</rscale>
<asrwt>0</asrwt>
<pdfrwt beam="2">  1        2 0.20312835E-01 0.92390063E+02</pdfrwt>
<pdfrwt beam="1">  1       -2 0.24865276E-02 0.92390063E+02</pdfrwt>
<totfact> 0.12921458E+05</totfact>
</mgrwt>
</event>
<event>
 5    1  0.1310593E+001  0.9197004E+02  0.7546771E-02  0.1298150E+00
          2   -1    0    0  501    0  0.00000000000E+00  0.00000000000E+00  0.23507125832E+02  0.23507125832E+02  0.00000000000E+00 0.  1.
         -2   -1    0    0    0  501 -0.00000000000E+00 -0.00000000000E+00 -0.89956631295E+02  0.89956631295E+02  0.00000000000E+00 0. -1.
         23    2    1    2    0    0  0.00000000000E+00  0.00000000000E+00 -0.66449505463E+02  0.11346375713E+03  0.91970035366E+02 0.  0.
        -13    1    3    3    0    0  0.22956420220E+02  0.38079497501E+02 -0.18754273221E+02  0.48257311604E+02  0.00000000000E+00 0.  1.
         13    1    3    3    0    0 -0.22956420220E+02 -0.38079497501E+02 -0.47695232242E+02  0.65206445524E+02  0.00000000000E+00 0. -1.
<mgrwt>
<rscale>  0 0.91970035E+02</rscale>
<asrwt>0</asrwt>
<pdfrwt beam="1">  1        2 0.36164809E-02 0.91970035E+02</pdfrwt>
<pdfrwt beam="2">  1       -2 0.13839482E-01 0.91970035E+02</pdfrwt>
<totfact> 0.80568899E+04</totfact>
</mgrwt>
</event>
<event>
 5    1  0.1310593E+001  0.9105667E+02  0.7546771E-02  0.1300313E+00
         -3   -1    0    0    0  501 -0.00000000000E+00  0.00000000000E+00  0.14235955415E+03  0.14235955415E+03  0.00000000000E+00 0.  1.
          3   -1    0    0  501    0  0.00000000000E+00 -0.00000000000E+00 -0.14560522591E+02  0.14560522591E+02  0.00000000000E+00 0. -1.
         23    2    1    2    0    0  0.00000000000E+00  0.00000000000E+00  0.12779903156E+03  0.15692007674E+03  0.91056674751E+02 0.  0.
        -13    1    3    3    0    0 -0.16576723563E+00 -0.36455381692E+02  0.11089941275E+03  0.11673774917E+03  0.00000000000E+00 0.  1.
         13    1    3    3    0    0  0.16576723563E+00  0.36455381692E+02  0.16899618809E+02  0.40182327570E+02  0.00000000000E+00 0. -1.
<mgrwt>
<rscale>  0 0.91056675E+02</rscale>
<asrwt>0</asrwt>
<pdfrwt beam="2">  1        3 0.22400805E-02 0.91056675E+02</pdfrwt>
<pdfrwt beam="1">  1       -3 0.21901469E-01 0.91056675E+02</pdfrwt>
<totfact> 0.31000456E+04</totfact>
</mgrwt>
</event>
<event>
 5    1  0.1310593E+001  0.9089663E+02  0.7546771E-02  0.1300695E+00
         -1   -1    0    0    0  501 -0.00000000000E+00  0.00000000000E+00  0.34877470408E+02  0.34877470408E+02  0.00000000000E+00 0.  1.
          1   -1    0    0  501    0  0.00000000000E+00 -0.00000000000E+00 -0.59223024323E+02  0.59223024323E+02  0.00000000000E+00 0. -1.
         23    2    1    2    0    0  0.00000000000E+00  0.00000000000E+00 -0.24345553915E+02  0.94100494730E+02  0.90896628722E+02 0.  0.
        -13    1    3    3    0    0 -0.25135086735E+02 -0.55110745118E+01  0.26609705257E+02  0.37016495530E+02  0.00000000000E+00 0.  1.
         13    1    3    3    0    0  0.25135086735E+02  0.55110745118E+01 -0.50955259172E+02  0.57083999200E+02  0.00000000000E+00 0. -1.
<mgrwt>
<rscale>  0 0.90896629E+02</rscale>
<asrwt>0</asrwt>
<pdfrwt beam="2">  1        1 0.91112344E-02 0.90896629E+02</pdfrwt>
<pdfrwt beam="1">  1       -1 0.53657648E-02 0.90896629E+02</pdfrwt>
<totfact> 0.97006409E+04</totfact>
</mgrwt>
</event>
<event>
 5    1  0.1310593E+001  0.9191079E+02  0.7546771E-02  0.1298289E+00
          3   -1    0    0  501    0  0.00000000000E+00  0.00000000000E+00  0.79308772691E+02  0.79308772691E+02  0.00000000000E+00 0. -1.
         -3   -1    0    0    0  501 -0.00000000000E+00 -0.00000000000E+00 -0.26628808892E+02  0.26628808892E+02  0.00000000000E+00 0.  1.
         23    2    1    2    0    0  0.00000000000E+00  0.00000000000E+00  0.52679963798E+02  0.10593758158E+03  0.91910786123E+02 0.  0.
        -13    1    3    3    0    0  0.15909830268E+02  0.15585305631E+02  0.72672646784E+02  0.76008802394E+02  0.00000000000E+00 0. -1.
         13    1    3    3    0    0 -0.15909830268E+02 -0.15585305631E+02 -0.19992682986E+02  0.29928779189E+02  0.00000000000E+00 0.  1.
<mgrwt>
<rscale>  0 0.91910786E+02</rscale>
<asrwt>0</asrwt>
<pdfrwt beam="1">  1        3 0.12201350E-01 0.91910786E+02</pdfrwt>
<pdfrwt beam="2">  1       -3 0.40967399E-02 0.91910786E+02</pdfrwt>
<totfact> 0.33496389E+04</totfact>
</mgrwt>
</event>
<event>
 5    1  0.1310593E+001  0.8314437E+02  0.7546771E-02  0.1320358E+00
         -3   -1    0    0    0  501 -0.00000000000E+00  0.00000000000E+00  0.27775202674E+02  0.27775202674E+02  0.00000000000E+00 0.  1.
          3   -1    0    0  501    0  0.00000000000E+00 -0.00000000000E+00 -0.62222651193E+02  0.62222651193E+02  0.00000000000E+00 0. -1.
         23    2    1    2    0    0  0.00000000000E+00  0.00000000000E+00 -0.34447448519E+02  0.89997853867E+02  0.83144374381E+02 0.  0.
        -11    1    3    3    0    0  0.27481047328E+02  0.25651487869E+02  0.19886970689E+01  0.37645208303E+02  0.00000000000E+00 0.  1.
         11    1    3    3    0    0 -0.27481047328E+02 -0.25651487869E+02 -0.36436145588E+02  0.52352645563E+02  0.00000000000E+00 0. -1.
<mgrwt>
<rscale>  0 0.83144374E+02</rscale>
<asrwt>0</asrwt>
<pdfrwt beam="2">  1        3 0.95727154E-02 0.83144374E+02</pdfrwt>
<pdfrwt beam="1">  1       -3 0.42731082E-02 0.83144374E+02</pdfrwt>
<totfact> 0.45474340E+04</totfact>
</mgrwt>
</event>
<event>
 5    1  0.1310593E+001  0.8480774E+02  0.7546771E-02  0.1315936E+00
         -4   -1    0    0    0  501 -0.00000000000E+00  0.00000000000E+00  0.15664498048E+03  0.15664498048E+03  0.00000000000E+00 0.  1.
          4   -1    0    0  501    0  0.00000000000E+00 -0.00000000000E+00 -0.11478747087E+02  0.11478747087E+02  0.00000000000E+00 0. -1.
         23    2    1    2    0    0  0.00000000000E+00  0.00000000000E+00  0.14516623339E+03  0.16812372757E+03  0.84807738171E+02 0.  0.
        -11    1    3    3    0    0  0.26472577223E+02  0.29216199580E+02  0.41635638897E+02  0.57340300741E+02  0.00000000000E+00 0.  1.
         11    1    3    3    0    0 -0.26472577223E+02 -0.29216199580E+02  0.10353059449E+03  0.11078342682E+03  0.00000000000E+00 0. -1.
<mgrwt>
<rscale>  0 0.84807738E+02</rscale>
<asrwt>0</asrwt>
<pdfrwt beam="2">  1        4 0.17659612E-02 0.84807738E+02</pdfrwt>
<pdfrwt beam="1">  1       -4 0.24099226E-01 0.84807738E+02</pdfrwt>
<totfact> 0.27652690E+04</totfact>
</mgrwt>
</event>
<event>
 5    1  0.1310593E+001  0.9192447E+02  0.7546771E-02  0.1298257E+00
         -3   -1    0    0    0  501 -0.00000000000E+00  0.00000000000E+00  0.94634123870E+01  0.94634123870E+01  0.00000000000E+00 0.  1.
          3   -1    0    0  501    0  0.00000000000E+00 -0.00000000000E+00 -0.22323099906E+03  0.22323099906E+03  0.00000000000E+00 0. -1.
         23    2    1    2    0    0  0.00000000000E+00  0.00000000000E+00 -0.21376758667E+03  0.23269441145E+03  0.91924469031E+02 0.  0.
        -11    1    3    3    0    0 -0.25971942639E+02  0.33994935948E+02 -0.64350111956E+02  0.77273115528E+02  0.00000000000E+00 0.  1.
         11    1    3    3    0    0  0.25971942639E+02 -0.33994935948E+02 -0.14941747472E+03  0.15542129592E+03  0.00000000000E+00 0. -1.
<mgrwt>
<rscale>  0 0.91924469E+02</rscale>
<asrwt>0</asrwt>
<pdfrwt beam="2">  1        3 0.34343231E-01 0.91924469E+02</pdfrwt>
<pdfrwt beam="1">  1       -3 0.14559096E-02 0.91924469E+02</pdfrwt>
<totfact> 0.26306058E+04</totfact>
</mgrwt>
</event>
<event>
 5    1  0.1310593E+001  0.9196509E+02  0.7546771E-02  0.1298162E+00
          2   -1    0    0  501    0  0.00000000000E+00  0.00000000000E+00  0.14480368558E+02  0.14480368558E+02  0.00000000000E+00 0. -1.
         -2   -1    0    0    0  501 -0.00000000000E+00 -0.00000000000E+00 -0.14601799249E+03  0.14601799249E+03  0.00000000000E+00 0.  1.
         23    2    1    2    0    0  0.00000000000E+00  0.00000000000E+00 -0.13153762393E+03  0.16049836105E+03  0.91965087883E+02 0.  0.
        -13    1    3    3    0    0 -0.24252586167E+02  0.11896247294E+02 -0.82717715731E+00  0.27025781349E+02  0.00000000000E+00 0. -1.
         13    1    3    3    0    0  0.24252586167E+02 -0.11896247294E+02 -0.13071044677E+03  0.13347257970E+03  0.00000000000E+00 0.  1.
<mgrwt>
<rscale>  0 0.91965088E+02</rscale>
<asrwt>0</asrwt>
<pdfrwt beam="1">  1        2 0.22277490E-02 0.91965088E+02</pdfrwt>
<pdfrwt beam="2">  1       -2 0.22464307E-01 0.91965088E+02</pdfrwt>
<totfact> 0.69018378E+04</totfact>
</mgrwt>
</event>
<event>
 5    1  0.1310593E+001  0.9144181E+02  0.7546771E-02  0.1299397E+00
         -2   -1    0    0    0  501 -0.00000000000E+00  0.00000000000E+00  0.30751979815E+03  0.30751979815E+03  0.00000000000E+00 0.  1.
          2   -1    0    0  501    0  0.00000000000E+00 -0.00000000000E+00 -0.67976148870E+01  0.67976148870E+01  0.00000000000E+00 0. -1.
         23    2    1    2    0    0  0.00000000000E+00  0.00000000000E+00  0.30072218326E+03  0.31431741304E+03  0.91441810086E+02 0.  0.
        -11    1    3    3    0    0  0.14520239267E+02  0.38660764029E+02  0.21779878943E+03  0.22167950898E+03  0.00000000000E+00 0. -1.
         11    1    3    3    0    0 -0.14520239267E+02 -0.38660764029E+02  0.82923393836E+02  0.92637904062E+02  0.00000000000E+00 0.  1.
<mgrwt>
<rscale>  0 0.91441810E+02</rscale>
<asrwt>0</asrwt>
<pdfrwt beam="2">  1        2 0.10457871E-02 0.91441810E+02</pdfrwt>
<pdfrwt beam="1">  1       -2 0.47310728E-01 0.91441810E+02</pdfrwt>
<totfact> 0.49915664E+04</totfact>
</mgrwt>
</event>
<event>
 4    1  0.1310593E+001  0.4222711E+02  0.7546771E-02  0.1492434E+00
         -3   -1    0    0    0  501 -0.00000000000E+00  0.00000000000E+00  0.14445572056E+02  0.14445572056E+02  0.00000000000E+00 0.  1.
          3   -1    0    0  501    0  0.00000000000E+00 -0.00000000000E+00 -0.30859438942E+02  0.30859438942E+02  0.00000000000E+00 0. -1.
        -11    1    1    2    0    0  0.57016524996E-01 -0.10215847675E+02  0.11617301999E+02  0.15470245646E+02  0.00000000000E+00 0.  1.
         11    1    1    2    0    0 -0.57016524996E-01  0.10215847675E+02 -0.28031168885E+02  0.29834765353E+02  0.00000000000E+00 0. -1.
<mgrwt>
<rscale>  0 0.42227112E+02</rscale>
<asrwt>0</asrwt>
<pdfrwt beam="2">  1        3 0.47476059E-02 0.42227112E+02</pdfrwt>
<pdfrwt beam="1">  1       -3 0.22223957E-02 0.42227112E+02</pdfrwt>
<totfact> 0.29194345E+05</totfact>
</mgrwt>
</event>
<event>
 5    1  0.1310593E+001  0.9076643E+02  0.7546771E-02  0.1301006E+00
         -2   -1    0    0    0  501 -0.00000000000E+00  0.00000000000E+00  0.40959080934E+02  0.40959080934E+02  0.00000000000E+00 0.  1.
          2   -1    0    0  501    0  0.00000000000E+00 -0.00000000000E+00 -0.50285212447E+02  0.50285212447E+02  0.00000000000E+00 0. -1.
         23    2    1    2    0    0  0.00000000000E+00  0.00000000000E+00 -0.93261315130E+01  0.91244293380E+02  0.90766427414E+02 0.  0.
        -11    1    3    3    0    0 -0.82515161124E+01 -0.35064084996E+02  0.23087678141E+02  0.42785727254E+02  0.00000000000E+00 0.  1.
         11    1    3    3    0    0  0.82515161124E+01  0.35064084996E+02 -0.32413809654E+02  0.48458566126E+02  0.00000000000E+00 0. -1.
<mgrwt>
<rscale>  0 0.90766427E+02</rscale>
<asrwt>0</asrwt>
<pdfrwt beam="2">  1        2 0.77361865E-02 0.90766427E+02</pdfrwt>
<pdfrwt beam="1">  1       -2 0.63013971E-02 0.90766427E+02</pdfrwt>
<totfact> 0.10253718E+05</totfact>
</mgrwt>
</event>
<event>
 5    1  0.1310593E+001  0.9099470E+02  0.7546771E-02  0.1300461E+00
          2   -1    0    0  501    0  0.00000000000E+00  0.00000000000E+00  0.27514732351E+02  0.27514732351E+02  0.00000000000E+00 0.  1.
         -2   -1    0    0    0  501 -0.00000000000E+00 -0.00000000000E+00 -0.75232751583E+02  0.75232751583E+02  0.00000000000E+00 0. -1.
         23    2    1    2    0    0  0.00000000000E+00  0.00000000000E+00 -0.47718019233E+02  0.10274748393E+03  0.90994703666E+02 0.  0.
        -11    1    3    3    0    0 -0.16867116463E+02 -0.14687965929E+02 -0.68596695607E+02  0.72150832352E+02  0.00000000000E+00 0. -1.
         11    1    3    3    0    0  0.16867116463E+02  0.14687965929E+02  0.20878676374E+02  0.30596651582E+02  0.00000000000E+00 0.  1.
<mgrwt>
<rscale>  0 0.90994704E+02</rscale>
<asrwt>0</asrwt>
<pdfrwt beam="1">  1        2 0.42330358E-02 0.90994704E+02</pdfrwt>
<pdfrwt beam="2">  1       -2 0.11574269E-01 0.90994704E+02</pdfrwt>
<totfact> 0.86947736E+04</totfact>
</mgrwt>
</event>
<event>
 5    1  0.1310593E+001  0.9382222E+02  0.7546771E-02  0.1293851E+00
          1   -1    0    0  501    0  0.00000000000E+00  0.00000000000E+00  0.59599422822E+02  0.59599422822E+02  0.00000000000E+00 0. -1.
         -1   -1    0    0    0  501 -0.00000000000E+00 -0.00000000000E+00 -0.36924054829E+02  0.36924054829E+02  0.00000000000E+00 0.  1.
         23    2    1    2    0    0  0.00000000000E+00  0.00000000000E+00  0.22675367993E+02  0.96523477651E+02  0.93822222443E+02 0.  0.
        -11    1    3    3    0    0  0.18751879468E+01 -0.29435852209E+02 -0.26190874027E+02  0.39445501739E+02  0.00000000000E+00 0.  1.
         11    1    3    3    0    0 -0.18751879468E+01  0.29435852209E+02  0.48866242020E+02  0.57077975912E+02  0.00000000000E+00 0. -1.
<mgrwt>
<rscale>  0 0.93822222E+02</rscale>
<asrwt>0</asrwt>
<pdfrwt beam="1">  1        1 0.91691420E-02 0.93822222E+02</pdfrwt>
<pdfrwt beam="2">  1       -1 0.56806238E-02 0.93822222E+02</pdfrwt>
<totfact> 0.88907538E+04</totfact>
</mgrwt>
</event>
<event>
 5    1  0.1310593E+001  0.9007756E+02  0.7546771E-02  0.1302664E+00
         -4   -1    0    0    0  501 -0.00000000000E+00  0.00000000000E+00  0.60765254676E+01  0.60765254676E+01  0.00000000000E+00 0.  1.
          4   -1    0    0  501    0  0.00000000000E+00 -0.00000000000E+00 -0.33382428717E+03  0.33382428717E+03  0.00000000000E+00 0. -1.
         23    2    1    2    0    0  0.00000000000E+00  0.00000000000E+00 -0.32774776170E+03  0.33990081264E+03  0.90077561749E+02 0.  0.
        -11    1    3    3    0    0 -0.45432887595E+01 -0.43884734593E+02 -0.12970816352E+03  0.13700627390E+03  0.00000000000E+00 0. -1.
         11    1    3    3    0    0  0.45432887595E+01  0.43884734593E+02 -0.19803959818E+03  0.20289453874E+03  0.00000000000E+00 0.  1.
<mgrwt>
<rscale>  0 0.90077562E+02</rscale>
<asrwt>0</asrwt>
<pdfrwt beam="2">  1        4 0.51357582E-01 0.90077562E+02</pdfrwt>
<pdfrwt beam="1">  1       -4 0.93485009E-03 0.90077562E+02</pdfrwt>
<totfact> 0.17212449E+04</totfact>
</mgrwt>
</event>
<event>
 5    1  0.1310593E+001  0.9026182E+02  0.7546771E-02  0.1302219E+00
         -2   -1    0    0    0  501 -0.00000000000E+00  0.00000000000E+00  0.64394642128E+01  0.64394642128E+01  0.00000000000E+00 0.  1.
          2   -1    0    0  501    0  0.00000000000E+00 -0.00000000000E+00 -0.31629942889E+03  0.31629942889E+03  0.00000000000E+00 0. -1.
         23    2    1    2    0    0  0.00000000000E+00  0.00000000000E+00 -0.30985996468E+03  0.32273889311E+03  0.90261815911E+02 0.  0.
        -11    1    3    3    0    0 -0.34208908175E+02  0.21939861880E+02 -0.22510553154E+03  0.22874463331E+03  0.00000000000E+00 0. -1.
         11    1    3    3    0    0  0.34208908175E+02 -0.21939861880E+02 -0.84754433145E+02  0.93994259802E+02  0.00000000000E+00 0.  1.
<mgrwt>
<rscale>  0 0.90261816E+02</rscale>
<asrwt>0</asrwt>
<pdfrwt beam="2">  1        2 0.48661453E-01 0.90261816E+02</pdfrwt>
<pdfrwt beam="1">  1       -2 0.99068676E-03 0.90261816E+02</pdfrwt>
<totfact> 0.18821627E+05</totfact>
</mgrwt>
</event>
<event>
 5    1  0.1310593E+001  0.9142506E+02  0.7546771E-02  0.1299437E+00
          2   -1    0    0  501    0  0.00000000000E+00  0.00000000000E+00  0.56920818476E+02  0.56920818476E+02  0.00000000000E+00 0. -1.
         -2   -1    0    0    0  501 -0.00000000000E+00 -0.00000000000E+00 -0.36711264216E+02  0.36711264216E+02  0.00000000000E+00 0.  1.
         23    2    1    2    0    0  0.00000000000E+00  0.00000000000E+00  0.20209554260E+02  0.93632082693E+02  0.91425055789E+02 0.  0.
        -13    1    3    3    0    0  0.36590087958E+02 -0.24708052721E+02  0.22236098171E+02  0.49434466397E+02  0.00000000000E+00 0. -1.
         13    1    3    3    0    0 -0.36590087958E+02  0.24708052721E+02 -0.20265439109E+01  0.44197616296E+02  0.00000000000E+00 0.  1.
<mgrwt>
<rscale>  0 0.91425056E+02</rscale>
<asrwt>0</asrwt>
<pdfrwt beam="1">  1        2 0.87570490E-02 0.91425056E+02</pdfrwt>
<pdfrwt beam="2">  1       -2 0.56478868E-02 0.91425056E+02</pdfrwt>
<totfact> 0.10378533E+05</totfact>
</mgrwt>
</event>
<event>
 5    1  0.1310593E+001  0.9232731E+02  0.7546771E-02  0.1297312E+00
          1   -1    0    0  501    0  0.00000000000E+00  0.00000000000E+00  0.90677723109E+01  0.90677723109E+01  0.00000000000E+00 0. -1.
         -1   -1    0    0    0  501 -0.00000000000E+00 -0.00000000000E+00 -0.23501725793E+03  0.23501725793E+03  0.00000000000E+00 0.  1.
         23    2    1    2    0    0  0.00000000000E+00  0.00000000000E+00 -0.22594948562E+03  0.24408503024E+03  0.92327308723E+02 0.  0.
        -13    1    3    3    0    0  0.31406698898E+02  0.11476321572E+02 -0.19711714300E+03  0.19993312571E+03  0.00000000000E+00 0.  1.
         13    1    3    3    0    0 -0.31406698898E+02 -0.11476321572E+02 -0.28832342616E+02  0.44151904526E+02  0.00000000000E+00 0. -1.
<mgrwt>
<rscale>  0 0.92327309E+02</rscale>
<asrwt>0</asrwt>
<pdfrwt beam="1">  1        1 0.13950420E-02 0.92327309E+02</pdfrwt>
<pdfrwt beam="2">  1       -1 0.36156498E-01 0.92327309E+02</pdfrwt>
<totfact> 0.63972126E+04</totfact>
</mgrwt>
</event>
<event>
 5    1  0.1310593E+001  0.9644204E+02  0.7546771E-02  0.1287961E+00
         -2   -1    0    0    0  501 -0.00000000000E+00  0.00000000000E+00  0.34673437064E+02  0.34673437064E+02  0.00000000000E+00 0.  1.
          2   -1    0    0  501    0  0.00000000000E+00 -0.00000000000E+00 -0.67061909225E+02  0.67061909225E+02  0.00000000000E+00 0. -1.
         23    2    1    2    0    0  0.00000000000E+00  0.00000000000E+00 -0.32388472161E+02  0.10173534629E+03  0.96442042470E+02 0.  0.
        -13    1    3    3    0    0  0.91828256204E+01  0.29499996499E+02 -0.55249136564E+02  0.63301194071E+02  0.00000000000E+00 0. -1.
         13    1    3    3    0    0 -0.91828256204E+01 -0.29499996499E+02  0.22860664402E+02  0.38434152218E+02  0.00000000000E+00 0.  1.
<mgrwt>
<rscale>  0 0.96442042E+02</rscale>
<asrwt>0</asrwt>
<pdfrwt beam="2">  1        2 0.10317217E-01 0.96442042E+02</pdfrwt>
<pdfrwt beam="1">  1       -2 0.53343750E-02 0.96442042E+02</pdfrwt>
<totfact> 0.93313819E+04</totfact>
</mgrwt>
</event>
<event>
 5    1  0.1310593E+001  0.9048936E+02  0.7546771E-02  0.1301671E+00
          2   -1    0    0  501    0  0.00000000000E+00  0.00000000000E+00  0.17989786246E+03  0.17989786246E+03  0.00000000000E+00 0.  1.
         -2   -1    0    0    0  501 -0.00000000000E+00 -0.00000000000E+00 -0.11379129475E+02  0.11379129475E+02  0.00000000000E+00 0. -1.
         23    2    1    2    0    0  0.00000000000E+00  0.00000000000E+00  0.16851873298E+03  0.19127699193E+03  0.90489360020E+02 0.  0.
        -13    1    3    3    0    0 -0.14062421752E+02 -0.30162824137E+02  0.14905135805E+03  0.15272149489E+03  0.00000000000E+00 0.  1.
         13    1    3    3    0    0  0.14062421752E+02  0.30162824137E+02  0.19467374937E+02  0.38555497045E+02  0.00000000000E+00 0. -1.
<mgrwt>
<rscale>  0 0.90489360E+02</rscale>
<asrwt>0</asrwt>
<pdfrwt beam="1">  1        2 0.27676592E-01 0.90489360E+02</pdfrwt>
<pdfrwt beam="2">  1       -2 0.17506354E-02 0.90489360E+02</pdfrwt>
<totfact> 0.15198776E+05</totfact>
</mgrwt>
</event>
<event>
 5    1  0.1310593E+001  0.8938008E+02  0.7546771E-02  0.1304360E+00
         -2   -1    0    0    0  501 -0.00000000000E+00  0.00000000000E+00  0.40371691932E+03  0.40371691932E+03  0.00000000000E+00 0. -1.
          2   -1    0    0  501    0  0.00000000000E+00 -0.00000000000E+00 -0.49470294585E+01  0.49470294585E+01  0.00000000000E+00 0.  1.
         23    2    1    2    0    0  0.00000000000E+00  0.00000000000E+00  0.39876988986E+03  0.40866394878E+03  0.89380075917E+02 0.  0.
        -13    1    3    3    0    0 -0.39926686615E+02 -0.19825693453E+02  0.21384429571E+03  0.21844125350E+03  0.00000000000E+00 0. -1.
         13    1    3    3    0    0  0.39926686615E+02  0.19825693453E+02  0.18492559415E+03  0.19022269528E+03  0.00000000000E+00 0.  1.
<mgrwt>
<rscale>  0 0.89380076E+02</rscale>
<asrwt>0</asrwt>
<pdfrwt beam="2">  1        2 0.76108178E-03 0.89380076E+02</pdfrwt>
<pdfrwt beam="1">  1       -2 0.62110269E-01 0.89380076E+02</pdfrwt>
<totfact> 0.44662911E+04</totfact>
</mgrwt>
</event>
<event>
 5    1  0.1310593E+001  0.9596533E+02  0.7546771E-02  0.1289017E+00
         -1   -1    0    0    0  501 -0.00000000000E+00  0.00000000000E+00  0.29953094115E+02  0.29953094115E+02  0.00000000000E+00 0.  1.
          1   -1    0    0  501    0  0.00000000000E+00 -0.00000000000E+00 -0.76864713735E+02  0.76864713735E+02  0.00000000000E+00 0. -1.
         23    2    1    2    0    0  0.00000000000E+00  0.00000000000E+00 -0.46911619620E+02  0.10681780785E+03  0.95965327167E+02 0.  0.
        -11    1    3    3    0    0 -0.22263118698E+01 -0.28411820730E+02  0.19512078687E+02  0.34538518156E+02  0.00000000000E+00 0.  1.
         11    1    3    3    0    0  0.22263118698E+01  0.28411820730E+02 -0.66423698307E+02  0.72279289693E+02  0.00000000000E+00 0. -1.
<mgrwt>
<rscale>  0 0.95965327E+02</rscale>
<asrwt>0</asrwt>
<pdfrwt beam="2">  1        1 0.11825340E-01 0.95965327E+02</pdfrwt>
<pdfrwt beam="1">  1       -1 0.46081684E-02 0.95965327E+02</pdfrwt>
<totfact> 0.86918746E+04</totfact>
</mgrwt>
</event>
<event>
 5    1  0.1310593E+001  0.9102595E+02  0.7546771E-02  0.1300386E+00
         -1   -1    0    0    0  501 -0.00000000000E+00  0.00000000000E+00  0.93025274261E+01  0.93025274261E+01  0.00000000000E+00 0.  1.
          1   -1    0    0  501    0  0.00000000000E+00 -0.00000000000E+00 -0.22267399774E+03  0.22267399774E+03  0.00000000000E+00 0. -1.
         23    2    1    2    0    0  0.00000000000E+00  0.00000000000E+00 -0.21337147032E+03  0.23197652517E+03  0.91025951708E+02 0.  0.
        -11    1    3    3    0    0  0.99490218470E+01  0.42773539025E+02 -0.76224127490E+02  0.87969746436E+02  0.00000000000E+00 0.  1.
         11    1    3    3    0    0 -0.99490218470E+01 -0.42773539025E+02 -0.13714734283E+03  0.14400677873E+03  0.00000000000E+00 0. -1.
<mgrwt>
<rscale>  0 0.91025952E+02</rscale>
<asrwt>0</asrwt>
<pdfrwt beam="2">  1        1 0.34257537E-01 0.91025952E+02</pdfrwt>
<pdfrwt beam="1">  1       -1 0.14311581E-02 0.91025952E+02</pdfrwt>
<totfact> 0.12144570E+05</totfact>
</mgrwt>
</event>
<event>
 5    1  0.1310593E+001  0.9648625E+02  0.7546771E-02  0.1287863E+00
         -3   -1    0    0    0  501 -0.00000000000E+00  0.00000000000E+00  0.43810777144E+02  0.43810777144E+02  0.00000000000E+00 0.  1.
          3   -1    0    0  501    0  0.00000000000E+00 -0.00000000000E+00 -0.53123893084E+02  0.53123893084E+02  0.00000000000E+00 0. -1.
         23    2    1    2    0    0  0.00000000000E+00  0.00000000000E+00 -0.93131159392E+01  0.96934670228E+02  0.96486248573E+02 0.  0.
        -11    1    3    3    0    0  0.43974495795E+02  0.19386504863E+02 -0.88959073895E+01  0.48874635748E+02  0.00000000000E+00 0. -1.
         11    1    3    3    0    0 -0.43974495795E+02 -0.19386504863E+02 -0.41720854973E+00  0.48060034480E+02  0.00000000000E+00 0.  1.
<mgrwt>
<rscale>  0 0.96486249E+02</rscale>
<asrwt>0</asrwt>
<pdfrwt beam="2">  1        3 0.81729066E-02 0.96486249E+02</pdfrwt>
<pdfrwt beam="1">  1       -3 0.67401195E-02 0.96486249E+02</pdfrwt>
<totfact> 0.29894238E+04</totfact>
</mgrwt>
</event>
<event>
 5    1  0.1310593E+001  0.9099766E+02  0.7546771E-02  0.1300454E+00
          2   -1    0    0  501    0  0.00000000000E+00  0.00000000000E+00  0.55122155254E+02  0.55122155254E+02  0.00000000000E+00 0. -1.
         -2   -1    0    0    0  501 -0.00000000000E+00 -0.00000000000E+00 -0.37555562645E+02  0.37555562645E+02  0.00000000000E+00 0.  1.
         23    2    1    2    0    0  0.00000000000E+00  0.00000000000E+00  0.17566592608E+02  0.92677717899E+02  0.90997660515E+02 0.  0.
        -11    1    3    3    0    0  0.35363223605E+02  0.28339454631E+02  0.12915454459E+02  0.47122088625E+02  0.00000000000E+00 0. -1.
         11    1    3    3    0    0 -0.35363223605E+02 -0.28339454631E+02  0.46511381491E+01  0.45555629274E+02  0.00000000000E+00 0.  1.
<mgrwt>
<rscale>  0 0.90997661E+02</rscale>
<asrwt>0</asrwt>
<pdfrwt beam="1">  1        2 0.84803316E-02 0.90997661E+02</pdfrwt>
<pdfrwt beam="2">  1       -2 0.57777789E-02 0.90997661E+02</pdfrwt>
<totfact> 0.10428148E+05</totfact>
</mgrwt>
</event>
<event>
 5    1  0.1310593E+001  0.8949152E+02  0.7546771E-02  0.1304088E+00
         -2   -1    0    0    0  501 -0.00000000000E+00  0.00000000000E+00  0.21298393845E+02  0.21298393845E+02  0.00000000000E+00 0.  1.
          2   -1    0    0  501    0  0.00000000000E+00 -0.00000000000E+00 -0.94006285054E+02  0.94006285054E+02  0.00000000000E+00 0. -1.
         23    2    1    2    0    0  0.00000000000E+00  0.00000000000E+00 -0.72707891209E+02  0.11530467890E+03  0.89491516536E+02 0.  0.
        -11    1    3    3    0    0 -0.28551371460E+02 -0.30508080124E+01 -0.80570145239E+02  0.85533832754E+02  0.00000000000E+00 0. -1.
         11    1    3    3    0    0  0.28551371460E+02  0.30508080124E+01  0.78622540299E+01  0.29770846145E+02  0.00000000000E+00 0.  1.
<mgrwt>
<rscale>  0 0.89491517E+02</rscale>
<asrwt>0</asrwt>
<pdfrwt beam="2">  1        2 0.14462505E-01 0.89491517E+02</pdfrwt>
<pdfrwt beam="1">  1       -2 0.32766760E-02 0.89491517E+02</pdfrwt>
<totfact> 0.12675652E+05</totfact>
</mgrwt>
</event>
<event>
 5    1  0.1310593E+001  0.8853785E+02  0.7546771E-02  0.1306432E+00
          1   -1    0    0  501    0  0.00000000000E+00  0.00000000000E+00  0.30030377479E+03  0.30030377479E+03  0.00000000000E+00 0. -1.
         -1   -1    0    0    0  501 -0.00000000000E+00 -0.00000000000E+00 -0.65258516202E+01  0.65258516202E+01  0.00000000000E+00 0.  1.
         23    2    1    2    0    0  0.00000000000E+00  0.00000000000E+00  0.29377792317E+03  0.30682962641E+03  0.88537853493E+02 0.  0.
        -13    1    3    3    0    0 -0.13631582209E+02 -0.40077022080E+02  0.10200411429E+03  0.11043924603E+03  0.00000000000E+00 0. -1.
         13    1    3    3    0    0  0.13631582209E+02  0.40077022080E+02  0.19177380888E+03  0.19639038038E+03  0.00000000000E+00 0.  1.
<mgrwt>
<rscale>  0 0.88537853E+02</rscale>
<asrwt>0</asrwt>
<pdfrwt beam="1">  1        1 0.46200570E-01 0.88537853E+02</pdfrwt>
<pdfrwt beam="2">  1       -1 0.10039774E-02 0.88537853E+02</pdfrwt>
<totfact> 0.13855582E+05</totfact>
</mgrwt>
</event>
<event>
 5    1  0.1310593E+001  0.9123563E+02  0.7546771E-02  0.1299887E+00
          2   -1    0    0  501    0  0.00000000000E+00  0.00000000000E+00  0.24635563212E+03  0.24635563212E+03  0.00000000000E+00 0. -1.
         -2   -1    0    0    0  501 -0.00000000000E+00 -0.00000000000E+00 -0.84470777263E+01  0.84470777263E+01  0.00000000000E+00 0.  1.
         23    2    1    2    0    0  0.00000000000E+00  0.00000000000E+00  0.23790855439E+03  0.25480270985E+03  0.91235632794E+02 0.  0.
        -13    1    3    3    0    0 -0.17093310889E+02 -0.35233893072E+02  0.53613740509E+02  0.66393084501E+02  0.00000000000E+00 0.  1.
         13    1    3    3    0    0  0.17093310889E+02  0.35233893072E+02  0.18429481389E+03  0.18840962535E+03  0.00000000000E+00 0. -1.
<mgrwt>
<rscale>  0 0.91235633E+02</rscale>
<asrwt>0</asrwt>
<pdfrwt beam="1">  1        2 0.37900861E-01 0.91235633E+02</pdfrwt>
<pdfrwt beam="2">  1       -2 0.12995506E-02 0.91235633E+02</pdfrwt>
<totfact> 0.16666279E+05</totfact>
</mgrwt>
</event>
<event>
 5    1  0.1310593E+001  0.9143456E+02  0.7546771E-02  0.1299414E+00
          1   -1    0    0  501    0  0.00000000000E+00  0.00000000000E+00  0.10144474130E+03  0.10144474130E+03  0.00000000000E+00 0. -1.
         -1   -1    0    0    0  501 -0.00000000000E+00 -0.00000000000E+00 -0.20603035782E+02  0.20603035782E+02  0.00000000000E+00 0.  1.
         23    2    1    2    0    0  0.00000000000E+00  0.00000000000E+00  0.80841705522E+02  0.12204777709E+03  0.91434558784E+02 0.  0.
        -13    1    3    3    0    0 -0.43992869881E+02 -0.12327648359E+02  0.38216952006E+02  0.59564074198E+02  0.00000000000E+00 0.  1.
         13    1    3    3    0    0  0.43992869881E+02  0.12327648359E+02  0.42624753516E+02  0.62483702889E+02  0.00000000000E+00 0. -1.
<mgrwt>
<rscale>  0 0.91434559E+02</rscale>
<asrwt>0</asrwt>
<pdfrwt beam="1">  1        1 0.15606883E-01 0.91434559E+02</pdfrwt>
<pdfrwt beam="2">  1       -1 0.31696979E-02 0.91434559E+02</pdfrwt>
<totfact> 0.10389844E+05</totfact>
</mgrwt>
</event>
<event>
 5    1  0.1310593E+001  0.8803553E+02  0.7546771E-02  0.1307680E+00
         -3   -1    0    0    0  501 -0.00000000000E+00  0.00000000000E+00  0.28361838035E+02  0.28361838035E+02  0.00000000000E+00 0.  1.
          3   -1    0    0  501    0  0.00000000000E+00 -0.00000000000E+00 -0.68315863452E+02  0.68315863452E+02  0.00000000000E+00 0. -1.
         23    2    1    2    0    0  0.00000000000E+00  0.00000000000E+00 -0.39954025417E+02  0.96677701487E+02  0.88035525885E+02 0.  0.
        -11    1    3    3    0    0 -0.30629370312E+02  0.17615348987E+02  0.88507494922E+01  0.36425192000E+02  0.00000000000E+00 0.  1.
         11    1    3    3    0    0  0.30629370312E+02 -0.17615348987E+02 -0.48804774909E+02  0.60252509487E+02  0.00000000000E+00 0. -1.
<mgrwt>
<rscale>  0 0.88035526E+02</rscale>
<asrwt>0</asrwt>
<pdfrwt beam="2">  1        3 0.10510133E-01 0.88035526E+02</pdfrwt>
<pdfrwt beam="1">  1       -3 0.43633597E-02 0.88035526E+02</pdfrwt>
<totfact> 0.38403950E+04</totfact>
</mgrwt>
</event>
<event>
 5    1  0.1310593E+001  0.9000485E+02  0.7546771E-02  0.1302840E+00
         -2   -1    0    0    0  501 -0.00000000000E+00  0.00000000000E+00  0.59833633286E+01  0.59833633286E+01  0.00000000000E+00 0.  1.
          2   -1    0    0  501    0  0.00000000000E+00 -0.00000000000E+00 -0.33847491380E+03  0.33847491380E+03  0.00000000000E+00 0. -1.
         23    2    1    2    0    0  0.00000000000E+00  0.00000000000E+00 -0.33249155047E+03  0.34445827713E+03  0.90004852911E+02 0.  0.
        -11    1    3    3    0    0 -0.39674117299E+02  0.21203917851E+02 -0.16144024555E+03  0.16759055641E+03  0.00000000000E+00 0.  1.
         11    1    3    3    0    0  0.39674117299E+02 -0.21203917851E+02 -0.17105130492E+03  0.17686772071E+03  0.00000000000E+00 0. -1.
<mgrwt>
<rscale>  0 0.90004853E+02</rscale>
<asrwt>0</asrwt>
<pdfrwt beam="2">  1        2 0.52073075E-01 0.90004853E+02</pdfrwt>
<pdfrwt beam="1">  1       -2 0.92051723E-03 0.90004853E+02</pdfrwt>
<totfact> 0.19444952E+05</totfact>
</mgrwt>
</event>
<event>
 5    1  0.1310593E+001  0.9095921E+02  0.7546771E-02  0.1300545E+00
         -2   -1    0    0    0  501 -0.00000000000E+00  0.00000000000E+00  0.52425484987E+01  0.52425484987E+01  0.00000000000E+00 0.  1.
          2   -1    0    0  501    0  0.00000000000E+00 -0.00000000000E+00 -0.39453992342E+03  0.39453992342E+03  0.00000000000E+00 0. -1.
         23    2    1    2    0    0  0.00000000000E+00  0.00000000000E+00 -0.38929737492E+03  0.39978247191E+03  0.90959214666E+02 0.  0.
        -11    1    3    3    0    0  0.43386891909E+02  0.36359804219E+01 -0.13688053030E+03  0.14363816456E+03  0.00000000000E+00 0.  1.
         11    1    3    3    0    0 -0.43386891909E+02 -0.36359804219E+01 -0.25241684462E+03  0.25614430736E+03  0.00000000000E+00 0. -1.
<mgrwt>
<rscale>  0 0.90959215E+02</rscale>
<asrwt>0</asrwt>
<pdfrwt beam="2">  1        2 0.60698453E-01 0.90959215E+02</pdfrwt>
<pdfrwt beam="1">  1       -2 0.80654587E-03 0.90959215E+02</pdfrwt>
<totfact> 0.19990920E+05</totfact>
</mgrwt>
</event>
<event>
 5    1  0.1310593E+001  0.9234065E+02  0.7546771E-02  0.1297280E+00
          2   -1    0    0  501    0  0.00000000000E+00  0.00000000000E+00  0.18477714571E+03  0.18477714571E+03  0.00000000000E+00 0. -1.
         -2   -1    0    0    0  501 -0.00000000000E+00 -0.00000000000E+00 -0.11536593857E+02  0.11536593857E+02  0.00000000000E+00 0.  1.
         23    2    1    2    0    0  0.00000000000E+00  0.00000000000E+00  0.17324055185E+03  0.19631373957E+03  0.92340649428E+02 0.  0.
        -11    1    3    3    0    0 -0.28155293195E+02  0.25692792571E+02  0.31228220040E+02  0.49275164656E+02  0.00000000000E+00 0.  1.
         11    1    3    3    0    0  0.28155293195E+02 -0.25692792571E+02  0.14201233181E+03  0.14703857491E+03  0.00000000000E+00 0. -1.
<mgrwt>
<rscale>  0 0.92340649E+02</rscale>
<asrwt>0</asrwt>
<pdfrwt beam="1">  1        2 0.28427251E-01 0.92340649E+02</pdfrwt>
<pdfrwt beam="2">  1       -2 0.17748607E-02 0.92340649E+02</pdfrwt>
<totfact> 0.14527663E+05</totfact>
</mgrwt>
</event>
<event>
 5    1  0.1310593E+001  0.9343636E+02  0.7546771E-02  0.1294737E+00
         -3   -1    0    0    0  501 -0.00000000000E+00  0.00000000000E+00  0.10820272172E+03  0.10820272172E+03  0.00000000000E+00 0.  1.
          3   -1    0    0  501    0  0.00000000000E+00 -0.00000000000E+00 -0.20171288125E+02  0.20171288125E+02  0.00000000000E+00 0. -1.
         23    2    1    2    0    0  0.00000000000E+00  0.00000000000E+00  0.88031433595E+02  0.12837400984E+03  0.93436358570E+02 0.  0.
        -13    1    3    3    0    0  0.32837038983E+02  0.33094049701E+02  0.48160542365E+02  0.67029285359E+02  0.00000000000E+00 0.  1.
         13    1    3    3    0    0 -0.32837038983E+02 -0.33094049701E+02  0.39870891230E+02  0.61344724486E+02  0.00000000000E+00 0. -1.
<mgrwt>
<rscale>  0 0.93436359E+02</rscale>
<asrwt>0</asrwt>
<pdfrwt beam="2">  1        3 0.31032752E-02 0.93436359E+02</pdfrwt>
<pdfrwt beam="1">  1       -3 0.16646572E-01 0.93436359E+02</pdfrwt>
<totfact> 0.30577926E+04</totfact>
</mgrwt>
</event>
<event>
 5    1  0.1310593E+001  0.9486196E+02  0.7546771E-02  0.1291487E+00
          2   -1    0    0  501    0  0.00000000000E+00  0.00000000000E+00  0.12939863793E+03  0.12939863793E+03  0.00000000000E+00 0. -1.
         -2   -1    0    0    0  501 -0.00000000000E+00 -0.00000000000E+00 -0.17385791308E+02  0.17385791308E+02  0.00000000000E+00 0.  1.
         23    2    1    2    0    0  0.00000000000E+00  0.00000000000E+00  0.11201284662E+03  0.14678442923E+03  0.94861956852E+02 0.  0.
        -13    1    3    3    0    0 -0.23423559959E+01  0.46504277242E+02  0.69980890332E+02  0.84056287362E+02  0.00000000000E+00 0.  1.
         13    1    3    3    0    0  0.23423559959E+01 -0.46504277242E+02  0.42031956286E+02  0.62728141871E+02  0.00000000000E+00 0. -1.
<mgrwt>
<rscale>  0 0.94861957E+02</rscale>
<asrwt>0</asrwt>
<pdfrwt beam="1">  1        2 0.19907482E-01 0.94861957E+02</pdfrwt>
<pdfrwt beam="2">  1       -2 0.26747372E-02 0.94861957E+02</pdfrwt>
<totfact> 0.11940417E+05</totfact>
</mgrwt>
</event>
<event>
 5    1  0.1310593E+001  0.9203663E+02  0.7546771E-02  0.1297993E+00
          2   -1    0    0  501    0  0.00000000000E+00  0.00000000000E+00  0.77820431625E+02  0.77820431625E+02  0.00000000000E+00 0. -1.
         -2   -1    0    0    0  501 -0.00000000000E+00 -0.00000000000E+00 -0.27212461030E+02  0.27212461030E+02  0.00000000000E+00 0.  1.
         23    2    1    2    0    0  0.00000000000E+00  0.00000000000E+00  0.50607970595E+02  0.10503289265E+03  0.92036633205E+02 0.  0.
        -13    1    3    3    0    0  0.22499936139E+02  0.25040022502E+01 -0.20417980184E+02  0.30486243920E+02  0.00000000000E+00 0.  1.
         13    1    3    3    0    0 -0.22499936139E+02 -0.25040022502E+01  0.71025950779E+02  0.74546648735E+02  0.00000000000E+00 0. -1.
<mgrwt>
<rscale>  0 0.92036633E+02</rscale>
<asrwt>0</asrwt>
<pdfrwt beam="1">  1        2 0.11972374E-01 0.92036633E+02</pdfrwt>
<pdfrwt beam="2">  1       -2 0.41865325E-02 0.92036633E+02</pdfrwt>
<totfact> 0.11101222E+05</totfact>
</mgrwt>
</event>
<event>
 5    1  0.1310593E+001  0.9177573E+02  0.7546771E-02  0.1298608E+00
         -2   -1    0    0    0  501 -0.00000000000E+00  0.00000000000E+00  0.74922627786E+02  0.74922627786E+02  0.00000000000E+00 0. -1.
          2   -1    0    0  501    0  0.00000000000E+00 -0.00000000000E+00 -0.28104942057E+02  0.28104942057E+02  0.00000000000E+00 0.  1.
         23    2    1    2    0    0  0.00000000000E+00  0.00000000000E+00  0.46817685729E+02  0.10302756984E+03  0.91775729094E+02 0.  0.
        -13    1    3    3    0    0 -0.30966779066E+02  0.20203518255E+02  0.53917437044E+02  0.65377469919E+02  0.00000000000E+00 0. -1.
         13    1    3    3    0    0  0.30966779066E+02 -0.20203518255E+02 -0.70997513143E+01  0.37650099924E+02  0.00000000000E+00 0.  1.
<mgrwt>
<rscale>  0 0.91775729E+02</rscale>
<asrwt>0</asrwt>
<pdfrwt beam="2">  1        2 0.43238373E-02 0.91775729E+02</pdfrwt>
<pdfrwt beam="1">  1       -2 0.11526558E-01 0.91775729E+02</pdfrwt>
<totfact> 0.85242248E+04</totfact>
</mgrwt>
</event>
<event>
 5    1  0.1310593E+001  0.9273521E+02  0.7546771E-02  0.1296360E+00
          1   -1    0    0  501    0  0.00000000000E+00  0.00000000000E+00  0.12339349097E+02  0.12339349097E+02  0.00000000000E+00 0. -1.
         -1   -1    0    0    0  501 -0.00000000000E+00 -0.00000000000E+00 -0.17423567918E+03  0.17423567918E+03  0.00000000000E+00 0.  1.
         23    2    1    2    0    0  0.00000000000E+00  0.00000000000E+00 -0.16189633008E+03  0.18657502828E+03  0.92735211663E+02 0.  0.
        -11    1    3    3    0    0 -0.21205739923E+02  0.28411167592E+02 -0.20823411929E+02  0.41115597211E+02  0.00000000000E+00 0. -1.
         11    1    3    3    0    0  0.21205739923E+02 -0.28411167592E+02 -0.14107291815E+03  0.14545943107E+03  0.00000000000E+00 0.  1.
<mgrwt>
<rscale>  0 0.92735212E+02</rscale>
<asrwt>0</asrwt>
<pdfrwt beam="1">  1        1 0.18983616E-02 0.92735212E+02</pdfrwt>
<pdfrwt beam="2">  1       -1 0.26805486E-01 0.92735212E+02</pdfrwt>
<totfact> 0.68969421E+04</totfact>
</mgrwt>
</event>
<event>
 5    1  0.1310593E+001  0.7748171E+02  0.7546771E-02  0.1336354E+00
         -3   -1    0    0    0  501 -0.00000000000E+00  0.00000000000E+00  0.12690795610E+02  0.12690795610E+02  0.00000000000E+00 0.  1.
          3   -1    0    0  501    0  0.00000000000E+00 -0.00000000000E+00 -0.11826317895E+03  0.11826317895E+03  0.00000000000E+00 0. -1.
         23    2    1    2    0    0  0.00000000000E+00  0.00000000000E+00 -0.10557238334E+03  0.13095397456E+03  0.77481709643E+02 0.  0.
        -11    1    3    3    0    0 -0.26511189493E+02  0.28189264768E+02 -0.49680761797E+02  0.62973454004E+02  0.00000000000E+00 0. -1.
         11    1    3    3    0    0  0.26511189493E+02 -0.28189264768E+02 -0.55891621548E+02  0.67980520561E+02  0.00000000000E+00 0.  1.
<mgrwt>
<rscale>  0 0.77481710E+02</rscale>
<asrwt>0</asrwt>
<pdfrwt beam="2">  1        3 0.18194335E-01 0.77481710E+02</pdfrwt>
<pdfrwt beam="1">  1       -3 0.19524301E-02 0.77481710E+02</pdfrwt>
<totfact> 0.50325553E+04</totfact>
</mgrwt>
</event>
<event>
 5    1  0.1310593E+001  0.9290251E+02  0.7546771E-02  0.1295971E+00
         -2   -1    0    0    0  501 -0.00000000000E+00  0.00000000000E+00  0.30780536732E+02  0.30780536732E+02  0.00000000000E+00 0.  1.
          2   -1    0    0  501    0  0.00000000000E+00 -0.00000000000E+00 -0.70100108491E+02  0.70100108491E+02  0.00000000000E+00 0. -1.
         23    2    1    2    0    0  0.00000000000E+00  0.00000000000E+00 -0.39319571759E+02  0.10088064522E+03  0.92902507270E+02 0.  0.
        -11    1    3    3    0    0 -0.46414214596E+02 -0.16148348094E+00 -0.17653536697E+02  0.49658360338E+02  0.00000000000E+00 0.  1.
         11    1    3    3    0    0  0.46414214596E+02  0.16148348094E+00 -0.21666035062E+02  0.51222284885E+02  0.00000000000E+00 0. -1.
<mgrwt>
<rscale>  0 0.92902507E+02</rscale>
<asrwt>0</asrwt>
<pdfrwt beam="2">  1        2 0.10784632E-01 0.92902507E+02</pdfrwt>
<pdfrwt beam="1">  1       -2 0.47354672E-02 0.92902507E+02</pdfrwt>
<totfact> 0.10499459E+05</totfact>
</mgrwt>
</event>
<event>
 5    1  0.1310593E+001  0.9115867E+02  0.7546771E-02  0.1300070E+00
         -2   -1    0    0    0  501 -0.00000000000E+00  0.00000000000E+00  0.15729833312E+02  0.15729833312E+02  0.00000000000E+00 0. -1.
          2   -1    0    0  501    0  0.00000000000E+00 -0.00000000000E+00 -0.13207233610E+03  0.13207233610E+03  0.00000000000E+00 0.  1.
         23    2    1    2    0    0  0.00000000000E+00  0.00000000000E+00 -0.11634250279E+03  0.14780216941E+03  0.91158671162E+02 0.  0.
        -11    1    3    3    0    0 -0.41395308904E+02 -0.17143719220E+02 -0.71736348942E+02  0.84578853548E+02  0.00000000000E+00 0.  1.
         11    1    3    3    0    0  0.41395308904E+02  0.17143719220E+02 -0.44606153847E+02  0.63223315865E+02  0.00000000000E+00 0. -1.
<mgrwt>
<rscale>  0 0.91158671E+02</rscale>
<asrwt>0</asrwt>
<pdfrwt beam="2">  1        2 0.20318821E-01 0.91158671E+02</pdfrwt>
<pdfrwt beam="1">  1       -2 0.24199744E-02 0.91158671E+02</pdfrwt>
<totfact> 0.13404831E+05</totfact>
</mgrwt>
</event>
<event>
 5    1  0.1310593E+001  0.9329468E+02  0.7546771E-02  0.1295064E+00
         -3   -1    0    0    0  501 -0.00000000000E+00  0.00000000000E+00  0.21834189141E+02  0.21834189141E+02  0.00000000000E+00 0.  1.
          3   -1    0    0  501    0  0.00000000000E+00 -0.00000000000E+00 -0.99659048084E+02  0.99659048084E+02  0.00000000000E+00 0. -1.
         23    2    1    2    0    0  0.00000000000E+00  0.00000000000E+00 -0.77824858943E+02  0.12149323723E+03  0.93294683782E+02 0.  0.
        -11    1    3    3    0    0 -0.10192007462E+02 -0.27334956586E+02  0.84884467688E+01  0.30383064299E+02  0.00000000000E+00 0.  1.
         11    1    3    3    0    0  0.10192007462E+02  0.27334956586E+02 -0.86313305712E+02  0.91110172926E+02  0.00000000000E+00 0. -1.
<mgrwt>
<rscale>  0 0.93294684E+02</rscale>
<asrwt>0</asrwt>
<pdfrwt beam="2">  1        3 0.15332161E-01 0.93294684E+02</pdfrwt>
<pdfrwt beam="1">  1       -3 0.33591060E-02 0.93294684E+02</pdfrwt>
<totfact> 0.31135282E+04</totfact>
</mgrwt>
</event>
<event>
 5    1  0.1310593E+001  0.9395239E+02  0.7546771E-02  0.1293553E+00
         -2   -1    0    0    0  501 -0.00000000000E+00  0.00000000000E+00  0.32287070326E+03  0.32287070326E+03  0.00000000000E+00 0.  1.
          2   -1    0    0  501    0  0.00000000000E+00 -0.00000000000E+00 -0.68348193424E+01  0.68348193424E+01  0.00000000000E+00 0. -1.
         23    2    1    2    0    0  0.00000000000E+00  0.00000000000E+00  0.31603588392E+03  0.32970552260E+03  0.93952390661E+02 0.  0.
        -11    1    3    3    0    0 -0.20189849177E+00  0.46841660273E+02  0.14557060509E+03  0.15292149282E+03  0.00000000000E+00 0. -1.
         11    1    3    3    0    0  0.20189849177E+00 -0.46841660273E+02  0.17046527883E+03  0.17678402978E+03  0.00000000000E+00 0.  1.
<mgrwt>
<rscale>  0 0.93952391E+02</rscale>
<asrwt>0</asrwt>
<pdfrwt beam="2">  1        2 0.10515109E-02 0.93952391E+02</pdfrwt>
<pdfrwt beam="1">  1       -2 0.49672404E-01 0.93952391E+02</pdfrwt>
<totfact> 0.45245973E+04</totfact>
</mgrwt>
</event>
<event>
 5    1  0.1310593E+001  0.8814380E+02  0.7546771E-02  0.1307410E+00
          3   -1    0    0  501    0  0.00000000000E+00  0.00000000000E+00  0.22613687043E+02  0.22613687043E+02  0.00000000000E+00 0. -1.
         -3   -1    0    0    0  501 -0.00000000000E+00 -0.00000000000E+00 -0.85891893430E+02  0.85891893430E+02  0.00000000000E+00 0.  1.
         23    2    1    2    0    0  0.00000000000E+00  0.00000000000E+00 -0.63278206387E+02  0.10850558047E+03  0.88143800634E+02 0.  0.
        -11    1    3    3    0    0 -0.33606437666E+02 -0.15193607289E+02 -0.61339132589E+02  0.71573232021E+02  0.00000000000E+00 0.  1.
         11    1    3    3    0    0  0.33606437666E+02  0.15193607289E+02 -0.19390737981E+01  0.36932348453E+02  0.00000000000E+00 0. -1.
<mgrwt>
<rscale>  0 0.88143801E+02</rscale>
<asrwt>0</asrwt>
<pdfrwt beam="1">  1        3 0.34790288E-02 0.88143801E+02</pdfrwt>
<pdfrwt beam="2">  1       -3 0.13214138E-01 0.88143801E+02</pdfrwt>
<totfact> 0.37322245E+04</totfact>
</mgrwt>
</event>
<event>
 5    1  0.1310593E+001  0.9447897E+02  0.7546771E-02  0.1292354E+00
         -3   -1    0    0    0  501 -0.00000000000E+00  0.00000000000E+00  0.38268592813E+02  0.38268592813E+02  0.00000000000E+00 0.  1.
          3   -1    0    0  501    0  0.00000000000E+00 -0.00000000000E+00 -0.58313328086E+02  0.58313328086E+02  0.00000000000E+00 0. -1.
         23    2    1    2    0    0  0.00000000000E+00  0.00000000000E+00 -0.20044735272E+02  0.96581920899E+02  0.94478971377E+02 0.  0.
        -13    1    3    3    0    0 -0.28417076190E+02 -0.22131332742E+02 -0.41268091146E+02  0.54775737831E+02  0.00000000000E+00 0. -1.
         13    1    3    3    0    0  0.28417076190E+02  0.22131332742E+02  0.21223355874E+02  0.41806183068E+02  0.00000000000E+00 0.  1.
<mgrwt>
<rscale>  0 0.94478971E+02</rscale>
<asrwt>0</asrwt>
<pdfrwt beam="2">  1        3 0.89712812E-02 0.94478971E+02</pdfrwt>
<pdfrwt beam="1">  1       -3 0.58874759E-02 0.94478971E+02</pdfrwt>
<totfact> 0.31691931E+04</totfact>
</mgrwt>
</event>
<event>
 5    1  0.1310593E+001  0.9210612E+02  0.7546771E-02  0.1297830E+00
         -3   -1    0    0    0  501 -0.00000000000E+00  0.00000000000E+00  0.69856714771E+01  0.69856714771E+01  0.00000000000E+00 0.  1.
          3   -1    0    0  501    0  0.00000000000E+00 -0.00000000000E+00 -0.30360493806E+03  0.30360493806E+03  0.00000000000E+00 0. -1.
         23    2    1    2    0    0  0.00000000000E+00  0.00000000000E+00 -0.29661926658E+03  0.31059060953E+03  0.92106120450E+02 0.  0.
        -11    1    3    3    0    0  0.43517295722E+01  0.44648370284E+02 -0.11318964808E+03  0.12175512701E+03  0.00000000000E+00 0.  1.
         11    1    3    3    0    0 -0.43517295722E+01 -0.44648370284E+02 -0.18342961850E+03  0.18883548253E+03  0.00000000000E+00 0. -1.
<mgrwt>
<rscale>  0 0.92106120E+02</rscale>
<asrwt>0</asrwt>
<pdfrwt beam="2">  1        3 0.46708451E-01 0.92106120E+02</pdfrwt>
<pdfrwt beam="1">  1       -3 0.10747187E-02 0.92106120E+02</pdfrwt>
<totfact> 0.22991875E+04</totfact>
</mgrwt>
</event>
<event>
 5    1  0.1310593E+001  0.9106012E+02  0.7546771E-02  0.1300305E+00
         -1   -1    0    0    0  501 -0.00000000000E+00  0.00000000000E+00  0.12866163502E+03  0.12866163502E+03  0.00000000000E+00 0.  1.
          1   -1    0    0  501    0  0.00000000000E+00 -0.00000000000E+00 -0.16111921402E+02  0.16111921402E+02  0.00000000000E+00 0. -1.
         23    2    1    2    0    0  0.00000000000E+00  0.00000000000E+00  0.11254971362E+03  0.14477355642E+03  0.91060115327E+02 0.  0.
        -13    1    3    3    0    0 -0.25958443006E+02  0.15550743533E+02  0.11036121399E+03  0.11443453998E+03  0.00000000000E+00 0.  1.
         13    1    3    3    0    0  0.25958443006E+02 -0.15550743533E+02  0.21884996256E+01  0.30339016437E+02  0.00000000000E+00 0. -1.
<mgrwt>
<rscale>  0 0.91060115E+02</rscale>
<asrwt>0</asrwt>
<pdfrwt beam="2">  1        1 0.24787572E-02 0.91060115E+02</pdfrwt>
<pdfrwt beam="1">  1       -1 0.19794097E-01 0.91060115E+02</pdfrwt>
<totfact> 0.77653183E+04</totfact>
</mgrwt>
</event>
<event>
 5    1  0.1310593E+001  0.9292801E+02  0.7546771E-02  0.1295912E+00
         -1   -1    0    0    0  501 -0.00000000000E+00  0.00000000000E+00  0.85623456064E+02  0.85623456064E+02  0.00000000000E+00 0.  1.
          1   -1    0    0  501    0  0.00000000000E+00 -0.00000000000E+00 -0.25213929898E+02  0.25213929898E+02  0.00000000000E+00 0. -1.
         23    2    1    2    0    0  0.00000000000E+00  0.00000000000E+00  0.60409526167E+02  0.11083738596E+03  0.92928011252E+02 0.  0.
        -13    1    3    3    0    0 -0.40814683276E+02 -0.20668876268E+02  0.39884429515E+02  0.60694386354E+02  0.00000000000E+00 0. -1.
         13    1    3    3    0    0  0.40814683276E+02  0.20668876268E+02  0.20525096651E+02  0.50142999608E+02  0.00000000000E+00 0.  1.
<mgrwt>
<rscale>  0 0.92928011E+02</rscale>
<asrwt>0</asrwt>
<pdfrwt beam="2">  1        1 0.38790662E-02 0.92928011E+02</pdfrwt>
<pdfrwt beam="1">  1       -1 0.13172839E-01 0.92928011E+02</pdfrwt>
<totfact> 0.79681701E+04</totfact>
</mgrwt>
</event>
<event>
 5    1  0.1310593E+001  0.9277789E+02  0.7546771E-02  0.1296261E+00
          2   -1    0    0  501    0  0.00000000000E+00  0.00000000000E+00  0.80942256317E+02  0.80942256317E+02  0.00000000000E+00 0.  1.
         -2   -1    0    0    0  501 -0.00000000000E+00 -0.00000000000E+00 -0.26586042365E+02  0.26586042365E+02  0.00000000000E+00 0. -1.
         23    2    1    2    0    0  0.00000000000E+00  0.00000000000E+00  0.54356213952E+02  0.10752829868E+03  0.92777890806E+02 0.  0.
        -11    1    3    3    0    0  0.41252694694E+02 -0.10583143971E+02  0.58657870211E+01  0.42990640995E+02  0.00000000000E+00 0. -1.
         11    1    3    3    0    0 -0.41252694694E+02  0.10583143971E+02  0.48490426931E+02  0.64537657687E+02  0.00000000000E+00 0.  1.
<mgrwt>
<rscale>  0 0.92777891E+02</rscale>
<asrwt>0</asrwt>
<pdfrwt beam="1">  1        2 0.12452655E-01 0.92777891E+02</pdfrwt>
<pdfrwt beam="2">  1       -2 0.40901604E-02 0.92777891E+02</pdfrwt>
<totfact> 0.10978960E+05</totfact>
</mgrwt>
</event>
<event>
 5    1  0.1310593E+001  0.9494230E+02  0.7546771E-02  0.1291306E+00
          1   -1    0    0  501    0  0.00000000000E+00  0.00000000000E+00  0.14698781919E+03  0.14698781919E+03  0.00000000000E+00 0. -1.
         -1   -1    0    0    0  501 -0.00000000000E+00 -0.00000000000E+00 -0.15331271742E+02  0.15331271742E+02  0.00000000000E+00 0.  1.
         23    2    1    2    0    0  0.00000000000E+00  0.00000000000E+00  0.13165654744E+03  0.16231909093E+03  0.94942302453E+02 0.  0.
        -11    1    3    3    0    0 -0.20675499040E+02 -0.32460129945E+02  0.18314050069E+02  0.42620895421E+02  0.00000000000E+00 0.  1.
         11    1    3    3    0    0  0.20675499040E+02  0.32460129945E+02  0.11334249738E+03  0.11969819551E+03  0.00000000000E+00 0. -1.
<mgrwt>
<rscale>  0 0.94942302E+02</rscale>
<asrwt>0</asrwt>
<pdfrwt beam="1">  1        1 0.22613510E-01 0.94942302E+02</pdfrwt>
<pdfrwt beam="2">  1       -1 0.23586573E-02 0.94942302E+02</pdfrwt>
<totfact> 0.10012227E+05</totfact>
</mgrwt>
</event>
<event>
 5    1  0.1310593E+001  0.9264761E+02  0.7546771E-02  0.1296564E+00
         -3   -1    0    0    0  501 -0.00000000000E+00  0.00000000000E+00  0.10252763714E+02  0.10252763714E+02  0.00000000000E+00 0.  1.
          3   -1    0    0  501    0  0.00000000000E+00 -0.00000000000E+00 -0.20929916533E+03  0.20929916533E+03  0.00000000000E+00 0. -1.
         23    2    1    2    0    0  0.00000000000E+00  0.00000000000E+00 -0.19904640162E+03  0.21955192905E+03  0.92647609525E+02 0.  0.
        -11    1    3    3    0    0  0.14892288134E+02 -0.43054954896E+02 -0.79641907092E+02  0.91751527247E+02  0.00000000000E+00 0.  1.
         11    1    3    3    0    0 -0.14892288134E+02  0.43054954896E+02 -0.11940449453E+03  0.12780040180E+03  0.00000000000E+00 0. -1.
<mgrwt>
<rscale>  0 0.92647610E+02</rscale>
<asrwt>0</asrwt>
<pdfrwt beam="2">  1        3 0.32199871E-01 0.92647610E+02</pdfrwt>
<pdfrwt beam="1">  1       -3 0.15773483E-02 0.92647610E+02</pdfrwt>
<totfact> 0.26354258E+04</totfact>
</mgrwt>
</event>
<event>
 5    1  0.1310593E+001  0.7871046E+02  0.7546771E-02  0.1332751E+00
          3   -1    0    0  501    0  0.00000000000E+00  0.00000000000E+00  0.31189009845E+02  0.31189009845E+02  0.00000000000E+00 0. -1.
         -3   -1    0    0    0  501 -0.00000000000E+00 -0.00000000000E+00 -0.49659617230E+02  0.49659617230E+02  0.00000000000E+00 0.  1.
         23    2    1    2    0    0  0.00000000000E+00  0.00000000000E+00 -0.18470607385E+02  0.80848627075E+02  0.78710464125E+02 0.  0.
        -13    1    3    3    0    0 -0.35405744787E+02  0.16604421610E+02 -0.13778196410E+02  0.41462178877E+02  0.00000000000E+00 0.  1.
         13    1    3    3    0    0  0.35405744787E+02 -0.16604421610E+02 -0.46924109751E+01  0.39386448198E+02  0.00000000000E+00 0. -1.
<mgrwt>
<rscale>  0 0.78710464E+02</rscale>
<asrwt>0</asrwt>
<pdfrwt beam="1">  1        3 0.47983092E-02 0.78710464E+02</pdfrwt>
<pdfrwt beam="2">  1       -3 0.76399411E-02 0.78710464E+02</pdfrwt>
<totfact> 0.53782539E+04</totfact>
</mgrwt>
</event>
<event>
 5    1  0.1310593E+001  0.9291790E+02  0.7546771E-02  0.1295936E+00
          2   -1    0    0  501    0  0.00000000000E+00  0.00000000000E+00  0.64386965468E+02  0.64386965468E+02  0.00000000000E+00 0. -1.
         -2   -1    0    0    0  501 -0.00000000000E+00 -0.00000000000E+00 -0.33522842436E+02  0.33522842436E+02  0.00000000000E+00 0.  1.
         23    2    1    2    0    0  0.00000000000E+00  0.00000000000E+00  0.30864123032E+02  0.97909807904E+02  0.92917901360E+02 0.  0.
        -11    1    3    3    0    0  0.17186040560E+02 -0.11145058011E+02  0.59371989257E+02  0.62806093785E+02  0.00000000000E+00 0. -1.
         11    1    3    3    0    0 -0.17186040560E+02  0.11145058011E+02 -0.28507866225E+02  0.35103714118E+02  0.00000000000E+00 0.  1.
<mgrwt>
<rscale>  0 0.92917901E+02</rscale>
<asrwt>0</asrwt>
<pdfrwt beam="1">  1        2 0.99056870E-02 0.92917901E+02</pdfrwt>
<pdfrwt beam="2">  1       -2 0.51573604E-02 0.92917901E+02</pdfrwt>
<totfact> 0.10250056E+05</totfact>
</mgrwt>
</event>
<event>
 5    1  0.1310593E+001  0.9275935E+02  0.7546771E-02  0.1296304E+00
         -1   -1    0    0    0  501 -0.00000000000E+00  0.00000000000E+00  0.84164399560E+02  0.84164399560E+02  0.00000000000E+00 0.  1.
          1   -1    0    0  501    0  0.00000000000E+00 -0.00000000000E+00 -0.25558007161E+02  0.25558007161E+02  0.00000000000E+00 0. -1.
         23    2    1    2    0    0  0.00000000000E+00  0.00000000000E+00  0.58606392399E+02  0.10972240672E+03  0.92759351585E+02 0.  0.
        -11    1    3    3    0    0  0.12946572563E+02 -0.41075418085E+02  0.49663390127E+02  0.65736261156E+02  0.00000000000E+00 0.  1.
         11    1    3    3    0    0 -0.12946572563E+02  0.41075418085E+02  0.89430022729E+01  0.43986145564E+02  0.00000000000E+00 0. -1.
<mgrwt>
<rscale>  0 0.92759352E+02</rscale>
<asrwt>0</asrwt>
<pdfrwt beam="2">  1        1 0.39320011E-02 0.92759352E+02</pdfrwt>
<pdfrwt beam="1">  1       -1 0.12948369E-01 0.92759352E+02</pdfrwt>
<totfact> 0.80294688E+04</totfact>
</mgrwt>
</event>
<event>
 5    1  0.1310593E+001  0.8992427E+02  0.7546771E-02  0.1303035E+00
          3   -1    0    0  501    0  0.00000000000E+00  0.00000000000E+00  0.33413786519E+02  0.33413786519E+02  0.00000000000E+00 0. -1.
         -3   -1    0    0    0  501 -0.00000000000E+00 -0.00000000000E+00 -0.60501780720E+02  0.60501780720E+02  0.00000000000E+00 0.  1.
         23    2    1    2    0    0  0.00000000000E+00  0.00000000000E+00 -0.27087994201E+02  0.93915567239E+02  0.89924270028E+02 0.  0.
        -13    1    3    3    0    0  0.23381867318E+02  0.36533088010E+02 -0.25910828478E+02  0.50524739200E+02  0.00000000000E+00 0.  1.
         13    1    3    3    0    0 -0.23381867318E+02 -0.36533088010E+02 -0.11771657221E+01  0.43390828039E+02  0.00000000000E+00 0. -1.
<mgrwt>
<rscale>  0 0.89924270E+02</rscale>
<asrwt>0</asrwt>
<pdfrwt beam="1">  1        3 0.51405826E-02 0.89924270E+02</pdfrwt>
<pdfrwt beam="2">  1       -3 0.93079662E-02 0.89924270E+02</pdfrwt>
<totfact> 0.36475513E+04</totfact>
</mgrwt>
</event>
<event>
 5    1  0.1310593E+001  0.9171388E+02  0.7546771E-02  0.1298754E+00
          1   -1    0    0  501    0  0.00000000000E+00  0.00000000000E+00  0.40880042191E+02  0.40880042191E+02  0.00000000000E+00 0. -1.
         -1   -1    0    0    0  501 -0.00000000000E+00 -0.00000000000E+00 -0.51439747119E+02  0.51439747119E+02  0.00000000000E+00 0.  1.
         23    2    1    2    0    0  0.00000000000E+00  0.00000000000E+00 -0.10559704928E+02  0.92319789310E+02  0.91713881883E+02 0.  0.
        -11    1    3    3    0    0  0.39259431552E+02 -0.23662417465E+02 -0.65713197735E+01  0.46307615028E+02  0.00000000000E+00 0. -1.
         11    1    3    3    0    0 -0.39259431552E+02  0.23662417465E+02 -0.39883851550E+01  0.46012174282E+02  0.00000000000E+00 0.  1.
<mgrwt>
<rscale>  0 0.91713882E+02</rscale>
<asrwt>0</asrwt>
<pdfrwt beam="1">  1        1 0.62892372E-02 0.91713882E+02</pdfrwt>
<pdfrwt beam="2">  1       -1 0.79138073E-02 0.91713882E+02</pdfrwt>
<totfact> 0.89466497E+04</totfact>
</mgrwt>
</event>
<event>
 5    1  0.1310593E+001  0.8363417E+02  0.7546771E-02  0.1319043E+00
          1   -1    0    0  501    0  0.00000000000E+00  0.00000000000E+00  0.68744130307E+02  0.68744130307E+02  0.00000000000E+00 0. -1.
         -1   -1    0    0    0  501 -0.00000000000E+00 -0.00000000000E+00 -0.25437353261E+02  0.25437353261E+02  0.00000000000E+00 0.  1.
         23    2    1    2    0    0  0.00000000000E+00  0.00000000000E+00  0.43306777046E+02  0.94181483568E+02  0.83634173093E+02 0.  0.
        -13    1    3    3    0    0  0.26270030657E+02 -0.31031938982E+02  0.10644351743E+02  0.42028537588E+02  0.00000000000E+00 0. -1.
         13    1    3    3    0    0 -0.26270030657E+02  0.31031938982E+02  0.32662425303E+02  0.52152945980E+02  0.00000000000E+00 0.  1.
<mgrwt>
<rscale>  0 0.83634173E+02</rscale>
<asrwt>0</asrwt>
<pdfrwt beam="1">  1        1 0.10576020E-01 0.83634173E+02</pdfrwt>
<pdfrwt beam="2">  1       -1 0.39134390E-02 0.83634173E+02</pdfrwt>
<totfact> 0.12466155E+05</totfact>
</mgrwt>
</event>
<event>
 5    1  0.1310593E+001  0.9227135E+02  0.7546771E-02  0.1297443E+00
         -3   -1    0    0    0  501 -0.00000000000E+00  0.00000000000E+00  0.18894955622E+02  0.18894955622E+02  0.00000000000E+00 0.  1.
          3   -1    0    0  501    0  0.00000000000E+00 -0.00000000000E+00 -0.11264915154E+03  0.11264915154E+03  0.00000000000E+00 0. -1.
         23    2    1    2    0    0  0.00000000000E+00  0.00000000000E+00 -0.93754195921E+02  0.13154410717E+03  0.92271354587E+02 0.  0.
        -13    1    3    3    0    0 -0.32262811457E+01 -0.45844366825E+02 -0.52647939076E+02  0.69885050966E+02  0.00000000000E+00 0. -1.
         13    1    3    3    0    0  0.32262811457E+01  0.45844366825E+02 -0.41106256845E+02  0.61659056200E+02  0.00000000000E+00 0.  1.
<mgrwt>
<rscale>  0 0.92271355E+02</rscale>
<asrwt>0</asrwt>
<pdfrwt beam="2">  1        3 0.17330638E-01 0.92271355E+02</pdfrwt>
<pdfrwt beam="1">  1       -3 0.29069163E-02 0.92271355E+02</pdfrwt>
<totfact> 0.31437974E+04</totfact>
</mgrwt>
</event>
<event>
 5    1  0.1310593E+001  0.9218941E+02  0.7546771E-02  0.1297635E+00
          2   -1    0    0  501    0  0.00000000000E+00  0.00000000000E+00  0.60523442433E+02  0.60523442433E+02  0.00000000000E+00 0. -1.
         -2   -1    0    0    0  501 -0.00000000000E+00 -0.00000000000E+00 -0.35105765201E+02  0.35105765201E+02  0.00000000000E+00 0.  1.
         23    2    1    2    0    0  0.00000000000E+00  0.00000000000E+00  0.25417677232E+02  0.95629207634E+02  0.92189408485E+02 0.  0.
        -13    1    3    3    0    0 -0.35045214950E+02  0.19949612672E+02 -0.10452921785E+02  0.41658345028E+02  0.00000000000E+00 0.  1.
         13    1    3    3    0    0  0.35045214950E+02 -0.19949612672E+02  0.35870599017E+02  0.53970862606E+02  0.00000000000E+00 0. -1.
<mgrwt>
<rscale>  0 0.92189408E+02</rscale>
<asrwt>0</asrwt>
<pdfrwt beam="1">  1        2 0.93112989E-02 0.92189408E+02</pdfrwt>
<pdfrwt beam="2">  1       -2 0.54008869E-02 0.92189408E+02</pdfrwt>
<totfact> 0.10305134E+05</totfact>
</mgrwt>
</event>
<event>
 5    1  0.1310593E+001  0.9115015E+02  0.7546771E-02  0.1300090E+00
          2   -1    0    0  501    0  0.00000000000E+00  0.00000000000E+00  0.14302791544E+02  0.14302791544E+02  0.00000000000E+00 0. -1.
         -2   -1    0    0    0  501 -0.00000000000E+00 -0.00000000000E+00 -0.14522253561E+03  0.14522253561E+03  0.00000000000E+00 0.  1.
         23    2    1    2    0    0  0.00000000000E+00  0.00000000000E+00 -0.13091974407E+03  0.15952532716E+03  0.91150154238E+02 0.  0.
        -11    1    3    3    0    0  0.19455383643E+02  0.41201428074E+02 -0.63694030375E+02  0.78313467127E+02  0.00000000000E+00 0. -1.
         11    1    3    3    0    0 -0.19455383643E+02 -0.41201428074E+02 -0.67225713693E+02  0.81211860030E+02  0.00000000000E+00 0.  1.
<mgrwt>
<rscale>  0 0.91150154E+02</rscale>
<asrwt>0</asrwt>
<pdfrwt beam="1">  1        2 0.22004296E-02 0.91150154E+02</pdfrwt>
<pdfrwt beam="2">  1       -2 0.22341927E-01 0.91150154E+02</pdfrwt>
<totfact> 0.70729601E+04</totfact>
</mgrwt>
</event>
<event>
 5    1  0.1310593E+001  0.9084853E+02  0.7546771E-02  0.1300810E+00
          2   -1    0    0  501    0  0.00000000000E+00  0.00000000000E+00  0.59369249717E+02  0.59369249717E+02  0.00000000000E+00 0. -1.
         -2   -1    0    0    0  501 -0.00000000000E+00 -0.00000000000E+00 -0.34754760587E+02  0.34754760587E+02  0.00000000000E+00 0.  1.
         23    2    1    2    0    0  0.00000000000E+00  0.00000000000E+00  0.24614489130E+02  0.94124010304E+02  0.90848534609E+02 0.  0.
        -11    1    3    3    0    0  0.23213692417E+00  0.44304916785E+02  0.22687687188E+02  0.49776607848E+02  0.00000000000E+00 0.  1.
         11    1    3    3    0    0 -0.23213692417E+00 -0.44304916785E+02  0.19268019416E+01  0.44347402456E+02  0.00000000000E+00 0. -1.
<mgrwt>
<rscale>  0 0.90848535E+02</rscale>
<asrwt>0</asrwt>
<pdfrwt beam="1">  1        2 0.91337307E-02 0.90848535E+02</pdfrwt>
<pdfrwt beam="2">  1       -2 0.53468863E-02 0.90848535E+02</pdfrwt>
<totfact> 0.10685111E+05</totfact>
</mgrwt>
</event>
<event>
 4    1  0.1310593E+001  0.5119122E+02  0.7546771E-02  0.1439020E+00
         -1   -1    0    0    0  501 -0.00000000000E+00  0.00000000000E+00  0.26554683502E+02  0.26554683502E+02  0.00000000000E+00 0.  1.
          1   -1    0    0  501    0  0.00000000000E+00 -0.00000000000E+00 -0.24671178697E+02  0.24671178697E+02  0.00000000000E+00 0. -1.
        -11    1    1    2    0    0  0.82008464652E+01  0.18429383827E+02 -0.14824519445E+02  0.25033226874E+02  0.00000000000E+00 0. -1.
         11    1    1    2    0    0 -0.82008464652E+01 -0.18429383827E+02  0.16708024249E+02  0.26192635325E+02  0.00000000000E+00 0.  1.
<mgrwt>
<rscale>  0 0.51191224E+02</rscale>
<asrwt>0</asrwt>
<pdfrwt beam="2">  1        1 0.37955660E-02 0.51191224E+02</pdfrwt>
<pdfrwt beam="1">  1       -1 0.40853359E-02 0.51191224E+02</pdfrwt>
<totfact> 0.41085780E+05</totfact>
</mgrwt>
</event>
<event>
 5    1  0.1310593E+001  0.9112646E+02  0.7546771E-02  0.1300147E+00
          2   -1    0    0  501    0  0.00000000000E+00  0.00000000000E+00  0.31337300113E+02  0.31337300113E+02  0.00000000000E+00 0. -1.
         -2   -1    0    0    0  501 -0.00000000000E+00 -0.00000000000E+00 -0.66247181378E+02  0.66247181378E+02  0.00000000000E+00 0.  1.
         23    2    1    2    0    0  0.00000000000E+00  0.00000000000E+00 -0.34909881265E+02  0.97584481491E+02  0.91126457289E+02 0.  0.
        -13    1    3    3    0    0  0.21437224124E+02 -0.51963696284E+01 -0.60148251927E+02  0.64065349803E+02  0.00000000000E+00 0.  1.
         13    1    3    3    0    0 -0.21437224124E+02  0.51963696284E+01  0.25238370662E+02  0.33519131689E+02  0.00000000000E+00 0. -1.
<mgrwt>
<rscale>  0 0.91126457E+02</rscale>
<asrwt>0</asrwt>
<pdfrwt beam="1">  1        2 0.48211231E-02 0.91126457E+02</pdfrwt>
<pdfrwt beam="2">  1       -2 0.10191874E-01 0.91126457E+02</pdfrwt>
<totfact> 0.89644650E+04</totfact>
</mgrwt>
</event>
<event>
 5    1  0.1310593E+001  0.9208135E+02  0.7546771E-02  0.1297888E+00
         -3   -1    0    0    0  501 -0.00000000000E+00  0.00000000000E+00  0.73365704431E+01  0.73365704431E+01  0.00000000000E+00 0.  1.
          3   -1    0    0  501    0  0.00000000000E+00 -0.00000000000E+00 -0.28892845557E+03  0.28892845557E+03  0.00000000000E+00 0. -1.
         23    2    1    2    0    0  0.00000000000E+00  0.00000000000E+00 -0.28159188513E+03  0.29626502602E+03  0.92081354624E+02 0.  0.
        -11    1    3    3    0    0  0.17546402278E+00  0.43489508228E+02 -0.18941805000E+03  0.19434650956E+03  0.00000000000E+00 0. -1.
         11    1    3    3    0    0 -0.17546402278E+00 -0.43489508228E+02 -0.92173835135E+02  0.10191851646E+03  0.00000000000E+00 0.  1.
<mgrwt>
<rscale>  0 0.92081355E+02</rscale>
<asrwt>0</asrwt>
<pdfrwt beam="2">  1        3 0.44450527E-01 0.92081355E+02</pdfrwt>
<pdfrwt beam="1">  1       -3 0.11287033E-02 0.92081355E+02</pdfrwt>
<totfact> 0.23543002E+04</totfact>
</mgrwt>
</event>
<event>
 5    1  0.1310593E+001  0.9247134E+02  0.7546771E-02  0.1296975E+00
         -4   -1    0    0    0  501 -0.00000000000E+00  0.00000000000E+00  0.31268786066E+02  0.31268786066E+02  0.00000000000E+00 0.  1.
          4   -1    0    0  501    0  0.00000000000E+00 -0.00000000000E+00 -0.68366495874E+02  0.68366495874E+02  0.00000000000E+00 0. -1.
         23    2    1    2    0    0  0.00000000000E+00  0.00000000000E+00 -0.37097709808E+02  0.99635281940E+02  0.92471343314E+02 0.  0.
        -11    1    3    3    0    0 -0.84194942101E+01 -0.19102859880E+02  0.25901666462E+02  0.33267152927E+02  0.00000000000E+00 0.  1.
         11    1    3    3    0    0  0.84194942101E+01  0.19102859880E+02 -0.62999376270E+02  0.66368129013E+02  0.00000000000E+00 0. -1.
<mgrwt>
<rscale>  0 0.92471343E+02</rscale>
<asrwt>0</asrwt>
<pdfrwt beam="2">  1        4 0.10517922E-01 0.92471343E+02</pdfrwt>
<pdfrwt beam="1">  1       -4 0.48105825E-02 0.92471343E+02</pdfrwt>
<totfact> 0.25485123E+04</totfact>
</mgrwt>
</event>
<event>
 5    1  0.1310593E+001  0.9419762E+02  0.7546771E-02  0.1292994E+00
         -2   -1    0    0    0  501 -0.00000000000E+00  0.00000000000E+00  0.11857807793E+02  0.11857807793E+02  0.00000000000E+00 0.  1.
          2   -1    0    0  501    0  0.00000000000E+00 -0.00000000000E+00 -0.18707485686E+03  0.18707485686E+03  0.00000000000E+00 0. -1.
         23    2    1    2    0    0  0.00000000000E+00  0.00000000000E+00 -0.17521704907E+03  0.19893266465E+03  0.94197615585E+02 0.  0.
        -11    1    3    3    0    0 -0.42006053101E+02 -0.14742509093E+01 -0.42728741816E+02  0.59936860863E+02  0.00000000000E+00 0.  1.
         11    1    3    3    0    0  0.42006053101E+02  0.14742509093E+01 -0.13248830725E+03  0.13899580379E+03  0.00000000000E+00 0. -1.
<mgrwt>
<rscale>  0 0.94197616E+02</rscale>
<asrwt>0</asrwt>
<pdfrwt beam="2">  1        2 0.28780742E-01 0.94197616E+02</pdfrwt>
<pdfrwt beam="1">  1       -2 0.18242784E-02 0.94197616E+02</pdfrwt>
<totfact> 0.13826637E+05</totfact>
</mgrwt>
</event>
<event>
 5    1  0.1310593E+001  0.8573602E+02  0.7546771E-02  0.1313519E+00
         -1   -1    0    0    0  501 -0.00000000000E+00  0.00000000000E+00  0.73722527232E+01  0.73722527232E+01  0.00000000000E+00 0.  1.
          1   -1    0    0  501    0  0.00000000000E+00 -0.00000000000E+00 -0.24926791622E+03  0.24926791622E+03  0.00000000000E+00 0. -1.
         23    2    1    2    0    0  0.00000000000E+00  0.00000000000E+00 -0.24189566350E+03  0.25664016895E+03  0.85736015167E+02 0.  0.
        -13    1    3    3    0    0 -0.27013836543E+02  0.27396640190E+02 -0.64362500115E+02  0.74985696500E+02  0.00000000000E+00 0.  1.
         13    1    3    3    0    0  0.27013836543E+02 -0.27396640190E+02 -0.17753316338E+03  0.18165447245E+03  0.00000000000E+00 0. -1.
<mgrwt>
<rscale>  0 0.85736015E+02</rscale>
<asrwt>0</asrwt>
<pdfrwt beam="2">  1        1 0.38348901E-01 0.85736015E+02</pdfrwt>
<pdfrwt beam="1">  1       -1 0.11341930E-02 0.85736015E+02</pdfrwt>
<totfact> 0.14559091E+05</totfact>
</mgrwt>
</event>
<event>
 5    1  0.1310593E+001  0.9247886E+02  0.7546771E-02  0.1296957E+00
         -2   -1    0    0    0  501 -0.00000000000E+00  0.00000000000E+00  0.18803221101E+02  0.18803221101E+02  0.00000000000E+00 0.  1.
          2   -1    0    0  501    0  0.00000000000E+00 -0.00000000000E+00 -0.11370843823E+03  0.11370843823E+03  0.00000000000E+00 0. -1.
         23    2    1    2    0    0  0.00000000000E+00  0.00000000000E+00 -0.94905217129E+02  0.13251165933E+03  0.92478860397E+02 0.  0.
        -11    1    3    3    0    0  0.34850926363E+02 -0.18444510894E+02 -0.12846177552E+02  0.41470608003E+02  0.00000000000E+00 0.  1.
         11    1    3    3    0    0 -0.34850926363E+02  0.18444510894E+02 -0.82059039577E+02  0.91041051327E+02  0.00000000000E+00 0. -1.
<mgrwt>
<rscale>  0 0.92478860E+02</rscale>
<asrwt>0</asrwt>
<pdfrwt beam="2">  1        2 0.17493606E-01 0.92478860E+02</pdfrwt>
<pdfrwt beam="1">  1       -2 0.28928032E-02 0.92478860E+02</pdfrwt>
<totfact> 0.12278800E+05</totfact>
</mgrwt>
</event>
<event>
 5    1  0.1310593E+001  0.1027250E+03  0.7546771E-02  0.1274668E+00
          3   -1    0    0  501    0  0.00000000000E+00  0.00000000000E+00  0.22611979666E+02  0.22611979666E+02  0.00000000000E+00 0. -1.
         -3   -1    0    0    0  501 -0.00000000000E+00 -0.00000000000E+00 -0.11666843023E+03  0.11666843023E+03  0.00000000000E+00 0.  1.
         23    2    1    2    0    0  0.00000000000E+00  0.00000000000E+00 -0.94056450565E+02  0.13928040990E+03  0.10272495650E+03 0.  0.
        -13    1    3    3    0    0 -0.49020138663E+02  0.13859847222E+02 -0.55922776241E+02  0.75646720101E+02  0.00000000000E+00 0.  1.
         13    1    3    3    0    0  0.49020138663E+02 -0.13859847222E+02 -0.38133674324E+02  0.63633689796E+02  0.00000000000E+00 0. -1.
<mgrwt>
<rscale>  0 0.10272496E+03</rscale>
<asrwt>0</asrwt>
<pdfrwt beam="1">  1        3 0.34787660E-02 0.10272496E+03</pdfrwt>
<pdfrwt beam="2">  1       -3 0.17948990E-01 0.10272496E+03</pdfrwt>
<totfact> 0.23083921E+04</totfact>
</mgrwt>
</event>
<event>
 5    1  0.1310593E+001  0.9081038E+02  0.7546771E-02  0.1300901E+00
         -2   -1    0    0    0  501 -0.00000000000E+00  0.00000000000E+00  0.10901531620E+02  0.10901531620E+02  0.00000000000E+00 0.  1.
          2   -1    0    0  501    0  0.00000000000E+00 -0.00000000000E+00 -0.18911390063E+03  0.18911390063E+03  0.00000000000E+00 0. -1.
         23    2    1    2    0    0  0.00000000000E+00  0.00000000000E+00 -0.17821236901E+03  0.20001543225E+03  0.90810377545E+02 0.  0.
        -13    1    3    3    0    0  0.46074669965E+01  0.44248207884E+02 -0.10911176178E+03  0.11783254734E+03  0.00000000000E+00 0. -1.
         13    1    3    3    0    0 -0.46074669965E+01 -0.44248207884E+02 -0.69100607224E+02  0.82182884908E+02  0.00000000000E+00 0.  1.
<mgrwt>
<rscale>  0 0.90810378E+02</rscale>
<asrwt>0</asrwt>
<pdfrwt beam="2">  1        2 0.29094443E-01 0.90810378E+02</pdfrwt>
<pdfrwt beam="1">  1       -2 0.16771589E-02 0.90810378E+02</pdfrwt>
<totfact> 0.15324858E+05</totfact>
</mgrwt>
</event>
<event>
 5    1  0.1310593E+001  0.9341404E+02  0.7546771E-02  0.1294789E+00
          1   -1    0    0  501    0  0.00000000000E+00  0.00000000000E+00  0.31492126952E+03  0.31492126952E+03  0.00000000000E+00 0.  1.
         -1   -1    0    0    0  501 -0.00000000000E+00 -0.00000000000E+00 -0.69272739375E+01  0.69272739375E+01  0.00000000000E+00 0. -1.
         23    2    1    2    0    0  0.00000000000E+00  0.00000000000E+00  0.30799399559E+03  0.32184854346E+03  0.93414043970E+02 0.  0.
        -11    1    3    3    0    0  0.38000879962E+02  0.18930834995E+02  0.22108080548E+03  0.22512033658E+03  0.00000000000E+00 0.  1.
         11    1    3    3    0    0 -0.38000879962E+02 -0.18930834995E+02  0.86913190110E+02  0.96728206882E+02  0.00000000000E+00 0. -1.
<mgrwt>
<rscale>  0 0.93414044E+02</rscale>
<asrwt>0</asrwt>
<pdfrwt beam="1">  1        1 0.48449415E-01 0.93414044E+02</pdfrwt>
<pdfrwt beam="2">  1       -1 0.10657347E-02 0.93414044E+02</pdfrwt>
<totfact> 0.12120677E+05</totfact>
</mgrwt>
</event>
<event>
 5    1  0.1310593E+001  0.9113442E+02  0.7546771E-02  0.1300128E+00
         -1   -1    0    0    0  501 -0.00000000000E+00  0.00000000000E+00  0.15941494511E+02  0.15941494511E+02  0.00000000000E+00 0.  1.
          1   -1    0    0  501    0  0.00000000000E+00 -0.00000000000E+00 -0.13024942339E+03  0.13024942339E+03  0.00000000000E+00 0. -1.
         23    2    1    2    0    0  0.00000000000E+00  0.00000000000E+00 -0.11430792888E+03  0.14619091790E+03  0.91134416506E+02 0.  0.
        -13    1    3    3    0    0 -0.16188583976E+02 -0.19617199168E+02  0.34952035142E+01  0.25673355877E+02  0.00000000000E+00 0.  1.
         13    1    3    3    0    0  0.16188583976E+02  0.19617199168E+02 -0.11780313239E+03  0.12051756202E+03  0.00000000000E+00 0. -1.
<mgrwt>
<rscale>  0 0.91134417E+02</rscale>
<asrwt>0</asrwt>
<pdfrwt beam="2">  1        1 0.20038373E-01 0.91134417E+02</pdfrwt>
<pdfrwt beam="1">  1       -1 0.24525376E-02 0.91134417E+02</pdfrwt>
<totfact> 0.10944231E+05</totfact>
</mgrwt>
</event>
<event>
 5    1  0.1310593E+001  0.9003115E+02  0.7546771E-02  0.1302776E+00
         -3   -1    0    0    0  501 -0.00000000000E+00  0.00000000000E+00  0.60592217352E+02  0.60592217352E+02  0.00000000000E+00 0. -1.
          3   -1    0    0  501    0  0.00000000000E+00 -0.00000000000E+00 -0.33443268290E+02  0.33443268290E+02  0.00000000000E+00 0.  1.
         23    2    1    2    0    0  0.00000000000E+00  0.00000000000E+00  0.27148949062E+02  0.94035485642E+02  0.90031145304E+02 0.  0.
        -11    1    3    3    0    0 -0.11431227687E+02 -0.42296039089E+02  0.27817390324E+01  0.43901776287E+02  0.00000000000E+00 0.  1.
         11    1    3    3    0    0  0.11431227687E+02  0.42296039089E+02  0.24367210030E+02  0.50133709355E+02  0.00000000000E+00 0. -1.
<mgrwt>
<rscale>  0 0.90031145E+02</rscale>
<asrwt>0</asrwt>
<pdfrwt beam="2">  1        3 0.51451182E-02 0.90031145E+02</pdfrwt>
<pdfrwt beam="1">  1       -3 0.93218796E-02 0.90031145E+02</pdfrwt>
<totfact> 0.36348613E+04</totfact>
</mgrwt>
</event>
<event>
 5    1  0.1310593E+001  0.8848702E+02  0.7546771E-02  0.1306558E+00
          1   -1    0    0  501    0  0.00000000000E+00  0.00000000000E+00  0.37679389235E+02  0.37679389235E+02  0.00000000000E+00 0. -1.
         -1   -1    0    0    0  501 -0.00000000000E+00 -0.00000000000E+00 -0.51951162791E+02  0.51951162791E+02  0.00000000000E+00 0.  1.
         23    2    1    2    0    0  0.00000000000E+00  0.00000000000E+00 -0.14271773555E+02  0.89630552026E+02  0.88487017896E+02 0.  0.
        -13    1    3    3    0    0  0.37058950487E+02 -0.11287713495E+02 -0.28782834878E+02  0.48262095590E+02  0.00000000000E+00 0.  1.
         13    1    3    3    0    0 -0.37058950487E+02  0.11287713495E+02  0.14511061323E+02  0.41368456436E+02  0.00000000000E+00 0. -1.
<mgrwt>
<rscale>  0 0.88487018E+02</rscale>
<asrwt>0</asrwt>
<pdfrwt beam="1">  1        1 0.57968291E-02 0.88487018E+02</pdfrwt>
<pdfrwt beam="2">  1       -1 0.79924866E-02 0.88487018E+02</pdfrwt>
<totfact> 0.97767431E+04</totfact>
</mgrwt>
</event>
<event>
 5    1  0.1310593E+001  0.9247210E+02  0.7546771E-02  0.1296973E+00
          1   -1    0    0  501    0  0.00000000000E+00  0.00000000000E+00  0.16968387519E+03  0.16968387519E+03  0.00000000000E+00 0. -1.
         -1   -1    0    0    0  501 -0.00000000000E+00 -0.00000000000E+00 -0.12598558806E+02  0.12598558806E+02  0.00000000000E+00 0.  1.
         23    2    1    2    0    0  0.00000000000E+00  0.00000000000E+00  0.15708531639E+03  0.18228243400E+03  0.92472099146E+02 0.  0.
        -11    1    3    3    0    0  0.19271133376E+02  0.34788714171E+02  0.12502912989E+03  0.13120180844E+03  0.00000000000E+00 0. -1.
         11    1    3    3    0    0 -0.19271133376E+02 -0.34788714171E+02  0.32056186493E+02  0.51080625562E+02  0.00000000000E+00 0.  1.
<mgrwt>
<rscale>  0 0.92472099E+02</rscale>
<asrwt>0</asrwt>
<pdfrwt beam="1">  1        1 0.26105210E-01 0.92472099E+02</pdfrwt>
<pdfrwt beam="2">  1       -1 0.19382399E-02 0.92472099E+02</pdfrwt>
<totfact> 0.11045592E+05</totfact>
</mgrwt>
</event>
<event>
 5    1  0.1310593E+001  0.9173121E+02  0.7546771E-02  0.1298713E+00
          4   -1    0    0  501    0  0.00000000000E+00  0.00000000000E+00  0.16025693449E+02  0.16025693449E+02  0.00000000000E+00 0. -1.
         -4   -1    0    0    0  501 -0.00000000000E+00 -0.00000000000E+00 -0.13126756931E+03  0.13126756931E+03  0.00000000000E+00 0.  1.
         23    2    1    2    0    0  0.00000000000E+00  0.00000000000E+00 -0.11524187586E+03  0.14729326276E+03  0.91731212256E+02 0.  0.
        -13    1    3    3    0    0 -0.18536927239E+02 -0.34767640607E+02 -0.95320733518E+02  0.10314285600E+03  0.00000000000E+00 0.  1.
         13    1    3    3    0    0  0.18536927239E+02  0.34767640607E+02 -0.19921142340E+02  0.44150406759E+02  0.00000000000E+00 0. -1.
<mgrwt>
<rscale>  0 0.91731212E+02</rscale>
<asrwt>0</asrwt>
<pdfrwt beam="1">  1        4 0.24654913E-02 0.91731212E+02</pdfrwt>
<pdfrwt beam="2">  1       -4 0.20195011E-01 0.91731212E+02</pdfrwt>
<totfact> 0.23423493E+04</totfact>
</mgrwt>
</event>
<event>
 5    1  0.1310593E+001  0.9161399E+02  0.7546771E-02  0.1298990E+00
         -4   -1    0    0    0  501 -0.00000000000E+00  0.00000000000E+00  0.59007386759E+02  0.59007386759E+02  0.00000000000E+00 0.  1.
          4   -1    0    0  501    0  0.00000000000E+00 -0.00000000000E+00 -0.35559626472E+02  0.35559626472E+02  0.00000000000E+00 0. -1.
         23    2    1    2    0    0  0.00000000000E+00  0.00000000000E+00  0.23447760287E+02  0.94567013231E+02  0.91613986536E+02 0.  0.
        -13    1    3    3    0    0  0.42881248510E+02  0.64400761454E+01  0.26964783093E+02  0.51062467447E+02  0.00000000000E+00 0.  1.
         13    1    3    3    0    0 -0.42881248510E+02 -0.64400761454E+01 -0.35170228061E+01  0.43504545785E+02  0.00000000000E+00 0. -1.
<mgrwt>
<rscale>  0 0.91613987E+02</rscale>
<asrwt>0</asrwt>
<pdfrwt beam="2">  1        4 0.54707118E-02 0.91613987E+02</pdfrwt>
<pdfrwt beam="1">  1       -4 0.90780595E-02 0.91613987E+02</pdfrwt>
<totfact> 0.26453203E+04</totfact>
</mgrwt>
</event>
<event>
 5    1  0.1310593E+001  0.9571467E+02  0.7546771E-02  0.1289575E+00
         -3   -1    0    0    0  501 -0.00000000000E+00  0.00000000000E+00  0.67648037701E+02  0.67648037701E+02  0.00000000000E+00 0.  1.
          3   -1    0    0  501    0  0.00000000000E+00 -0.00000000000E+00 -0.33856483361E+02  0.33856483361E+02  0.00000000000E+00 0. -1.
         23    2    1    2    0    0  0.00000000000E+00  0.00000000000E+00  0.33791554340E+02  0.10150452106E+03  0.95714673124E+02 0.  0.
        -13    1    3    3    0    0  0.22173603227E+02 -0.35330781475E+02 -0.79837927242E+01  0.42469680314E+02  0.00000000000E+00 0. -1.
         13    1    3    3    0    0 -0.22173603227E+02  0.35330781475E+02  0.41775347064E+02  0.59034840747E+02  0.00000000000E+00 0.  1.
<mgrwt>
<rscale>  0 0.95714673E+02</rscale>
<asrwt>0</asrwt>
<pdfrwt beam="2">  1        3 0.52086898E-02 0.95714673E+02</pdfrwt>
<pdfrwt beam="1">  1       -3 0.10407390E-01 0.95714673E+02</pdfrwt>
<totfact> 0.30264436E+04</totfact>
</mgrwt>
</event>
<event>
 5    1  0.1310593E+001  0.8976324E+02  0.7546771E-02  0.1303426E+00
          1   -1    0    0  501    0  0.00000000000E+00  0.00000000000E+00  0.91983035086E+01  0.91983035086E+01  0.00000000000E+00 0. -1.
         -1   -1    0    0    0  501 -0.00000000000E+00 -0.00000000000E+00 -0.21899251732E+03  0.21899251732E+03  0.00000000000E+00 0.  1.
         23    2    1    2    0    0  0.00000000000E+00  0.00000000000E+00 -0.20979421381E+03  0.22819082083E+03  0.89763236137E+02 0.  0.
        -11    1    3    3    0    0 -0.34151141489E+02  0.41165498657E+01 -0.31609632205E+02  0.46716327937E+02  0.00000000000E+00 0. -1.
         11    1    3    3    0    0  0.34151141489E+02 -0.41165498657E+01 -0.17818458161E+03  0.18147449289E+03  0.00000000000E+00 0.  1.
<mgrwt>
<rscale>  0 0.89763236E+02</rscale>
<asrwt>0</asrwt>
<pdfrwt beam="1">  1        1 0.14151237E-02 0.89763236E+02</pdfrwt>
<pdfrwt beam="2">  1       -1 0.33691155E-01 0.89763236E+02</pdfrwt>
<totfact> 0.70394174E+04</totfact>
</mgrwt>
</event>
<event>
 5    1  0.1310593E+001  0.9037698E+02  0.7546771E-02  0.1301941E+00
          2   -1    0    0  501    0  0.00000000000E+00  0.00000000000E+00  0.32915389160E+03  0.32915389160E+03  0.00000000000E+00 0. -1.
         -2   -1    0    0    0  501 -0.00000000000E+00 -0.00000000000E+00 -0.62037844825E+01  0.62037844825E+01  0.00000000000E+00 0.  1.
         23    2    1    2    0    0  0.00000000000E+00  0.00000000000E+00  0.32295010712E+03  0.33535767609E+03  0.90376983908E+02 0.  0.
        -13    1    3    3    0    0  0.40238193532E+02  0.15326811526E+02  0.21234978292E+03  0.21667130331E+03  0.00000000000E+00 0.  1.
         13    1    3    3    0    0 -0.40238193532E+02 -0.15326811526E+02  0.11060032420E+03  0.11868637278E+03  0.00000000000E+00 0. -1.
<mgrwt>
<rscale>  0 0.90376984E+02</rscale>
<asrwt>0</asrwt>
<pdfrwt beam="1">  1        2 0.50639047E-01 0.90376984E+02</pdfrwt>
<pdfrwt beam="2">  1       -2 0.95442864E-03 0.90376984E+02</pdfrwt>
<totfact> 0.19036199E+05</totfact>
</mgrwt>
</event>
<event>
 5    1  0.1310593E+001  0.8943536E+02  0.7546771E-02  0.1304225E+00
          3   -1    0    0  501    0  0.00000000000E+00  0.00000000000E+00  0.14932996634E+03  0.14932996634E+03  0.00000000000E+00 0. -1.
         -3   -1    0    0    0  501 -0.00000000000E+00 -0.00000000000E+00 -0.13390954702E+02  0.13390954702E+02  0.00000000000E+00 0.  1.
         23    2    1    2    0    0  0.00000000000E+00  0.00000000000E+00  0.13593901164E+03  0.16272092104E+03  0.89435357994E+02 0.  0.
        -11    1    3    3    0    0 -0.33853823561E+02  0.11912709911E+01  0.12108207941E+03  0.12573134235E+03  0.00000000000E+00 0. -1.
         11    1    3    3    0    0  0.33853823561E+02 -0.11912709911E+01  0.14856932232E+02  0.36989578689E+02  0.00000000000E+00 0.  1.
<mgrwt>
<rscale>  0 0.89435358E+02</rscale>
<asrwt>0</asrwt>
<pdfrwt beam="1">  1        3 0.22973840E-01 0.89435358E+02</pdfrwt>
<pdfrwt beam="2">  1       -3 0.20601470E-02 0.89435358E+02</pdfrwt>
<totfact> 0.32178300E+04</totfact>
</mgrwt>
</event>
<event>
 5    1  0.1310593E+001  0.8531707E+02  0.7546771E-02  0.1314605E+00
         -3   -1    0    0    0  501 -0.00000000000E+00  0.00000000000E+00  0.81300953614E+02  0.81300953614E+02  0.00000000000E+00 0.  1.
          3   -1    0    0  501    0  0.00000000000E+00 -0.00000000000E+00 -0.22382894217E+02  0.22382894217E+02  0.00000000000E+00 0. -1.
         23    2    1    2    0    0  0.00000000000E+00  0.00000000000E+00  0.58918059397E+02  0.10368384783E+03  0.85317070847E+02 0.  0.
        -11    1    3    3    0    0  0.38288379995E+01 -0.26903348677E+02  0.69421135576E+02  0.74550279913E+02  0.00000000000E+00 0.  1.
         11    1    3    3    0    0 -0.38288379995E+01  0.26903348677E+02 -0.10503076178E+02  0.29133567919E+02  0.00000000000E+00 0. -1.
<mgrwt>
<rscale>  0 0.85317071E+02</rscale>
<asrwt>0</asrwt>
<pdfrwt beam="2">  1        3 0.34435222E-02 0.85317071E+02</pdfrwt>
<pdfrwt beam="1">  1       -3 0.12507839E-01 0.85317071E+02</pdfrwt>
<totfact> 0.41176128E+04</totfact>
</mgrwt>
</event>
<event>
 5    1  0.1310593E+001  0.8604620E+02  0.7546771E-02  0.1312719E+00
          4   -1    0    0  501    0  0.00000000000E+00  0.00000000000E+00  0.10316578912E+03  0.10316578912E+03  0.00000000000E+00 0. -1.
         -4   -1    0    0    0  501 -0.00000000000E+00 -0.00000000000E+00 -0.17941868235E+02  0.17941868235E+02  0.00000000000E+00 0.  1.
         23    2    1    2    0    0  0.00000000000E+00  0.00000000000E+00  0.85223920888E+02  0.12110765736E+03  0.86046196775E+02 0.  0.
        -13    1    3    3    0    0  0.39444506332E+02  0.42512001713E+01  0.19185037521E+02  0.44068213571E+02  0.00000000000E+00 0.  1.
         13    1    3    3    0    0 -0.39444506332E+02 -0.42512001713E+01  0.66038883367E+02  0.77039443787E+02  0.00000000000E+00 0. -1.
<mgrwt>
<rscale>  0 0.86046197E+02</rscale>
<asrwt>0</asrwt>
<pdfrwt beam="1">  1        4 0.15871659E-01 0.86046197E+02</pdfrwt>
<pdfrwt beam="2">  1       -4 0.27602875E-02 0.86046197E+02</pdfrwt>
<totfact> 0.29452936E+04</totfact>
</mgrwt>
</event>
<event>
 5    1  0.1310593E+001  0.8724075E+02  0.7546771E-02  0.1309675E+00
          2   -1    0    0  501    0  0.00000000000E+00  0.00000000000E+00  0.54724060029E+02  0.54724060029E+02  0.00000000000E+00 0. -1.
         -2   -1    0    0    0  501 -0.00000000000E+00 -0.00000000000E+00 -0.34769666511E+02  0.34769666511E+02  0.00000000000E+00 0.  1.
         23    2    1    2    0    0  0.00000000000E+00  0.00000000000E+00  0.19954393518E+02  0.89493726540E+02  0.87240754635E+02 0.  0.
        -11    1    3    3    0    0 -0.33605796938E+02 -0.17947255200E+02 -0.11814850484E+02  0.39887896021E+02  0.00000000000E+00 0.  1.
         11    1    3    3    0    0  0.33605796938E+02  0.17947255200E+02  0.31769244002E+02  0.49605830519E+02  0.00000000000E+00 0. -1.
<mgrwt>
<rscale>  0 0.87240755E+02</rscale>
<asrwt>0</asrwt>
<pdfrwt beam="1">  1        2 0.84190861E-02 0.87240755E+02</pdfrwt>
<pdfrwt beam="2">  1       -2 0.53491795E-02 0.87240755E+02</pdfrwt>
<totfact> 0.11722851E+05</totfact>
</mgrwt>
</event>
<event>
 5    1  0.1310593E+001  0.9095723E+02  0.7546771E-02  0.1300550E+00
          1   -1    0    0  501    0  0.00000000000E+00  0.00000000000E+00  0.12612285301E+03  0.12612285301E+03  0.00000000000E+00 0. -1.
         -1   -1    0    0    0  501 -0.00000000000E+00 -0.00000000000E+00 -0.16399125405E+02  0.16399125405E+02  0.00000000000E+00 0.  1.
         23    2    1    2    0    0  0.00000000000E+00  0.00000000000E+00  0.10972372760E+03  0.14252197841E+03  0.90957231332E+02 0.  0.
        -13    1    3    3    0    0  0.30470148877E+02  0.20080399090E+02  0.97389948146E+02  0.10400218459E+03  0.00000000000E+00 0. -1.
         13    1    3    3    0    0 -0.30470148877E+02 -0.20080399090E+02  0.12333779457E+02  0.38519793820E+02  0.00000000000E+00 0.  1.
<mgrwt>
<rscale>  0 0.90957231E+02</rscale>
<asrwt>0</asrwt>
<pdfrwt beam="1">  1        1 0.19403515E-01 0.90957231E+02</pdfrwt>
<pdfrwt beam="2">  1       -1 0.25229425E-02 0.90957231E+02</pdfrwt>
<totfact> 0.10939486E+05</totfact>
</mgrwt>
</event>
<event>
 5    1  0.1310593E+001  0.8913700E+02  0.7546771E-02  0.1304955E+00
          2   -1    0    0  501    0  0.00000000000E+00  0.00000000000E+00  0.14449561988E+02  0.14449561988E+02  0.00000000000E+00 0.  1.
         -2   -1    0    0    0  501 -0.00000000000E+00 -0.00000000000E+00 -0.13746791328E+03  0.13746791328E+03  0.00000000000E+00 0. -1.
         23    2    1    2    0    0  0.00000000000E+00  0.00000000000E+00 -0.12301835129E+03  0.15191747526E+03  0.89136998700E+02 0.  0.
        -11    1    3    3    0    0 -0.39469979154E+02 -0.17356457850E+02 -0.42285501999E+02  0.60391966045E+02  0.00000000000E+00 0.  1.
         11    1    3    3    0    0  0.39469979154E+02  0.17356457850E+02 -0.80732849288E+02  0.91525509219E+02  0.00000000000E+00 0. -1.
<mgrwt>
<rscale>  0 0.89136999E+02</rscale>
<asrwt>0</asrwt>
<pdfrwt beam="1">  1        2 0.22230095E-02 0.89136999E+02</pdfrwt>
<pdfrwt beam="2">  1       -2 0.21148910E-01 0.89136999E+02</pdfrwt>
<totfact> 0.76287446E+04</totfact>
</mgrwt>
</event>
<event>
 5    1  0.1310593E+001  0.9242250E+02  0.7546771E-02  0.1297089E+00
         -1   -1    0    0    0  501 -0.00000000000E+00  0.00000000000E+00  0.71400000466E+01  0.71400000466E+01  0.00000000000E+00 0.  1.
          1   -1    0    0  501    0  0.00000000000E+00 -0.00000000000E+00 -0.29908678062E+03  0.29908678062E+03  0.00000000000E+00 0. -1.
         23    2    1    2    0    0  0.00000000000E+00  0.00000000000E+00 -0.29194678058E+03  0.30622678067E+03  0.92422500022E+02 0.  0.
        -11    1    3    3    0    0  0.21764707200E+02  0.32973637101E+02 -0.66555805820E+02  0.77399215187E+02  0.00000000000E+00 0.  1.
         11    1    3    3    0    0 -0.21764707200E+02 -0.32973637101E+02 -0.22539097476E+03  0.22882756548E+03  0.00000000000E+00 0. -1.
<mgrwt>
<rscale>  0 0.92422500E+02</rscale>
<asrwt>0</asrwt>
<pdfrwt beam="2">  1        1 0.46013359E-01 0.92422500E+02</pdfrwt>
<pdfrwt beam="1">  1       -1 0.10984613E-02 0.92422500E+02</pdfrwt>
<totfact> 0.12349429E+05</totfact>
</mgrwt>
</event>
<event>
 5    1  0.1310593E+001  0.8961465E+02  0.7546771E-02  0.1303788E+00
         -4   -1    0    0    0  501 -0.00000000000E+00  0.00000000000E+00  0.50042942448E+03  0.50042942448E+03  0.00000000000E+00 0.  1.
          4   -1    0    0  501    0  0.00000000000E+00 -0.00000000000E+00 -0.40119475113E+01  0.40119475113E+01  0.00000000000E+00 0. -1.
         23    2    1    2    0    0  0.00000000000E+00  0.00000000000E+00  0.49641747697E+03  0.50444137199E+03  0.89614654697E+02 0.  0.
        -13    1    3    3    0    0  0.44562471251E+02 -0.34593200028E+01  0.23048331857E+03  0.23477721542E+03  0.00000000000E+00 0.  1.
         13    1    3    3    0    0 -0.44562471251E+02  0.34593200028E+01  0.26593415840E+03  0.26966415658E+03  0.00000000000E+00 0. -1.
<mgrwt>
<rscale>  0 0.89614655E+02</rscale>
<asrwt>0</asrwt>
<pdfrwt beam="2">  1        4 0.61722309E-03 0.89614655E+02</pdfrwt>
<pdfrwt beam="1">  1       -4 0.76989093E-01 0.89614655E+02</pdfrwt>
<totfact> 0.13592526E+04</totfact>
</mgrwt>
</event>
<event>
 5    1  0.1310593E+001  0.8966326E+02  0.7546771E-02  0.1303669E+00
          1   -1    0    0  501    0  0.00000000000E+00  0.00000000000E+00  0.10794719798E+03  0.10794719798E+03  0.00000000000E+00 0. -1.
         -1   -1    0    0    0  501 -0.00000000000E+00 -0.00000000000E+00 -0.18619055930E+02  0.18619055930E+02  0.00000000000E+00 0.  1.
         23    2    1    2    0    0  0.00000000000E+00  0.00000000000E+00  0.89328142046E+02  0.12656625391E+03  0.89663257059E+02 0.  0.
        -13    1    3    3    0    0  0.13276463774E+02 -0.14196870805E+02 -0.12361728202E+02  0.23035363144E+02  0.00000000000E+00 0.  1.
         13    1    3    3    0    0 -0.13276463774E+02  0.14196870805E+02  0.10168987025E+03  0.10353089076E+03  0.00000000000E+00 0. -1.
<mgrwt>
<rscale>  0 0.89663257E+02</rscale>
<asrwt>0</asrwt>
<pdfrwt beam="1">  1        1 0.16607261E-01 0.89663257E+02</pdfrwt>
<pdfrwt beam="2">  1       -1 0.28644702E-02 0.89663257E+02</pdfrwt>
<totfact> 0.11072037E+05</totfact>
</mgrwt>
</event>
<event>
 5    1  0.1310593E+001  0.9487972E+02  0.7546771E-02  0.1291447E+00
         -1   -1    0    0    0  501 -0.00000000000E+00  0.00000000000E+00  0.24213432012E+02  0.24213432012E+02  0.00000000000E+00 0.  1.
          1   -1    0    0  501    0  0.00000000000E+00 -0.00000000000E+00 -0.92945949960E+02  0.92945949960E+02  0.00000000000E+00 0. -1.
         23    2    1    2    0    0  0.00000000000E+00  0.00000000000E+00 -0.68732517948E+02  0.11715938197E+03  0.94879722599E+02 0.  0.
        -11    1    3    3    0    0 -0.40149672285E+02  0.14070640269E+02 -0.84479384128E+01  0.43374494413E+02  0.00000000000E+00 0.  1.
         11    1    3    3    0    0  0.40149672285E+02 -0.14070640269E+02 -0.60284579536E+02  0.73784887558E+02  0.00000000000E+00 0. -1.
<mgrwt>
<rscale>  0 0.94879723E+02</rscale>
<asrwt>0</asrwt>
<pdfrwt beam="2">  1        1 0.14299377E-01 0.94879723E+02</pdfrwt>
<pdfrwt beam="1">  1       -1 0.37251434E-02 0.94879723E+02</pdfrwt>
<totfact> 0.92530178E+04</totfact>
</mgrwt>
</event>
<event>
 5    1  0.1310593E+001  0.9066981E+02  0.7546771E-02  0.1301238E+00
         -2   -1    0    0    0  501 -0.00000000000E+00  0.00000000000E+00  0.70139668435E+01  0.70139668435E+01  0.00000000000E+00 0.  1.
          2   -1    0    0  501    0  0.00000000000E+00 -0.00000000000E+00 -0.29302303217E+03  0.29302303217E+03  0.00000000000E+00 0. -1.
         23    2    1    2    0    0  0.00000000000E+00  0.00000000000E+00 -0.28600906533E+03  0.30003699902E+03  0.90669814868E+02 0.  0.
        -13    1    3    3    0    0 -0.26461352774E+02  0.34066150926E+02 -0.96848818830E+02  0.10602075051E+03  0.00000000000E+00 0. -1.
         13    1    3    3    0    0  0.26461352774E+02 -0.34066150926E+02 -0.18916024650E+03  0.19401624851E+03  0.00000000000E+00 0.  1.
<mgrwt>
<rscale>  0 0.90669815E+02</rscale>
<asrwt>0</asrwt>
<pdfrwt beam="2">  1        2 0.45080466E-01 0.90669815E+02</pdfrwt>
<pdfrwt beam="1">  1       -2 0.10790718E-02 0.90669815E+02</pdfrwt>
<totfact> 0.18076106E+05</totfact>
</mgrwt>
</event>
<event>
 5    1  0.1310593E+001  0.1000615E+03  0.7546771E-02  0.1280167E+00
          1   -1    0    0  501    0  0.00000000000E+00  0.00000000000E+00  0.16043657946E+03  0.16043657946E+03  0.00000000000E+00 0. -1.
         -1   -1    0    0    0  501 -0.00000000000E+00 -0.00000000000E+00 -0.15601642146E+02  0.15601642146E+02  0.00000000000E+00 0.  1.
         23    2    1    2    0    0  0.00000000000E+00  0.00000000000E+00  0.14483493732E+03  0.17603822161E+03  0.10006146311E+03 0.  0.
        -13    1    3    3    0    0 -0.46016189660E+02 -0.55628357854E+01  0.10554839064E+03  0.11527748098E+03  0.00000000000E+00 0. -1.
         13    1    3    3    0    0  0.46016189660E+02  0.55628357854E+01  0.39286546676E+02  0.60760740635E+02  0.00000000000E+00 0.  1.
<mgrwt>
<rscale>  0 0.10006146E+03</rscale>
<asrwt>0</asrwt>
<pdfrwt beam="1">  1        1 0.24682550E-01 0.10006146E+03</pdfrwt>
<pdfrwt beam="2">  1       -1 0.24002527E-02 0.10006146E+03</pdfrwt>
<totfact> 0.88247561E+04</totfact>
</mgrwt>
</event>
<event>
 5    1  0.1310593E+001  0.7506381E+02  0.7546771E-02  0.1343674E+00
         -2   -1    0    0    0  501 -0.00000000000E+00  0.00000000000E+00  0.67580364062E+01  0.67580364062E+01  0.00000000000E+00 0.  1.
          2   -1    0    0  501    0  0.00000000000E+00 -0.00000000000E+00 -0.20843982014E+03  0.20843982014E+03  0.00000000000E+00 0. -1.
         23    2    1    2    0    0  0.00000000000E+00  0.00000000000E+00 -0.20168178373E+03  0.21519785654E+03  0.75063810001E+02 0.  0.
        -13    1    3    3    0    0  0.81379181902E+01  0.33271910563E+02 -0.14482632349E+03  0.14882173807E+03  0.00000000000E+00 0. -1.
         13    1    3    3    0    0 -0.81379181902E+01 -0.33271910563E+02 -0.56855460236E+02  0.66376118474E+02  0.00000000000E+00 0.  1.
<mgrwt>
<rscale>  0 0.75063810E+02</rscale>
<asrwt>0</asrwt>
<pdfrwt beam="2">  1        2 0.32067665E-01 0.75063810E+02</pdfrwt>
<pdfrwt beam="1">  1       -2 0.10396979E-02 0.75063810E+02</pdfrwt>
<totfact> 0.26328845E+05</totfact>
</mgrwt>
</event>
<event>
 5    1  0.1310593E+001  0.9128752E+02  0.7546771E-02  0.1299763E+00
          1   -1    0    0  501    0  0.00000000000E+00  0.00000000000E+00  0.28221615892E+02  0.28221615892E+02  0.00000000000E+00 0. -1.
         -1   -1    0    0    0  501 -0.00000000000E+00 -0.00000000000E+00 -0.73821168598E+02  0.73821168598E+02  0.00000000000E+00 0.  1.
         23    2    1    2    0    0  0.00000000000E+00  0.00000000000E+00 -0.45599552706E+02  0.10204278449E+03  0.91287516450E+02 0.  0.
        -11    1    3    3    0    0  0.55381943721E+01  0.44446500456E+02 -0.32620658232E+02  0.55410020242E+02  0.00000000000E+00 0.  1.
         11    1    3    3    0    0 -0.55381943721E+01 -0.44446500456E+02 -0.12978894474E+02  0.46632764249E+02  0.00000000000E+00 0. -1.
<mgrwt>
<rscale>  0 0.91287516E+02</rscale>
<asrwt>0</asrwt>
<pdfrwt beam="1">  1        1 0.43417870E-02 0.91287516E+02</pdfrwt>
<pdfrwt beam="2">  1       -1 0.11357103E-01 0.91287516E+02</pdfrwt>
<totfact> 0.85526892E+04</totfact>
</mgrwt>
</event>
<event>
 5    1  0.1310593E+001  0.9098900E+02  0.7546771E-02  0.1300474E+00
         -1   -1    0    0    0  501 -0.00000000000E+00  0.00000000000E+00  0.65959266007E+02  0.65959266007E+02  0.00000000000E+00 0.  1.
          1   -1    0    0  501    0  0.00000000000E+00 -0.00000000000E+00 -0.31379205517E+02  0.31379205517E+02  0.00000000000E+00 0. -1.
         23    2    1    2    0    0  0.00000000000E+00  0.00000000000E+00  0.34580060490E+02  0.97338471523E+02  0.90988996340E+02 0.  0.
        -13    1    3    3    0    0 -0.25433327436E+02  0.27208405885E-01 -0.23063542824E+02  0.34333393254E+02  0.00000000000E+00 0. -1.
         13    1    3    3    0    0  0.25433327436E+02 -0.27208405885E-01  0.57643603314E+02  0.63005078270E+02  0.00000000000E+00 0.  1.
<mgrwt>
<rscale>  0 0.90988996E+02</rscale>
<asrwt>0</asrwt>
<pdfrwt beam="2">  1        1 0.48275701E-02 0.90988996E+02</pdfrwt>
<pdfrwt beam="1">  1       -1 0.10147579E-01 0.90988996E+02</pdfrwt>
<totfact> 0.87828625E+04</totfact>
</mgrwt>
</event>
<event>
 5    1  0.1310593E+001  0.9073597E+02  0.7546771E-02  0.1301079E+00
          1   -1    0    0  501    0  0.00000000000E+00  0.00000000000E+00  0.16251328935E+03  0.16251328935E+03  0.00000000000E+00 0. -1.
         -1   -1    0    0    0  501 -0.00000000000E+00 -0.00000000000E+00 -0.12665141698E+02  0.12665141698E+02  0.00000000000E+00 0.  1.
         23    2    1    2    0    0  0.00000000000E+00  0.00000000000E+00  0.14984814765E+03  0.17517843105E+03  0.90735965028E+02 0.  0.
        -11    1    3    3    0    0  0.41539666700E+02  0.29871783600E+01  0.10966414214E+03  0.11730597263E+03  0.00000000000E+00 0. -1.
         11    1    3    3    0    0 -0.41539666700E+02 -0.29871783600E+01  0.40184005516E+02  0.57872458418E+02  0.00000000000E+00 0.  1.
<mgrwt>
<rscale>  0 0.90735965E+02</rscale>
<asrwt>0</asrwt>
<pdfrwt beam="1">  1        1 0.25002043E-01 0.90735965E+02</pdfrwt>
<pdfrwt beam="2">  1       -1 0.19484835E-02 0.90735965E+02</pdfrwt>
<totfact> 0.11530463E+05</totfact>
</mgrwt>
</event>
<event>
 5    1  0.1310593E+001  0.9330055E+02  0.7546771E-02  0.1295050E+00
         -4   -1    0    0    0  501 -0.00000000000E+00  0.00000000000E+00  0.78066099681E+02  0.78066099681E+02  0.00000000000E+00 0.  1.
          4   -1    0    0  501    0  0.00000000000E+00 -0.00000000000E+00 -0.27876990636E+02  0.27876990636E+02  0.00000000000E+00 0. -1.
         23    2    1    2    0    0  0.00000000000E+00  0.00000000000E+00  0.50189109045E+02  0.10594309032E+03  0.93300545117E+02 0.  0.
        -11    1    3    3    0    0 -0.10456457023E+00 -0.17794102221E+02 -0.23871942096E+02  0.29774328322E+02  0.00000000000E+00 0. -1.
         11    1    3    3    0    0  0.10456457023E+00  0.17794102221E+02  0.74061051141E+02  0.76168761994E+02  0.00000000000E+00 0.  1.
<mgrwt>
<rscale>  0 0.93300545E+02</rscale>
<asrwt>0</asrwt>
<pdfrwt beam="2">  1        4 0.42887678E-02 0.93300545E+02</pdfrwt>
<pdfrwt beam="1">  1       -4 0.12010169E-01 0.93300545E+02</pdfrwt>
<totfact> 0.24512934E+04</totfact>
</mgrwt>
</event>
<event>
 5    1  0.1310593E+001  0.9085492E+02  0.7546771E-02  0.1300794E+00
          1   -1    0    0  501    0  0.00000000000E+00  0.00000000000E+00  0.93752507125E+01  0.93752507125E+01  0.00000000000E+00 0. -1.
         -1   -1    0    0    0  501 -0.00000000000E+00 -0.00000000000E+00 -0.22011723719E+03  0.22011723719E+03  0.00000000000E+00 0.  1.
         23    2    1    2    0    0  0.00000000000E+00  0.00000000000E+00 -0.21074198648E+03  0.22949248791E+03  0.90854923583E+02 0.  0.
        -11    1    3    3    0    0  0.38464932825E+02  0.93760630557E+01 -0.16163688138E+03  0.16641497240E+03  0.00000000000E+00 0.  1.
         11    1    3    3    0    0 -0.38464932825E+02 -0.93760630557E+01 -0.49105105097E+02  0.63077515505E+02  0.00000000000E+00 0. -1.
<mgrwt>
<rscale>  0 0.90854924E+02</rscale>
<asrwt>0</asrwt>
<pdfrwt beam="1">  1        1 0.14423463E-02 0.90854924E+02</pdfrwt>
<pdfrwt beam="2">  1       -1 0.33864190E-01 0.90854924E+02</pdfrwt>
<totfact> 0.68105443E+04</totfact>
</mgrwt>
</event>
<event>
 5    1  0.1310593E+001  0.9279144E+02  0.7546771E-02  0.1296229E+00
         -1   -1    0    0    0  501 -0.00000000000E+00  0.00000000000E+00  0.17813219771E+02  0.17813219771E+02  0.00000000000E+00 0.  1.
          1   -1    0    0  501    0  0.00000000000E+00 -0.00000000000E+00 -0.12084075891E+03  0.12084075891E+03  0.00000000000E+00 0. -1.
         23    2    1    2    0    0  0.00000000000E+00  0.00000000000E+00 -0.10302753913E+03  0.13865397868E+03  0.92791443477E+02 0.  0.
        -11    1    3    3    0    0 -0.37125882453E+02 -0.20570039663E+02 -0.23514731697E+02  0.48522162838E+02  0.00000000000E+00 0. -1.
         11    1    3    3    0    0  0.37125882453E+02  0.20570039663E+02 -0.79512807437E+02  0.90131815838E+02  0.00000000000E+00 0.  1.
<mgrwt>
<rscale>  0 0.92791443E+02</rscale>
<asrwt>0</asrwt>
<pdfrwt beam="2">  1        1 0.18590886E-01 0.92791443E+02</pdfrwt>
<pdfrwt beam="1">  1       -1 0.27404953E-02 0.92791443E+02</pdfrwt>
<totfact> 0.10284587E+05</totfact>
</mgrwt>
</event>
<event>
 5    1  0.1310593E+001  0.8876903E+02  0.7546771E-02  0.1305860E+00
         -3   -1    0    0    0  501 -0.00000000000E+00  0.00000000000E+00  0.14342349731E+02  0.14342349731E+02  0.00000000000E+00 0.  1.
          3   -1    0    0  501    0  0.00000000000E+00 -0.00000000000E+00 -0.13735441955E+03  0.13735441955E+03  0.00000000000E+00 0. -1.
         23    2    1    2    0    0  0.00000000000E+00  0.00000000000E+00 -0.12301206982E+03  0.15169676928E+03  0.88769028886E+02 0.  0.
        -11    1    3    3    0    0 -0.37936516792E+02  0.22949356642E+02 -0.64980112078E+02  0.78665540373E+02  0.00000000000E+00 0. -1.
         11    1    3    3    0    0  0.37936516792E+02 -0.22949356642E+02 -0.58031957741E+02  0.73031228908E+02  0.00000000000E+00 0.  1.
<mgrwt>
<rscale>  0 0.88769029E+02</rscale>
<asrwt>0</asrwt>
<pdfrwt beam="2">  1        3 0.21131450E-01 0.88769029E+02</pdfrwt>
<pdfrwt beam="1">  1       -3 0.22065153E-02 0.88769029E+02</pdfrwt>
<totfact> 0.33541396E+04</totfact>
</mgrwt>
</event>
<event>
 5    1  0.1310593E+001  0.9253903E+02  0.7546771E-02  0.1296817E+00
          3   -1    0    0  501    0  0.00000000000E+00  0.00000000000E+00  0.11191429098E+02  0.11191429098E+02  0.00000000000E+00 0. -1.
         -3   -1    0    0    0  501 -0.00000000000E+00 -0.00000000000E+00 -0.19129530243E+03  0.19129530243E+03  0.00000000000E+00 0.  1.
         23    2    1    2    0    0  0.00000000000E+00  0.00000000000E+00 -0.18010387334E+03  0.20248673153E+03  0.92539025582E+02 0.  0.
        -13    1    3    3    0    0  0.31435945078E+02 -0.17957923992E+02 -0.15309729375E+03  0.15731969689E+03  0.00000000000E+00 0.  1.
         13    1    3    3    0    0 -0.31435945078E+02  0.17957923992E+02 -0.27006579586E+02  0.45167034638E+02  0.00000000000E+00 0. -1.
<mgrwt>
<rscale>  0 0.92539026E+02</rscale>
<asrwt>0</asrwt>
<pdfrwt beam="1">  1        3 0.17217585E-02 0.92539026E+02</pdfrwt>
<pdfrwt beam="2">  1       -3 0.29430043E-01 0.92539026E+02</pdfrwt>
<totfact> 0.27254123E+04</totfact>
</mgrwt>
</event>
<event>
 5    1  0.1310593E+001  0.8845920E+02  0.7546771E-02  0.1306626E+00
          4   -1    0    0  501    0  0.00000000000E+00  0.00000000000E+00  0.53734970519E+02  0.53734970519E+02  0.00000000000E+00 0.  1.
         -4   -1    0    0    0  501 -0.00000000000E+00 -0.00000000000E+00 -0.36405664281E+02  0.36405664281E+02  0.00000000000E+00 0. -1.
         23    2    1    2    0    0  0.00000000000E+00  0.00000000000E+00  0.17329306238E+02  0.90140634800E+02  0.88459195042E+02 0.  0.
        -13    1    3    3    0    0  0.19971133033E+01  0.38560456928E+02 -0.13317597404E+02  0.40844286022E+02  0.00000000000E+00 0. -1.
         13    1    3    3    0    0 -0.19971133033E+01 -0.38560456928E+02  0.30646903642E+02  0.49296348778E+02  0.00000000000E+00 0.  1.
<mgrwt>
<rscale>  0 0.88459195E+02</rscale>
<asrwt>0</asrwt>
<pdfrwt beam="1">  1        4 0.82669185E-02 0.88459195E+02</pdfrwt>
<pdfrwt beam="2">  1       -4 0.56008714E-02 0.88459195E+02</pdfrwt>
<totfact> 0.29392986E+04</totfact>
</mgrwt>
</event>
<event>
 5    1  0.1310593E+001  0.9168347E+02  0.7546771E-02  0.1298825E+00
         -1   -1    0    0    0  501 -0.00000000000E+00  0.00000000000E+00  0.20209097862E+02  0.20209097862E+02  0.00000000000E+00 0.  1.
          1   -1    0    0  501    0  0.00000000000E+00 -0.00000000000E+00 -0.10398607986E+03  0.10398607986E+03  0.00000000000E+00 0. -1.
         23    2    1    2    0    0  0.00000000000E+00  0.00000000000E+00 -0.83776982001E+02  0.12419517773E+03  0.91683474285E+02 0.  0.
        -13    1    3    3    0    0  0.14554463559E+02  0.27638372903E+02  0.35616451558E+01  0.31438787865E+02  0.00000000000E+00 0.  1.
         13    1    3    3    0    0 -0.14554463559E+02 -0.27638372903E+02 -0.87338627157E+02  0.92756389860E+02  0.00000000000E+00 0. -1.
<mgrwt>
<rscale>  0 0.91683474E+02</rscale>
<asrwt>0</asrwt>
<pdfrwt beam="2">  1        1 0.15997859E-01 0.91683474E+02</pdfrwt>
<pdfrwt beam="1">  1       -1 0.31090919E-02 0.91683474E+02</pdfrwt>
<totfact> 0.10355947E+05</totfact>
</mgrwt>
</event>
<event>
 5    1  0.1310593E+001  0.9420196E+02  0.7546771E-02  0.1292984E+00
          3   -1    0    0  501    0  0.00000000000E+00  0.00000000000E+00  0.31239987267E+02  0.31239987267E+02  0.00000000000E+00 0. -1.
         -3   -1    0    0    0  501 -0.00000000000E+00 -0.00000000000E+00 -0.71014834408E+02  0.71014834408E+02  0.00000000000E+00 0.  1.
         23    2    1    2    0    0  0.00000000000E+00  0.00000000000E+00 -0.39774847141E+02  0.10225482168E+03  0.94201964368E+02 0.  0.
        -11    1    3    3    0    0 -0.27915202545E+02 -0.38978086078E+01 -0.60849939186E+02  0.67060916666E+02  0.00000000000E+00 0.  1.
         11    1    3    3    0    0  0.27915202545E+02  0.38978086078E+01  0.21075092046E+02  0.35193905010E+02  0.00000000000E+00 0. -1.
<mgrwt>
<rscale>  0 0.94201964E+02</rscale>
<asrwt>0</asrwt>
<pdfrwt beam="1">  1        3 0.48061519E-02 0.94201964E+02</pdfrwt>
<pdfrwt beam="2">  1       -3 0.10925359E-01 0.94201964E+02</pdfrwt>
<totfact> 0.31563474E+04</totfact>
</mgrwt>
</event>
<event>
 5    1  0.1310593E+001  0.9076371E+02  0.7546771E-02  0.1301013E+00
          2   -1    0    0  501    0  0.00000000000E+00  0.00000000000E+00  0.11068325938E+03  0.11068325938E+03  0.00000000000E+00 0. -1.
         -2   -1    0    0    0  501 -0.00000000000E+00 -0.00000000000E+00 -0.18607266060E+02  0.18607266060E+02  0.00000000000E+00 0.  1.
         23    2    1    2    0    0  0.00000000000E+00  0.00000000000E+00  0.92075993323E+02  0.12929052544E+03  0.90763712039E+02 0.  0.
        -11    1    3    3    0    0  0.44459901796E+02  0.49287286235E+01  0.56936628694E+02  0.72406870673E+02  0.00000000000E+00 0.  1.
         11    1    3    3    0    0 -0.44459901796E+02 -0.49287286235E+01  0.35139364628E+02  0.56883654770E+02  0.00000000000E+00 0. -1.
<mgrwt>
<rscale>  0 0.90763712E+02</rscale>
<asrwt>0</asrwt>
<pdfrwt beam="1">  1        2 0.17028193E-01 0.90763712E+02</pdfrwt>
<pdfrwt beam="2">  1       -2 0.28626564E-02 0.90763712E+02</pdfrwt>
<totfact> 0.12816807E+05</totfact>
</mgrwt>
</event>
<event>
 5    1  0.1310593E+001  0.8853123E+02  0.7546771E-02  0.1306448E+00
         -4   -1    0    0    0  501 -0.00000000000E+00  0.00000000000E+00  0.13090923188E+02  0.13090923188E+02  0.00000000000E+00 0.  1.
          4   -1    0    0  501    0  0.00000000000E+00 -0.00000000000E+00 -0.14967962810E+03  0.14967962810E+03  0.00000000000E+00 0. -1.
         23    2    1    2    0    0  0.00000000000E+00  0.00000000000E+00 -0.13658870491E+03  0.16277055129E+03  0.88531226452E+02 0.  0.
        -13    1    3    3    0    0 -0.36890519074E+02 -0.16597022911E+02 -0.35247534318E+02  0.53654079459E+02  0.00000000000E+00 0.  1.
         13    1    3    3    0    0  0.36890519074E+02  0.16597022911E+02 -0.10134117059E+03  0.10911647183E+03  0.00000000000E+00 0. -1.
<mgrwt>
<rscale>  0 0.88531226E+02</rscale>
<asrwt>0</asrwt>
<pdfrwt beam="2">  1        4 0.23027635E-01 0.88531226E+02</pdfrwt>
<pdfrwt beam="1">  1       -4 0.20139882E-02 0.88531226E+02</pdfrwt>
<totfact> 0.24938375E+04</totfact>
</mgrwt>
</event>
<event>
 5    1  0.1310593E+001  0.8661357E+02  0.7546771E-02  0.1311266E+00
         -3   -1    0    0    0  501 -0.00000000000E+00  0.00000000000E+00  0.16541883444E+02  0.16541883444E+02  0.00000000000E+00 0.  1.
          3   -1    0    0  501    0  0.00000000000E+00 -0.00000000000E+00 -0.11337750863E+03  0.11337750863E+03  0.00000000000E+00 0. -1.
         23    2    1    2    0    0  0.00000000000E+00  0.00000000000E+00 -0.96835625190E+02  0.12991939208E+03  0.86613567827E+02 0.  0.
        -13    1    3    3    0    0 -0.25439361935E+02  0.29915271569E+02 -0.21029439190E+02  0.44545728430E+02  0.00000000000E+00 0.  1.
         13    1    3    3    0    0  0.25439361935E+02 -0.29915271569E+02 -0.75806186000E+02  0.85373663647E+02  0.00000000000E+00 0. -1.
<mgrwt>
<rscale>  0 0.86613568E+02</rscale>
<asrwt>0</asrwt>
<pdfrwt beam="2">  1        3 0.17442693E-01 0.86613568E+02</pdfrwt>
<pdfrwt beam="1">  1       -3 0.25449052E-02 0.86613568E+02</pdfrwt>
<totfact> 0.37427314E+04</totfact>
</mgrwt>
</event>
<event>
 5    1  0.1310593E+001  0.8920672E+02  0.7546771E-02  0.1304784E+00
         -2   -1    0    0    0  501 -0.00000000000E+00  0.00000000000E+00  0.15267545139E+03  0.15267545139E+03  0.00000000000E+00 0.  1.
          2   -1    0    0  501    0  0.00000000000E+00 -0.00000000000E+00 -0.13030645561E+02  0.13030645561E+02  0.00000000000E+00 0. -1.
         23    2    1    2    0    0  0.00000000000E+00  0.00000000000E+00  0.13964480583E+03  0.16570609695E+03  0.89206719320E+02 0.  0.
        -11    1    3    3    0    0  0.23548658731E+02  0.29944353055E+02  0.26726558545E+02  0.46535067848E+02  0.00000000000E+00 0. -1.
         11    1    3    3    0    0 -0.23548658731E+02 -0.29944353055E+02  0.11291824728E+03  0.11917102910E+03  0.00000000000E+00 0.  1.
<mgrwt>
<rscale>  0 0.89206719E+02</rscale>
<asrwt>0</asrwt>
<pdfrwt beam="2">  1        2 0.20047148E-02 0.89206719E+02</pdfrwt>
<pdfrwt beam="1">  1       -2 0.23488530E-01 0.89206719E+02</pdfrwt>
<totfact> 0.73351287E+04</totfact>
</mgrwt>
</event>
<event>
 5    1  0.1310593E+001  0.9147284E+02  0.7546771E-02  0.1299324E+00
          2   -1    0    0  501    0  0.00000000000E+00  0.00000000000E+00  0.95968071675E+02  0.95968071675E+02  0.00000000000E+00 0. -1.
         -2   -1    0    0    0  501 -0.00000000000E+00 -0.00000000000E+00 -0.21797042139E+02  0.21797042139E+02  0.00000000000E+00 0.  1.
         23    2    1    2    0    0  0.00000000000E+00  0.00000000000E+00  0.74171029536E+02  0.11776511381E+03  0.91472839735E+02 0.  0.
        -11    1    3    3    0    0 -0.15544224788E+02 -0.24767121983E+02  0.82361918437E+02  0.87398620494E+02  0.00000000000E+00 0. -1.
         11    1    3    3    0    0  0.15544224788E+02  0.24767121983E+02 -0.81908889009E+01  0.30366493320E+02  0.00000000000E+00 0.  1.
<mgrwt>
<rscale>  0 0.91472840E+02</rscale>
<asrwt>0</asrwt>
<pdfrwt beam="1">  1        2 0.14764319E-01 0.91472840E+02</pdfrwt>
<pdfrwt beam="2">  1       -2 0.33533911E-02 0.91472840E+02</pdfrwt>
<totfact> 0.12007782E+05</totfact>
</mgrwt>
</event>
<event>
 5    1  0.1310593E+001  0.9120642E+02  0.7546771E-02  0.1299956E+00
         -1   -1    0    0    0  501 -0.00000000000E+00  0.00000000000E+00  0.11291262142E+02  0.11291262142E+02  0.00000000000E+00 0.  1.
          1   -1    0    0  501    0  0.00000000000E+00 -0.00000000000E+00 -0.18418249865E+03  0.18418249865E+03  0.00000000000E+00 0. -1.
         23    2    1    2    0    0  0.00000000000E+00  0.00000000000E+00 -0.17289123651E+03  0.19547376079E+03  0.91206422453E+02 0.  0.
        -13    1    3    3    0    0 -0.21229051793E+02  0.30393650996E+02 -0.14335988075E+03  0.14807600100E+03  0.00000000000E+00 0. -1.
         13    1    3    3    0    0  0.21229051793E+02 -0.30393650996E+02 -0.29531355752E+02  0.47397759794E+02  0.00000000000E+00 0.  1.
<mgrwt>
<rscale>  0 0.91206422E+02</rscale>
<asrwt>0</asrwt>
<pdfrwt beam="2">  1        1 0.28335770E-01 0.91206422E+02</pdfrwt>
<pdfrwt beam="1">  1       -1 0.17371172E-02 0.91206422E+02</pdfrwt>
<totfact> 0.11643639E+05</totfact>
</mgrwt>
</event>
<event>
 5    1  0.1310593E+001  0.9293329E+02  0.7546771E-02  0.1295900E+00
          4   -1    0    0  501    0  0.00000000000E+00  0.00000000000E+00  0.33402858985E+02  0.33402858985E+02  0.00000000000E+00 0. -1.
         -4   -1    0    0    0  501 -0.00000000000E+00 -0.00000000000E+00 -0.64639645191E+02  0.64639645191E+02  0.00000000000E+00 0.  1.
         23    2    1    2    0    0  0.00000000000E+00  0.00000000000E+00 -0.31236786206E+02  0.98042504176E+02  0.92933286893E+02 0.  0.
        -13    1    3    3    0    0 -0.15816502553E+02  0.21707294904E+02  0.24384315584E+02  0.36276207789E+02  0.00000000000E+00 0. -1.
         13    1    3    3    0    0  0.15816502553E+02 -0.21707294904E+02 -0.55621101790E+02  0.61766296387E+02  0.00000000000E+00 0.  1.
<mgrwt>
<rscale>  0 0.92933287E+02</rscale>
<asrwt>0</asrwt>
<pdfrwt beam="1">  1        4 0.51389014E-02 0.92933287E+02</pdfrwt>
<pdfrwt beam="2">  1       -4 0.99445608E-02 0.92933287E+02</pdfrwt>
<totfact> 0.25235736E+04</totfact>
</mgrwt>
</event>
<event>
 5    1  0.1310593E+001  0.9963644E+02  0.7546771E-02  0.1281062E+00
          2   -1    0    0  501    0  0.00000000000E+00  0.00000000000E+00  0.78642540562E+02  0.78642540562E+02  0.00000000000E+00 0. -1.
         -2   -1    0    0    0  501 -0.00000000000E+00 -0.00000000000E+00 -0.31558684226E+02  0.31558684226E+02  0.00000000000E+00 0.  1.
         23    2    1    2    0    0  0.00000000000E+00  0.00000000000E+00  0.47083856336E+02  0.11020122479E+03  0.99636441211E+02 0.  0.
        -13    1    3    3    0    0 -0.13170723537E+02  0.37528967561E+02  0.56722259620E+02  0.69277024337E+02  0.00000000000E+00 0. -1.
         13    1    3    3    0    0  0.13170723537E+02 -0.37528967561E+02 -0.96384032838E+01  0.40924200451E+02  0.00000000000E+00 0.  1.
<mgrwt>
<rscale>  0 0.99636441E+02</rscale>
<asrwt>0</asrwt>
<pdfrwt beam="1">  1        2 0.12098852E-01 0.99636441E+02</pdfrwt>
<pdfrwt beam="2">  1       -2 0.48551822E-02 0.99636441E+02</pdfrwt>
<totfact> 0.89120779E+04</totfact>
</mgrwt>
</event>
<event>
 5    1  0.1310593E+001  0.9508318E+02  0.7546771E-02  0.1290989E+00
          2   -1    0    0  501    0  0.00000000000E+00  0.00000000000E+00  0.35717700080E+03  0.35717700080E+03  0.00000000000E+00 0. -1.
         -2   -1    0    0    0  501 -0.00000000000E+00 -0.00000000000E+00 -0.63279625076E+01  0.63279625076E+01  0.00000000000E+00 0.  1.
         23    2    1    2    0    0  0.00000000000E+00  0.00000000000E+00  0.35084903829E+03  0.36350496330E+03  0.95083177684E+02 0.  0.
        -13    1    3    3    0    0 -0.41840956032E+02 -0.14285034019E+02  0.10860637598E+03  0.11726070400E+03  0.00000000000E+00 0.  1.
         13    1    3    3    0    0  0.41840956032E+02  0.14285034019E+02  0.24224266231E+03  0.24624425930E+03  0.00000000000E+00 0. -1.
<mgrwt>
<rscale>  0 0.95083178E+02</rscale>
<asrwt>0</asrwt>
<pdfrwt beam="1">  1        2 0.54950292E-01 0.95083178E+02</pdfrwt>
<pdfrwt beam="2">  1       -2 0.97353297E-03 0.95083178E+02</pdfrwt>
<totfact> 0.17132963E+05</totfact>
</mgrwt>
</event>
<event>
 5    1  0.1310593E+001  0.8636941E+02  0.7546771E-02  0.1311890E+00
          1   -1    0    0  501    0  0.00000000000E+00  0.00000000000E+00  0.30876747535E+02  0.30876747535E+02  0.00000000000E+00 0. -1.
         -1   -1    0    0    0  501 -0.00000000000E+00 -0.00000000000E+00 -0.60398802669E+02  0.60398802669E+02  0.00000000000E+00 0.  1.
         23    2    1    2    0    0  0.00000000000E+00  0.00000000000E+00 -0.29522055134E+02  0.91275550203E+02  0.86369406190E+02 0.  0.
        -13    1    3    3    0    0 -0.23477735769E+02 -0.20094085278E+02  0.17117733816E+02  0.35326946528E+02  0.00000000000E+00 0. -1.
         13    1    3    3    0    0  0.23477735769E+02  0.20094085278E+02 -0.46639788950E+02  0.55948603676E+02  0.00000000000E+00 0.  1.
<mgrwt>
<rscale>  0 0.86369406E+02</rscale>
<asrwt>0</asrwt>
<pdfrwt beam="1">  1        1 0.47502689E-02 0.86369406E+02</pdfrwt>
<pdfrwt beam="2">  1       -1 0.92921235E-02 0.86369406E+02</pdfrwt>
<totfact> 0.10161870E+05</totfact>
</mgrwt>
</event>
<event>
 5    1  0.1310593E+001  0.9290157E+02  0.7546771E-02  0.1295973E+00
          1   -1    0    0  501    0  0.00000000000E+00  0.00000000000E+00  0.11950995248E+03  0.11950995248E+03  0.00000000000E+00 0. -1.
         -1   -1    0    0    0  501 -0.00000000000E+00 -0.00000000000E+00 -0.18054355815E+02  0.18054355815E+02  0.00000000000E+00 0.  1.
         23    2    1    2    0    0  0.00000000000E+00  0.00000000000E+00  0.10145559666E+03  0.13756430829E+03  0.92901565228E+02 0.  0.
        -13    1    3    3    0    0  0.26436182277E+02 -0.27865740250E+02  0.12049113923E+02  0.40256084750E+02  0.00000000000E+00 0.  1.
         13    1    3    3    0    0 -0.26436182277E+02  0.27865740250E+02  0.89406482740E+02  0.97308223542E+02  0.00000000000E+00 0. -1.
<mgrwt>
<rscale>  0 0.92901565E+02</rscale>
<asrwt>0</asrwt>
<pdfrwt beam="1">  1        1 0.18386146E-01 0.92901565E+02</pdfrwt>
<pdfrwt beam="2">  1       -1 0.27775933E-02 0.92901565E+02</pdfrwt>
<totfact> 0.10231599E+05</totfact>
</mgrwt>
</event>
<event>
 5    1  0.1310593E+001  0.8612493E+02  0.7546771E-02  0.1312517E+00
          1   -1    0    0  501    0  0.00000000000E+00  0.00000000000E+00  0.16045891540E+02  0.16045891540E+02  0.00000000000E+00 0. -1.
         -1   -1    0    0    0  501 -0.00000000000E+00 -0.00000000000E+00 -0.11556702749E+03  0.11556702749E+03  0.00000000000E+00 0.  1.
         23    2    1    2    0    0  0.00000000000E+00  0.00000000000E+00 -0.99521135945E+02  0.13161291903E+03  0.86124932247E+02 0.  0.
        -11    1    3    3    0    0  0.48500033921E+01 -0.18550677461E+02 -0.10868359781E+03  0.11036201611E+03  0.00000000000E+00 0.  1.
         11    1    3    3    0    0 -0.48500033921E+01  0.18550677461E+02  0.91624618666E+01  0.21250902913E+02  0.00000000000E+00 0. -1.
<mgrwt>
<rscale>  0 0.86124932E+02</rscale>
<asrwt>0</asrwt>
<pdfrwt beam="1">  1        1 0.24685986E-02 0.86124932E+02</pdfrwt>
<pdfrwt beam="2">  1       -1 0.17779543E-01 0.86124932E+02</pdfrwt>
<totfact> 0.91658164E+04</totfact>
</mgrwt>
</event>
<event>
 5    1  0.1310593E+001  0.9153183E+02  0.7546771E-02  0.1299184E+00
          2   -1    0    0  501    0  0.00000000000E+00  0.00000000000E+00  0.12603331048E+02  0.12603331048E+02  0.00000000000E+00 0. -1.
         -2   -1    0    0    0  501 -0.00000000000E+00 -0.00000000000E+00 -0.16618772063E+03  0.16618772063E+03  0.00000000000E+00 0.  1.
         23    2    1    2    0    0  0.00000000000E+00  0.00000000000E+00 -0.15358438958E+03  0.17879105168E+03  0.91531827454E+02 0.  0.
        -11    1    3    3    0    0  0.40485191739E+01 -0.30168979018E+02 -0.14354781373E+03  0.14673967640E+03  0.00000000000E+00 0.  1.
         11    1    3    3    0    0 -0.40485191739E+01  0.30168979018E+02 -0.10036575850E+02  0.32051375280E+02  0.00000000000E+00 0. -1.
<mgrwt>
<rscale>  0 0.91531827E+02</rscale>
<asrwt>0</asrwt>
<pdfrwt beam="1">  1        2 0.19389740E-02 0.91531827E+02</pdfrwt>
<pdfrwt beam="2">  1       -2 0.25567341E-01 0.91531827E+02</pdfrwt>
<totfact> 0.66562805E+04</totfact>
</mgrwt>
</event>
<event>
 5    1  0.1310593E+001  0.8967539E+02  0.7546771E-02  0.1303640E+00
          4   -1    0    0  501    0  0.00000000000E+00  0.00000000000E+00  0.31227298911E+03  0.31227298911E+03  0.00000000000E+00 0. -1.
         -4   -1    0    0    0  501 -0.00000000000E+00 -0.00000000000E+00 -0.64380171875E+01  0.64380171875E+01  0.00000000000E+00 0.  1.
         23    2    1    2    0    0  0.00000000000E+00  0.00000000000E+00  0.30583497192E+03  0.31871100630E+03  0.89675389513E+02 0.  0.
        -13    1    3    3    0    0  0.56914100795E+01  0.43707187764E+02  0.12367291474E+03  0.13129242267E+03  0.00000000000E+00 0.  1.
         13    1    3    3    0    0 -0.56914100795E+01 -0.43707187764E+02  0.18216205718E+03  0.18741858363E+03  0.00000000000E+00 0. -1.
<mgrwt>
<rscale>  0 0.89675390E+02</rscale>
<asrwt>0</asrwt>
<pdfrwt beam="1">  1        4 0.48041987E-01 0.89675390E+02</pdfrwt>
<pdfrwt beam="2">  1       -4 0.99046443E-03 0.89675390E+02</pdfrwt>
<totfact> 0.18040435E+04</totfact>
</mgrwt>
</event>
<event>
 5    1  0.1310593E+001  0.9371862E+02  0.7546771E-02  0.1294088E+00
          1   -1    0    0  501    0  0.00000000000E+00  0.00000000000E+00  0.37209862613E+02  0.37209862613E+02  0.00000000000E+00 0. -1.
         -1   -1    0    0    0  501 -0.00000000000E+00 -0.00000000000E+00 -0.59011102803E+02  0.59011102803E+02  0.00000000000E+00 0.  1.
         23    2    1    2    0    0  0.00000000000E+00  0.00000000000E+00 -0.21801240191E+02  0.96220965416E+02  0.93718622011E+02 0.  0.
        -11    1    3    3    0    0  0.29742841717E+02  0.11275628226E+02  0.24427707475E+02  0.40105976086E+02  0.00000000000E+00 0. -1.
         11    1    3    3    0    0 -0.29742841717E+02 -0.11275628226E+02 -0.46228947665E+02  0.56114989330E+02  0.00000000000E+00 0.  1.
<mgrwt>
<rscale>  0 0.93718622E+02</rscale>
<asrwt>0</asrwt>
<pdfrwt beam="1">  1        1 0.57245943E-02 0.93718622E+02</pdfrwt>
<pdfrwt beam="2">  1       -1 0.90786311E-02 0.93718622E+02</pdfrwt>
<totfact> 0.82920720E+04</totfact>
</mgrwt>
</event>
<event>
 5    1  0.1310593E+001  0.8815535E+02  0.7546771E-02  0.1307381E+00
         -2   -1    0    0    0  501 -0.00000000000E+00  0.00000000000E+00  0.29499654610E+02  0.29499654610E+02  0.00000000000E+00 0.  1.
          2   -1    0    0  501    0  0.00000000000E+00 -0.00000000000E+00 -0.65859796874E+02  0.65859796874E+02  0.00000000000E+00 0. -1.
         23    2    1    2    0    0  0.00000000000E+00  0.00000000000E+00 -0.36360142264E+02  0.95359451484E+02  0.88155346076E+02 0.  0.
        -11    1    3    3    0    0 -0.37512640246E+02  0.21440474867E+02 -0.27607135273E+02  0.51274224116E+02  0.00000000000E+00 0. -1.
         11    1    3    3    0    0  0.37512640246E+02 -0.21440474867E+02 -0.87530069916E+01  0.44085227368E+02  0.00000000000E+00 0.  1.
<mgrwt>
<rscale>  0 0.88155346E+02</rscale>
<asrwt>0</asrwt>
<pdfrwt beam="2">  1        2 0.10132276E-01 0.88155346E+02</pdfrwt>
<pdfrwt beam="1">  1       -2 0.45384084E-02 0.88155346E+02</pdfrwt>
<totfact> 0.11952772E+05</totfact>
</mgrwt>
</event>
<event>
 5    1  0.1310593E+001  0.9081198E+02  0.7546771E-02  0.1300897E+00
         -2   -1    0    0    0  501 -0.00000000000E+00  0.00000000000E+00  0.16829364165E+02  0.16829364165E+02  0.00000000000E+00 0.  1.
          2   -1    0    0  501    0  0.00000000000E+00 -0.00000000000E+00 -0.12250633926E+03  0.12250633926E+03  0.00000000000E+00 0. -1.
         23    2    1    2    0    0  0.00000000000E+00  0.00000000000E+00 -0.10567697509E+03  0.13933570342E+03  0.90811977091E+02 0.  0.
        -11    1    3    3    0    0  0.11729319261E+02  0.41691491470E+02 -0.73760968253E+02  0.85536178479E+02  0.00000000000E+00 0. -1.
         11    1    3    3    0    0 -0.11729319261E+02 -0.41691491470E+02 -0.31916006838E+02  0.53799524940E+02  0.00000000000E+00 0.  1.
<mgrwt>
<rscale>  0 0.90811977E+02</rscale>
<asrwt>0</asrwt>
<pdfrwt beam="2">  1        2 0.18847130E-01 0.90811977E+02</pdfrwt>
<pdfrwt beam="1">  1       -2 0.25891328E-02 0.90811977E+02</pdfrwt>
<totfact> 0.13216897E+05</totfact>
</mgrwt>
</event>
<event>
 5    1  0.1310593E+001  0.9479498E+02  0.7546771E-02  0.1291639E+00
         -3   -1    0    0    0  501 -0.00000000000E+00  0.00000000000E+00  0.89716822672E+02  0.89716822672E+02  0.00000000000E+00 0.  1.
          3   -1    0    0  501    0  0.00000000000E+00 -0.00000000000E+00 -0.25040143639E+02  0.25040143639E+02  0.00000000000E+00 0. -1.
         23    2    1    2    0    0  0.00000000000E+00  0.00000000000E+00  0.64676679032E+02  0.11475696631E+03  0.94794981440E+02 0.  0.
        -13    1    3    3    0    0 -0.13865481861E+02  0.11195797154E+02  0.85506464665E+02  0.87343877637E+02  0.00000000000E+00 0.  1.
         13    1    3    3    0    0  0.13865481861E+02 -0.11195797154E+02 -0.20829785633E+02  0.27413088674E+02  0.00000000000E+00 0. -1.
<mgrwt>
<rscale>  0 0.94794981E+02</rscale>
<asrwt>0</asrwt>
<pdfrwt beam="2">  1        3 0.38523298E-02 0.94794981E+02</pdfrwt>
<pdfrwt beam="1">  1       -3 0.13802588E-01 0.94794981E+02</pdfrwt>
<totfact> 0.30225976E+04</totfact>
</mgrwt>
</event>
<event>
 5    1  0.1310593E+001  0.9229258E+02  0.7546771E-02  0.1297393E+00
          4   -1    0    0  501    0  0.00000000000E+00  0.00000000000E+00  0.35680757192E+02  0.35680757192E+02  0.00000000000E+00 0. -1.
         -4   -1    0    0    0  501 -0.00000000000E+00 -0.00000000000E+00 -0.59681465961E+02  0.59681465961E+02  0.00000000000E+00 0.  1.
         23    2    1    2    0    0  0.00000000000E+00  0.00000000000E+00 -0.24000708769E+02  0.95362223153E+02  0.92292575993E+02 0.  0.
        -13    1    3    3    0    0 -0.41104763166E+02  0.79278621895E+00 -0.33655714031E+02  0.53131319877E+02  0.00000000000E+00 0.  1.
         13    1    3    3    0    0  0.41104763166E+02 -0.79278621895E+00  0.96550052623E+01  0.42230903276E+02  0.00000000000E+00 0. -1.
<mgrwt>
<rscale>  0 0.92292576E+02</rscale>
<asrwt>0</asrwt>
<pdfrwt beam="1">  1        4 0.54893473E-02 0.92292576E+02</pdfrwt>
<pdfrwt beam="2">  1       -4 0.91817639E-02 0.92292576E+02</pdfrwt>
<totfact> 0.25878564E+04</totfact>
</mgrwt>
</event>
<event>
 5    1  0.1310593E+001  0.9181591E+02  0.7546771E-02  0.1298513E+00
         -1   -1    0    0    0  501 -0.00000000000E+00  0.00000000000E+00  0.17805131002E+02  0.17805131002E+02  0.00000000000E+00 0.  1.
          1   -1    0    0  501    0  0.00000000000E+00 -0.00000000000E+00 -0.11836702577E+03  0.11836702577E+03  0.00000000000E+00 0. -1.
         23    2    1    2    0    0  0.00000000000E+00  0.00000000000E+00 -0.10056189477E+03  0.13617215677E+03  0.91815911479E+02 0.  0.
        -11    1    3    3    0    0 -0.34339401753E+02 -0.10785300494E+02 -0.92543388608E+02  0.99296505450E+02  0.00000000000E+00 0. -1.
         11    1    3    3    0    0  0.34339401753E+02  0.10785300494E+02 -0.80185061608E+01  0.36875651323E+02  0.00000000000E+00 0.  1.
<mgrwt>
<rscale>  0 0.91815911E+02</rscale>
<asrwt>0</asrwt>
<pdfrwt beam="2">  1        1 0.18210312E-01 0.91815911E+02</pdfrwt>
<pdfrwt beam="1">  1       -1 0.27392508E-02 0.91815911E+02</pdfrwt>
<totfact> 0.10546271E+05</totfact>
</mgrwt>
</event>
<event>
 5    1  0.1310593E+001  0.1038862E+03  0.7546771E-02  0.1272330E+00
          1   -1    0    0  501    0  0.00000000000E+00  0.00000000000E+00  0.32211028714E+02  0.32211028714E+02  0.00000000000E+00 0. -1.
         -1   -1    0    0    0  501 -0.00000000000E+00 -0.00000000000E+00 -0.83762728283E+02  0.83762728283E+02  0.00000000000E+00 0.  1.
         23    2    1    2    0    0  0.00000000000E+00  0.00000000000E+00 -0.51551699570E+02  0.11597375700E+03  0.10388616166E+03 0.  0.
        -11    1    3    3    0    0  0.17320696055E+02  0.18666660719E+02 -0.76316412041E+02  0.80452753098E+02  0.00000000000E+00 0.  1.
         11    1    3    3    0    0 -0.17320696055E+02 -0.18666660719E+02  0.24764712471E+02  0.35521003899E+02  0.00000000000E+00 0. -1.
<mgrwt>
<rscale>  0 0.10388616E+03</rscale>
<asrwt>0</asrwt>
<pdfrwt beam="1">  1        1 0.49555429E-02 0.10388616E+03</pdfrwt>
<pdfrwt beam="2">  1       -1 0.12886574E-01 0.10388616E+03</pdfrwt>
<totfact> 0.60076585E+04</totfact>
</mgrwt>
</event>
<event>
 4    1  0.1310593E+001  0.1664905E+03  0.7546771E-02  0.1181558E+00
         -1   -1    0    0    0  501 -0.00000000000E+00  0.00000000000E+00  0.24775533045E+03  0.24775533045E+03  0.00000000000E+00 0.  1.
          1   -1    0    0  501    0  0.00000000000E+00 -0.00000000000E+00 -0.27970233012E+02  0.27970233012E+02  0.00000000000E+00 0. -1.
        -11    1    1    2    0    0  0.32691411503E+02  0.54955693221E+02  0.19816329925E+03  0.20822475783E+03  0.00000000000E+00 0.  1.
         11    1    1    2    0    0 -0.32691411503E+02 -0.54955693221E+02  0.21621798179E+02  0.67500805624E+02  0.00000000000E+00 0. -1.
<mgrwt>
<rscale>  0 0.16649053E+03</rscale>
<asrwt>0</asrwt>
<pdfrwt beam="2">  1        1 0.43031129E-02 0.16649053E+03</pdfrwt>
<pdfrwt beam="1">  1       -1 0.38116203E-01 0.16649053E+03</pdfrwt>
<totfact> 0.13168323E+04</totfact>
</mgrwt>
</event>
<event>
 5    1  0.1310593E+001  0.8657096E+02  0.7546771E-02  0.1311375E+00
          1   -1    0    0  501    0  0.00000000000E+00  0.00000000000E+00  0.20299107389E+03  0.20299107389E+03  0.00000000000E+00 0. -1.
         -1   -1    0    0    0  501 -0.00000000000E+00 -0.00000000000E+00 -0.92301240217E+01  0.92301240217E+01  0.00000000000E+00 0.  1.
         23    2    1    2    0    0  0.00000000000E+00  0.00000000000E+00  0.19376094987E+03  0.21222119791E+03  0.86570960196E+02 0.  0.
        -13    1    3    3    0    0  0.13434437918E+02 -0.36362454392E+02  0.14409297405E+03  0.14921627720E+03  0.00000000000E+00 0. -1.
         13    1    3    3    0    0 -0.13434437918E+02  0.36362454392E+02  0.49667975815E+02  0.63004920706E+02  0.00000000000E+00 0.  1.
<mgrwt>
<rscale>  0 0.86570960E+02</rscale>
<asrwt>0</asrwt>
<pdfrwt beam="1">  1        1 0.31229393E-01 0.86570960E+02</pdfrwt>
<pdfrwt beam="2">  1       -1 0.14200192E-02 0.86570960E+02</pdfrwt>
<totfact> 0.13638745E+05</totfact>
</mgrwt>
</event>
<event>
 5    1  0.1310593E+001  0.8989343E+02  0.7546771E-02  0.1303110E+00
          2   -1    0    0  501    0  0.00000000000E+00  0.00000000000E+00  0.15326950215E+03  0.15326950215E+03  0.00000000000E+00 0.  1.
         -2   -1    0    0    0  501 -0.00000000000E+00 -0.00000000000E+00 -0.13180751479E+02  0.13180751479E+02  0.00000000000E+00 0. -1.
         23    2    1    2    0    0  0.00000000000E+00  0.00000000000E+00  0.14008875067E+03  0.16645025363E+03  0.89893430620E+02 0.  0.
        -11    1    3    3    0    0 -0.29103323287E+02 -0.93423136980E+01  0.90265935677E+01  0.31871015720E+02  0.00000000000E+00 0. -1.
         11    1    3    3    0    0  0.29103323287E+02  0.93423136980E+01  0.13106215710E+03  0.13457923791E+03  0.00000000000E+00 0.  1.
<mgrwt>
<rscale>  0 0.89893431E+02</rscale>
<asrwt>0</asrwt>
<pdfrwt beam="1">  1        2 0.23579922E-01 0.89893431E+02</pdfrwt>
<pdfrwt beam="2">  1       -2 0.20278080E-02 0.89893431E+02</pdfrwt>
<totfact> 0.14635367E+05</totfact>
</mgrwt>
</event>
<event>
 5    1  0.1310593E+001  0.9116972E+02  0.7546771E-02  0.1300044E+00
          3   -1    0    0  501    0  0.00000000000E+00  0.00000000000E+00  0.39430471302E+01  0.39430471302E+01  0.00000000000E+00 0. -1.
         -3   -1    0    0    0  501 -0.00000000000E+00 -0.00000000000E+00 -0.52699835130E+03  0.52699835130E+03  0.00000000000E+00 0.  1.
         23    2    1    2    0    0  0.00000000000E+00  0.00000000000E+00 -0.52305530417E+03  0.53094139843E+03  0.91169717269E+02 0.  0.
        -11    1    3    3    0    0 -0.13613047990E+02 -0.43454095080E+02 -0.27375162588E+03  0.27751310983E+03  0.00000000000E+00 0.  1.
         11    1    3    3    0    0  0.13613047990E+02  0.43454095080E+02 -0.24930367829E+03  0.25342828860E+03  0.00000000000E+00 0. -1.
<mgrwt>
<rscale>  0 0.91169717E+02</rscale>
<asrwt>0</asrwt>
<pdfrwt beam="1">  1        3 0.60662279E-03 0.91169717E+02</pdfrwt>
<pdfrwt beam="2">  1       -3 0.81076648E-01 0.91169717E+02</pdfrwt>
<totfact> 0.17168149E+04</totfact>
</mgrwt>
</event>
<event>
 5    1  0.1310593E+001  0.8729914E+02  0.7546771E-02  0.1309527E+00
         -3   -1    0    0    0  501 -0.00000000000E+00  0.00000000000E+00  0.25489803016E+02  0.25489803016E+02  0.00000000000E+00 0.  1.
          3   -1    0    0  501    0  0.00000000000E+00 -0.00000000000E+00 -0.74746945870E+02  0.74746945870E+02  0.00000000000E+00 0. -1.
         23    2    1    2    0    0  0.00000000000E+00  0.00000000000E+00 -0.49257142854E+02  0.10023674889E+03  0.87299139199E+02 0.  0.
        -11    1    3    3    0    0  0.41744342637E+02  0.12745614078E+02 -0.24061280206E+02  0.49839602984E+02  0.00000000000E+00 0. -1.
         11    1    3    3    0    0 -0.41744342637E+02 -0.12745614078E+02 -0.25195862648E+02  0.50397145902E+02  0.00000000000E+00 0.  1.
<mgrwt>
<rscale>  0 0.87299139E+02</rscale>
<asrwt>0</asrwt>
<pdfrwt beam="2">  1        3 0.11499530E-01 0.87299139E+02</pdfrwt>
<pdfrwt beam="1">  1       -3 0.39215082E-02 0.87299139E+02</pdfrwt>
<totfact> 0.38985762E+04</totfact>
</mgrwt>
</event>
<event>
 5    1  0.1310593E+001  0.8914079E+02  0.7546771E-02  0.1304946E+00
          2   -1    0    0  501    0  0.00000000000E+00  0.00000000000E+00  0.31327251397E+03  0.31327251397E+03  0.00000000000E+00 0. -1.
         -2   -1    0    0    0  501 -0.00000000000E+00 -0.00000000000E+00 -0.63411880152E+01  0.63411880152E+01  0.00000000000E+00 0.  1.
         23    2    1    2    0    0  0.00000000000E+00  0.00000000000E+00  0.30693132596E+03  0.31961370199E+03  0.89140785527E+02 0.  0.
        -11    1    3    3    0    0  0.44330105994E+02  0.46172703558E+01  0.15272711992E+03  0.15909761356E+03  0.00000000000E+00 0.  1.
         11    1    3    3    0    0 -0.44330105994E+02 -0.46172703558E+01  0.15420420604E+03  0.16051608842E+03  0.00000000000E+00 0. -1.
<mgrwt>
<rscale>  0 0.89140786E+02</rscale>
<asrwt>0</asrwt>
<pdfrwt beam="1">  1        2 0.48195759E-01 0.89140786E+02</pdfrwt>
<pdfrwt beam="2">  1       -2 0.97556763E-03 0.89140786E+02</pdfrwt>
<totfact> 0.19388531E+05</totfact>
</mgrwt>
</event>
<event>
 5    1  0.1310593E+001  0.8533034E+02  0.7546771E-02  0.1314571E+00
         -2   -1    0    0    0  501 -0.00000000000E+00  0.00000000000E+00  0.42514001454E+02  0.42514001454E+02  0.00000000000E+00 0.  1.
          2   -1    0    0  501    0  0.00000000000E+00 -0.00000000000E+00 -0.42816876578E+02  0.42816876578E+02  0.00000000000E+00 0. -1.
         23    2    1    2    0    0  0.00000000000E+00  0.00000000000E+00 -0.30287512378E+00  0.85330878031E+02  0.85330340514E+02 0.  0.
        -13    1    3    3    0    0  0.23866962130E+02  0.13356206213E+02 -0.32897584461E+02  0.42781668844E+02  0.00000000000E+00 0. -1.
         13    1    3    3    0    0 -0.23866962130E+02 -0.13356206213E+02  0.32594709337E+02  0.42549209187E+02  0.00000000000E+00 0.  1.
<mgrwt>
<rscale>  0 0.85330341E+02</rscale>
<asrwt>0</asrwt>
<pdfrwt beam="2">  1        2 0.65872117E-02 0.85330341E+02</pdfrwt>
<pdfrwt beam="1">  1       -2 0.65406156E-02 0.85330341E+02</pdfrwt>
<totfact> 0.11734702E+05</totfact>
</mgrwt>
</event>
<event>
 5    1  0.1310593E+001  0.8975422E+02  0.7546771E-02  0.1303448E+00
          2   -1    0    0  501    0  0.00000000000E+00  0.00000000000E+00  0.53940090913E+02  0.53940090913E+02  0.00000000000E+00 0.  1.
         -2   -1    0    0    0  501 -0.00000000000E+00 -0.00000000000E+00 -0.37336889194E+02  0.37336889194E+02  0.00000000000E+00 0. -1.
         23    2    1    2    0    0  0.00000000000E+00  0.00000000000E+00  0.16603201719E+02  0.91276980107E+02  0.89754224358E+02 0.  0.
        -11    1    3    3    0    0  0.29014126466E+02  0.19013446240E+02 -0.20652910116E+02  0.40371690190E+02  0.00000000000E+00 0. -1.
         11    1    3    3    0    0 -0.29014126466E+02 -0.19013446240E+02  0.37256111835E+02  0.50905289917E+02  0.00000000000E+00 0.  1.
<mgrwt>
<rscale>  0 0.89754224E+02</rscale>
<asrwt>0</asrwt>
<pdfrwt beam="1">  1        2 0.82984756E-02 0.89754224E+02</pdfrwt>
<pdfrwt beam="2">  1       -2 0.57441367E-02 0.89754224E+02</pdfrwt>
<totfact> 0.10780515E+05</totfact>
</mgrwt>
</event>
<event>
 5    1  0.1310593E+001  0.9058178E+02  0.7546771E-02  0.1301449E+00
         -2   -1    0    0    0  501 -0.00000000000E+00  0.00000000000E+00  0.20494812776E+02  0.20494812776E+02  0.00000000000E+00 0.  1.
          2   -1    0    0  501    0  0.00000000000E+00 -0.00000000000E+00 -0.10008701845E+03  0.10008701845E+03  0.00000000000E+00 0. -1.
         23    2    1    2    0    0  0.00000000000E+00  0.00000000000E+00 -0.79592205671E+02  0.12058183122E+03  0.90581779720E+02 0.  0.
        -11    1    3    3    0    0  0.17044004883E+02  0.11861477199E+02 -0.93376777588E+02  0.95657803323E+02  0.00000000000E+00 0. -1.
         11    1    3    3    0    0 -0.17044004883E+02 -0.11861477199E+02  0.13784571917E+02  0.24924027899E+02  0.00000000000E+00 0.  1.
<mgrwt>
<rscale>  0 0.90581780E+02</rscale>
<asrwt>0</asrwt>
<pdfrwt beam="2">  1        2 0.15398003E-01 0.90581780E+02</pdfrwt>
<pdfrwt beam="1">  1       -2 0.31530481E-02 0.90581780E+02</pdfrwt>
<totfact> 0.12493843E+05</totfact>
</mgrwt>
</event>
<event>
 5    1  0.1310593E+001  0.9396163E+02  0.7546771E-02  0.1293532E+00
         -4   -1    0    0    0  501 -0.00000000000E+00  0.00000000000E+00  0.31777363282E+03  0.31777363282E+03  0.00000000000E+00 0. -1.
          4   -1    0    0  501    0  0.00000000000E+00 -0.00000000000E+00 -0.69458155783E+01  0.69458155783E+01  0.00000000000E+00 0.  1.
         23    2    1    2    0    0  0.00000000000E+00  0.00000000000E+00  0.31082781724E+03  0.32471944840E+03  0.93961631515E+02 0.  0.
        -11    1    3    3    0    0 -0.45793369509E+02  0.47207706963E+01  0.12301730223E+03  0.13134905791E+03  0.00000000000E+00 0. -1.
         11    1    3    3    0    0  0.45793369509E+02 -0.47207706963E+01  0.18781051502E+03  0.19337039049E+03  0.00000000000E+00 0.  1.
<mgrwt>
<rscale>  0 0.93961632E+02</rscale>
<asrwt>0</asrwt>
<pdfrwt beam="2">  1        4 0.10685873E-02 0.93961632E+02</pdfrwt>
<pdfrwt beam="1">  1       -4 0.48888240E-01 0.93961632E+02</pdfrwt>
<totfact> 0.15775348E+04</totfact>
</mgrwt>
</event>
<event>
 5    1  0.1310593E+001  0.8522386E+02  0.7546771E-02  0.1314848E+00
         -1   -1    0    0    0  501 -0.00000000000E+00  0.00000000000E+00  0.58189784293E+02  0.58189784293E+02  0.00000000000E+00 0. -1.
          1   -1    0    0  501    0  0.00000000000E+00 -0.00000000000E+00 -0.31204387808E+02  0.31204387808E+02  0.00000000000E+00 0.  1.
         23    2    1    2    0    0  0.00000000000E+00  0.00000000000E+00  0.26985396485E+02  0.89394172102E+02  0.85223860405E+02 0.  0.
        -13    1    3    3    0    0  0.39901860528E+02 -0.19150235286E+01 -0.20637620123E+01  0.40001061265E+02  0.00000000000E+00 0.  1.
         13    1    3    3    0    0 -0.39901860528E+02  0.19150235286E+01  0.29049158497E+02  0.49393110836E+02  0.00000000000E+00 0. -1.
<mgrwt>
<rscale>  0 0.85223860E+02</rscale>
<asrwt>0</asrwt>
<pdfrwt beam="2">  1        1 0.48006750E-02 0.85223860E+02</pdfrwt>
<pdfrwt beam="1">  1       -1 0.89522745E-02 0.85223860E+02</pdfrwt>
<totfact> 0.10569997E+05</totfact>
</mgrwt>
</event>
<event>
 5    1  0.1310593E+001  0.9077821E+02  0.7546771E-02  0.1300978E+00
          1   -1    0    0  501    0  0.00000000000E+00  0.00000000000E+00  0.12824259030E+02  0.12824259030E+02  0.00000000000E+00 0. -1.
         -1   -1    0    0    0  501 -0.00000000000E+00 -0.00000000000E+00 -0.16064639894E+03  0.16064639894E+03  0.00000000000E+00 0.  1.
         23    2    1    2    0    0  0.00000000000E+00  0.00000000000E+00 -0.14782213991E+03  0.17347065797E+03  0.90778213955E+02 0.  0.
        -13    1    3    3    0    0  0.26295887477E+02 -0.17867652873E+02 -0.13581583670E+03  0.13948716147E+03  0.00000000000E+00 0.  1.
         13    1    3    3    0    0 -0.26295887477E+02  0.17867652873E+02 -0.12006303212E+02  0.33983496498E+02  0.00000000000E+00 0. -1.
<mgrwt>
<rscale>  0 0.90778214E+02</rscale>
<asrwt>0</asrwt>
<pdfrwt beam="1">  1        1 0.19729628E-02 0.90778214E+02</pdfrwt>
<pdfrwt beam="2">  1       -1 0.24714832E-01 0.90778214E+02</pdfrwt>
<totfact> 0.74412557E+04</totfact>
</mgrwt>
</event>
<event>
 5    1  0.1310593E+001  0.9072735E+02  0.7546771E-02  0.1301100E+00
          2   -1    0    0  501    0  0.00000000000E+00  0.00000000000E+00  0.25869178560E+02  0.25869178560E+02  0.00000000000E+00 0. -1.
         -2   -1    0    0    0  501 -0.00000000000E+00 -0.00000000000E+00 -0.79548839661E+02  0.79548839661E+02  0.00000000000E+00 0.  1.
         23    2    1    2    0    0  0.00000000000E+00  0.00000000000E+00 -0.53679661101E+02  0.10541801822E+03  0.90727352820E+02 0.  0.
        -11    1    3    3    0    0  0.45117852538E+02  0.40729248869E+01 -0.29602614536E+02  0.54115839845E+02  0.00000000000E+00 0. -1.
         11    1    3    3    0    0 -0.45117852538E+02 -0.40729248869E+01 -0.24077046565E+02  0.51302178376E+02  0.00000000000E+00 0.  1.
<mgrwt>
<rscale>  0 0.90727353E+02</rscale>
<asrwt>0</asrwt>
<pdfrwt beam="1">  1        2 0.39798737E-02 0.90727353E+02</pdfrwt>
<pdfrwt beam="2">  1       -2 0.12238283E-01 0.90727353E+02</pdfrwt>
<totfact> 0.86251840E+04</totfact>
</mgrwt>
</event>
<event>
 5    1  0.1310593E+001  0.9606780E+02  0.7546771E-02  0.1288789E+00
          2   -1    0    0  501    0  0.00000000000E+00  0.00000000000E+00  0.39667085440E+02  0.39667085440E+02  0.00000000000E+00 0. -1.
         -2   -1    0    0    0  501 -0.00000000000E+00 -0.00000000000E+00 -0.58165493551E+02  0.58165493551E+02  0.00000000000E+00 0.  1.
         23    2    1    2    0    0  0.00000000000E+00  0.00000000000E+00 -0.18498408111E+02  0.97832578991E+02  0.96067801106E+02 0.  0.
        -13    1    3    3    0    0  0.83827770041E+01  0.41383974284E+02 -0.32568575312E+02  0.53325569623E+02  0.00000000000E+00 0.  1.
         13    1    3    3    0    0 -0.83827770041E+01 -0.41383974284E+02  0.14070167200E+02  0.44507009368E+02  0.00000000000E+00 0. -1.
<mgrwt>
<rscale>  0 0.96067801E+02</rscale>
<asrwt>0</asrwt>
<pdfrwt beam="1">  1        2 0.61026286E-02 0.96067801E+02</pdfrwt>
<pdfrwt beam="2">  1       -2 0.89485374E-02 0.96067801E+02</pdfrwt>
<totfact> 0.81722918E+04</totfact>
</mgrwt>
</event>
<event>
 5    1  0.1310593E+001  0.9266117E+02  0.7546771E-02  0.1296532E+00
          1   -1    0    0  501    0  0.00000000000E+00  0.00000000000E+00  0.76129291304E+02  0.76129291304E+02  0.00000000000E+00 0. -1.
         -1   -1    0    0    0  501 -0.00000000000E+00 -0.00000000000E+00 -0.28195760057E+02  0.28195760057E+02  0.00000000000E+00 0.  1.
         23    2    1    2    0    0  0.00000000000E+00  0.00000000000E+00  0.47933531248E+02  0.10432505136E+03  0.92661172687E+02 0.  0.
        -13    1    3    3    0    0 -0.21602915220E+02 -0.40405081237E+02  0.16226275981E+02  0.48606054849E+02  0.00000000000E+00 0.  1.
         13    1    3    3    0    0  0.21602915220E+02  0.40405081237E+02  0.31707255266E+02  0.55718996512E+02  0.00000000000E+00 0. -1.
<mgrwt>
<rscale>  0 0.92661173E+02</rscale>
<asrwt>0</asrwt>
<pdfrwt beam="1">  1        1 0.11712199E-01 0.92661173E+02</pdfrwt>
<pdfrwt beam="2">  1       -1 0.43378093E-02 0.92661173E+02</pdfrwt>
<totfact> 0.95611984E+04</totfact>
</mgrwt>
</event>
<event>
 5    1  0.1310593E+001  0.9112287E+02  0.7546771E-02  0.1300155E+00
         -2   -1    0    0    0  501 -0.00000000000E+00  0.00000000000E+00  0.45862622976E+02  0.45862622976E+02  0.00000000000E+00 0. -1.
          2   -1    0    0  501    0  0.00000000000E+00 -0.00000000000E+00 -0.45262227009E+02  0.45262227009E+02  0.00000000000E+00 0.  1.
         23    2    1    2    0    0  0.00000000000E+00  0.00000000000E+00  0.60039596726E+00  0.91124849985E+02  0.91122872044E+02 0.  0.
        -11    1    3    3    0    0  0.41806437748E+02 -0.76537617825E+01  0.16716587508E+02  0.45670587959E+02  0.00000000000E+00 0. -1.
         11    1    3    3    0    0 -0.41806437748E+02  0.76537617825E+01 -0.16116191540E+02  0.45454262027E+02  0.00000000000E+00 0.  1.
<mgrwt>
<rscale>  0 0.91122872E+02</rscale>
<asrwt>0</asrwt>
<pdfrwt beam="2">  1        2 0.69634195E-02 0.91122872E+02</pdfrwt>
<pdfrwt beam="1">  1       -2 0.70557882E-02 0.91122872E+02</pdfrwt>
<totfact> 0.98658622E+04</totfact>
</mgrwt>
</event>
<event>
 5    1  0.1310593E+001  0.9384778E+02  0.7546771E-02  0.1293792E+00
         -1   -1    0    0    0  501 -0.00000000000E+00  0.00000000000E+00  0.17369941270E+03  0.17369941270E+03  0.00000000000E+00 0.  1.
          1   -1    0    0  501    0  0.00000000000E+00 -0.00000000000E+00 -0.12676218039E+02  0.12676218039E+02  0.00000000000E+00 0. -1.
         23    2    1    2    0    0  0.00000000000E+00  0.00000000000E+00  0.16102319466E+03  0.18637563074E+03  0.93847783747E+02 0.  0.
        -11    1    3    3    0    0  0.17009036583E+02  0.42156716883E+02  0.10361644442E+03  0.11314973998E+03  0.00000000000E+00 0.  1.
         11    1    3    3    0    0 -0.17009036583E+02 -0.42156716883E+02  0.57406750243E+02  0.73225890758E+02  0.00000000000E+00 0. -1.
<mgrwt>
<rscale>  0 0.93847784E+02</rscale>
<asrwt>0</asrwt>
<pdfrwt beam="2">  1        1 0.19501875E-02 0.93847784E+02</pdfrwt>
<pdfrwt beam="1">  1       -1 0.26722985E-01 0.93847784E+02</pdfrwt>
<totfact> 0.66912391E+04</totfact>
</mgrwt>
</event>
<event>
 5    1  0.1310593E+001  0.7719696E+02  0.7546771E-02  0.1337200E+00
         -2   -1    0    0    0  501 -0.00000000000E+00  0.00000000000E+00  0.75198867175E+02  0.75198867175E+02  0.00000000000E+00 0. -1.
          2   -1    0    0  501    0  0.00000000000E+00 -0.00000000000E+00 -0.19812034322E+02  0.19812034322E+02  0.00000000000E+00 0.  1.
         23    2    1    2    0    0  0.00000000000E+00  0.00000000000E+00  0.55386832853E+02  0.95010901497E+02  0.77196956869E+02 0.  0.
        -11    1    3    3    0    0 -0.66104586352E+01  0.29832311835E+02 -0.13321018688E+01  0.30584955258E+02  0.00000000000E+00 0.  1.
         11    1    3    3    0    0  0.66104586352E+01 -0.29832311835E+02  0.56718934722E+02  0.64425946239E+02  0.00000000000E+00 0. -1.
<mgrwt>
<rscale>  0 0.77196957E+02</rscale>
<asrwt>0</asrwt>
<pdfrwt beam="2">  1        2 0.30480053E-02 0.77196957E+02</pdfrwt>
<pdfrwt beam="1">  1       -2 0.11569056E-01 0.77196957E+02</pdfrwt>
<totfact> 0.13017860E+05</totfact>
</mgrwt>
</event>
<event>
 5    1  0.1310593E+001  0.9191328E+02  0.7546771E-02  0.1298283E+00
          1   -1    0    0  501    0  0.00000000000E+00  0.00000000000E+00  0.70585354796E+01  0.70585354796E+01  0.00000000000E+00 0. -1.
         -1   -1    0    0    0  501 -0.00000000000E+00 -0.00000000000E+00 -0.29921401109E+03  0.29921401109E+03  0.00000000000E+00 0.  1.
         23    2    1    2    0    0  0.00000000000E+00  0.00000000000E+00 -0.29215547561E+03  0.30627254657E+03  0.91913278981E+02 0.  0.
        -11    1    3    3    0    0 -0.42447345248E+02 -0.17176768470E+02 -0.13308893843E+03  0.14074616878E+03  0.00000000000E+00 0.  1.
         11    1    3    3    0    0  0.42447345248E+02  0.17176768470E+02 -0.15906653718E+03  0.16552637779E+03  0.00000000000E+00 0. -1.
<mgrwt>
<rscale>  0 0.91913279E+02</rscale>
<asrwt>0</asrwt>
<pdfrwt beam="1">  1        1 0.10859285E-02 0.91913279E+02</pdfrwt>
<pdfrwt beam="2">  1       -1 0.46032928E-01 0.91913279E+02</pdfrwt>
<totfact> 0.59385094E+04</totfact>
</mgrwt>
</event>
<event>
 5    1  0.1310593E+001  0.9063115E+02  0.7546771E-02  0.1301330E+00
          2   -1    0    0  501    0  0.00000000000E+00  0.00000000000E+00  0.10593190340E+03  0.10593190340E+03  0.00000000000E+00 0. -1.
         -2   -1    0    0    0  501 -0.00000000000E+00 -0.00000000000E+00 -0.19385105931E+02  0.19385105931E+02  0.00000000000E+00 0.  1.
         23    2    1    2    0    0  0.00000000000E+00  0.00000000000E+00  0.86546797466E+02  0.12531700933E+03  0.90631146275E+02 0.  0.
        -11    1    3    3    0    0  0.25755518499E+02  0.34962768741E+02  0.25364215863E+02  0.50290012701E+02  0.00000000000E+00 0.  1.
         11    1    3    3    0    0 -0.25755518499E+02 -0.34962768741E+02  0.61182581602E+02  0.75026996626E+02  0.00000000000E+00 0. -1.
<mgrwt>
<rscale>  0 0.90631146E+02</rscale>
<asrwt>0</asrwt>
<pdfrwt beam="1">  1        2 0.16297216E-01 0.90631146E+02</pdfrwt>
<pdfrwt beam="2">  1       -2 0.29823241E-02 0.90631146E+02</pdfrwt>
<totfact> 0.12693979E+05</totfact>
</mgrwt>
</event>
<event>
 5    1  0.1310593E+001  0.8997659E+02  0.7546771E-02  0.1302908E+00
          2   -1    0    0  501    0  0.00000000000E+00  0.00000000000E+00  0.37574353826E+02  0.37574353826E+02  0.00000000000E+00 0. -1.
         -2   -1    0    0    0  501 -0.00000000000E+00 -0.00000000000E+00 -0.53865104058E+02  0.53865104058E+02  0.00000000000E+00 0.  1.
         23    2    1    2    0    0  0.00000000000E+00  0.00000000000E+00 -0.16290750233E+02  0.91439457884E+02  0.89976585371E+02 0.  0.
        -13    1    3    3    0    0  0.13379873802E+02 -0.40520810356E+02 -0.22624449448E+02  0.48299304423E+02  0.00000000000E+00 0.  1.
         13    1    3    3    0    0 -0.13379873802E+02  0.40520810356E+02  0.63336992157E+01  0.43140153461E+02  0.00000000000E+00 0. -1.
<mgrwt>
<rscale>  0 0.89976585E+02</rscale>
<asrwt>0</asrwt>
<pdfrwt beam="1">  1        2 0.57806698E-02 0.89976585E+02</pdfrwt>
<pdfrwt beam="2">  1       -2 0.82869391E-02 0.89976585E+02</pdfrwt>
<totfact> 0.97537234E+04</totfact>
</mgrwt>
</event>
<event>
 4    1  0.1310593E+001  0.1559142E+03  0.7546771E-02  0.1193388E+00
          3   -1    0    0  501    0  0.00000000000E+00  0.00000000000E+00  0.29658105589E+03  0.29658105589E+03  0.00000000000E+00 0. -1.
         -3   -1    0    0    0  501 -0.00000000000E+00 -0.00000000000E+00 -0.20491215300E+02  0.20491215300E+02  0.00000000000E+00 0.  1.
        -13    1    1    2    0    0  0.42477523423E+01 -0.57689451594E+02  0.31765624901E+02  0.65993720539E+02  0.00000000000E+00 0.  1.
         13    1    1    2    0    0 -0.42477523423E+01  0.57689451594E+02  0.24432421569E+03  0.25107855065E+03  0.00000000000E+00 0. -1.
<mgrwt>
<rscale>  0 0.15591416E+03</rscale>
<asrwt>0</asrwt>
<pdfrwt beam="1">  1        3 0.45627852E-01 0.15591416E+03</pdfrwt>
<pdfrwt beam="2">  1       -3 0.31524949E-02 0.15591416E+03</pdfrwt>
<totfact> 0.52914335E+03</totfact>
</mgrwt>
</event>
<event>
 5    1  0.1310593E+001  0.7809683E+02  0.7546771E-02  0.1334541E+00
          3   -1    0    0  501    0  0.00000000000E+00  0.00000000000E+00  0.94705465948E+01  0.94705465948E+01  0.00000000000E+00 0. -1.
         -3   -1    0    0    0  501 -0.00000000000E+00 -0.00000000000E+00 -0.16100217815E+03  0.16100217815E+03  0.00000000000E+00 0.  1.
         23    2    1    2    0    0  0.00000000000E+00  0.00000000000E+00 -0.15153163156E+03  0.17047272475E+03  0.78096827850E+02 0.  0.
        -11    1    3    3    0    0 -0.26691359069E+02 -0.27652369285E+02 -0.90841066897E+02  0.98636613948E+02  0.00000000000E+00 0.  1.
         11    1    3    3    0    0  0.26691359069E+02  0.27652369285E+02 -0.60690564661E+02  0.71836110801E+02  0.00000000000E+00 0. -1.
<mgrwt>
<rscale>  0 0.78096828E+02</rscale>
<asrwt>0</asrwt>
<pdfrwt beam="1">  1        3 0.14570072E-02 0.78096828E+02</pdfrwt>
<pdfrwt beam="2">  1       -3 0.24769566E-01 0.78096828E+02</pdfrwt>
<totfact> 0.45557772E+04</totfact>
</mgrwt>
</event>
<event>
 5    1  0.1310593E+001  0.8430453E+02  0.7546771E-02  0.1317261E+00
          2   -1    0    0  501    0  0.00000000000E+00  0.00000000000E+00  0.55259561397E+02  0.55259561397E+02  0.00000000000E+00 0. -1.
         -2   -1    0    0    0  501 -0.00000000000E+00 -0.00000000000E+00 -0.32153954501E+02  0.32153954501E+02  0.00000000000E+00 0.  1.
         23    2    1    2    0    0  0.00000000000E+00  0.00000000000E+00  0.23105606896E+02  0.87413515899E+02  0.84304529486E+02 0.  0.
        -11    1    3    3    0    0  0.21178599044E+02 -0.55064880160E+01 -0.25803006676E+02  0.33832670915E+02  0.00000000000E+00 0.  1.
         11    1    3    3    0    0 -0.21178599044E+02  0.55064880160E+01  0.48908613572E+02  0.53580844984E+02  0.00000000000E+00 0. -1.
<mgrwt>
<rscale>  0 0.84304529E+02</rscale>
<asrwt>0</asrwt>
<pdfrwt beam="1">  1        2 0.85014710E-02 0.84304529E+02</pdfrwt>
<pdfrwt beam="2">  1       -2 0.49467622E-02 0.84304529E+02</pdfrwt>
<totfact> 0.12934912E+05</totfact>
</mgrwt>
</event>
<event>
 5    1  0.1310593E+001  0.9182384E+02  0.7546771E-02  0.1298494E+00
         -2   -1    0    0    0  501 -0.00000000000E+00  0.00000000000E+00  0.70189859151E+02  0.70189859151E+02  0.00000000000E+00 0.  1.
          2   -1    0    0  501    0  0.00000000000E+00 -0.00000000000E+00 -0.30031468939E+02  0.30031468939E+02  0.00000000000E+00 0. -1.
         23    2    1    2    0    0  0.00000000000E+00  0.00000000000E+00  0.40158390212E+02  0.10022132809E+03  0.91823843851E+02 0.  0.
        -13    1    3    3    0    0  0.11244831201E+02  0.98974284289E+01 -0.27289062640E+02  0.31130343044E+02  0.00000000000E+00 0. -1.
         13    1    3    3    0    0 -0.11244831201E+02 -0.98974284289E+01  0.67447452853E+02  0.69090985045E+02  0.00000000000E+00 0.  1.
<mgrwt>
<rscale>  0 0.91823844E+02</rscale>
<asrwt>0</asrwt>
<pdfrwt beam="2">  1        2 0.46202260E-02 0.91823844E+02</pdfrwt>
<pdfrwt beam="1">  1       -2 0.10798440E-01 0.91823844E+02</pdfrwt>
<totfact> 0.86650015E+04</totfact>
</mgrwt>
</event>
<event>
 5    1  0.1310593E+001  0.9216896E+02  0.7546771E-02  0.1297683E+00
         -3   -1    0    0    0  501 -0.00000000000E+00  0.00000000000E+00  0.17369806775E+03  0.17369806775E+03  0.00000000000E+00 0.  1.
          3   -1    0    0  501    0  0.00000000000E+00 -0.00000000000E+00 -0.12226845849E+02  0.12226845849E+02  0.00000000000E+00 0. -1.
         23    2    1    2    0    0  0.00000000000E+00  0.00000000000E+00  0.16147122190E+03  0.18592491360E+03  0.92168964379E+02 0.  0.
        -11    1    3    3    0    0  0.33614242503E+02  0.52200834985E+01  0.14345173064E+03  0.14742986669E+03  0.00000000000E+00 0.  1.
         11    1    3    3    0    0 -0.33614242503E+02 -0.52200834985E+01  0.18019491264E+02  0.38495046905E+02  0.00000000000E+00 0. -1.
<mgrwt>
<rscale>  0 0.92168964E+02</rscale>
<asrwt>0</asrwt>
<pdfrwt beam="2">  1        3 0.18810533E-02 0.92168964E+02</pdfrwt>
<pdfrwt beam="1">  1       -3 0.26722778E-01 0.92168964E+02</pdfrwt>
<totfact> 0.28398315E+04</totfact>
</mgrwt>
</event>
<event>
 5    1  0.1310593E+001  0.9139704E+02  0.7546771E-02  0.1299503E+00
         -4   -1    0    0    0  501 -0.00000000000E+00  0.00000000000E+00  0.17882404616E+02  0.17882404616E+02  0.00000000000E+00 0.  1.
          4   -1    0    0  501    0  0.00000000000E+00 -0.00000000000E+00 -0.11678266092E+03  0.11678266092E+03  0.00000000000E+00 0. -1.
         23    2    1    2    0    0  0.00000000000E+00  0.00000000000E+00 -0.98900256305E+02  0.13466506554E+03  0.91397041411E+02 0.  0.
        -11    1    3    3    0    0  0.35385196109E+01 -0.43595739124E+02 -0.68955124787E+02  0.81657325607E+02  0.00000000000E+00 0.  1.
         11    1    3    3    0    0 -0.35385196109E+01  0.43595739124E+02 -0.29945131517E+02  0.53007739930E+02  0.00000000000E+00 0. -1.
<mgrwt>
<rscale>  0 0.91397041E+02</rscale>
<asrwt>0</asrwt>
<pdfrwt beam="2">  1        4 0.17966564E-01 0.91397041E+02</pdfrwt>
<pdfrwt beam="1">  1       -4 0.27511391E-02 0.91397041E+02</pdfrwt>
<totfact> 0.24307758E+04</totfact>
</mgrwt>
</event>
<event>
 5    1  0.1310593E+001  0.8891041E+02  0.7546771E-02  0.1305512E+00
         -2   -1    0    0    0  501 -0.00000000000E+00  0.00000000000E+00  0.93993433236E+01  0.93993433236E+01  0.00000000000E+00 0.  1.
          2   -1    0    0  501    0  0.00000000000E+00 -0.00000000000E+00 -0.21025569454E+03  0.21025569454E+03  0.00000000000E+00 0. -1.
         23    2    1    2    0    0  0.00000000000E+00  0.00000000000E+00 -0.20085635122E+03  0.21965503786E+03  0.88910414659E+02 0.  0.
        -11    1    3    3    0    0 -0.19447137471E+02  0.39913164578E+02 -0.10595993409E+03  0.11488585420E+03  0.00000000000E+00 0.  1.
         11    1    3    3    0    0  0.19447137471E+02 -0.39913164578E+02 -0.94896417127E+02  0.10476918367E+03  0.00000000000E+00 0. -1.
<mgrwt>
<rscale>  0 0.88910415E+02</rscale>
<asrwt>0</asrwt>
<pdfrwt beam="2">  1        2 0.32347030E-01 0.88910415E+02</pdfrwt>
<pdfrwt beam="1">  1       -2 0.14460528E-02 0.88910415E+02</pdfrwt>
<totfact> 0.16851888E+05</totfact>
</mgrwt>
</event>
<event>
 5    1  0.1310593E+001  0.8962199E+02  0.7546771E-02  0.1303770E+00
          1   -1    0    0  501    0  0.00000000000E+00  0.00000000000E+00  0.12928523912E+02  0.12928523912E+02  0.00000000000E+00 0. -1.
         -1   -1    0    0    0  501 -0.00000000000E+00 -0.00000000000E+00 -0.15531743020E+03  0.15531743020E+03  0.00000000000E+00 0.  1.
         23    2    1    2    0    0  0.00000000000E+00  0.00000000000E+00 -0.14238890628E+03  0.16824595411E+03  0.89621986371E+02 0.  0.
        -11    1    3    3    0    0 -0.22274085579E+02 -0.37524810722E+02 -0.90318702192E+02  0.10030809675E+03  0.00000000000E+00 0.  1.
         11    1    3    3    0    0  0.22274085579E+02  0.37524810722E+02 -0.52070204093E+02  0.67937857358E+02  0.00000000000E+00 0. -1.
<mgrwt>
<rscale>  0 0.89621986E+02</rscale>
<asrwt>0</asrwt>
<pdfrwt beam="1">  1        1 0.19890037E-02 0.89621986E+02</pdfrwt>
<pdfrwt beam="2">  1       -1 0.23894989E-01 0.89621986E+02</pdfrwt>
<totfact> 0.77558201E+04</totfact>
</mgrwt>
</event>
<event>
 5    1  0.1310593E+001  0.9511616E+02  0.7546771E-02  0.1290915E+00
          1   -1    0    0  501    0  0.00000000000E+00  0.00000000000E+00  0.11152879955E+03  0.11152879955E+03  0.00000000000E+00 0. -1.
         -1   -1    0    0    0  501 -0.00000000000E+00 -0.00000000000E+00 -0.20279701789E+02  0.20279701789E+02  0.00000000000E+00 0.  1.
         23    2    1    2    0    0  0.00000000000E+00  0.00000000000E+00  0.91249097757E+02  0.13180850133E+03  0.95116156264E+02 0.  0.
        -13    1    3    3    0    0  0.20956209234E+02  0.14807098380E+02 -0.98641283734E+01  0.27490250935E+02  0.00000000000E+00 0.  1.
         13    1    3    3    0    0 -0.20956209234E+02 -0.14807098380E+02  0.10111322613E+03  0.10431825040E+03  0.00000000000E+00 0. -1.
<mgrwt>
<rscale>  0 0.95116156E+02</rscale>
<asrwt>0</asrwt>
<pdfrwt beam="1">  1        1 0.17158277E-01 0.95116156E+02</pdfrwt>
<pdfrwt beam="2">  1       -1 0.31199542E-02 0.95116156E+02</pdfrwt>
<totfact> 0.94798356E+04</totfact>
</mgrwt>
</event>
<event>
 5    1  0.1310593E+001  0.9146475E+02  0.7546771E-02  0.1299343E+00
          2   -1    0    0  501    0  0.00000000000E+00  0.00000000000E+00  0.67108262732E+02  0.67108262732E+02  0.00000000000E+00 0. -1.
         -2   -1    0    0    0  501 -0.00000000000E+00 -0.00000000000E+00 -0.31165313593E+02  0.31165313593E+02  0.00000000000E+00 0.  1.
         23    2    1    2    0    0  0.00000000000E+00  0.00000000000E+00  0.35942949139E+02  0.98273576326E+02  0.91464748461E+02 0.  0.
        -13    1    3    3    0    0 -0.14351727692E+01  0.45458538476E+02  0.23114407195E+02  0.51017783774E+02  0.00000000000E+00 0.  1.
         13    1    3    3    0    0  0.14351727692E+01 -0.45458538476E+02  0.12828541944E+02  0.47255792551E+02  0.00000000000E+00 0. -1.
<mgrwt>
<rscale>  0 0.91464748E+02</rscale>
<asrwt>0</asrwt>
<pdfrwt beam="1">  1        2 0.10324348E-01 0.91464748E+02</pdfrwt>
<pdfrwt beam="2">  1       -2 0.47946636E-02 0.91464748E+02</pdfrwt>
<totfact> 0.10837680E+05</totfact>
</mgrwt>
</event>
<event>
 5    1  0.1310593E+001  0.9155153E+02  0.7546771E-02  0.1299137E+00
         -1   -1    0    0    0  501 -0.00000000000E+00  0.00000000000E+00  0.12662724203E+02  0.12662724203E+02  0.00000000000E+00 0.  1.
          1   -1    0    0  501    0  0.00000000000E+00 -0.00000000000E+00 -0.16547945968E+03  0.16547945968E+03  0.00000000000E+00 0. -1.
         23    2    1    2    0    0  0.00000000000E+00  0.00000000000E+00 -0.15281673547E+03  0.17814218388E+03  0.91551532137E+02 0.  0.
        -13    1    3    3    0    0 -0.37349684602E+02  0.20111831305E+02 -0.10988178874E+03  0.11778578944E+03  0.00000000000E+00 0. -1.
         13    1    3    3    0    0  0.37349684602E+02 -0.20111831305E+02 -0.42934946736E+02  0.60356394438E+02  0.00000000000E+00 0.  1.
<mgrwt>
<rscale>  0 0.91551532E+02</rscale>
<asrwt>0</asrwt>
<pdfrwt beam="2">  1        1 0.25458377E-01 0.91551532E+02</pdfrwt>
<pdfrwt beam="1">  1       -1 0.19481115E-02 0.91551532E+02</pdfrwt>
<totfact> 0.11294094E+05</totfact>
</mgrwt>
</event>
<event>
 5    1  0.1310593E+001  0.6362594E+02  0.7546771E-02  0.1383216E+00
          1   -1    0    0  501    0  0.00000000000E+00  0.00000000000E+00  0.79927928729E+01  0.79927928729E+01  0.00000000000E+00 0. -1.
         -1   -1    0    0    0  501 -0.00000000000E+00 -0.00000000000E+00 -0.12662219587E+03  0.12662219587E+03  0.00000000000E+00 0.  1.
         23    2    1    2    0    0  0.00000000000E+00  0.00000000000E+00 -0.11862940300E+03  0.13461498875E+03  0.63625937627E+02 0.  0.
        -13    1    3    3    0    0 -0.10509460710E+01 -0.22739251807E+02 -0.12295744839E+02  0.25872058317E+02  0.00000000000E+00 0. -1.
         13    1    3    3    0    0  0.10509460710E+01  0.22739251807E+02 -0.10633365816E+03  0.10874293043E+03  0.00000000000E+00 0.  1.
<mgrwt>
<rscale>  0 0.63625938E+02</rscale>
<asrwt>0</asrwt>
<pdfrwt beam="1">  1        1 0.12296604E-02 0.63625938E+02</pdfrwt>
<pdfrwt beam="2">  1       -1 0.19480338E-01 0.63625938E+02</pdfrwt>
<totfact> 0.19512837E+05</totfact>
</mgrwt>
</event>
<event>
 5    1  0.1310593E+001  0.9077341E+02  0.7546771E-02  0.1300989E+00
          1   -1    0    0  501    0  0.00000000000E+00  0.00000000000E+00  0.18501110028E+03  0.18501110028E+03  0.00000000000E+00 0.  1.
         -1   -1    0    0    0  501 -0.00000000000E+00 -0.00000000000E+00 -0.11134214125E+02  0.11134214125E+02  0.00000000000E+00 0. -1.
         23    2    1    2    0    0  0.00000000000E+00  0.00000000000E+00  0.17387688615E+03  0.19614531440E+03  0.90773414740E+02 0.  0.
        -13    1    3    3    0    0 -0.11778181570E+02  0.40278620690E+02  0.49583040379E+02  0.64958223028E+02  0.00000000000E+00 0.  1.
         13    1    3    3    0    0  0.11778181570E+02 -0.40278620690E+02  0.12429384577E+03  0.13118709137E+03  0.00000000000E+00 0. -1.
<mgrwt>
<rscale>  0 0.90773415E+02</rscale>
<asrwt>0</asrwt>
<pdfrwt beam="1">  1        1 0.28463244E-01 0.90773415E+02</pdfrwt>
<pdfrwt beam="2">  1       -1 0.17129562E-02 0.90773415E+02</pdfrwt>
<totfact> 0.11803524E+05</totfact>
</mgrwt>
</event>
<event>
 5    1  0.1310593E+001  0.8849885E+02  0.7546771E-02  0.1306528E+00
         -1   -1    0    0    0  501 -0.00000000000E+00  0.00000000000E+00  0.23254367728E+02  0.23254367728E+02  0.00000000000E+00 0.  1.
          1   -1    0    0  501    0  0.00000000000E+00 -0.00000000000E+00 -0.84199729679E+02  0.84199729679E+02  0.00000000000E+00 0. -1.
         23    2    1    2    0    0  0.00000000000E+00  0.00000000000E+00 -0.60945361951E+02  0.10745409741E+03  0.88498846921E+02 0.  0.
        -13    1    3    3    0    0 -0.34897750776E+02  0.10501886217E+02 -0.16139107597E-04  0.36443691132E+02  0.00000000000E+00 0.  1.
         13    1    3    3    0    0  0.34897750776E+02 -0.10501886217E+02 -0.60945345812E+02  0.71010406276E+02  0.00000000000E+00 0. -1.
<mgrwt>
<rscale>  0 0.88498847E+02</rscale>
<asrwt>0</asrwt>
<pdfrwt beam="2">  1        1 0.12953805E-01 0.88498847E+02</pdfrwt>
<pdfrwt beam="1">  1       -1 0.35775950E-02 0.88498847E+02</pdfrwt>
<totfact> 0.11018519E+05</totfact>
</mgrwt>
</event>
<event>
 5    1  0.1310593E+001  0.9064573E+02  0.7546771E-02  0.1301295E+00
          3   -1    0    0  501    0  0.00000000000E+00  0.00000000000E+00  0.15557491538E+03  0.15557491538E+03  0.00000000000E+00 0. -1.
         -3   -1    0    0    0  501 -0.00000000000E+00 -0.00000000000E+00 -0.13203685000E+02  0.13203685000E+02  0.00000000000E+00 0.  1.
         23    2    1    2    0    0  0.00000000000E+00  0.00000000000E+00  0.14237123038E+03  0.16877860038E+03  0.90645731869E+02 0.  0.
        -13    1    3    3    0    0 -0.25207786069E+02 -0.26248611628E+02  0.12148400971E+03  0.12681792738E+03  0.00000000000E+00 0. -1.
         13    1    3    3    0    0  0.25207786069E+02  0.26248611628E+02  0.20887220671E+02  0.41960672996E+02  0.00000000000E+00 0.  1.
<mgrwt>
<rscale>  0 0.90645732E+02</rscale>
<asrwt>0</asrwt>
<pdfrwt beam="1">  1        3 0.23934601E-01 0.90645732E+02</pdfrwt>
<pdfrwt beam="2">  1       -3 0.20313363E-02 0.90645732E+02</pdfrwt>
<totfact> 0.30676531E+04</totfact>
</mgrwt>
</event>
<event>
 5    1  0.1310593E+001  0.9304165E+02  0.7546771E-02  0.1295649E+00
         -2   -1    0    0    0  501 -0.00000000000E+00  0.00000000000E+00  0.83369256423E+01  0.83369256423E+01  0.00000000000E+00 0.  1.
          2   -1    0    0  501    0  0.00000000000E+00 -0.00000000000E+00 -0.25959057977E+03  0.25959057977E+03  0.00000000000E+00 0. -1.
         23    2    1    2    0    0  0.00000000000E+00  0.00000000000E+00 -0.25125365413E+03  0.26792750541E+03  0.93041654349E+02 0.  0.
        -13    1    3    3    0    0  0.29681209897E+02 -0.34425740797E+02 -0.15414577167E+03  0.16070788647E+03  0.00000000000E+00 0. -1.
         13    1    3    3    0    0 -0.29681209897E+02  0.34425740797E+02 -0.97107882460E+02  0.10721961894E+03  0.00000000000E+00 0.  1.
<mgrwt>
<rscale>  0 0.93041654E+02</rscale>
<asrwt>0</asrwt>
<pdfrwt beam="2">  1        2 0.39937009E-01 0.93041654E+02</pdfrwt>
<pdfrwt beam="1">  1       -2 0.12826040E-02 0.93041654E+02</pdfrwt>
<totfact> 0.16122918E+05</totfact>
</mgrwt>
</event>
<event>
 5    1  0.1310593E+001  0.9385104E+02  0.7546771E-02  0.1293785E+00
          3   -1    0    0  501    0  0.00000000000E+00  0.00000000000E+00  0.18048340150E+02  0.18048340150E+02  0.00000000000E+00 0. -1.
         -3   -1    0    0    0  501 -0.00000000000E+00 -0.00000000000E+00 -0.12200592530E+03  0.12200592530E+03  0.00000000000E+00 0.  1.
         23    2    1    2    0    0  0.00000000000E+00  0.00000000000E+00 -0.10395758514E+03  0.14005426545E+03  0.93851040273E+02 0.  0.
        -13    1    3    3    0    0 -0.21449310639E+02  0.28242162611E+02 -0.97836775611E+02  0.10406597589E+03  0.00000000000E+00 0.  1.
         13    1    3    3    0    0  0.21449310639E+02 -0.28242162611E+02 -0.61208095342E+01  0.35988289556E+02  0.00000000000E+00 0. -1.
<mgrwt>
<rscale>  0 0.93851040E+02</rscale>
<asrwt>0</asrwt>
<pdfrwt beam="1">  1        3 0.27766678E-02 0.93851040E+02</pdfrwt>
<pdfrwt beam="2">  1       -3 0.18770142E-01 0.93851040E+02</pdfrwt>
<totfact> 0.29514763E+04</totfact>
</mgrwt>
</event>
<event>
 5    1  0.1310593E+001  0.9241635E+02  0.7546771E-02  0.1297103E+00
         -1   -1    0    0    0  501 -0.00000000000E+00  0.00000000000E+00  0.15379909058E+02  0.15379909058E+02  0.00000000000E+00 0.  1.
          1   -1    0    0  501    0  0.00000000000E+00 -0.00000000000E+00 -0.13883016391E+03  0.13883016391E+03  0.00000000000E+00 0. -1.
         23    2    1    2    0    0  0.00000000000E+00  0.00000000000E+00 -0.12345025485E+03  0.15421007297E+03  0.92416346940E+02 0.  0.
        -11    1    3    3    0    0 -0.23191103655E+02 -0.38512455567E+02 -0.79553782828E+02  0.91377463768E+02  0.00000000000E+00 0. -1.
         11    1    3    3    0    0  0.23191103655E+02  0.38512455567E+02 -0.43896472022E+02  0.62832609197E+02  0.00000000000E+00 0.  1.
<mgrwt>
<rscale>  0 0.92416347E+02</rscale>
<asrwt>0</asrwt>
<pdfrwt beam="2">  1        1 0.21358487E-01 0.92416347E+02</pdfrwt>
<pdfrwt beam="1">  1       -1 0.23661398E-02 0.92416347E+02</pdfrwt>
<totfact> 0.10659371E+05</totfact>
</mgrwt>
</event>
<event>
 5    1  0.1310593E+001  0.8414116E+02  0.7546771E-02  0.1317694E+00
         -1   -1    0    0    0  501 -0.00000000000E+00  0.00000000000E+00  0.56875119483E+01  0.56875119483E+01  0.00000000000E+00 0.  1.
          1   -1    0    0  501    0  0.00000000000E+00 -0.00000000000E+00 -0.31119651580E+03  0.31119651580E+03  0.00000000000E+00 0. -1.
         23    2    1    2    0    0  0.00000000000E+00  0.00000000000E+00 -0.30550900385E+03  0.31688402775E+03  0.84141164763E+02 0.  0.
        -11    1    3    3    0    0  0.78889474266E+01 -0.39530221790E+02 -0.10739527647E+03  0.11471102534E+03  0.00000000000E+00 0. -1.
         11    1    3    3    0    0 -0.78889474266E+01  0.39530221790E+02 -0.19811372738E+03  0.20217300241E+03  0.00000000000E+00 0.  1.
<mgrwt>
<rscale>  0 0.84141165E+02</rscale>
<asrwt>0</asrwt>
<pdfrwt beam="2">  1        1 0.47876385E-01 0.84141165E+02</pdfrwt>
<pdfrwt beam="1">  1       -1 0.87500187E-03 0.84141165E+02</pdfrwt>
<totfact> 0.15962333E+05</totfact>
</mgrwt>
</event>
<event>
 5    1  0.1310593E+001  0.8705620E+02  0.7546771E-02  0.1310141E+00
         -2   -1    0    0    0  501 -0.00000000000E+00  0.00000000000E+00  0.12799878000E+02  0.12799878000E+02  0.00000000000E+00 0. -1.
          2   -1    0    0  501    0  0.00000000000E+00 -0.00000000000E+00 -0.14802450207E+03  0.14802450207E+03  0.00000000000E+00 0.  1.
         23    2    1    2    0    0  0.00000000000E+00  0.00000000000E+00 -0.13522462407E+03  0.16082438007E+03  0.87056201792E+02 0.  0.
        -11    1    3    3    0    0 -0.28580125739E+02 -0.15619677853E+02 -0.12095913301E+03  0.12526735322E+03  0.00000000000E+00 0.  1.
         11    1    3    3    0    0  0.28580125739E+02  0.15619677853E+02 -0.14265491060E+02  0.35557026853E+02  0.00000000000E+00 0. -1.
<mgrwt>
<rscale>  0 0.87056202E+02</rscale>
<asrwt>0</asrwt>
<pdfrwt beam="2">  1        2 0.22773000E-01 0.87056202E+02</pdfrwt>
<pdfrwt beam="1">  1       -2 0.19692121E-02 0.87056202E+02</pdfrwt>
<totfact> 0.15773014E+05</totfact>
</mgrwt>
</event>
<event>
 5    1  0.1310593E+001  0.9548615E+02  0.7546771E-02  0.1290085E+00
         -1   -1    0    0    0  501 -0.00000000000E+00  0.00000000000E+00  0.16289518344E+02  0.16289518344E+02  0.00000000000E+00 0.  1.
          1   -1    0    0  501    0  0.00000000000E+00 -0.00000000000E+00 -0.13993053934E+03  0.13993053934E+03  0.00000000000E+00 0. -1.
         23    2    1    2    0    0  0.00000000000E+00  0.00000000000E+00 -0.12364102100E+03  0.15622005769E+03  0.95486147425E+02 0.  0.
        -13    1    3    3    0    0  0.41567687213E+02  0.18230573919E+02 -0.37599538066E+02  0.58940238449E+02  0.00000000000E+00 0.  1.
         13    1    3    3    0    0 -0.41567687213E+02 -0.18230573919E+02 -0.86041482933E+02  0.97279819238E+02  0.00000000000E+00 0. -1.
<mgrwt>
<rscale>  0 0.95486147E+02</rscale>
<asrwt>0</asrwt>
<pdfrwt beam="2">  1        1 0.21527775E-01 0.95486147E+02</pdfrwt>
<pdfrwt beam="1">  1       -1 0.25060797E-02 0.95486147E+02</pdfrwt>
<totfact> 0.97688646E+04</totfact>
</mgrwt>
</event>
<event>
 5    1  0.1310593E+001  0.9165615E+02  0.7546771E-02  0.1298890E+00
          2   -1    0    0  501    0  0.00000000000E+00  0.00000000000E+00  0.20731339680E+03  0.20731339680E+03  0.00000000000E+00 0.  1.
         -2   -1    0    0    0  501 -0.00000000000E+00 -0.00000000000E+00 -0.10130616648E+02  0.10130616648E+02  0.00000000000E+00 0. -1.
         23    2    1    2    0    0  0.00000000000E+00  0.00000000000E+00  0.19718278015E+03  0.21744401345E+03  0.91656151979E+02 0.  0.
        -11    1    3    3    0    0  0.44684237585E+02  0.69155223021E+01  0.11629821796E+03  0.12477892866E+03  0.00000000000E+00 0. -1.
         11    1    3    3    0    0 -0.44684237585E+02 -0.69155223021E+01  0.80884562191E+02  0.92665084785E+02  0.00000000000E+00 0.  1.
<mgrwt>
<rscale>  0 0.91656152E+02</rscale>
<asrwt>0</asrwt>
<pdfrwt beam="1">  1        2 0.31894366E-01 0.91656152E+02</pdfrwt>
<pdfrwt beam="2">  1       -2 0.15585566E-02 0.91656152E+02</pdfrwt>
<totfact> 0.15450988E+05</totfact>
</mgrwt>
</event>
<event>
 5    1  0.1310593E+001  0.9060434E+02  0.7546771E-02  0.1301395E+00
         -4   -1    0    0    0  501 -0.00000000000E+00  0.00000000000E+00  0.37960546603E+02  0.37960546603E+02  0.00000000000E+00 0.  1.
          4   -1    0    0  501    0  0.00000000000E+00 -0.00000000000E+00 -0.54063672058E+02  0.54063672058E+02  0.00000000000E+00 0. -1.
         23    2    1    2    0    0  0.00000000000E+00  0.00000000000E+00 -0.16103125455E+02  0.92024218662E+02  0.90604338587E+02 0.  0.
        -11    1    3    3    0    0  0.22904541425E+02  0.28008155108E+02  0.19637575186E+02  0.41166845029E+02  0.00000000000E+00 0.  1.
         11    1    3    3    0    0 -0.22904541425E+02 -0.28008155108E+02 -0.35740700642E+02  0.50857373632E+02  0.00000000000E+00 0. -1.
<mgrwt>
<rscale>  0 0.90604339E+02</rscale>
<asrwt>0</asrwt>
<pdfrwt beam="2">  1        4 0.83174880E-02 0.90604339E+02</pdfrwt>
<pdfrwt beam="1">  1       -4 0.58400841E-02 0.90604339E+02</pdfrwt>
<totfact> 0.27426150E+04</totfact>
</mgrwt>
</event>
<event>
 5    1  0.1310593E+001  0.9312004E+02  0.7546771E-02  0.1295467E+00
          1   -1    0    0  501    0  0.00000000000E+00  0.00000000000E+00  0.15923690412E+03  0.15923690412E+03  0.00000000000E+00 0. -1.
         -1   -1    0    0    0  501 -0.00000000000E+00 -0.00000000000E+00 -0.13613900756E+02  0.13613900756E+02  0.00000000000E+00 0.  1.
         23    2    1    2    0    0  0.00000000000E+00  0.00000000000E+00  0.14562300337E+03  0.17285080488E+03  0.93120038862E+02 0.  0.
        -13    1    3    3    0    0 -0.37254419483E+02  0.27835651205E+02  0.68611300989E+02  0.82886825687E+02  0.00000000000E+00 0. -1.
         13    1    3    3    0    0  0.37254419483E+02 -0.27835651205E+02  0.77011702378E+02  0.89963979193E+02  0.00000000000E+00 0.  1.
<mgrwt>
<rscale>  0 0.93120039E+02</rscale>
<asrwt>0</asrwt>
<pdfrwt beam="1">  1        1 0.24497984E-01 0.93120039E+02</pdfrwt>
<pdfrwt beam="2">  1       -1 0.20944464E-02 0.93120039E+02</pdfrwt>
<totfact> 0.10710450E+05</totfact>
</mgrwt>
</event>
<event>
 5    1  0.1310593E+001  0.9279520E+02  0.7546771E-02  0.1296220E+00
          2   -1    0    0  501    0  0.00000000000E+00  0.00000000000E+00  0.27176388291E+02  0.27176388291E+02  0.00000000000E+00 0. -1.
         -2   -1    0    0    0  501 -0.00000000000E+00 -0.00000000000E+00 -0.79213516064E+02  0.79213516064E+02  0.00000000000E+00 0.  1.
         23    2    1    2    0    0  0.00000000000E+00  0.00000000000E+00 -0.52037127773E+02  0.10638990435E+03  0.92795199669E+02 0.  0.
        -11    1    3    3    0    0 -0.13510268367E+02 -0.21932558406E+02  0.18224730317E+02  0.31554797808E+02  0.00000000000E+00 0. -1.
         11    1    3    3    0    0  0.13510268367E+02  0.21932558406E+02 -0.70261858090E+02  0.74835106546E+02  0.00000000000E+00 0.  1.
<mgrwt>
<rscale>  0 0.92795200E+02</rscale>
<asrwt>0</asrwt>
<pdfrwt beam="1">  1        2 0.41809828E-02 0.92795200E+02</pdfrwt>
<pdfrwt beam="2">  1       -2 0.12186695E-01 0.92795200E+02</pdfrwt>
<totfact> 0.81701668E+04</totfact>
</mgrwt>
</event>
<event>
 5    1  0.1310593E+001  0.9278036E+02  0.7546771E-02  0.1296255E+00
          2   -1    0    0  501    0  0.00000000000E+00  0.00000000000E+00  0.13672811714E+03  0.13672811714E+03  0.00000000000E+00 0. -1.
         -2   -1    0    0    0  501 -0.00000000000E+00 -0.00000000000E+00 -0.15739622262E+02  0.15739622262E+02  0.00000000000E+00 0.  1.
         23    2    1    2    0    0  0.00000000000E+00  0.00000000000E+00  0.12098849487E+03  0.15246773940E+03  0.92780362499E+02 0.  0.
        -13    1    3    3    0    0  0.35033058709E+02  0.20479209554E+02  0.97435522554E+02  0.10554806622E+03  0.00000000000E+00 0. -1.
         13    1    3    3    0    0 -0.35033058709E+02 -0.20479209554E+02  0.23552972320E+02  0.46919673183E+02  0.00000000000E+00 0.  1.
<mgrwt>
<rscale>  0 0.92780362E+02</rscale>
<asrwt>0</asrwt>
<pdfrwt beam="1">  1        2 0.21035094E-01 0.92780362E+02</pdfrwt>
<pdfrwt beam="2">  1       -2 0.24214804E-02 0.92780362E+02</pdfrwt>
<totfact> 0.12922715E+05</totfact>
</mgrwt>
</event>
<event>
 5    1  0.1310593E+001  0.9242381E+02  0.7546771E-02  0.1297086E+00
          1   -1    0    0  501    0  0.00000000000E+00  0.00000000000E+00  0.11207261843E+03  0.11207261843E+03  0.00000000000E+00 0. -1.
         -1   -1    0    0    0  501 -0.00000000000E+00 -0.00000000000E+00 -0.19054967479E+02  0.19054967479E+02  0.00000000000E+00 0.  1.
         23    2    1    2    0    0  0.00000000000E+00  0.00000000000E+00  0.93017650954E+02  0.13112758591E+03  0.92423808611E+02 0.  0.
        -11    1    3    3    0    0 -0.39742476304E+02  0.16414565915E+02  0.22488612049E+02  0.48524633630E+02  0.00000000000E+00 0. -1.
         11    1    3    3    0    0  0.39742476304E+02 -0.16414565915E+02  0.70529038905E+02  0.82602952283E+02  0.00000000000E+00 0.  1.
<mgrwt>
<rscale>  0 0.92423809E+02</rscale>
<asrwt>0</asrwt>
<pdfrwt beam="1">  1        1 0.17241941E-01 0.92423809E+02</pdfrwt>
<pdfrwt beam="2">  1       -1 0.29315335E-02 0.92423809E+02</pdfrwt>
<totfact> 0.10261297E+05</totfact>
</mgrwt>
</event>
<event>
 5    1  0.1310593E+001  0.9562644E+02  0.7546771E-02  0.1289771E+00
         -1   -1    0    0    0  501 -0.00000000000E+00  0.00000000000E+00  0.17221736171E+02  0.17221736171E+02  0.00000000000E+00 0.  1.
          1   -1    0    0  501    0  0.00000000000E+00 -0.00000000000E+00 -0.13274525946E+03  0.13274525946E+03  0.00000000000E+00 0. -1.
         23    2    1    2    0    0  0.00000000000E+00  0.00000000000E+00 -0.11552352329E+03  0.14996699564E+03  0.95626436439E+02 0.  0.
        -13    1    3    3    0    0 -0.35438475526E+02  0.18627684239E+02 -0.16769635731E+02  0.43406184470E+02  0.00000000000E+00 0.  1.
         13    1    3    3    0    0  0.35438475526E+02 -0.18627684239E+02 -0.98753887561E+02  0.10656081117E+03  0.00000000000E+00 0. -1.
<mgrwt>
<rscale>  0 0.95626436E+02</rscale>
<asrwt>0</asrwt>
<pdfrwt beam="2">  1        1 0.20422347E-01 0.95626436E+02</pdfrwt>
<pdfrwt beam="1">  1       -1 0.26494979E-02 0.95626436E+02</pdfrwt>
<totfact> 0.96365159E+04</totfact>
</mgrwt>
</event>
<event>
 5    1  0.1310593E+001  0.8444226E+02  0.7546771E-02  0.1316898E+00
         -2   -1    0    0    0  501 -0.00000000000E+00  0.00000000000E+00  0.15078872975E+03  0.15078872975E+03  0.00000000000E+00 0.  1.
          2   -1    0    0  501    0  0.00000000000E+00 -0.00000000000E+00 -0.11821997403E+02  0.11821997403E+02  0.00000000000E+00 0. -1.
         23    2    1    2    0    0  0.00000000000E+00  0.00000000000E+00  0.13896673234E+03  0.16261072715E+03  0.84442263622E+02 0.  0.
        -13    1    3    3    0    0 -0.58624508591E+01 -0.31425343304E+02  0.12259589930E+03  0.12669520535E+03  0.00000000000E+00 0.  1.
         13    1    3    3    0    0  0.58624508591E+01  0.31425343304E+02  0.16370833039E+02  0.35915521801E+02  0.00000000000E+00 0. -1.
<mgrwt>
<rscale>  0 0.84442264E+02</rscale>
<asrwt>0</asrwt>
<pdfrwt beam="2">  1        2 0.18187689E-02 0.84442264E+02</pdfrwt>
<pdfrwt beam="1">  1       -2 0.23198265E-01 0.84442264E+02</pdfrwt>
<totfact> 0.84653258E+04</totfact>
</mgrwt>
</event>
<event>
 5    1  0.1310593E+001  0.9104225E+02  0.7546771E-02  0.1300347E+00
         -2   -1    0    0    0  501 -0.00000000000E+00  0.00000000000E+00  0.78222994015E+01  0.78222994015E+01  0.00000000000E+00 0.  1.
          2   -1    0    0  501    0  0.00000000000E+00 -0.00000000000E+00 -0.26490587007E+03  0.26490587007E+03  0.00000000000E+00 0. -1.
         23    2    1    2    0    0  0.00000000000E+00  0.00000000000E+00 -0.25708357066E+03  0.27272816947E+03  0.91042254561E+02 0.  0.
        -11    1    3    3    0    0  0.37679511173E+02  0.25132062389E+02 -0.14220619121E+03  0.14924465465E+03  0.00000000000E+00 0.  1.
         11    1    3    3    0    0 -0.37679511173E+02 -0.25132062389E+02 -0.11487737945E+03  0.12348351482E+03  0.00000000000E+00 0. -1.
<mgrwt>
<rscale>  0 0.91042255E+02</rscale>
<asrwt>0</asrwt>
<pdfrwt beam="2">  1        2 0.40754751E-01 0.91042255E+02</pdfrwt>
<pdfrwt beam="1">  1       -2 0.12034306E-02 0.91042255E+02</pdfrwt>
<totfact> 0.17219277E+05</totfact>
</mgrwt>
</event>
<event>
 5    1  0.1310593E+001  0.9117584E+02  0.7546771E-02  0.1300029E+00
         -1   -1    0    0    0  501 -0.00000000000E+00  0.00000000000E+00  0.74461142369E+01  0.74461142369E+01  0.00000000000E+00 0.  1.
          1   -1    0    0  501    0  0.00000000000E+00 -0.00000000000E+00 -0.27910642998E+03  0.27910642998E+03  0.00000000000E+00 0. -1.
         23    2    1    2    0    0  0.00000000000E+00  0.00000000000E+00 -0.27166031574E+03  0.28655254421E+03  0.91175838068E+02 0.  0.
        -13    1    3    3    0    0 -0.35978138215E+02  0.27227167433E+02 -0.11533804015E+03  0.12384913637E+03  0.00000000000E+00 0. -1.
         13    1    3    3    0    0  0.35978138215E+02 -0.27227167433E+02 -0.15632227559E+03  0.16270340784E+03  0.00000000000E+00 0.  1.
<mgrwt>
<rscale>  0 0.91175838E+02</rscale>
<asrwt>0</asrwt>
<pdfrwt beam="2">  1        1 0.42939450E-01 0.91175838E+02</pdfrwt>
<pdfrwt beam="1">  1       -1 0.11455561E-02 0.91175838E+02</pdfrwt>
<totfact> 0.12635848E+05</totfact>
</mgrwt>
</event>
<event>
 5    1  0.1310593E+001  0.8876679E+02  0.7546771E-02  0.1305866E+00
          1   -1    0    0  501    0  0.00000000000E+00  0.00000000000E+00  0.19170865721E+02  0.19170865721E+02  0.00000000000E+00 0. -1.
         -1   -1    0    0    0  501 -0.00000000000E+00 -0.00000000000E+00 -0.10275413725E+03  0.10275413725E+03  0.00000000000E+00 0.  1.
         23    2    1    2    0    0  0.00000000000E+00  0.00000000000E+00 -0.83583271531E+02  0.12192500297E+03  0.88766790357E+02 0.  0.
        -11    1    3    3    0    0  0.14809164852E+02 -0.41827428916E+02 -0.40390491131E+02  0.60001974527E+02  0.00000000000E+00 0. -1.
         11    1    3    3    0    0 -0.14809164852E+02  0.41827428916E+02 -0.43192780400E+02  0.61923028447E+02  0.00000000000E+00 0.  1.
<mgrwt>
<rscale>  0 0.88766790E+02</rscale>
<asrwt>0</asrwt>
<pdfrwt beam="1">  1        1 0.29493640E-02 0.88766790E+02</pdfrwt>
<pdfrwt beam="2">  1       -1 0.15808329E-01 0.88766790E+02</pdfrwt>
<totfact> 0.86735639E+04</totfact>
</mgrwt>
</event>
<event>
 5    1  0.1310593E+001  0.1010158E+03  0.7546771E-02  0.1278174E+00
         -2   -1    0    0    0  501 -0.00000000000E+00  0.00000000000E+00  0.55572592286E+02  0.55572592286E+02  0.00000000000E+00 0.  1.
          2   -1    0    0  501    0  0.00000000000E+00 -0.00000000000E+00 -0.45904803155E+02  0.45904803155E+02  0.00000000000E+00 0. -1.
         23    2    1    2    0    0  0.00000000000E+00  0.00000000000E+00  0.96677891313E+01  0.10147739544E+03  0.10101581876E+03 0.  0.
        -11    1    3    3    0    0  0.17958792593E+01  0.29676252775E+02  0.45851135883E+02  0.54646425526E+02  0.00000000000E+00 0.  1.
         11    1    3    3    0    0 -0.17958792593E+01 -0.29676252775E+02 -0.36183346752E+02  0.46830969915E+02  0.00000000000E+00 0. -1.
<mgrwt>
<rscale>  0 0.10101582E+03</rscale>
<asrwt>0</asrwt>
<pdfrwt beam="2">  1        2 0.70622774E-02 0.10101582E+03</pdfrwt>
<pdfrwt beam="1">  1       -2 0.85496296E-02 0.10101582E+03</pdfrwt>
<totfact> 0.73429039E+04</totfact>
</mgrwt>
</event>
<event>
 5    1  0.1310593E+001  0.9476010E+02  0.7546771E-02  0.1291717E+00
          2   -1    0    0  501    0  0.00000000000E+00  0.00000000000E+00  0.45144939034E+02  0.45144939034E+02  0.00000000000E+00 0. -1.
         -2   -1    0    0    0  501 -0.00000000000E+00 -0.00000000000E+00 -0.49725815667E+02  0.49725815667E+02  0.00000000000E+00 0.  1.
         23    2    1    2    0    0  0.00000000000E+00  0.00000000000E+00 -0.45808766329E+01  0.94870754702E+02  0.94760095330E+02 0.  0.
        -11    1    3    3    0    0 -0.39310927656E+02  0.25484806912E+02  0.47920365892E+01  0.47093396896E+02  0.00000000000E+00 0. -1.
         11    1    3    3    0    0  0.39310927656E+02 -0.25484806912E+02 -0.93729132220E+01  0.47777357805E+02  0.00000000000E+00 0.  1.
<mgrwt>
<rscale>  0 0.94760095E+02</rscale>
<asrwt>0</asrwt>
<pdfrwt beam="1">  1        2 0.69453753E-02 0.94760095E+02</pdfrwt>
<pdfrwt beam="2">  1       -2 0.76501255E-02 0.94760095E+02</pdfrwt>
<totfact> 0.88063400E+04</totfact>
</mgrwt>
</event>
<event>
 4    1  0.1310593E+001  0.4832961E+02  0.7546771E-02  0.1454565E+00
          2   -1    0    0  501    0  0.00000000000E+00  0.00000000000E+00  0.11224892101E+03  0.11224892101E+03  0.00000000000E+00 0. -1.
         -2   -1    0    0    0  501 -0.00000000000E+00 -0.00000000000E+00 -0.52021684215E+01  0.52021684215E+01  0.00000000000E+00 0.  1.
        -11    1    1    2    0    0 -0.20559961757E+02  0.12418684869E+02  0.59954039631E+02  0.64586551459E+02  0.00000000000E+00 0. -1.
         11    1    1    2    0    0  0.20559961757E+02 -0.12418684869E+02  0.47092712957E+02  0.52864537972E+02  0.00000000000E+00 0.  1.
<mgrwt>
<rscale>  0 0.48329610E+02</rscale>
<asrwt>0</asrwt>
<pdfrwt beam="1">  1        2 0.17269063E-01 0.48329610E+02</pdfrwt>
<pdfrwt beam="2">  1       -2 0.80033369E-03 0.48329610E+02</pdfrwt>
<totfact> 0.67268826E+05</totfact>
</mgrwt>
</event>
<event>
 5    1  0.1310593E+001  0.9159264E+02  0.7546771E-02  0.1299040E+00
          4   -1    0    0  501    0  0.00000000000E+00  0.00000000000E+00  0.23657885333E+02  0.23657885333E+02  0.00000000000E+00 0. -1.
         -4   -1    0    0    0  501 -0.00000000000E+00 -0.00000000000E+00 -0.88651333895E+02  0.88651333895E+02  0.00000000000E+00 0.  1.
         23    2    1    2    0    0  0.00000000000E+00  0.00000000000E+00 -0.64993448562E+02  0.11230921923E+03  0.91592643632E+02 0.  0.
        -11    1    3    3    0    0 -0.53256214661E+01 -0.37566348941E+02 -0.10502379123E+01  0.37956499002E+02  0.00000000000E+00 0. -1.
         11    1    3    3    0    0  0.53256214661E+01  0.37566348941E+02 -0.63943210650E+02  0.74352720226E+02  0.00000000000E+00 0.  1.
<mgrwt>
<rscale>  0 0.91592644E+02</rscale>
<asrwt>0</asrwt>
<pdfrwt beam="1">  1        4 0.36396746E-02 0.91592644E+02</pdfrwt>
<pdfrwt beam="2">  1       -4 0.13638667E-01 0.91592644E+02</pdfrwt>
<totfact> 0.25401192E+04</totfact>
</mgrwt>
</event>
<event>
 5    1  0.1310593E+001  0.9124549E+02  0.7546771E-02  0.1299863E+00
         -2   -1    0    0    0  501 -0.00000000000E+00  0.00000000000E+00  0.13349426595E+03  0.13349426595E+03  0.00000000000E+00 0.  1.
          2   -1    0    0  501    0  0.00000000000E+00 -0.00000000000E+00 -0.15591942995E+02  0.15591942995E+02  0.00000000000E+00 0. -1.
         23    2    1    2    0    0  0.00000000000E+00  0.00000000000E+00  0.11790232296E+03  0.14908620895E+03  0.91245492709E+02 0.  0.
        -11    1    3    3    0    0 -0.35334023379E+02 -0.70274987528E+01  0.10468746713E+03  0.11071289320E+03  0.00000000000E+00 0.  1.
         11    1    3    3    0    0  0.35334023379E+02  0.70274987528E+01  0.13214855828E+02  0.38373315747E+02  0.00000000000E+00 0. -1.
<mgrwt>
<rscale>  0 0.91245493E+02</rscale>
<asrwt>0</asrwt>
<pdfrwt beam="2">  1        2 0.23987606E-02 0.91245493E+02</pdfrwt>
<pdfrwt beam="1">  1       -2 0.20537579E-01 0.91245493E+02</pdfrwt>
<totfact> 0.72651117E+04</totfact>
</mgrwt>
</event>
<event>
 5    1  0.1310593E+001  0.9088799E+02  0.7546771E-02  0.1300715E+00
         -4   -1    0    0    0  501 -0.00000000000E+00  0.00000000000E+00  0.39913513739E+02  0.39913513739E+02  0.00000000000E+00 0.  1.
          4   -1    0    0  501    0  0.00000000000E+00 -0.00000000000E+00 -0.51740789544E+02  0.51740789544E+02  0.00000000000E+00 0. -1.
         23    2    1    2    0    0  0.00000000000E+00  0.00000000000E+00 -0.11827275805E+02  0.91654303283E+02  0.90887990721E+02 0.  0.
        -13    1    3    3    0    0 -0.24428131912E+02 -0.36408669416E+02 -0.17965632538E+02  0.47382367921E+02  0.00000000000E+00 0. -1.
         13    1    3    3    0    0  0.24428131912E+02  0.36408669416E+02  0.61383567326E+01  0.44271935362E+02  0.00000000000E+00 0.  1.
<mgrwt>
<rscale>  0 0.90887991E+02</rscale>
<asrwt>0</asrwt>
<pdfrwt beam="2">  1        4 0.79601215E-02 0.90887991E+02</pdfrwt>
<pdfrwt beam="1">  1       -4 0.61405406E-02 0.90887991E+02</pdfrwt>
<totfact> 0.27219240E+04</totfact>
</mgrwt>
</event>
<event>
 5    1  0.1310593E+001  0.9098664E+02  0.7546771E-02  0.1300480E+00
          1   -1    0    0  501    0  0.00000000000E+00  0.00000000000E+00  0.12912468751E+03  0.12912468751E+03  0.00000000000E+00 0. -1.
         -1   -1    0    0    0  501 -0.00000000000E+00 -0.00000000000E+00 -0.16028244276E+02  0.16028244276E+02  0.00000000000E+00 0.  1.
         23    2    1    2    0    0  0.00000000000E+00  0.00000000000E+00  0.11309644323E+03  0.14515293179E+03  0.90986637118E+02 0.  0.
        -11    1    3    3    0    0  0.27587398833E+02 -0.23639576466E+02  0.12865888880E+02  0.38541214907E+02  0.00000000000E+00 0.  1.
         11    1    3    3    0    0 -0.27587398833E+02  0.23639576466E+02  0.10023055435E+03  0.10661171688E+03  0.00000000000E+00 0. -1.
<mgrwt>
<rscale>  0 0.90986637E+02</rscale>
<asrwt>0</asrwt>
<pdfrwt beam="1">  1        1 0.19865336E-01 0.90986637E+02</pdfrwt>
<pdfrwt beam="2">  1       -1 0.24658838E-02 0.90986637E+02</pdfrwt>
<totfact> 0.10975500E+05</totfact>
</mgrwt>
</event>
<event>
 5    1  0.1310593E+001  0.9150839E+02  0.7546771E-02  0.1299239E+00
          4   -1    0    0  501    0  0.00000000000E+00  0.00000000000E+00  0.37020580374E+02  0.37020580374E+02  0.00000000000E+00 0. -1.
         -4   -1    0    0    0  501 -0.00000000000E+00 -0.00000000000E+00 -0.56548174815E+02  0.56548174815E+02  0.00000000000E+00 0.  1.
         23    2    1    2    0    0  0.00000000000E+00  0.00000000000E+00 -0.19527594441E+02  0.93568755189E+02  0.91508387610E+02 0.  0.
        -13    1    3    3    0    0  0.13681040882E+02 -0.15025129781E+02 -0.51680962084E+02  0.55532398170E+02  0.00000000000E+00 0.  1.
         13    1    3    3    0    0 -0.13681040882E+02  0.15025129781E+02  0.32153367643E+02  0.38036357020E+02  0.00000000000E+00 0. -1.
<mgrwt>
<rscale>  0 0.91508388E+02</rscale>
<asrwt>0</asrwt>
<pdfrwt beam="1">  1        4 0.56954739E-02 0.91508388E+02</pdfrwt>
<pdfrwt beam="2">  1       -4 0.86997192E-02 0.91508388E+02</pdfrwt>
<totfact> 0.26599298E+04</totfact>
</mgrwt>
</event>
<event>
 5    1  0.1310593E+001  0.9155026E+02  0.7546771E-02  0.1299140E+00
          2   -1    0    0  501    0  0.00000000000E+00  0.00000000000E+00  0.11675290361E+02  0.11675290361E+02  0.00000000000E+00 0. -1.
         -2   -1    0    0    0  501 -0.00000000000E+00 -0.00000000000E+00 -0.17946982862E+03  0.17946982862E+03  0.00000000000E+00 0.  1.
         23    2    1    2    0    0  0.00000000000E+00  0.00000000000E+00 -0.16779453826E+03  0.19114511898E+03  0.91550256366E+02 0.  0.
        -11    1    3    3    0    0 -0.23366717046E+02  0.18958265583E+02 -0.11875010287E+02  0.32348650184E+02  0.00000000000E+00 0. -1.
         11    1    3    3    0    0  0.23366717046E+02 -0.18958265583E+02 -0.15591952797E+03  0.15879646880E+03  0.00000000000E+00 0.  1.
<mgrwt>
<rscale>  0 0.91550256E+02</rscale>
<asrwt>0</asrwt>
<pdfrwt beam="1">  1        2 0.17961984E-02 0.91550256E+02</pdfrwt>
<pdfrwt beam="2">  1       -2 0.27610744E-01 0.91550256E+02</pdfrwt>
<totfact> 0.64535825E+04</totfact>
</mgrwt>
</event>
<event>
 5    1  0.1310593E+001  0.9449444E+02  0.7546771E-02  0.1292319E+00
          2   -1    0    0  501    0  0.00000000000E+00  0.00000000000E+00  0.13412082051E+03  0.13412082051E+03  0.00000000000E+00 0.  1.
         -2   -1    0    0    0  501 -0.00000000000E+00 -0.00000000000E+00 -0.16643945850E+02  0.16643945850E+02  0.00000000000E+00 0. -1.
         23    2    1    2    0    0  0.00000000000E+00  0.00000000000E+00  0.11747687466E+03  0.15076476636E+03  0.94494437378E+02 0.  0.
        -11    1    3    3    0    0 -0.42036214665E+02 -0.14352762764E+01  0.24400345153E+02  0.48625921122E+02  0.00000000000E+00 0. -1.
         11    1    3    3    0    0  0.42036214665E+02  0.14352762764E+01  0.93076529503E+02  0.10213884523E+03  0.00000000000E+00 0.  1.
<mgrwt>
<rscale>  0 0.94494437E+02</rscale>
<asrwt>0</asrwt>
<pdfrwt beam="1">  1        2 0.20633972E-01 0.94494437E+02</pdfrwt>
<pdfrwt beam="2">  1       -2 0.25606071E-02 0.94494437E+02</pdfrwt>
<totfact> 0.12212937E+05</totfact>
</mgrwt>
</event>
<event>
 5    1  0.1310593E+001  0.8541482E+02  0.7546771E-02  0.1314351E+00
          1   -1    0    0  501    0  0.00000000000E+00  0.00000000000E+00  0.33183956873E+02  0.33183956873E+02  0.00000000000E+00 0. -1.
         -1   -1    0    0    0  501 -0.00000000000E+00 -0.00000000000E+00 -0.54964000013E+02  0.54964000013E+02  0.00000000000E+00 0.  1.
         23    2    1    2    0    0  0.00000000000E+00  0.00000000000E+00 -0.21780043141E+02  0.88147956886E+02  0.85414823210E+02 0.  0.
        -11    1    3    3    0    0 -0.30035508372E+01  0.30998410324E+02  0.19268357943E+02  0.36622293457E+02  0.00000000000E+00 0. -1.
         11    1    3    3    0    0  0.30035508372E+01 -0.30998410324E+02 -0.41048401084E+02  0.51525663429E+02  0.00000000000E+00 0.  1.
<mgrwt>
<rscale>  0 0.85414823E+02</rscale>
<asrwt>0</asrwt>
<pdfrwt beam="1">  1        1 0.51052242E-02 0.85414823E+02</pdfrwt>
<pdfrwt beam="2">  1       -1 0.84559998E-02 0.85414823E+02</pdfrwt>
<totfact> 0.10599199E+05</totfact>
</mgrwt>
</event>
<event>
 5    1  0.1310593E+001  0.6910371E+02  0.7546771E-02  0.1363168E+00
         -1   -1    0    0    0  501 -0.00000000000E+00  0.00000000000E+00  0.48890900162E+02  0.48890900162E+02  0.00000000000E+00 0.  1.
          1   -1    0    0  501    0  0.00000000000E+00 -0.00000000000E+00 -0.24418257070E+02  0.24418257070E+02  0.00000000000E+00 0. -1.
         23    2    1    2    0    0  0.00000000000E+00  0.00000000000E+00  0.24472643091E+02  0.73309157232E+02  0.69103706660E+02 0.  0.
        -13    1    3    3    0    0 -0.12288712130E+02 -0.28568805048E+02 -0.37344759291E+01  0.31323080598E+02  0.00000000000E+00 0. -1.
         13    1    3    3    0    0  0.12288712130E+02  0.28568805048E+02  0.28207119020E+02  0.41986076634E+02  0.00000000000E+00 0.  1.
<mgrwt>
<rscale>  0 0.69103707E+02</rscale>
<asrwt>0</asrwt>
<pdfrwt beam="2">  1        1 0.37566549E-02 0.69103707E+02</pdfrwt>
<pdfrwt beam="1">  1       -1 0.75216769E-02 0.69103707E+02</pdfrwt>
<totfact> 0.18349670E+05</totfact>
</mgrwt>
</event>
<event>
 5    1  0.1310593E+001  0.9132055E+02  0.7546771E-02  0.1299685E+00
         -1   -1    0    0    0  501 -0.00000000000E+00  0.00000000000E+00  0.34946116026E+03  0.34946116026E+03  0.00000000000E+00 0.  1.
          1   -1    0    0  501    0  0.00000000000E+00 -0.00000000000E+00 -0.59659297565E+01  0.59659297565E+01  0.00000000000E+00 0. -1.
         23    2    1    2    0    0  0.00000000000E+00  0.00000000000E+00  0.34349523051E+03  0.35542709002E+03  0.91320550475E+02 0.  0.
        -13    1    3    3    0    0 -0.17136903404E+02  0.42214869148E+02  0.18348345284E+03  0.18905540484E+03  0.00000000000E+00 0. -1.
         13    1    3    3    0    0  0.17136903404E+02 -0.42214869148E+02  0.16001177767E+03  0.16637168518E+03  0.00000000000E+00 0.  1.
<mgrwt>
<rscale>  0 0.91320550E+02</rscale>
<asrwt>0</asrwt>
<pdfrwt beam="2">  1        1 0.91783562E-03 0.91320550E+02</pdfrwt>
<pdfrwt beam="1">  1       -1 0.53763239E-01 0.91320550E+02</pdfrwt>
<totfact> 0.56592284E+04</totfact>
</mgrwt>
</event>
<event>
 5    1  0.1310593E+001  0.9301124E+02  0.7546771E-02  0.1295719E+00
          1   -1    0    0  501    0  0.00000000000E+00  0.00000000000E+00  0.10322918007E+02  0.10322918007E+02  0.00000000000E+00 0. -1.
         -1   -1    0    0    0  501 -0.00000000000E+00 -0.00000000000E+00 -0.20951177576E+03  0.20951177576E+03  0.00000000000E+00 0.  1.
         23    2    1    2    0    0  0.00000000000E+00  0.00000000000E+00 -0.19918885775E+03  0.21983469377E+03  0.93011244107E+02 0.  0.
        -11    1    3    3    0    0 -0.46125396591E+02  0.17626318408E+01 -0.86200541749E+02  0.97781350366E+02  0.00000000000E+00 0.  1.
         11    1    3    3    0    0  0.46125396591E+02 -0.17626318408E+01 -0.11298831600E+03  0.12205334340E+03  0.00000000000E+00 0. -1.
<mgrwt>
<rscale>  0 0.93011244E+02</rscale>
<asrwt>0</asrwt>
<pdfrwt beam="1">  1        1 0.15881414E-02 0.93011244E+02</pdfrwt>
<pdfrwt beam="2">  1       -1 0.32232578E-01 0.93011244E+02</pdfrwt>
<totfact> 0.65021822E+04</totfact>
</mgrwt>
</event>
<event>
 5    1  0.1310593E+001  0.9043152E+02  0.7546771E-02  0.1301810E+00
          1   -1    0    0  501    0  0.00000000000E+00  0.00000000000E+00  0.10088298353E+03  0.10088298353E+03  0.00000000000E+00 0. -1.
         -1   -1    0    0    0  501 -0.00000000000E+00 -0.00000000000E+00 -0.20265707361E+02  0.20265707361E+02  0.00000000000E+00 0.  1.
         23    2    1    2    0    0  0.00000000000E+00  0.00000000000E+00  0.80617276167E+02  0.12114869089E+03  0.90431521536E+02 0.  0.
        -11    1    3    3    0    0  0.12898186482E+02  0.20789415400E+02 -0.10632461950E+02  0.26676061447E+02  0.00000000000E+00 0.  1.
         11    1    3    3    0    0 -0.12898186482E+02 -0.20789415400E+02  0.91249738116E+02  0.94472629441E+02  0.00000000000E+00 0. -1.
<mgrwt>
<rscale>  0 0.90431522E+02</rscale>
<asrwt>0</asrwt>
<pdfrwt beam="1">  1        1 0.15520459E-01 0.90431522E+02</pdfrwt>
<pdfrwt beam="2">  1       -1 0.31178012E-02 0.90431522E+02</pdfrwt>
<totfact> 0.10696835E+05</totfact>
</mgrwt>
</event>
<event>
 5    1  0.1310593E+001  0.8942145E+02  0.7546771E-02  0.1304259E+00
         -2   -1    0    0    0  501 -0.00000000000E+00  0.00000000000E+00  0.35332073559E+02  0.35332073559E+02  0.00000000000E+00 0.  1.
          2   -1    0    0  501    0  0.00000000000E+00 -0.00000000000E+00 -0.56578879585E+02  0.56578879585E+02  0.00000000000E+00 0. -1.
         23    2    1    2    0    0  0.00000000000E+00  0.00000000000E+00 -0.21246806026E+02  0.91910953144E+02  0.89421454593E+02 0.  0.
        -11    1    3    3    0    0  0.10637718727E+02  0.11431158181E+02  0.32438271179E+02  0.36001026015E+02  0.00000000000E+00 0.  1.
         11    1    3    3    0    0 -0.10637718727E+02 -0.11431158181E+02 -0.53685077205E+02  0.55909927129E+02  0.00000000000E+00 0. -1.
<mgrwt>
<rscale>  0 0.89421455E+02</rscale>
<asrwt>0</asrwt>
<pdfrwt beam="2">  1        2 0.87044430E-02 0.89421455E+02</pdfrwt>
<pdfrwt beam="1">  1       -2 0.54357037E-02 0.89421455E+02</pdfrwt>
<totfact> 0.11031078E+05</totfact>
</mgrwt>
</event>
<event>
 5    1  0.1310593E+001  0.8879824E+02  0.7546771E-02  0.1305788E+00
         -2   -1    0    0    0  501 -0.00000000000E+00  0.00000000000E+00  0.81324308427E+01  0.81324308427E+01  0.00000000000E+00 0.  1.
          2   -1    0    0  501    0  0.00000000000E+00 -0.00000000000E+00 -0.24239759637E+03  0.24239759637E+03  0.00000000000E+00 0. -1.
         23    2    1    2    0    0  0.00000000000E+00  0.00000000000E+00 -0.23426516552E+03  0.25053002721E+03  0.88798236218E+02 0.  0.
        -11    1    3    3    0    0 -0.29009131690E+02 -0.16349134695E+02 -0.19998865915E+03  0.20274192392E+03  0.00000000000E+00 0. -1.
         11    1    3    3    0    0  0.29009131690E+02  0.16349134695E+02 -0.34276506374E+02  0.47788103288E+02  0.00000000000E+00 0.  1.
<mgrwt>
<rscale>  0 0.88798236E+02</rscale>
<asrwt>0</asrwt>
<pdfrwt beam="2">  1        2 0.37291929E-01 0.88798236E+02</pdfrwt>
<pdfrwt beam="1">  1       -2 0.12511435E-02 0.88798236E+02</pdfrwt>
<totfact> 0.17811057E+05</totfact>
</mgrwt>
</event>
<event>
 5    1  0.1310593E+001  0.9111924E+02  0.7546771E-02  0.1300164E+00
         -2   -1    0    0    0  501 -0.00000000000E+00  0.00000000000E+00  0.10164921292E+02  0.10164921292E+02  0.00000000000E+00 0.  1.
          2   -1    0    0  501    0  0.00000000000E+00 -0.00000000000E+00 -0.20420020576E+03  0.20420020576E+03  0.00000000000E+00 0. -1.
         23    2    1    2    0    0  0.00000000000E+00  0.00000000000E+00 -0.19403528446E+03  0.21436512705E+03  0.91119240985E+02 0.  0.
        -11    1    3    3    0    0 -0.18488915447E+02  0.26636583243E+02 -0.21722961265E+02  0.39028638298E+02  0.00000000000E+00 0.  1.
         11    1    3    3    0    0  0.18488915447E+02 -0.26636583243E+02 -0.17231232320E+03  0.17533648875E+03  0.00000000000E+00 0. -1.
<mgrwt>
<rscale>  0 0.91119241E+02</rscale>
<asrwt>0</asrwt>
<pdfrwt beam="2">  1        2 0.31415416E-01 0.91119241E+02</pdfrwt>
<pdfrwt beam="1">  1       -2 0.15638341E-02 0.91119241E+02</pdfrwt>
<totfact> 0.15611378E+05</totfact>
</mgrwt>
</event>
<event>
 5    1  0.1310593E+001  0.9032871E+02  0.7546771E-02  0.1302058E+00
         -1   -1    0    0    0  501 -0.00000000000E+00  0.00000000000E+00  0.41082595875E+02  0.41082595875E+02  0.00000000000E+00 0.  1.
          1   -1    0    0  501    0  0.00000000000E+00 -0.00000000000E+00 -0.49651652415E+02  0.49651652415E+02  0.00000000000E+00 0. -1.
         23    2    1    2    0    0  0.00000000000E+00  0.00000000000E+00 -0.85690565402E+01  0.90734248290E+02  0.90328705751E+02 0.  0.
        -13    1    3    3    0    0 -0.10080885894E+02 -0.24649405530E+02 -0.40925706679E+02  0.48827563124E+02  0.00000000000E+00 0. -1.
         13    1    3    3    0    0  0.10080885894E+02  0.24649405530E+02  0.32356650139E+02  0.41906685166E+02  0.00000000000E+00 0.  1.
<mgrwt>
<rscale>  0 0.90328706E+02</rscale>
<asrwt>0</asrwt>
<pdfrwt beam="2">  1        1 0.76387157E-02 0.90328706E+02</pdfrwt>
<pdfrwt beam="1">  1       -1 0.63203994E-02 0.90328706E+02</pdfrwt>
<totfact> 0.96141838E+04</totfact>
</mgrwt>
</event>
<event>
 5    1  0.1310593E+001  0.9035053E+02  0.7546771E-02  0.1302005E+00
         -4   -1    0    0    0  501 -0.00000000000E+00  0.00000000000E+00  0.52722298608E+02  0.52722298608E+02  0.00000000000E+00 0.  1.
          4   -1    0    0  501    0  0.00000000000E+00 -0.00000000000E+00 -0.38708564245E+02  0.38708564245E+02  0.00000000000E+00 0. -1.
         23    2    1    2    0    0  0.00000000000E+00  0.00000000000E+00  0.14013734363E+02  0.91430862853E+02  0.90350528118E+02 0.  0.
        -11    1    3    3    0    0 -0.37744388848E+02  0.15170551605E+02  0.26889184559E+02  0.48762821613E+02  0.00000000000E+00 0.  1.
         11    1    3    3    0    0  0.37744388848E+02 -0.15170551605E+02 -0.12875450195E+02  0.42668041239E+02  0.00000000000E+00 0. -1.
<mgrwt>
<rscale>  0 0.90350528E+02</rscale>
<asrwt>0</asrwt>
<pdfrwt beam="2">  1        4 0.59551637E-02 0.90350528E+02</pdfrwt>
<pdfrwt beam="1">  1       -4 0.81111229E-02 0.90350528E+02</pdfrwt>
<totfact> 0.27674312E+04</totfact>
</mgrwt>
</event>
<event>
 5    1  0.1310593E+001  0.9090062E+02  0.7546771E-02  0.1300685E+00
         -1   -1    0    0    0  501 -0.00000000000E+00  0.00000000000E+00  0.35824579292E+02  0.35824579292E+02  0.00000000000E+00 0.  1.
          1   -1    0    0  501    0  0.00000000000E+00 -0.00000000000E+00 -0.57662387312E+02  0.57662387312E+02  0.00000000000E+00 0. -1.
         23    2    1    2    0    0  0.00000000000E+00  0.00000000000E+00 -0.21837808019E+02  0.93486966604E+02  0.90900621922E+02 0.  0.
        -13    1    3    3    0    0  0.26256887509E+02 -0.64417032169E+01  0.26655674359E+02  0.37966362184E+02  0.00000000000E+00 0.  1.
         13    1    3    3    0    0 -0.26256887509E+02  0.64417032169E+01 -0.48493482378E+02  0.55520604420E+02  0.00000000000E+00 0. -1.
<mgrwt>
<rscale>  0 0.90900622E+02</rscale>
<asrwt>0</asrwt>
<pdfrwt beam="2">  1        1 0.88711364E-02 0.90900622E+02</pdfrwt>
<pdfrwt beam="1">  1       -1 0.55114738E-02 0.90900622E+02</pdfrwt>
<totfact> 0.96605162E+04</totfact>
</mgrwt>
</event>
<event>
 5    1  0.1310593E+001  0.9058435E+02  0.7546771E-02  0.1301443E+00
         -2   -1    0    0    0  501 -0.00000000000E+00  0.00000000000E+00  0.14450976532E+02  0.14450976532E+02  0.00000000000E+00 0.  1.
          2   -1    0    0  501    0  0.00000000000E+00 -0.00000000000E+00 -0.14195449781E+03  0.14195449781E+03  0.00000000000E+00 0. -1.
         23    2    1    2    0    0  0.00000000000E+00  0.00000000000E+00 -0.12750352128E+03  0.15640547434E+03  0.90584350006E+02 0.  0.
        -11    1    3    3    0    0 -0.15248626916E+01 -0.24663260802E+02 -0.12929041710E+03  0.13163059520E+03  0.00000000000E+00 0. -1.
         11    1    3    3    0    0  0.15248626916E+01  0.24663260802E+02  0.17868958228E+01  0.24774879138E+02  0.00000000000E+00 0.  1.
<mgrwt>
<rscale>  0 0.90584350E+02</rscale>
<asrwt>0</asrwt>
<pdfrwt beam="2">  1        2 0.21839153E-01 0.90584350E+02</pdfrwt>
<pdfrwt beam="1">  1       -2 0.22232272E-02 0.90584350E+02</pdfrwt>
<totfact> 0.13968129E+05</totfact>
</mgrwt>
</event>
<event>
 5    1  0.1310593E+001  0.9187865E+02  0.7546771E-02  0.1298365E+00
         -1   -1    0    0    0  501 -0.00000000000E+00  0.00000000000E+00  0.16626435068E+03  0.16626435068E+03  0.00000000000E+00 0.  1.
          1   -1    0    0  501    0  0.00000000000E+00 -0.00000000000E+00 -0.12693170030E+02  0.12693170030E+02  0.00000000000E+00 0. -1.
         23    2    1    2    0    0  0.00000000000E+00  0.00000000000E+00  0.15357118065E+03  0.17895752071E+03  0.91878651997E+02 0.  0.
        -11    1    3    3    0    0 -0.23577967654E+02 -0.39287346124E+02  0.83247207085E+02  0.95023752881E+02  0.00000000000E+00 0. -1.
         11    1    3    3    0    0  0.23577967654E+02  0.39287346124E+02  0.70323973567E+02  0.83933767831E+02  0.00000000000E+00 0.  1.
<mgrwt>
<rscale>  0 0.91878652E+02</rscale>
<asrwt>0</asrwt>
<pdfrwt beam="2">  1        1 0.19527955E-02 0.91878652E+02</pdfrwt>
<pdfrwt beam="1">  1       -1 0.25579129E-01 0.91878652E+02</pdfrwt>
<totfact> 0.71505576E+04</totfact>
</mgrwt>
</event>
<event>
 5    1  0.1310593E+001  0.9143535E+02  0.7546771E-02  0.1299413E+00
         -4   -1    0    0    0  501 -0.00000000000E+00  0.00000000000E+00  0.11645599497E+03  0.11645599497E+03  0.00000000000E+00 0.  1.
          4   -1    0    0  501    0  0.00000000000E+00 -0.00000000000E+00 -0.17947600702E+02  0.17947600702E+02  0.00000000000E+00 0. -1.
         23    2    1    2    0    0  0.00000000000E+00  0.00000000000E+00  0.98508394264E+02  0.13440359567E+03  0.91435347586E+02 0.  0.
        -13    1    3    3    0    0  0.22399650159E+02 -0.24792092834E+02  0.95122467475E+02  0.10082001792E+03  0.00000000000E+00 0.  1.
         13    1    3    3    0    0 -0.22399650159E+02  0.24792092834E+02  0.33859267883E+01  0.33583577751E+02  0.00000000000E+00 0. -1.
<mgrwt>
<rscale>  0 0.91435348E+02</rscale>
<asrwt>0</asrwt>
<pdfrwt beam="2">  1        4 0.27611694E-02 0.91435348E+02</pdfrwt>
<pdfrwt beam="1">  1       -4 0.17916306E-01 0.91435348E+02</pdfrwt>
<totfact> 0.24294086E+04</totfact>
</mgrwt>
</event>
<event>
 5    1  0.1310593E+001  0.1253167E+03  0.7546771E-02  0.1234575E+00
         -2   -1    0    0    0  501 -0.00000000000E+00  0.00000000000E+00  0.69575393316E+02  0.69575393316E+02  0.00000000000E+00 0.  1.
          2   -1    0    0  501    0  0.00000000000E+00 -0.00000000000E+00 -0.56428996837E+02  0.56428996837E+02  0.00000000000E+00 0. -1.
         23    2    1    2    0    0  0.00000000000E+00  0.00000000000E+00  0.13146396479E+02  0.12600439015E+03  0.12531671316E+03 0.  0.
        -13    1    3    3    0    0  0.13616039056E+01  0.36189541061E+02  0.57986290873E+02  0.68366269290E+02  0.00000000000E+00 0.  1.
         13    1    3    3    0    0 -0.13616039056E+01 -0.36189541061E+02 -0.44839894394E+02  0.57638120863E+02  0.00000000000E+00 0. -1.
<mgrwt>
<rscale>  0 0.12531671E+03</rscale>
<asrwt>0</asrwt>
<pdfrwt beam="2">  1        2 0.86813841E-02 0.12531671E+03</pdfrwt>
<pdfrwt beam="1">  1       -2 0.10703907E-01 0.12531671E+03</pdfrwt>
<totfact> 0.41142401E+04</totfact>
</mgrwt>
</event>
<event>
 5    1  0.1310593E+001  0.9054975E+02  0.7546771E-02  0.1301526E+00
          1   -1    0    0  501    0  0.00000000000E+00  0.00000000000E+00  0.34368168913E+03  0.34368168913E+03  0.00000000000E+00 0. -1.
         -1   -1    0    0    0  501 -0.00000000000E+00 -0.00000000000E+00 -0.59642817493E+01  0.59642817493E+01  0.00000000000E+00 0.  1.
         23    2    1    2    0    0  0.00000000000E+00  0.00000000000E+00  0.33771740738E+03  0.34964597088E+03  0.90549752646E+02 0.  0.
        -11    1    3    3    0    0 -0.23982055996E+02 -0.32880548081E+02  0.24546041023E+03  0.24881133906E+03  0.00000000000E+00 0.  1.
         11    1    3    3    0    0  0.23982055996E+02  0.32880548081E+02  0.92256997147E+02  0.10083463182E+03  0.00000000000E+00 0. -1.
<mgrwt>
<rscale>  0 0.90549753E+02</rscale>
<asrwt>0</asrwt>
<pdfrwt beam="1">  1        1 0.52874091E-01 0.90549753E+02</pdfrwt>
<pdfrwt beam="2">  1       -1 0.91758207E-03 0.90549753E+02</pdfrwt>
<totfact> 0.13383483E+05</totfact>
</mgrwt>
</event>
<event>
 5    1  0.1310593E+001  0.9181375E+02  0.7546771E-02  0.1298518E+00
         -1   -1    0    0    0  501 -0.00000000000E+00  0.00000000000E+00  0.17445739437E+02  0.17445739437E+02  0.00000000000E+00 0.  1.
          1   -1    0    0  501    0  0.00000000000E+00 -0.00000000000E+00 -0.12079976043E+03  0.12079976043E+03  0.00000000000E+00 0. -1.
         23    2    1    2    0    0  0.00000000000E+00  0.00000000000E+00 -0.10335402099E+03  0.13824549987E+03  0.91813749396E+02 0.  0.
        -13    1    3    3    0    0  0.33363733889E+02 -0.11348639347E+02 -0.73794792183E+01  0.36005375537E+02  0.00000000000E+00 0.  1.
         13    1    3    3    0    0 -0.33363733889E+02  0.11348639347E+02 -0.95974541777E+02  0.10224012433E+03  0.00000000000E+00 0. -1.
<mgrwt>
<rscale>  0 0.91813749E+02</rscale>
<asrwt>0</asrwt>
<pdfrwt beam="2">  1        1 0.18584579E-01 0.91813749E+02</pdfrwt>
<pdfrwt beam="1">  1       -1 0.26839599E-02 0.91813749E+02</pdfrwt>
<totfact> 0.10584364E+05</totfact>
</mgrwt>
</event>
<event>
 5    1  0.1310593E+001  0.7277657E+02  0.7546771E-02  0.1350898E+00
          3   -1    0    0  501    0  0.00000000000E+00  0.00000000000E+00  0.86551933196E+02  0.86551933196E+02  0.00000000000E+00 0. -1.
         -3   -1    0    0    0  501 -0.00000000000E+00 -0.00000000000E+00 -0.15298413073E+02  0.15298413073E+02  0.00000000000E+00 0.  1.
         23    2    1    2    0    0  0.00000000000E+00  0.00000000000E+00  0.71253520122E+02  0.10185034627E+03  0.72776568381E+02 0.  0.
        -11    1    3    3    0    0  0.85189656039E+01 -0.31121329434E+02  0.59169775460E+02  0.67395639686E+02  0.00000000000E+00 0. -1.
         11    1    3    3    0    0 -0.85189656039E+01  0.31121329434E+02  0.12083744663E+02  0.34454706584E+02  0.00000000000E+00 0.  1.
<mgrwt>
<rscale>  0 0.72776568E+02</rscale>
<asrwt>0</asrwt>
<pdfrwt beam="1">  1        3 0.13315682E-01 0.72776568E+02</pdfrwt>
<pdfrwt beam="2">  1       -3 0.23536021E-02 0.72776568E+02</pdfrwt>
<totfact> 0.63202805E+04</totfact>
</mgrwt>
</event>
<event>
 5    1  0.1310593E+001  0.9158323E+02  0.7546771E-02  0.1299062E+00
         -2   -1    0    0    0  501 -0.00000000000E+00  0.00000000000E+00  0.72416036926E+02  0.72416036926E+02  0.00000000000E+00 0.  1.
          2   -1    0    0  501    0  0.00000000000E+00 -0.00000000000E+00 -0.28955908699E+02  0.28955908699E+02  0.00000000000E+00 0. -1.
         23    2    1    2    0    0  0.00000000000E+00  0.00000000000E+00  0.43460128226E+02  0.10137194562E+03  0.91583233259E+02 0.  0.
        -11    1    3    3    0    0  0.41925539107E+02 -0.22972462223E+01  0.41954368237E+02  0.59356526042E+02  0.00000000000E+00 0. -1.
         11    1    3    3    0    0 -0.41925539107E+02  0.22972462223E+01  0.15057599896E+01  0.42015419583E+02  0.00000000000E+00 0.  1.
<mgrwt>
<rscale>  0 0.91583233E+02</rscale>
<asrwt>0</asrwt>
<pdfrwt beam="2">  1        2 0.44547552E-02 0.91583233E+02</pdfrwt>
<pdfrwt beam="1">  1       -2 0.11140929E-01 0.91583233E+02</pdfrwt>
<totfact> 0.86475891E+04</totfact>
</mgrwt>
</event>
<event>
 5    1  0.1310593E+001  0.9018197E+02  0.7546771E-02  0.1302412E+00
         -1   -1    0    0    0  501 -0.00000000000E+00  0.00000000000E+00  0.30648778927E+02  0.30648778927E+02  0.00000000000E+00 0.  1.
          1   -1    0    0  501    0  0.00000000000E+00 -0.00000000000E+00 -0.66338589203E+02  0.66338589203E+02  0.00000000000E+00 0. -1.
         23    2    1    2    0    0  0.00000000000E+00  0.00000000000E+00 -0.35689810275E+02  0.96987368130E+02  0.90181966154E+02 0.  0.
        -11    1    3    3    0    0  0.42809294580E+02  0.13075380024E+02 -0.11994199622E+02  0.46340717407E+02  0.00000000000E+00 0.  1.
         11    1    3    3    0    0 -0.42809294580E+02 -0.13075380024E+02 -0.23695610654E+02  0.50646650723E+02  0.00000000000E+00 0. -1.
<mgrwt>
<rscale>  0 0.90181966E+02</rscale>
<asrwt>0</asrwt>
<pdfrwt beam="2">  1        1 0.10205937E-01 0.90181966E+02</pdfrwt>
<pdfrwt beam="1">  1       -1 0.47151968E-02 0.90181966E+02</pdfrwt>
<totfact> 0.10086294E+05</totfact>
</mgrwt>
</event>
<event>
 5    1  0.1310593E+001  0.9251094E+02  0.7546771E-02  0.1296883E+00
          1   -1    0    0  501    0  0.00000000000E+00  0.00000000000E+00  0.18570222808E+02  0.18570222808E+02  0.00000000000E+00 0. -1.
         -1   -1    0    0    0  501 -0.00000000000E+00 -0.00000000000E+00 -0.11521500664E+03  0.11521500664E+03  0.00000000000E+00 0.  1.
         23    2    1    2    0    0  0.00000000000E+00  0.00000000000E+00 -0.96644783835E+02  0.13378522945E+03  0.92510936524E+02 0.  0.
        -13    1    3    3    0    0  0.83387669829E+01  0.36006946845E+02 -0.81012368840E+01  0.37837353171E+02  0.00000000000E+00 0. -1.
         13    1    3    3    0    0 -0.83387669829E+01 -0.36006946845E+02 -0.88543546951E+02  0.95947876280E+02  0.00000000000E+00 0.  1.
<mgrwt>
<rscale>  0 0.92510937E+02</rscale>
<asrwt>0</asrwt>
<pdfrwt beam="1">  1        1 0.28569574E-02 0.92510937E+02</pdfrwt>
<pdfrwt beam="2">  1       -1 0.17725385E-01 0.92510937E+02</pdfrwt>
<totfact> 0.76260160E+04</totfact>
</mgrwt>
</event>
<event>
 5    1  0.1310593E+001  0.9052806E+02  0.7546771E-02  0.1301578E+00
          2   -1    0    0  501    0  0.00000000000E+00  0.00000000000E+00  0.23989595633E+02  0.23989595633E+02  0.00000000000E+00 0. -1.
         -2   -1    0    0    0  501 -0.00000000000E+00 -0.00000000000E+00 -0.85405043023E+02  0.85405043023E+02  0.00000000000E+00 0.  1.
         23    2    1    2    0    0  0.00000000000E+00  0.00000000000E+00 -0.61415447390E+02  0.10939463866E+03  0.90528060779E+02 0.  0.
        -13    1    3    3    0    0 -0.39250093568E+02 -0.18696312638E+02 -0.45931263422E+02  0.63243995058E+02  0.00000000000E+00 0.  1.
         13    1    3    3    0    0  0.39250093568E+02  0.18696312638E+02 -0.15484183968E+02  0.46150643598E+02  0.00000000000E+00 0. -1.
<mgrwt>
<rscale>  0 0.90528061E+02</rscale>
<asrwt>0</asrwt>
<pdfrwt beam="1">  1        2 0.36907071E-02 0.90528061E+02</pdfrwt>
<pdfrwt beam="2">  1       -2 0.13139237E-01 0.90528061E+02</pdfrwt>
<totfact> 0.85024886E+04</totfact>
</mgrwt>
</event>
<event>
 5    1  0.1310593E+001  0.6148553E+02  0.7546771E-02  0.1391701E+00
         -3   -1    0    0    0  501 -0.00000000000E+00  0.00000000000E+00  0.18199744591E+02  0.18199744591E+02  0.00000000000E+00 0.  1.
          3   -1    0    0  501    0  0.00000000000E+00 -0.00000000000E+00 -0.51930263420E+02  0.51930263420E+02  0.00000000000E+00 0. -1.
         23    2    1    2    0    0  0.00000000000E+00  0.00000000000E+00 -0.33730518828E+02  0.70130008011E+02  0.61485527754E+02 0.  0.
        -11    1    3    3    0    0  0.29248277994E+02 -0.86277645520E+01 -0.21314663408E+02  0.37205039483E+02  0.00000000000E+00 0.  1.
         11    1    3    3    0    0 -0.29248277994E+02  0.86277645520E+01 -0.12415855420E+02  0.32924968528E+02  0.00000000000E+00 0. -1.
<mgrwt>
<rscale>  0 0.61485528E+02</rscale>
<asrwt>0</asrwt>
<pdfrwt beam="2">  1        3 0.79892710E-02 0.61485528E+02</pdfrwt>
<pdfrwt beam="1">  1       -3 0.27999608E-02 0.61485528E+02</pdfrwt>
<totfact> 0.10576111E+05</totfact>
</mgrwt>
</event>
<event>
 5    1  0.1310593E+001  0.8854098E+02  0.7546771E-02  0.1306424E+00
          4   -1    0    0  501    0  0.00000000000E+00  0.00000000000E+00  0.24607764041E+02  0.24607764041E+02  0.00000000000E+00 0. -1.
         -4   -1    0    0    0  501 -0.00000000000E+00 -0.00000000000E+00 -0.79644626590E+02  0.79644626590E+02  0.00000000000E+00 0.  1.
         23    2    1    2    0    0  0.00000000000E+00  0.00000000000E+00 -0.55036862549E+02  0.10425239063E+03  0.88540977593E+02 0.  0.
        -13    1    3    3    0    0  0.26068053683E+02 -0.28621591928E+02 -0.22337895850E+01  0.38777941709E+02  0.00000000000E+00 0. -1.
         13    1    3    3    0    0 -0.26068053683E+02  0.28621591928E+02 -0.52803072964E+02  0.65474448923E+02  0.00000000000E+00 0.  1.
<mgrwt>
<rscale>  0 0.88540978E+02</rscale>
<asrwt>0</asrwt>
<pdfrwt beam="1">  1        4 0.37858098E-02 0.88540978E+02</pdfrwt>
<pdfrwt beam="2">  1       -4 0.12253020E-01 0.88540978E+02</pdfrwt>
<totfact> 0.28355023E+04</totfact>
</mgrwt>
</event>
<event>
 5    1  0.1310593E+001  0.8543874E+02  0.7546771E-02  0.1314289E+00
         -2   -1    0    0    0  501 -0.00000000000E+00  0.00000000000E+00  0.10499178257E+02  0.10499178257E+02  0.00000000000E+00 0.  1.
          2   -1    0    0  501    0  0.00000000000E+00 -0.00000000000E+00 -0.17381785264E+03  0.17381785264E+03  0.00000000000E+00 0. -1.
         23    2    1    2    0    0  0.00000000000E+00  0.00000000000E+00 -0.16331867438E+03  0.18431703089E+03  0.85438741072E+02 0.  0.
        -11    1    3    3    0    0  0.45365662250E+01  0.36192095102E+02 -0.12963182147E+03  0.13466572436E+03  0.00000000000E+00 0. -1.
         11    1    3    3    0    0 -0.45365662250E+01 -0.36192095102E+02 -0.33686852908E+02  0.49651306527E+02  0.00000000000E+00 0.  1.
<mgrwt>
<rscale>  0 0.85438741E+02</rscale>
<asrwt>0</asrwt>
<pdfrwt beam="2">  1        2 0.26741207E-01 0.85438741E+02</pdfrwt>
<pdfrwt beam="1">  1       -2 0.16152583E-02 0.85438741E+02</pdfrwt>
<totfact> 0.17522670E+05</totfact>
</mgrwt>
</event>
<event>
 5    1  0.1310593E+001  0.9996189E+02  0.7546771E-02  0.1280376E+00
         -2   -1    0    0    0  501 -0.00000000000E+00  0.00000000000E+00  0.51124750834E+02  0.51124750834E+02  0.00000000000E+00 0.  1.
          2   -1    0    0  501    0  0.00000000000E+00 -0.00000000000E+00 -0.48862733144E+02  0.48862733144E+02  0.00000000000E+00 0. -1.
         23    2    1    2    0    0  0.00000000000E+00  0.00000000000E+00  0.22620176901E+01  0.99987483978E+02  0.99961893880E+02 0.  0.
        -13    1    3    3    0    0 -0.76736719740E+00 -0.25690725803E+02 -0.41745951444E+02  0.49023736156E+02  0.00000000000E+00 0. -1.
         13    1    3    3    0    0  0.76736719740E+00  0.25690725803E+02  0.44007969134E+02  0.50963747822E+02  0.00000000000E+00 0.  1.
<mgrwt>
<rscale>  0 0.99961894E+02</rscale>
<asrwt>0</asrwt>
<pdfrwt beam="2">  1        2 0.75173436E-02 0.99961894E+02</pdfrwt>
<pdfrwt beam="1">  1       -2 0.78653463E-02 0.99961894E+02</pdfrwt>
<totfact> 0.77050818E+04</totfact>
</mgrwt>
</event>
<event>
 5    1  0.1310593E+001  0.9493103E+02  0.7546771E-02  0.1291331E+00
         -1   -1    0    0    0  501 -0.00000000000E+00  0.00000000000E+00  0.16478993973E+02  0.16478993973E+02  0.00000000000E+00 0.  1.
          1   -1    0    0  501    0  0.00000000000E+00 -0.00000000000E+00 -0.13671800982E+03  0.13671800982E+03  0.00000000000E+00 0. -1.
         23    2    1    2    0    0  0.00000000000E+00  0.00000000000E+00 -0.12023901585E+03  0.15319700379E+03  0.94931033066E+02 0.  0.
        -11    1    3    3    0    0  0.18396743442E+02 -0.27974092487E+02 -0.58241817385E+01  0.33983983178E+02  0.00000000000E+00 0.  1.
         11    1    3    3    0    0 -0.18396743442E+02  0.27974092487E+02 -0.11441483411E+03  0.11921302061E+03  0.00000000000E+00 0. -1.
<mgrwt>
<rscale>  0 0.94931033E+02</rscale>
<asrwt>0</asrwt>
<pdfrwt beam="2">  1        1 0.21033540E-01 0.94931033E+02</pdfrwt>
<pdfrwt beam="1">  1       -1 0.25352298E-02 0.94931033E+02</pdfrwt>
<totfact> 0.98827655E+04</totfact>
</mgrwt>
</event>
<event>
 5    1  0.1310593E+001  0.9083182E+02  0.7546771E-02  0.1300850E+00
          2   -1    0    0  501    0  0.00000000000E+00  0.00000000000E+00  0.13789255588E+03  0.13789255588E+03  0.00000000000E+00 0.  1.
         -2   -1    0    0    0  501 -0.00000000000E+00 -0.00000000000E+00 -0.14958057390E+02  0.14958057390E+02  0.00000000000E+00 0. -1.
         23    2    1    2    0    0  0.00000000000E+00  0.00000000000E+00  0.12293449849E+03  0.15285061327E+03  0.90831817431E+02 0.  0.
        -11    1    3    3    0    0 -0.29532067441E+02  0.13456824991E+02  0.11493052767E+03  0.11942468479E+03  0.00000000000E+00 0.  1.
         11    1    3    3    0    0  0.29532067441E+02 -0.13456824991E+02  0.80039708238E+01  0.33425928485E+02  0.00000000000E+00 0. -1.
<mgrwt>
<rscale>  0 0.90831817E+02</rscale>
<asrwt>0</asrwt>
<pdfrwt beam="1">  1        2 0.21214239E-01 0.90831817E+02</pdfrwt>
<pdfrwt beam="2">  1       -2 0.23012397E-02 0.90831817E+02</pdfrwt>
<totfact> 0.13731240E+05</totfact>
</mgrwt>
</event>
<event>
 5    1  0.1310593E+001  0.9054512E+02  0.7546771E-02  0.1301537E+00
          2   -1    0    0  501    0  0.00000000000E+00  0.00000000000E+00  0.75877760713E+02  0.75877760713E+02  0.00000000000E+00 0. -1.
         -2   -1    0    0    0  501 -0.00000000000E+00 -0.00000000000E+00 -0.27011928019E+02  0.27011928019E+02  0.00000000000E+00 0.  1.
         23    2    1    2    0    0  0.00000000000E+00  0.00000000000E+00  0.48865832694E+02  0.10288968873E+03  0.90545118270E+02 0.  0.
        -11    1    3    3    0    0 -0.46915036476E+01  0.35326523733E+02 -0.72957193008E+01  0.36375829965E+02  0.00000000000E+00 0.  1.
         11    1    3    3    0    0  0.46915036476E+01 -0.35326523733E+02  0.56161551995E+02  0.66513858767E+02  0.00000000000E+00 0. -1.
<mgrwt>
<rscale>  0 0.90545118E+02</rscale>
<asrwt>0</asrwt>
<pdfrwt beam="1">  1        2 0.11673502E-01 0.90545118E+02</pdfrwt>
<pdfrwt beam="2">  1       -2 0.41556813E-02 0.90545118E+02</pdfrwt>
<totfact> 0.11535293E+05</totfact>
</mgrwt>
</event>
<event>
 5    1  0.1310593E+001  0.8874559E+02  0.7546771E-02  0.1305918E+00
         -2   -1    0    0    0  501 -0.00000000000E+00  0.00000000000E+00  0.11326961575E+02  0.11326961575E+02  0.00000000000E+00 0.  1.
          2   -1    0    0  501    0  0.00000000000E+00 -0.00000000000E+00 -0.17382818187E+03  0.17382818187E+03  0.00000000000E+00 0. -1.
         23    2    1    2    0    0  0.00000000000E+00  0.00000000000E+00 -0.16250122029E+03  0.18515514344E+03  0.88745594518E+02 0.  0.
        -13    1    3    3    0    0 -0.33052066292E+02 -0.29063961732E+02 -0.69486769730E+02  0.82253049337E+02  0.00000000000E+00 0.  1.
         13    1    3    3    0    0  0.33052066292E+02  0.29063961732E+02 -0.93014450561E+02  0.10290209410E+03  0.00000000000E+00 0. -1.
<mgrwt>
<rscale>  0 0.88745595E+02</rscale>
<asrwt>0</asrwt>
<pdfrwt beam="2">  1        2 0.26742797E-01 0.88745595E+02</pdfrwt>
<pdfrwt beam="1">  1       -2 0.17426095E-02 0.88745595E+02</pdfrwt>
<totfact> 0.15824206E+05</totfact>
</mgrwt>
</event>
<event>
 5    1  0.1310593E+001  0.9230819E+02  0.7546771E-02  0.1297356E+00
          4   -1    0    0  501    0  0.00000000000E+00  0.00000000000E+00  0.83398425259E+02  0.83398425259E+02  0.00000000000E+00 0. -1.
         -4   -1    0    0    0  501 -0.00000000000E+00 -0.00000000000E+00 -0.25542453164E+02  0.25542453164E+02  0.00000000000E+00 0.  1.
         23    2    1    2    0    0  0.00000000000E+00  0.00000000000E+00  0.57855972095E+02  0.10894087842E+03  0.92308187526E+02 0.  0.
        -13    1    3    3    0    0 -0.10551493000E+02  0.10953078137E+02 -0.22500209900E+02  0.27158117953E+02  0.00000000000E+00 0.  1.
         13    1    3    3    0    0  0.10551493000E+02 -0.10953078137E+02  0.80356181995E+02  0.81782760469E+02  0.00000000000E+00 0. -1.
<mgrwt>
<rscale>  0 0.92308188E+02</rscale>
<asrwt>0</asrwt>
<pdfrwt beam="1">  1        4 0.12830527E-01 0.92308188E+02</pdfrwt>
<pdfrwt beam="2">  1       -4 0.39296082E-02 0.92308188E+02</pdfrwt>
<totfact> 0.25062907E+04</totfact>
</mgrwt>
</event>
<event>
 5    1  0.1310593E+001  0.9399326E+02  0.7546771E-02  0.1293460E+00
         -3   -1    0    0    0  501 -0.00000000000E+00  0.00000000000E+00  0.22501933403E+02  0.22501933403E+02  0.00000000000E+00 0.  1.
          3   -1    0    0  501    0  0.00000000000E+00 -0.00000000000E+00 -0.98155263088E+02  0.98155263088E+02  0.00000000000E+00 0. -1.
         23    2    1    2    0    0  0.00000000000E+00  0.00000000000E+00 -0.75653329685E+02  0.12065719649E+03  0.93993259186E+02 0.  0.
        -11    1    3    3    0    0 -0.32695603882E+02  0.33620005307E+02 -0.41757307290E+02  0.62793152350E+02  0.00000000000E+00 0. -1.
         11    1    3    3    0    0  0.32695603882E+02 -0.33620005307E+02 -0.33896022395E+02  0.57864044140E+02  0.00000000000E+00 0.  1.
<mgrwt>
<rscale>  0 0.93993259E+02</rscale>
<asrwt>0</asrwt>
<pdfrwt beam="2">  1        3 0.15100809E-01 0.93993259E+02</pdfrwt>
<pdfrwt beam="1">  1       -3 0.34618360E-02 0.93993259E+02</pdfrwt>
<totfact> 0.30560334E+04</totfact>
</mgrwt>
</event>
<event>
 5    1  0.1310593E+001  0.9056378E+02  0.7546771E-02  0.1301492E+00
          1   -1    0    0  501    0  0.00000000000E+00  0.00000000000E+00  0.59660089192E+02  0.59660089192E+02  0.00000000000E+00 0. -1.
         -1   -1    0    0    0  501 -0.00000000000E+00 -0.00000000000E+00 -0.34368865013E+02  0.34368865013E+02  0.00000000000E+00 0.  1.
         23    2    1    2    0    0  0.00000000000E+00  0.00000000000E+00  0.25291224180E+02  0.94028954205E+02  0.90563779782E+02 0.  0.
        -13    1    3    3    0    0 -0.43093224248E+02 -0.13873406454E+02  0.11632484465E+02  0.46741973403E+02  0.00000000000E+00 0. -1.
         13    1    3    3    0    0  0.43093224248E+02  0.13873406454E+02  0.13658739715E+02  0.47286980802E+02  0.00000000000E+00 0.  1.
<mgrwt>
<rscale>  0 0.90563780E+02</rscale>
<asrwt>0</asrwt>
<pdfrwt beam="1">  1        1 0.91784752E-02 0.90563780E+02</pdfrwt>
<pdfrwt beam="2">  1       -1 0.52875177E-02 0.90563780E+02</pdfrwt>
<totfact> 0.98105806E+04</totfact>
</mgrwt>
</event>
<event>
 5    1  0.1310593E+001  0.9194344E+02  0.7546771E-02  0.1298212E+00
          2   -1    0    0  501    0  0.00000000000E+00  0.00000000000E+00  0.12265155893E+03  0.12265155893E+03  0.00000000000E+00 0.  1.
         -2   -1    0    0    0  501 -0.00000000000E+00 -0.00000000000E+00 -0.17230917341E+02  0.17230917341E+02  0.00000000000E+00 0. -1.
         23    2    1    2    0    0  0.00000000000E+00  0.00000000000E+00  0.10542064159E+03  0.13988247627E+03  0.91943436389E+02 0.  0.
        -13    1    3    3    0    0  0.16870277877E+02  0.16989228681E+02  0.11241733008E+03  0.11493866308E+03  0.00000000000E+00 0.  1.
         13    1    3    3    0    0 -0.16870277877E+02 -0.16989228681E+02 -0.69966884945E+01  0.24943813195E+02  0.00000000000E+00 0. -1.
<mgrwt>
<rscale>  0 0.91943436E+02</rscale>
<asrwt>0</asrwt>
<pdfrwt beam="1">  1        2 0.18869470E-01 0.91943436E+02</pdfrwt>
<pdfrwt beam="2">  1       -2 0.26509104E-02 0.91943436E+02</pdfrwt>
<totfact> 0.12781804E+05</totfact>
</mgrwt>
</event>
<event>
 5    1  0.1310593E+001  0.9081398E+02  0.7546771E-02  0.1300892E+00
         -2   -1    0    0    0  501 -0.00000000000E+00  0.00000000000E+00  0.20936979275E+02  0.20936979275E+02  0.00000000000E+00 0.  1.
          2   -1    0    0  501    0  0.00000000000E+00 -0.00000000000E+00 -0.98476234123E+02  0.98476234123E+02  0.00000000000E+00 0. -1.
         23    2    1    2    0    0  0.00000000000E+00  0.00000000000E+00 -0.77539254848E+02  0.11941321340E+03  0.90813982909E+02 0.  0.
        -11    1    3    3    0    0 -0.22634603482E+02 -0.25568271232E+02  0.58438102629E+00  0.34152646600E+02  0.00000000000E+00 0.  1.
         11    1    3    3    0    0  0.22634603482E+02  0.25568271232E+02 -0.78123635874E+02  0.85260566799E+02  0.00000000000E+00 0. -1.
<mgrwt>
<rscale>  0 0.90813983E+02</rscale>
<asrwt>0</asrwt>
<pdfrwt beam="2">  1        2 0.15150190E-01 0.90813983E+02</pdfrwt>
<pdfrwt beam="1">  1       -2 0.32210737E-02 0.90813983E+02</pdfrwt>
<totfact> 0.12345317E+05</totfact>
</mgrwt>
</event>
<event>
 5    1  0.1310593E+001  0.9309761E+02  0.7546771E-02  0.1295519E+00
          1   -1    0    0  501    0  0.00000000000E+00  0.00000000000E+00  0.93866301112E+01  0.93866301112E+01  0.00000000000E+00 0. -1.
         -1   -1    0    0    0  501 -0.00000000000E+00 -0.00000000000E+00 -0.23083803643E+03  0.23083803643E+03  0.00000000000E+00 0.  1.
         23    2    1    2    0    0  0.00000000000E+00  0.00000000000E+00 -0.22145140632E+03  0.24022466655E+03  0.93097610358E+02 0.  0.
        -13    1    3    3    0    0  0.34192997902E+02  0.15147305817E+02 -0.18224334535E+03  0.18604096028E+03  0.00000000000E+00 0.  1.
         13    1    3    3    0    0 -0.34192997902E+02 -0.15147305817E+02 -0.39208060977E+02  0.54183706265E+02  0.00000000000E+00 0. -1.
<mgrwt>
<rscale>  0 0.93097610E+02</rscale>
<asrwt>0</asrwt>
<pdfrwt beam="1">  1        1 0.14440969E-02 0.93097610E+02</pdfrwt>
<pdfrwt beam="2">  1       -1 0.35513545E-01 0.93097610E+02</pdfrwt>
<totfact> 0.62959155E+04</totfact>
</mgrwt>
</event>
<event>
 5    1  0.1310593E+001  0.9265687E+02  0.7546771E-02  0.1296542E+00
         -2   -1    0    0    0  501 -0.00000000000E+00  0.00000000000E+00  0.14047923377E+02  0.14047923377E+02  0.00000000000E+00 0. -1.
          2   -1    0    0  501    0  0.00000000000E+00 -0.00000000000E+00 -0.15278585176E+03  0.15278585176E+03  0.00000000000E+00 0.  1.
         23    2    1    2    0    0  0.00000000000E+00  0.00000000000E+00 -0.13873792839E+03  0.16683377514E+03  0.92656871060E+02 0.  0.
        -13    1    3    3    0    0  0.45291809952E+02  0.96118237729E+01 -0.66471953914E+02  0.81007751864E+02  0.00000000000E+00 0.  1.
         13    1    3    3    0    0 -0.45291809952E+02 -0.96118237729E+01 -0.72265974471E+02  0.85826023275E+02  0.00000000000E+00 0. -1.
<mgrwt>
<rscale>  0 0.92656871E+02</rscale>
<asrwt>0</asrwt>
<pdfrwt beam="2">  1        2 0.23505516E-01 0.92656871E+02</pdfrwt>
<pdfrwt beam="1">  1       -2 0.21612189E-02 0.92656871E+02</pdfrwt>
<totfact> 0.13466545E+05</totfact>
</mgrwt>
</event>
<event>
 5    1  0.1310593E+001  0.9019636E+02  0.7546771E-02  0.1302377E+00
          1   -1    0    0  501    0  0.00000000000E+00  0.00000000000E+00  0.33995396532E+02  0.33995396532E+02  0.00000000000E+00 0. -1.
         -1   -1    0    0    0  501 -0.00000000000E+00 -0.00000000000E+00 -0.59827098795E+02  0.59827098795E+02  0.00000000000E+00 0.  1.
         23    2    1    2    0    0  0.00000000000E+00  0.00000000000E+00 -0.25831702263E+02  0.93822495327E+02  0.90196362385E+02 0.  0.
        -13    1    3    3    0    0  0.26249703504E+02  0.25690866958E+02 -0.40136155235E+02  0.54405684778E+02  0.00000000000E+00 0.  1.
         13    1    3    3    0    0 -0.26249703504E+02 -0.25690866958E+02  0.14304452971E+02  0.39416810550E+02  0.00000000000E+00 0. -1.
<mgrwt>
<rscale>  0 0.90196362E+02</rscale>
<asrwt>0</asrwt>
<pdfrwt beam="1">  1        1 0.52300611E-02 0.90196362E+02</pdfrwt>
<pdfrwt beam="2">  1       -1 0.92041689E-02 0.90196362E+02</pdfrwt>
<totfact> 0.91183722E+04</totfact>
</mgrwt>
</event>
<event>
 5    1  0.1310593E+001  0.9052927E+02  0.7546771E-02  0.1301575E+00
         -2   -1    0    0    0  501 -0.00000000000E+00  0.00000000000E+00  0.11546761556E+02  0.11546761556E+02  0.00000000000E+00 0.  1.
          2   -1    0    0  501    0  0.00000000000E+00 -0.00000000000E+00 -0.17744258815E+03  0.17744258815E+03  0.00000000000E+00 0. -1.
         23    2    1    2    0    0  0.00000000000E+00  0.00000000000E+00 -0.16589582659E+03  0.18898934971E+03  0.90529271627E+02 0.  0.
        -13    1    3    3    0    0  0.35063300430E+02  0.64180782645E+01 -0.24709330790E+02  0.43372546544E+02  0.00000000000E+00 0.  1.
         13    1    3    3    0    0 -0.35063300430E+02 -0.64180782645E+01 -0.14118649580E+03  0.14561680316E+03  0.00000000000E+00 0. -1.
<mgrwt>
<rscale>  0 0.90529272E+02</rscale>
<asrwt>0</asrwt>
<pdfrwt beam="2">  1        2 0.27298860E-01 0.90529272E+02</pdfrwt>
<pdfrwt beam="1">  1       -2 0.17764248E-02 0.90529272E+02</pdfrwt>
<totfact> 0.15107042E+05</totfact>
</mgrwt>
</event>
<event>
 5    1  0.1310593E+001  0.9179362E+02  0.7546771E-02  0.1298565E+00
         -2   -1    0    0    0  501 -0.00000000000E+00  0.00000000000E+00  0.67881945456E+01  0.67881945456E+01  0.00000000000E+00 0.  1.
          2   -1    0    0  501    0  0.00000000000E+00 -0.00000000000E+00 -0.31032066082E+03  0.31032066082E+03  0.00000000000E+00 0. -1.
         23    2    1    2    0    0  0.00000000000E+00  0.00000000000E+00 -0.30353246627E+03  0.31710885536E+03  0.91793616709E+02 0.  0.
        -11    1    3    3    0    0  0.24717203967E+02 -0.35427262382E+02 -0.98193880315E+02  0.10727566930E+03  0.00000000000E+00 0.  1.
         11    1    3    3    0    0 -0.24717203967E+02  0.35427262382E+02 -0.20533858596E+03  0.20983318606E+03  0.00000000000E+00 0. -1.
<mgrwt>
<rscale>  0 0.91793617E+02</rscale>
<asrwt>0</asrwt>
<pdfrwt beam="2">  1        2 0.47741633E-01 0.91793617E+02</pdfrwt>
<pdfrwt beam="1">  1       -2 0.10443378E-02 0.91793617E+02</pdfrwt>
<totfact> 0.17869014E+05</totfact>
</mgrwt>
</event>
<event>
 5    1  0.1310593E+001  0.8917832E+02  0.7546771E-02  0.1304854E+00
         -1   -1    0    0    0  501 -0.00000000000E+00  0.00000000000E+00  0.82892066265E+01  0.82892066265E+01  0.00000000000E+00 0.  1.
          1   -1    0    0  501    0  0.00000000000E+00 -0.00000000000E+00 -0.23985328137E+03  0.23985328137E+03  0.00000000000E+00 0. -1.
         23    2    1    2    0    0  0.00000000000E+00  0.00000000000E+00 -0.23156407474E+03  0.24814248800E+03  0.89178324930E+02 0.  0.
        -11    1    3    3    0    0 -0.27900511687E+02 -0.34454519921E+02 -0.10254201256E+03  0.11171578598E+03  0.00000000000E+00 0.  1.
         11    1    3    3    0    0  0.27900511687E+02  0.34454519921E+02 -0.12902206218E+03  0.13642670202E+03  0.00000000000E+00 0. -1.
<mgrwt>
<rscale>  0 0.89178325E+02</rscale>
<asrwt>0</asrwt>
<pdfrwt beam="2">  1        1 0.36900495E-01 0.89178325E+02</pdfrwt>
<pdfrwt beam="1">  1       -1 0.12752629E-02 0.89178325E+02</pdfrwt>
<totfact> 0.13014918E+05</totfact>
</mgrwt>
</event>
<event>
 5    1  0.1310593E+001  0.9188995E+02  0.7546771E-02  0.1298338E+00
         -3   -1    0    0    0  501 -0.00000000000E+00  0.00000000000E+00  0.31315697957E+02  0.31315697957E+02  0.00000000000E+00 0.  1.
          3   -1    0    0  501    0  0.00000000000E+00 -0.00000000000E+00 -0.67408382984E+02  0.67408382984E+02  0.00000000000E+00 0. -1.
         23    2    1    2    0    0  0.00000000000E+00  0.00000000000E+00 -0.36092685027E+02  0.98724080940E+02  0.91889946376E+02 0.  0.
        -11    1    3    3    0    0 -0.33323666813E+02 -0.31581605185E+02 -0.16162048608E+02  0.48673158631E+02  0.00000000000E+00 0. -1.
         11    1    3    3    0    0  0.33323666813E+02  0.31581605185E+02 -0.19930636419E+02  0.50050922309E+02  0.00000000000E+00 0.  1.
<mgrwt>
<rscale>  0 0.91889946E+02</rscale>
<asrwt>0</asrwt>
<pdfrwt beam="2">  1        3 0.10370521E-01 0.91889946E+02</pdfrwt>
<pdfrwt beam="1">  1       -3 0.48177997E-02 0.91889946E+02</pdfrwt>
<totfact> 0.34034786E+04</totfact>
</mgrwt>
</event>
<event>
 5    1  0.1310593E+001  0.9355278E+02  0.7546771E-02  0.1294469E+00
         -1   -1    0    0    0  501 -0.00000000000E+00  0.00000000000E+00  0.60487341041E+02  0.60487341041E+02  0.00000000000E+00 0.  1.
          1   -1    0    0  501    0  0.00000000000E+00 -0.00000000000E+00 -0.36173361861E+02  0.36173361861E+02  0.00000000000E+00 0. -1.
         23    2    1    2    0    0  0.00000000000E+00  0.00000000000E+00  0.24313979179E+02  0.96660702902E+02  0.93552776025E+02 0.  0.
        -11    1    3    3    0    0 -0.22485805831E+02  0.13019939228E+02  0.52345176111E+02  0.58439265426E+02  0.00000000000E+00 0.  1.
         11    1    3    3    0    0  0.22485805831E+02 -0.13019939228E+02 -0.28031196932E+02  0.38221437477E+02  0.00000000000E+00 0. -1.
<mgrwt>
<rscale>  0 0.93552776E+02</rscale>
<asrwt>0</asrwt>
<pdfrwt beam="2">  1        1 0.55651326E-02 0.93552776E+02</pdfrwt>
<pdfrwt beam="1">  1       -1 0.93057448E-02 0.93552776E+02</pdfrwt>
<totfact> 0.82969157E+04</totfact>
</mgrwt>
</event>
<event>
 5    1  0.1310593E+001  0.9175630E+02  0.7546771E-02  0.1298653E+00
         -2   -1    0    0    0  501 -0.00000000000E+00  0.00000000000E+00  0.17539056839E+02  0.17539056839E+02  0.00000000000E+00 0. -1.
          2   -1    0    0  501    0  0.00000000000E+00 -0.00000000000E+00 -0.12000672276E+03  0.12000672276E+03  0.00000000000E+00 0.  1.
         23    2    1    2    0    0  0.00000000000E+00  0.00000000000E+00 -0.10246766592E+03  0.13754577959E+03  0.91756301831E+02 0.  0.
        -13    1    3    3    0    0 -0.44695290108E+02  0.84344457292E+01 -0.60227522240E+02  0.75472930695E+02  0.00000000000E+00 0.  1.
         13    1    3    3    0    0  0.44695290108E+02 -0.84344457292E+01 -0.42240143677E+02  0.62072848899E+02  0.00000000000E+00 0. -1.
<mgrwt>
<rscale>  0 0.91756302E+02</rscale>
<asrwt>0</asrwt>
<pdfrwt beam="2">  1        2 0.18462573E-01 0.91756302E+02</pdfrwt>
<pdfrwt beam="1">  1       -2 0.26983165E-02 0.91756302E+02</pdfrwt>
<totfact> 0.12763355E+05</totfact>
</mgrwt>
</event>
<event>
 5    1  0.1310593E+001  0.9111957E+02  0.7546771E-02  0.1300163E+00
         -3   -1    0    0    0  501 -0.00000000000E+00  0.00000000000E+00  0.39516523914E+02  0.39516523914E+02  0.00000000000E+00 0.  1.
          3   -1    0    0  501    0  0.00000000000E+00 -0.00000000000E+00 -0.52527241225E+02  0.52527241225E+02  0.00000000000E+00 0. -1.
         23    2    1    2    0    0  0.00000000000E+00  0.00000000000E+00 -0.13010717311E+02  0.92043765140E+02  0.91119569447E+02 0.  0.
        -13    1    3    3    0    0  0.18079108491E+02 -0.36351551666E+02  0.14378092350E+02  0.43069931646E+02  0.00000000000E+00 0.  1.
         13    1    3    3    0    0 -0.18079108491E+02  0.36351551666E+02 -0.27388809661E+02  0.48973833494E+02  0.00000000000E+00 0. -1.
<mgrwt>
<rscale>  0 0.91119569E+02</rscale>
<asrwt>0</asrwt>
<pdfrwt beam="2">  1        3 0.80811140E-02 0.91119569E+02</pdfrwt>
<pdfrwt beam="1">  1       -3 0.60794652E-02 0.91119569E+02</pdfrwt>
<totfact> 0.35332905E+04</totfact>
</mgrwt>
</event>
<event>
 5    1  0.1310593E+001  0.9241228E+02  0.7546771E-02  0.1297113E+00
         -1   -1    0    0    0  501 -0.00000000000E+00  0.00000000000E+00  0.81100248930E+02  0.81100248930E+02  0.00000000000E+00 0.  1.
          1   -1    0    0  501    0  0.00000000000E+00 -0.00000000000E+00 -0.26325534831E+02  0.26325534831E+02  0.00000000000E+00 0. -1.
         23    2    1    2    0    0  0.00000000000E+00  0.00000000000E+00  0.54774714099E+02  0.10742578376E+03  0.92412281175E+02 0.  0.
        -13    1    3    3    0    0  0.44230814390E+02 -0.95082267708E+01  0.38306838551E+02  0.59280563406E+02  0.00000000000E+00 0. -1.
         13    1    3    3    0    0 -0.44230814390E+02  0.95082267708E+01  0.16467875548E+02  0.48145220355E+02  0.00000000000E+00 0.  1.
<mgrwt>
<rscale>  0 0.92412281E+02</rscale>
<asrwt>0</asrwt>
<pdfrwt beam="2">  1        1 0.40500823E-02 0.92412281E+02</pdfrwt>
<pdfrwt beam="1">  1       -1 0.12476961E-01 0.92412281E+02</pdfrwt>
<totfact> 0.81590280E+04</totfact>
</mgrwt>
</event>
<event>
 5    1  0.1310593E+001  0.9177477E+02  0.7546771E-02  0.1298610E+00
          1   -1    0    0  501    0  0.00000000000E+00  0.00000000000E+00  0.31947278921E+03  0.31947278921E+03  0.00000000000E+00 0. -1.
         -1   -1    0    0    0  501 -0.00000000000E+00 -0.00000000000E+00 -0.65910214294E+01  0.65910214294E+01  0.00000000000E+00 0.  1.
         23    2    1    2    0    0  0.00000000000E+00  0.00000000000E+00  0.31288176778E+03  0.32606381064E+03  0.91774767769E+02 0.  0.
        -11    1    3    3    0    0  0.40721047664E+02  0.18157482135E+02  0.11788706880E+03  0.12603673619E+03  0.00000000000E+00 0.  1.
         11    1    3    3    0    0 -0.40721047664E+02 -0.18157482135E+02  0.19499469898E+03  0.20002707444E+03  0.00000000000E+00 0. -1.
<mgrwt>
<rscale>  0 0.91774768E+02</rscale>
<asrwt>0</asrwt>
<pdfrwt beam="1">  1        1 0.49149648E-01 0.91774768E+02</pdfrwt>
<pdfrwt beam="2">  1       -1 0.10140035E-02 0.91774768E+02</pdfrwt>
<totfact> 0.12741266E+05</totfact>
</mgrwt>
</event>
<event>
 5    1  0.1310593E+001  0.9643305E+02  0.7546771E-02  0.1287981E+00
         -1   -1    0    0    0  501 -0.00000000000E+00  0.00000000000E+00  0.12058677552E+03  0.12058677552E+03  0.00000000000E+00 0.  1.
          1   -1    0    0  501    0  0.00000000000E+00 -0.00000000000E+00 -0.19279340175E+02  0.19279340175E+02  0.00000000000E+00 0. -1.
         23    2    1    2    0    0  0.00000000000E+00  0.00000000000E+00  0.10130743534E+03  0.13986611569E+03  0.96433053792E+02 0.  0.
        -13    1    3    3    0    0  0.21432966162E+02  0.32913272452E+02  0.10089848704E+02  0.40551949261E+02  0.00000000000E+00 0. -1.
         13    1    3    3    0    0 -0.21432966162E+02 -0.32913272452E+02  0.91217586640E+02  0.99314166434E+02  0.00000000000E+00 0.  1.
<mgrwt>
<rscale>  0 0.96433054E+02</rscale>
<asrwt>0</asrwt>
<pdfrwt beam="2">  1        1 0.29660524E-02 0.96433054E+02</pdfrwt>
<pdfrwt beam="1">  1       -1 0.18551811E-01 0.96433054E+02</pdfrwt>
<totfact> 0.67850594E+04</totfact>
</mgrwt>
</event>
<event>
 5    1  0.1310593E+001  0.9212263E+02  0.7546771E-02  0.1297791E+00
         -1   -1    0    0    0  501 -0.00000000000E+00  0.00000000000E+00  0.14353415422E+03  0.14353415422E+03  0.00000000000E+00 0.  1.
          1   -1    0    0  501    0  0.00000000000E+00 -0.00000000000E+00 -0.14781461834E+02  0.14781461834E+02  0.00000000000E+00 0. -1.
         23    2    1    2    0    0  0.00000000000E+00  0.00000000000E+00  0.12875269239E+03  0.15831561606E+03  0.92122627458E+02 0.  0.
        -11    1    3    3    0    0 -0.17800627055E+02 -0.25194651794E+02  0.55932355954E+01  0.31351508529E+02  0.00000000000E+00 0. -1.
         11    1    3    3    0    0  0.17800627055E+02  0.25194651794E+02  0.12315945679E+03  0.12696410753E+03  0.00000000000E+00 0.  1.
<mgrwt>
<rscale>  0 0.92122627E+02</rscale>
<asrwt>0</asrwt>
<pdfrwt beam="2">  1        1 0.22740712E-02 0.92122627E+02</pdfrwt>
<pdfrwt beam="1">  1       -1 0.22082177E-01 0.92122627E+02</pdfrwt>
<totfact> 0.73555529E+04</totfact>
</mgrwt>
</event>
<event>
 5    1  0.1310593E+001  0.9146933E+02  0.7546771E-02  0.1299332E+00
         -1   -1    0    0    0  501 -0.00000000000E+00  0.00000000000E+00  0.39666421211E+01  0.39666421211E+01  0.00000000000E+00 0.  1.
          1   -1    0    0  501    0  0.00000000000E+00 -0.00000000000E+00 -0.52731236120E+03  0.52731236120E+03  0.00000000000E+00 0. -1.
         23    2    1    2    0    0  0.00000000000E+00  0.00000000000E+00 -0.52334571908E+03  0.53127900332E+03  0.91469326506E+02 0.  0.
        -13    1    3    3    0    0  0.40061040170E+02  0.22054276687E+02 -0.26525973704E+03  0.26917281838E+03  0.00000000000E+00 0. -1.
         13    1    3    3    0    0 -0.40061040170E+02 -0.22054276687E+02 -0.25808598204E+03  0.26210618494E+03  0.00000000000E+00 0.  1.
<mgrwt>
<rscale>  0 0.91469327E+02</rscale>
<asrwt>0</asrwt>
<pdfrwt beam="2">  1        1 0.81124944E-01 0.91469327E+02</pdfrwt>
<pdfrwt beam="1">  1       -1 0.61025289E-03 0.91469327E+02</pdfrwt>
<totfact> 0.13890381E+05</totfact>
</mgrwt>
</event>
<event>
 5    1  0.1310593E+001  0.9112110E+02  0.7546771E-02  0.1300159E+00
          2   -1    0    0  501    0  0.00000000000E+00  0.00000000000E+00  0.10543627081E+03  0.10543627081E+03  0.00000000000E+00 0. -1.
         -2   -1    0    0    0  501 -0.00000000000E+00 -0.00000000000E+00 -0.19687375936E+02  0.19687375936E+02  0.00000000000E+00 0.  1.
         23    2    1    2    0    0  0.00000000000E+00  0.00000000000E+00  0.85748894874E+02  0.12512364675E+03  0.91121095268E+02 0.  0.
        -11    1    3    3    0    0 -0.20636648104E+02 -0.40122861756E+01  0.98377783321E+02  0.10059899570E+03  0.00000000000E+00 0. -1.
         11    1    3    3    0    0  0.20636648104E+02  0.40122861756E+01 -0.12628888447E+02  0.24524651042E+02  0.00000000000E+00 0.  1.
<mgrwt>
<rscale>  0 0.91121095E+02</rscale>
<asrwt>0</asrwt>
<pdfrwt beam="1">  1        2 0.16220964E-01 0.91121095E+02</pdfrwt>
<pdfrwt beam="2">  1       -2 0.30288271E-02 0.91121095E+02</pdfrwt>
<totfact> 0.12489452E+05</totfact>
</mgrwt>
</event>
<event>
 5    1  0.1310593E+001  0.9005125E+02  0.7546771E-02  0.1302728E+00
          2   -1    0    0  501    0  0.00000000000E+00  0.00000000000E+00  0.31201035299E+02  0.31201035299E+02  0.00000000000E+00 0. -1.
         -2   -1    0    0    0  501 -0.00000000000E+00 -0.00000000000E+00 -0.64975623366E+02  0.64975623366E+02  0.00000000000E+00 0.  1.
         23    2    1    2    0    0  0.00000000000E+00  0.00000000000E+00 -0.33774588067E+02  0.96176658664E+02  0.90051245814E+02 0.  0.
        -13    1    3    3    0    0 -0.17988741903E+02  0.28304619181E+02  0.15198892261E+02  0.36820546278E+02  0.00000000000E+00 0. -1.
         13    1    3    3    0    0  0.17988741903E+02 -0.28304619181E+02 -0.48973480328E+02  0.59356112387E+02  0.00000000000E+00 0.  1.
<mgrwt>
<rscale>  0 0.90051246E+02</rscale>
<asrwt>0</asrwt>
<pdfrwt beam="1">  1        2 0.48001593E-02 0.90051246E+02</pdfrwt>
<pdfrwt beam="2">  1       -2 0.99962497E-02 0.90051246E+02</pdfrwt>
<totfact> 0.92732220E+04</totfact>
</mgrwt>
</event>
<event>
 5    1  0.1310593E+001  0.9147463E+02  0.7546771E-02  0.1299319E+00
         -4   -1    0    0    0  501 -0.00000000000E+00  0.00000000000E+00  0.18752705890E+02  0.18752705890E+02  0.00000000000E+00 0.  1.
          4   -1    0    0  501    0  0.00000000000E+00 -0.00000000000E+00 -0.11155201573E+03  0.11155201573E+03  0.00000000000E+00 0. -1.
         23    2    1    2    0    0  0.00000000000E+00  0.00000000000E+00 -0.92799309843E+02  0.13030472162E+03  0.91474633478E+02 0.  0.
        -13    1    3    3    0    0  0.44729888045E+02 -0.76085010387E+01 -0.54613662575E+02  0.71002143013E+02  0.00000000000E+00 0.  1.
         13    1    3    3    0    0 -0.44729888045E+02  0.76085010387E+01 -0.38185647268E+02  0.59302578610E+02  0.00000000000E+00 0. -1.
<mgrwt>
<rscale>  0 0.91474633E+02</rscale>
<asrwt>0</asrwt>
<pdfrwt beam="2">  1        4 0.17161849E-01 0.91474633E+02</pdfrwt>
<pdfrwt beam="1">  1       -4 0.28850316E-02 0.91474633E+02</pdfrwt>
<totfact> 0.24484500E+04</totfact>
</mgrwt>
</event>
<event>
 5    1  0.1310593E+001  0.8992322E+02  0.7546771E-02  0.1303038E+00
          2   -1    0    0  501    0  0.00000000000E+00  0.00000000000E+00  0.41171120917E+03  0.41171120917E+03  0.00000000000E+00 0.  1.
         -2   -1    0    0    0  501 -0.00000000000E+00 -0.00000000000E+00 -0.49101072071E+01  0.49101072071E+01  0.00000000000E+00 0. -1.
         23    2    1    2    0    0  0.00000000000E+00  0.00000000000E+00  0.40680110197E+03  0.41662131638E+03  0.89923215588E+02 0.  0.
        -11    1    3    3    0    0  0.19967998186E+02  0.39018622794E+02  0.24981750036E+03  0.25363350993E+03  0.00000000000E+00 0.  1.
         11    1    3    3    0    0 -0.19967998186E+02 -0.39018622794E+02  0.15698360161E+03  0.16298780645E+03  0.00000000000E+00 0. -1.
<mgrwt>
<rscale>  0 0.89923216E+02</rscale>
<asrwt>0</asrwt>
<pdfrwt beam="1">  1        2 0.63340159E-01 0.89923216E+02</pdfrwt>
<pdfrwt beam="2">  1       -2 0.75540143E-03 0.89923216E+02</pdfrwt>
<totfact> 0.20922501E+05</totfact>
</mgrwt>
</event>
<event>
 5    1  0.1310593E+001  0.9050661E+02  0.7546771E-02  0.1301629E+00
          2   -1    0    0  501    0  0.00000000000E+00  0.00000000000E+00  0.43235186225E+02  0.43235186225E+02  0.00000000000E+00 0. -1.
         -2   -1    0    0    0  501 -0.00000000000E+00 -0.00000000000E+00 -0.47365627599E+02  0.47365627599E+02  0.00000000000E+00 0.  1.
         23    2    1    2    0    0  0.00000000000E+00  0.00000000000E+00 -0.41304413739E+01  0.90600813824E+02  0.90506612574E+02 0.  0.
        -11    1    3    3    0    0 -0.36437738688E+02  0.26233832655E+02  0.35921173408E+01  0.45042491976E+02  0.00000000000E+00 0.  1.
         11    1    3    3    0    0  0.36437738688E+02 -0.26233832655E+02 -0.77225587147E+01  0.45558321847E+02  0.00000000000E+00 0. -1.
<mgrwt>
<rscale>  0 0.90506613E+02</rscale>
<asrwt>0</asrwt>
<pdfrwt beam="1">  1        2 0.66515671E-02 0.90506613E+02</pdfrwt>
<pdfrwt beam="2">  1       -2 0.72870196E-02 0.90506613E+02</pdfrwt>
<totfact> 0.99415784E+04</totfact>
</mgrwt>
</event>
<event>
 5    1  0.1310593E+001  0.9218166E+02  0.7546771E-02  0.1297653E+00
         -1   -1    0    0    0  501 -0.00000000000E+00  0.00000000000E+00  0.10828544772E+02  0.10828544772E+02  0.00000000000E+00 0.  1.
          1   -1    0    0  501    0  0.00000000000E+00 -0.00000000000E+00 -0.19618189646E+03  0.19618189646E+03  0.00000000000E+00 0. -1.
         23    2    1    2    0    0  0.00000000000E+00  0.00000000000E+00 -0.18535335169E+03  0.20701044123E+03  0.92181656511E+02 0.  0.
        -11    1    3    3    0    0  0.11069404122E+02 -0.36336806711E+02 -0.34053294413E+02  0.51014920268E+02  0.00000000000E+00 0.  1.
         11    1    3    3    0    0 -0.11069404122E+02  0.36336806711E+02 -0.15130005727E+03  0.15599552096E+03  0.00000000000E+00 0. -1.
<mgrwt>
<rscale>  0 0.92181657E+02</rscale>
<asrwt>0</asrwt>
<pdfrwt beam="2">  1        1 0.30181830E-01 0.92181657E+02</pdfrwt>
<pdfrwt beam="1">  1       -1 0.16659300E-02 0.92181657E+02</pdfrwt>
<totfact> 0.11454186E+05</totfact>
</mgrwt>
</event>
<event>
 5    1  0.1310593E+001  0.8118025E+02  0.7546771E-02  0.1325735E+00
          2   -1    0    0  501    0  0.00000000000E+00  0.00000000000E+00  0.34073331733E+03  0.34073331733E+03  0.00000000000E+00 0. -1.
         -2   -1    0    0    0  501 -0.00000000000E+00 -0.00000000000E+00 -0.48353300582E+01  0.48353300582E+01  0.00000000000E+00 0.  1.
         23    2    1    2    0    0  0.00000000000E+00  0.00000000000E+00  0.33589798727E+03  0.34556864739E+03  0.81180245161E+02 0.  0.
        -11    1    3    3    0    0 -0.12007504219E+02  0.38586579580E+02  0.18413257151E+03  0.18851500782E+03  0.00000000000E+00 0.  1.
         11    1    3    3    0    0  0.12007504219E+02 -0.38586579580E+02  0.15176541576E+03  0.15705363957E+03  0.00000000000E+00 0. -1.
<mgrwt>
<rscale>  0 0.81180245E+02</rscale>
<asrwt>0</asrwt>
<pdfrwt beam="1">  1        2 0.52420492E-01 0.81180245E+02</pdfrwt>
<pdfrwt beam="2">  1       -2 0.74389720E-03 0.81180245E+02</pdfrwt>
<totfact> 0.25602770E+05</totfact>
</mgrwt>
</event>
<event>
 5    1  0.1310593E+001  0.9411173E+02  0.7546771E-02  0.1293189E+00
          4   -1    0    0  501    0  0.00000000000E+00  0.00000000000E+00  0.63365126678E+02  0.63365126678E+02  0.00000000000E+00 0. -1.
         -4   -1    0    0    0  501 -0.00000000000E+00 -0.00000000000E+00 -0.34944370953E+02  0.34944370953E+02  0.00000000000E+00 0.  1.
         23    2    1    2    0    0  0.00000000000E+00  0.00000000000E+00  0.28420755725E+02  0.98309497631E+02  0.94111731300E+02 0.  0.
        -11    1    3    3    0    0 -0.60836741879E+01 -0.24795905787E+02 -0.27079987563E+02  0.37217922589E+02  0.00000000000E+00 0.  1.
         11    1    3    3    0    0  0.60836741879E+01  0.24795905787E+02  0.55500743288E+02  0.61091575041E+02  0.00000000000E+00 0. -1.
<mgrwt>
<rscale>  0 0.94111731E+02</rscale>
<asrwt>0</asrwt>
<pdfrwt beam="1">  1        4 0.97484810E-02 0.94111731E+02</pdfrwt>
<pdfrwt beam="2">  1       -4 0.53760571E-02 0.94111731E+02</pdfrwt>
<totfact> 0.24368738E+04</totfact>
</mgrwt>
</event>
<event>
 5    1  0.1310593E+001  0.9516567E+02  0.7546771E-02  0.1290803E+00
          3   -1    0    0  501    0  0.00000000000E+00  0.00000000000E+00  0.82393122745E+01  0.82393122745E+01  0.00000000000E+00 0. -1.
         -3   -1    0    0    0  501 -0.00000000000E+00 -0.00000000000E+00 -0.27479554679E+03  0.27479554679E+03  0.00000000000E+00 0.  1.
         23    2    1    2    0    0  0.00000000000E+00  0.00000000000E+00 -0.26655623452E+03  0.28303485907E+03  0.95165672838E+02 0.  0.
        -13    1    3    3    0    0 -0.33608551207E+02 -0.30339512813E+02 -0.17679658416E+03  0.18250219978E+03  0.00000000000E+00 0.  1.
         13    1    3    3    0    0  0.33608551207E+02  0.30339512813E+02 -0.89759650359E+02  0.10053265929E+03  0.00000000000E+00 0. -1.
<mgrwt>
<rscale>  0 0.95165673E+02</rscale>
<asrwt>0</asrwt>
<pdfrwt beam="1">  1        3 0.12675863E-02 0.95165673E+02</pdfrwt>
<pdfrwt beam="2">  1       -3 0.42276245E-01 0.95165673E+02</pdfrwt>
<totfact> 0.22003918E+04</totfact>
</mgrwt>
</event>
<event>
 5    1  0.1310593E+001  0.9113671E+02  0.7546771E-02  0.1300122E+00
          1   -1    0    0  501    0  0.00000000000E+00  0.00000000000E+00  0.87961961927E+01  0.87961961927E+01  0.00000000000E+00 0. -1.
         -1   -1    0    0    0  501 -0.00000000000E+00 -0.00000000000E+00 -0.23606509528E+03  0.23606509528E+03  0.00000000000E+00 0.  1.
         23    2    1    2    0    0  0.00000000000E+00  0.00000000000E+00 -0.22726889909E+03  0.24486129147E+03  0.91136708133E+02 0.  0.
        -13    1    3    3    0    0  0.13183283079E+02  0.43072484224E+02 -0.95129598235E+02  0.10525530063E+03  0.00000000000E+00 0. -1.
         13    1    3    3    0    0 -0.13183283079E+02 -0.43072484224E+02 -0.13213930085E+03  0.13960599085E+03  0.00000000000E+00 0.  1.
<mgrwt>
<rscale>  0 0.91136708E+02</rscale>
<asrwt>0</asrwt>
<pdfrwt beam="1">  1        1 0.13532609E-02 0.91136708E+02</pdfrwt>
<pdfrwt beam="2">  1       -1 0.36317708E-01 0.91136708E+02</pdfrwt>
<totfact> 0.66083555E+04</totfact>
</mgrwt>
</event>
<event>
 5    1  0.1310593E+001  0.9256063E+02  0.7546771E-02  0.1296767E+00
          1   -1    0    0  501    0  0.00000000000E+00  0.00000000000E+00  0.14122248807E+03  0.14122248807E+03  0.00000000000E+00 0. -1.
         -1   -1    0    0    0  501 -0.00000000000E+00 -0.00000000000E+00 -0.15166619586E+02  0.15166619586E+02  0.00000000000E+00 0.  1.
         23    2    1    2    0    0  0.00000000000E+00  0.00000000000E+00  0.12605586848E+03  0.15638910765E+03  0.92560634255E+02 0.  0.
        -11    1    3    3    0    0 -0.39491344416E+02  0.12850251353E+02  0.28518485582E+02  0.50378559562E+02  0.00000000000E+00 0. -1.
         11    1    3    3    0    0  0.39491344416E+02 -0.12850251353E+02  0.97537382899E+02  0.10601054809E+03  0.00000000000E+00 0.  1.
<mgrwt>
<rscale>  0 0.92560634E+02</rscale>
<asrwt>0</asrwt>
<pdfrwt beam="1">  1        1 0.21726536E-01 0.92560634E+02</pdfrwt>
<pdfrwt beam="2">  1       -1 0.23333262E-02 0.92560634E+02</pdfrwt>
<totfact> 0.10647468E+05</totfact>
</mgrwt>
</event>
<event>
 5    1  0.1310593E+001  0.9158287E+02  0.7546771E-02  0.1299063E+00
         -4   -1    0    0    0  501 -0.00000000000E+00  0.00000000000E+00  0.23210275887E+02  0.23210275887E+02  0.00000000000E+00 0.  1.
          4   -1    0    0  501    0  0.00000000000E+00 -0.00000000000E+00 -0.90341689288E+02  0.90341689288E+02  0.00000000000E+00 0. -1.
         23    2    1    2    0    0  0.00000000000E+00  0.00000000000E+00 -0.67131413401E+02  0.11355196518E+03  0.91582870286E+02 0.  0.
        -13    1    3    3    0    0  0.22603348344E+02  0.23484086721E+02  0.63123002429E+01  0.33200283430E+02  0.00000000000E+00 0.  1.
         13    1    3    3    0    0 -0.22603348344E+02 -0.23484086721E+02 -0.73443713644E+02  0.80351681745E+02  0.00000000000E+00 0. -1.
<mgrwt>
<rscale>  0 0.91582870E+02</rscale>
<asrwt>0</asrwt>
<pdfrwt beam="2">  1        4 0.13898721E-01 0.91582870E+02</pdfrwt>
<pdfrwt beam="1">  1       -4 0.35708117E-02 0.91582870E+02</pdfrwt>
<totfact> 0.25336705E+04</totfact>
</mgrwt>
</event>
<event>
 5    1  0.1310593E+001  0.9215348E+02  0.7546771E-02  0.1297719E+00
         -1   -1    0    0    0  501 -0.00000000000E+00  0.00000000000E+00  0.13734767256E+03  0.13734767256E+03  0.00000000000E+00 0.  1.
          1   -1    0    0  501    0  0.00000000000E+00 -0.00000000000E+00 -0.15457605192E+02  0.15457605192E+02  0.00000000000E+00 0. -1.
         23    2    1    2    0    0  0.00000000000E+00  0.00000000000E+00  0.12189006737E+03  0.15280527775E+03  0.92153482767E+02 0.  0.
        -13    1    3    3    0    0 -0.41084745203E+02  0.20733996039E+02  0.64730297520E+02  0.79422076888E+02  0.00000000000E+00 0. -1.
         13    1    3    3    0    0  0.41084745203E+02 -0.20733996039E+02  0.57159769849E+02  0.73383200866E+02  0.00000000000E+00 0.  1.
<mgrwt>
<rscale>  0 0.92153483E+02</rscale>
<asrwt>0</asrwt>
<pdfrwt beam="2">  1        1 0.23780932E-02 0.92153483E+02</pdfrwt>
<pdfrwt beam="1">  1       -1 0.21130410E-01 0.92153483E+02</pdfrwt>
<totfact> 0.74224077E+04</totfact>
</mgrwt>
</event>
<event>
 5    1  0.1310593E+001  0.8881299E+02  0.7546771E-02  0.1305752E+00
         -2   -1    0    0    0  501 -0.00000000000E+00  0.00000000000E+00  0.70954199414E+01  0.70954199414E+01  0.00000000000E+00 0.  1.
          2   -1    0    0  501    0  0.00000000000E+00 -0.00000000000E+00 -0.27791683626E+03  0.27791683626E+03  0.00000000000E+00 0. -1.
         23    2    1    2    0    0  0.00000000000E+00  0.00000000000E+00 -0.27082141632E+03  0.28501225620E+03  0.88812986934E+02 0.  0.
        -13    1    3    3    0    0  0.71343969198E+01 -0.39720594456E+02 -0.19487156785E+03  0.19900641497E+03  0.00000000000E+00 0. -1.
         13    1    3    3    0    0 -0.71343969198E+01  0.39720594456E+02 -0.75949848471E+02  0.86005841233E+02  0.00000000000E+00 0.  1.
<mgrwt>
<rscale>  0 0.88812987E+02</rscale>
<asrwt>0</asrwt>
<pdfrwt beam="2">  1        2 0.42756441E-01 0.88812987E+02</pdfrwt>
<pdfrwt beam="1">  1       -2 0.10916030E-02 0.88812987E+02</pdfrwt>
<totfact> 0.18727957E+05</totfact>
</mgrwt>
</event>
<event>
 5    1  0.1310593E+001  0.9123227E+02  0.7546771E-02  0.1299895E+00
         -1   -1    0    0    0  501 -0.00000000000E+00  0.00000000000E+00  0.42646232619E+02  0.42646232619E+02  0.00000000000E+00 0.  1.
          1   -1    0    0  501    0  0.00000000000E+00 -0.00000000000E+00 -0.48792860357E+02  0.48792860357E+02  0.00000000000E+00 0. -1.
         23    2    1    2    0    0  0.00000000000E+00  0.00000000000E+00 -0.61466277378E+01  0.91439092975E+02  0.91232267820E+02 0.  0.
        -11    1    3    3    0    0 -0.22562558729E+02  0.38265888781E+02 -0.13464284114E+02  0.46418037952E+02  0.00000000000E+00 0. -1.
         11    1    3    3    0    0  0.22562558729E+02 -0.38265888781E+02  0.73176563761E+01  0.45021055024E+02  0.00000000000E+00 0.  1.
<mgrwt>
<rscale>  0 0.91232268E+02</rscale>
<asrwt>0</asrwt>
<pdfrwt beam="2">  1        1 0.75065939E-02 0.91232268E+02</pdfrwt>
<pdfrwt beam="1">  1       -1 0.65609589E-02 0.91232268E+02</pdfrwt>
<totfact> 0.93261699E+04</totfact>
</mgrwt>
</event>
<event>
 5    1  0.1310593E+001  0.9128392E+02  0.7546771E-02  0.1299772E+00
         -1   -1    0    0    0  501 -0.00000000000E+00  0.00000000000E+00  0.81575340417E+02  0.81575340417E+02  0.00000000000E+00 0.  1.
          1   -1    0    0  501    0  0.00000000000E+00 -0.00000000000E+00 -0.25536988226E+02  0.25536988226E+02  0.00000000000E+00 0. -1.
         23    2    1    2    0    0  0.00000000000E+00  0.00000000000E+00  0.56038352191E+02  0.10711232864E+03  0.91283919893E+02 0.  0.
        -13    1    3    3    0    0  0.23692870674E+02 -0.40412964842E+01  0.73547973750E+02  0.77375633379E+02  0.00000000000E+00 0.  1.
         13    1    3    3    0    0 -0.23692870674E+02  0.40412964842E+01 -0.17509621559E+02  0.29736695264E+02  0.00000000000E+00 0. -1.
<mgrwt>
<rscale>  0 0.91283920E+02</rscale>
<asrwt>0</asrwt>
<pdfrwt beam="2">  1        1 0.39287675E-02 0.91283920E+02</pdfrwt>
<pdfrwt beam="1">  1       -1 0.12550052E-01 0.91283920E+02</pdfrwt>
<totfact> 0.84117432E+04</totfact>
</mgrwt>
</event>
<event>
 5    1  0.1310593E+001  0.8856376E+02  0.7546771E-02  0.1306367E+00
          1   -1    0    0  501    0  0.00000000000E+00  0.00000000000E+00  0.15441712000E+02  0.15441712000E+02  0.00000000000E+00 0. -1.
         -1   -1    0    0    0  501 -0.00000000000E+00 -0.00000000000E+00 -0.12698625038E+03  0.12698625038E+03  0.00000000000E+00 0.  1.
         23    2    1    2    0    0  0.00000000000E+00  0.00000000000E+00 -0.11154453838E+03  0.14242796238E+03  0.88563764744E+02 0.  0.
        -13    1    3    3    0    0 -0.61794732166E+00 -0.41926128848E+02 -0.32875761582E+02  0.53282246937E+02  0.00000000000E+00 0. -1.
         13    1    3    3    0    0  0.61794732166E+00  0.41926128848E+02 -0.78668776802E+02  0.89145715447E+02  0.00000000000E+00 0.  1.
<mgrwt>
<rscale>  0 0.88563765E+02</rscale>
<asrwt>0</asrwt>
<pdfrwt beam="1">  1        1 0.23756479E-02 0.88563765E+02</pdfrwt>
<pdfrwt beam="2">  1       -1 0.19536347E-01 0.88563765E+02</pdfrwt>
<totfact> 0.83668383E+04</totfact>
</mgrwt>
</event>
<event>
 5    1  0.1310593E+001  0.9124017E+02  0.7546771E-02  0.1299876E+00
         -2   -1    0    0    0  501 -0.00000000000E+00  0.00000000000E+00  0.16011062429E+02  0.16011062429E+02  0.00000000000E+00 0.  1.
          2   -1    0    0  501    0  0.00000000000E+00 -0.00000000000E+00 -0.12998464950E+03  0.12998464950E+03  0.00000000000E+00 0. -1.
         23    2    1    2    0    0  0.00000000000E+00  0.00000000000E+00 -0.11397358707E+03  0.14599571193E+03  0.91240174001E+02 0.  0.
        -11    1    3    3    0    0 -0.24180943686E+02  0.37897164555E+02 -0.44563469759E+02  0.63299415130E+02  0.00000000000E+00 0.  1.
         11    1    3    3    0    0  0.24180943686E+02 -0.37897164555E+02 -0.69410117315E+02  0.82696296801E+02  0.00000000000E+00 0. -1.
<mgrwt>
<rscale>  0 0.91240174E+02</rscale>
<asrwt>0</asrwt>
<pdfrwt beam="2">  1        2 0.19997638E-01 0.91240174E+02</pdfrwt>
<pdfrwt beam="1">  1       -2 0.24632404E-02 0.91240174E+02</pdfrwt>
<totfact> 0.13302312E+05</totfact>
</mgrwt>
</event>
<event>
 5    1  0.1310593E+001  0.9786785E+02  0.7546771E-02  0.1284845E+00
         -2   -1    0    0    0  501 -0.00000000000E+00  0.00000000000E+00  0.38895091580E+02  0.38895091580E+02  0.00000000000E+00 0.  1.
          2   -1    0    0  501    0  0.00000000000E+00 -0.00000000000E+00 -0.61563783889E+02  0.61563783889E+02  0.00000000000E+00 0. -1.
         23    2    1    2    0    0  0.00000000000E+00  0.00000000000E+00 -0.22668692309E+02  0.10045887547E+03  0.97867849927E+02 0.  0.
        -11    1    3    3    0    0  0.37500993867E+01 -0.40580884555E+02  0.16468865654E+02  0.43955602289E+02  0.00000000000E+00 0.  1.
         11    1    3    3    0    0 -0.37500993867E+01  0.40580884555E+02 -0.39137557963E+02  0.56503273179E+02  0.00000000000E+00 0. -1.
<mgrwt>
<rscale>  0 0.97867850E+02</rscale>
<asrwt>0</asrwt>
<pdfrwt beam="2">  1        2 0.94713513E-02 0.97867850E+02</pdfrwt>
<pdfrwt beam="1">  1       -2 0.59838603E-02 0.97867850E+02</pdfrwt>
<totfact> 0.87366439E+04</totfact>
</mgrwt>
</event>
<event>
 5    1  0.1310593E+001  0.9097574E+02  0.7546771E-02  0.1300506E+00
         -1   -1    0    0    0  501 -0.00000000000E+00  0.00000000000E+00  0.15135671278E+02  0.15135671278E+02  0.00000000000E+00 0.  1.
          1   -1    0    0  501    0  0.00000000000E+00 -0.00000000000E+00 -0.13670661919E+03  0.13670661919E+03  0.00000000000E+00 0. -1.
         23    2    1    2    0    0  0.00000000000E+00  0.00000000000E+00 -0.12157094792E+03  0.15184229047E+03  0.90975742914E+02 0.  0.
        -11    1    3    3    0    0  0.10448186735E+02 -0.37438021989E+02 -0.10022490531E+03  0.10749791505E+03  0.00000000000E+00 0. -1.
         11    1    3    3    0    0 -0.10448186735E+02  0.37438021989E+02 -0.21346042608E+02  0.44344375421E+02  0.00000000000E+00 0.  1.
<mgrwt>
<rscale>  0 0.90975743E+02</rscale>
<asrwt>0</asrwt>
<pdfrwt beam="2">  1        1 0.21031788E-01 0.90975743E+02</pdfrwt>
<pdfrwt beam="1">  1       -1 0.23285648E-02 0.90975743E+02</pdfrwt>
<totfact> 0.11091547E+05</totfact>
</mgrwt>
</event>
<event>
 5    1  0.1310593E+001  0.9697194E+02  0.7546771E-02  0.1286796E+00
          1   -1    0    0  501    0  0.00000000000E+00  0.00000000000E+00  0.97742203500E+02  0.97742203500E+02  0.00000000000E+00 0. -1.
         -1   -1    0    0    0  501 -0.00000000000E+00 -0.00000000000E+00 -0.24051937399E+02  0.24051937399E+02  0.00000000000E+00 0.  1.
         23    2    1    2    0    0  0.00000000000E+00  0.00000000000E+00  0.73690266102E+02  0.12179414090E+03  0.96971941505E+02 0.  0.
        -13    1    3    3    0    0 -0.73124686566E+01  0.43842791898E+02  0.12515967843E+02  0.46176964499E+02  0.00000000000E+00 0.  1.
         13    1    3    3    0    0  0.73124686566E+01 -0.43842791898E+02  0.61174298259E+02  0.75617176400E+02  0.00000000000E+00 0. -1.
<mgrwt>
<rscale>  0 0.96971942E+02</rscale>
<asrwt>0</asrwt>
<pdfrwt beam="1">  1        1 0.15037262E-01 0.96971942E+02</pdfrwt>
<pdfrwt beam="2">  1       -1 0.37002981E-02 0.96971942E+02</pdfrwt>
<totfact> 0.87885635E+04</totfact>
</mgrwt>
</event>
<event>
 5    1  0.1310593E+001  0.8964344E+02  0.7546771E-02  0.1303717E+00
         -1   -1    0    0    0  501 -0.00000000000E+00  0.00000000000E+00  0.19605663608E+03  0.19605663608E+03  0.00000000000E+00 0.  1.
          1   -1    0    0  501    0  0.00000000000E+00 -0.00000000000E+00 -0.10246969616E+02  0.10246969616E+02  0.00000000000E+00 0. -1.
         23    2    1    2    0    0  0.00000000000E+00  0.00000000000E+00  0.18580966646E+03  0.20630360569E+03  0.89643435741E+02 0.  0.
        -13    1    3    3    0    0  0.44516757378E+02 -0.49060638167E+01  0.88803955458E+02  0.99458301084E+02  0.00000000000E+00 0.  1.
         13    1    3    3    0    0 -0.44516757378E+02  0.49060638167E+01  0.97005711005E+02  0.10684530461E+03  0.00000000000E+00 0. -1.
<mgrwt>
<rscale>  0 0.89643436E+02</rscale>
<asrwt>0</asrwt>
<pdfrwt beam="2">  1        1 0.15764570E-02 0.89643436E+02</pdfrwt>
<pdfrwt beam="1">  1       -1 0.30162557E-01 0.89643436E+02</pdfrwt>
<totfact> 0.72968298E+04</totfact>
</mgrwt>
</event>
<event>
 5    1  0.1310593E+001  0.9133470E+02  0.7546771E-02  0.1299651E+00
          1   -1    0    0  501    0  0.00000000000E+00  0.00000000000E+00  0.84812952203E+02  0.84812952203E+02  0.00000000000E+00 0. -1.
         -1   -1    0    0    0  501 -0.00000000000E+00 -0.00000000000E+00 -0.24589487126E+02  0.24589487126E+02  0.00000000000E+00 0.  1.
         23    2    1    2    0    0  0.00000000000E+00  0.00000000000E+00  0.60223465077E+02  0.10940243933E+03  0.91334703073E+02 0.  0.
        -11    1    3    3    0    0  0.22752426565E+02 -0.33803746195E+02  0.54139711930E+01  0.41105683980E+02  0.00000000000E+00 0.  1.
         11    1    3    3    0    0 -0.22752426565E+02  0.33803746195E+02  0.54809493884E+02  0.68296755349E+02  0.00000000000E+00 0. -1.
<mgrwt>
<rscale>  0 0.91334703E+02</rscale>
<asrwt>0</asrwt>
<pdfrwt beam="1">  1        1 0.13048146E-01 0.91334703E+02</pdfrwt>
<pdfrwt beam="2">  1       -1 0.37829980E-02 0.91334703E+02</pdfrwt>
<totfact> 0.10120211E+05</totfact>
</mgrwt>
</event>
<event>
 5    1  0.1310593E+001  0.9222169E+02  0.7546771E-02  0.1297559E+00
          1   -1    0    0  501    0  0.00000000000E+00  0.00000000000E+00  0.39341110045E+02  0.39341110045E+02  0.00000000000E+00 0. -1.
         -1   -1    0    0    0  501 -0.00000000000E+00 -0.00000000000E+00 -0.54045506866E+02  0.54045506866E+02  0.00000000000E+00 0.  1.
         23    2    1    2    0    0  0.00000000000E+00  0.00000000000E+00 -0.14704396821E+02  0.93386616910E+02  0.92221694477E+02 0.  0.
        -13    1    3    3    0    0 -0.17920129877E+02  0.14424908570E+02 -0.47819492445E+02  0.53065175961E+02  0.00000000000E+00 0.  1.
         13    1    3    3    0    0  0.17920129877E+02 -0.14424908570E+02  0.33115095624E+02  0.40321440950E+02  0.00000000000E+00 0. -1.
<mgrwt>
<rscale>  0 0.92221694E+02</rscale>
<asrwt>0</asrwt>
<pdfrwt beam="1">  1        1 0.60524785E-02 0.92221694E+02</pdfrwt>
<pdfrwt beam="2">  1       -1 0.83146934E-02 0.92221694E+02</pdfrwt>
<totfact> 0.87562500E+04</totfact>
</mgrwt>
</event>
<event>
 5    1  0.1310593E+001  0.9479251E+02  0.7546771E-02  0.1291644E+00
          3   -1    0    0  501    0  0.00000000000E+00  0.00000000000E+00  0.12632428045E+02  0.12632428045E+02  0.00000000000E+00 0. -1.
         -3   -1    0    0    0  501 -0.00000000000E+00 -0.00000000000E+00 -0.17782844041E+03  0.17782844041E+03  0.00000000000E+00 0.  1.
         23    2    1    2    0    0  0.00000000000E+00  0.00000000000E+00 -0.16519601237E+03  0.19046086846E+03  0.94792509788E+02 0.  0.
        -11    1    3    3    0    0  0.30370649022E+02 -0.34640992553E+02 -0.60221327830E+02  0.75822048328E+02  0.00000000000E+00 0.  1.
         11    1    3    3    0    0 -0.30370649022E+02  0.34640992553E+02 -0.10497468454E+03  0.11463882013E+03  0.00000000000E+00 0. -1.
<mgrwt>
<rscale>  0 0.94792510E+02</rscale>
<asrwt>0</asrwt>
<pdfrwt beam="1">  1        3 0.19434506E-02 0.94792510E+02</pdfrwt>
<pdfrwt beam="2">  1       -3 0.27358220E-01 0.94792510E+02</pdfrwt>
<totfact> 0.26098709E+04</totfact>
</mgrwt>
</event>
<event>
 5    1  0.1310593E+001  0.8673125E+02  0.7546771E-02  0.1310966E+00
         -1   -1    0    0    0  501 -0.00000000000E+00  0.00000000000E+00  0.73723309805E+01  0.73723309805E+01  0.00000000000E+00 0. -1.
          1   -1    0    0  501    0  0.00000000000E+00 -0.00000000000E+00 -0.25508588466E+03  0.25508588466E+03  0.00000000000E+00 0.  1.
         23    2    1    2    0    0  0.00000000000E+00  0.00000000000E+00 -0.24771355368E+03  0.26245821564E+03  0.86731253195E+02 0.  0.
        -11    1    3    3    0    0 -0.15481010278E+01 -0.40556747077E+02 -0.17008114421E+03  0.17485663261E+03  0.00000000000E+00 0.  1.
         11    1    3    3    0    0  0.15481010278E+01  0.40556747077E+02 -0.77632409469E+02  0.87601583034E+02  0.00000000000E+00 0. -1.
<mgrwt>
<rscale>  0 0.86731253E+02</rscale>
<asrwt>0</asrwt>
<pdfrwt beam="2">  1        1 0.39243982E-01 0.86731253E+02</pdfrwt>
<pdfrwt beam="1">  1       -1 0.11342048E-02 0.86731253E+02</pdfrwt>
<totfact> 0.14182687E+05</totfact>
</mgrwt>
</event>
<event>
 5    1  0.1310593E+001  0.9485659E+02  0.7546771E-02  0.1291499E+00
          2   -1    0    0  501    0  0.00000000000E+00  0.00000000000E+00  0.15954715355E+03  0.15954715355E+03  0.00000000000E+00 0. -1.
         -2   -1    0    0    0  501 -0.00000000000E+00 -0.00000000000E+00 -0.14098922485E+02  0.14098922485E+02  0.00000000000E+00 0.  1.
         23    2    1    2    0    0  0.00000000000E+00  0.00000000000E+00  0.14544823106E+03  0.17364607603E+03  0.94856585444E+02 0.  0.
        -13    1    3    3    0    0  0.31822840022E+02 -0.15032314297E+02  0.14523756647E+02  0.38073653979E+02  0.00000000000E+00 0.  1.
         13    1    3    3    0    0 -0.31822840022E+02  0.15032314297E+02  0.13092447442E+03  0.13557242205E+03  0.00000000000E+00 0. -1.
<mgrwt>
<rscale>  0 0.94856585E+02</rscale>
<asrwt>0</asrwt>
<pdfrwt beam="1">  1        2 0.24545715E-01 0.94856585E+02</pdfrwt>
<pdfrwt beam="2">  1       -2 0.21690651E-02 0.94856585E+02</pdfrwt>
<totfact> 0.12823706E+05</totfact>
</mgrwt>
</event>
<event>
 5    1  0.1310593E+001  0.9747956E+02  0.7546771E-02  0.1285687E+00
          1   -1    0    0  501    0  0.00000000000E+00  0.00000000000E+00  0.10915409562E+03  0.10915409562E+03  0.00000000000E+00 0. -1.
         -1   -1    0    0    0  501 -0.00000000000E+00 -0.00000000000E+00 -0.21763418770E+02  0.21763418770E+02  0.00000000000E+00 0.  1.
         23    2    1    2    0    0  0.00000000000E+00  0.00000000000E+00  0.87390676851E+02  0.13091751439E+03  0.97479562851E+02 0.  0.
        -11    1    3    3    0    0 -0.41785761519E+02 -0.22642197687E+02  0.29177781400E+02  0.55767929039E+02  0.00000000000E+00 0.  1.
         11    1    3    3    0    0  0.41785761519E+02  0.22642197687E+02  0.58212895450E+02  0.75149585351E+02  0.00000000000E+00 0. -1.
<mgrwt>
<rscale>  0 0.97479563E+02</rscale>
<asrwt>0</asrwt>
<pdfrwt beam="1">  1        1 0.16792937E-01 0.97479563E+02</pdfrwt>
<pdfrwt beam="2">  1       -1 0.33482184E-02 0.97479563E+02</pdfrwt>
<totfact> 0.88302219E+04</totfact>
</mgrwt>
</event>
<event>
 5    1  0.1310593E+001  0.9123916E+02  0.7546771E-02  0.1299878E+00
         -2   -1    0    0    0  501 -0.00000000000E+00  0.00000000000E+00  0.46793115460E+02  0.46793115460E+02  0.00000000000E+00 0.  1.
          2   -1    0    0  501    0  0.00000000000E+00 -0.00000000000E+00 -0.44475472333E+02  0.44475472333E+02  0.00000000000E+00 0. -1.
         23    2    1    2    0    0  0.00000000000E+00  0.00000000000E+00  0.23176431270E+01  0.91268587792E+02  0.91239156331E+02 0.  0.
        -11    1    3    3    0    0  0.10312467307E+02 -0.39108732358E+02  0.22267902992E+02  0.46170330650E+02  0.00000000000E+00 0. -1.
         11    1    3    3    0    0 -0.10312467307E+02  0.39108732358E+02 -0.19950259865E+02  0.45098257143E+02  0.00000000000E+00 0.  1.
<mgrwt>
<rscale>  0 0.91239156E+02</rscale>
<asrwt>0</asrwt>
<pdfrwt beam="2">  1        2 0.68423804E-02 0.91239156E+02</pdfrwt>
<pdfrwt beam="1">  1       -2 0.71989408E-02 0.91239156E+02</pdfrwt>
<totfact> 0.97851424E+04</totfact>
</mgrwt>
</event>
<event>
 5    1  0.1310593E+001  0.8655615E+02  0.7546771E-02  0.1311412E+00
          1   -1    0    0  501    0  0.00000000000E+00  0.00000000000E+00  0.43607264997E+02  0.43607264997E+02  0.00000000000E+00 0. -1.
         -1   -1    0    0    0  501 -0.00000000000E+00 -0.00000000000E+00 -0.42951368917E+02  0.42951368917E+02  0.00000000000E+00 0.  1.
         23    2    1    2    0    0  0.00000000000E+00  0.00000000000E+00  0.65589607930E+00  0.86558633914E+02  0.86556148859E+02 0.  0.
        -13    1    3    3    0    0  0.27115899937E+02  0.18358873742E+01  0.34009016172E+02  0.43534534484E+02  0.00000000000E+00 0. -1.
         13    1    3    3    0    0 -0.27115899937E+02 -0.18358873742E+01 -0.33353120092E+02  0.43024099429E+02  0.00000000000E+00 0.  1.
<mgrwt>
<rscale>  0 0.86556149E+02</rscale>
<asrwt>0</asrwt>
<pdfrwt beam="1">  1        1 0.67088100E-02 0.86556149E+02</pdfrwt>
<pdfrwt beam="2">  1       -1 0.66079029E-02 0.86556149E+02</pdfrwt>
<totfact> 0.10624627E+05</totfact>
</mgrwt>
</event>
<event>
 5    1  0.1310593E+001  0.9331725E+02  0.7546771E-02  0.1295012E+00
         -2   -1    0    0    0  501 -0.00000000000E+00  0.00000000000E+00  0.10864854686E+02  0.10864854686E+02  0.00000000000E+00 0.  1.
          2   -1    0    0  501    0  0.00000000000E+00 -0.00000000000E+00 -0.20037332607E+03  0.20037332607E+03  0.00000000000E+00 0. -1.
         23    2    1    2    0    0  0.00000000000E+00  0.00000000000E+00 -0.18950847139E+03  0.21123818076E+03  0.93317245367E+02 0.  0.
        -13    1    3    3    0    0  0.41301060540E+02 -0.27238356152E+01 -0.14350596370E+03  0.14935581174E+03  0.00000000000E+00 0. -1.
         13    1    3    3    0    0 -0.41301060540E+02  0.27238356152E+01 -0.46002507683E+02  0.61882369018E+02  0.00000000000E+00 0.  1.
<mgrwt>
<rscale>  0 0.93317245E+02</rscale>
<asrwt>0</asrwt>
<pdfrwt beam="2">  1        2 0.30826664E-01 0.93317245E+02</pdfrwt>
<pdfrwt beam="1">  1       -2 0.16715162E-02 0.93317245E+02</pdfrwt>
<totfact> 0.14539099E+05</totfact>
</mgrwt>
</event>
<event>
 5    1  0.1310593E+001  0.8909627E+02  0.7546771E-02  0.1305055E+00
          1   -1    0    0  501    0  0.00000000000E+00  0.00000000000E+00  0.70567802460E+02  0.70567802460E+02  0.00000000000E+00 0. -1.
         -1   -1    0    0    0  501 -0.00000000000E+00 -0.00000000000E+00 -0.28122406517E+02  0.28122406517E+02  0.00000000000E+00 0.  1.
         23    2    1    2    0    0  0.00000000000E+00  0.00000000000E+00  0.42445395943E+02  0.98690208978E+02  0.89096272151E+02 0.  0.
        -11    1    3    3    0    0 -0.36632880239E+02  0.98522765968E+01 -0.46482518848E+01  0.38218340026E+02  0.00000000000E+00 0.  1.
         11    1    3    3    0    0  0.36632880239E+02 -0.98522765968E+01  0.47093647828E+02  0.60471868952E+02  0.00000000000E+00 0. -1.
<mgrwt>
<rscale>  0 0.89096272E+02</rscale>
<asrwt>0</asrwt>
<pdfrwt beam="1">  1        1 0.10856585E-01 0.89096272E+02</pdfrwt>
<pdfrwt beam="2">  1       -1 0.43265241E-02 0.89096272E+02</pdfrwt>
<totfact> 0.10526523E+05</totfact>
</mgrwt>
</event>
<event>
 5    1  0.1310593E+001  0.9053893E+02  0.7546771E-02  0.1301552E+00
         -4   -1    0    0    0  501 -0.00000000000E+00  0.00000000000E+00  0.46567266959E+02  0.46567266959E+02  0.00000000000E+00 0. -1.
          4   -1    0    0  501    0  0.00000000000E+00 -0.00000000000E+00 -0.44007836345E+02  0.44007836345E+02  0.00000000000E+00 0.  1.
         23    2    1    2    0    0  0.00000000000E+00  0.00000000000E+00  0.25594306145E+01  0.90575103304E+02  0.90538934461E+02 0.  0.
        -13    1    3    3    0    0  0.35802574554E+02  0.23802226526E+02 -0.12901783879E+02  0.44886817213E+02  0.00000000000E+00 0.  1.
         13    1    3    3    0    0 -0.35802574554E+02 -0.23802226526E+02  0.15461214493E+02  0.45688286090E+02  0.00000000000E+00 0. -1.
<mgrwt>
<rscale>  0 0.90538934E+02</rscale>
<asrwt>0</asrwt>
<pdfrwt beam="2">  1        4 0.67704364E-02 0.90538934E+02</pdfrwt>
<pdfrwt beam="1">  1       -4 0.71641949E-02 0.90538934E+02</pdfrwt>
<totfact> 0.27574867E+04</totfact>
</mgrwt>
</event>
<event>
 5    1  0.1310593E+001  0.8337340E+02  0.7546771E-02  0.1319742E+00
         -2   -1    0    0    0  501 -0.00000000000E+00  0.00000000000E+00  0.15766661948E+02  0.15766661948E+02  0.00000000000E+00 0.  1.
          2   -1    0    0  501    0  0.00000000000E+00 -0.00000000000E+00 -0.11021870158E+03  0.11021870158E+03  0.00000000000E+00 0. -1.
         23    2    1    2    0    0  0.00000000000E+00  0.00000000000E+00 -0.94452039629E+02  0.12598536353E+03  0.83373401229E+02 0.  0.
        -11    1    3    3    0    0 -0.31307264242E+01  0.29204053576E+02 -0.25245179233E+01  0.29479677474E+02  0.00000000000E+00 0.  1.
         11    1    3    3    0    0  0.31307264242E+01 -0.29204053576E+02 -0.91927521706E+02  0.96505686051E+02  0.00000000000E+00 0. -1.
<mgrwt>
<rscale>  0 0.83373401E+02</rscale>
<asrwt>0</asrwt>
<pdfrwt beam="2">  1        2 0.16956724E-01 0.83373401E+02</pdfrwt>
<pdfrwt beam="1">  1       -2 0.24256402E-02 0.83373401E+02</pdfrwt>
<totfact> 0.16129698E+05</totfact>
</mgrwt>
</event>
<event>
 5    1  0.1310593E+001  0.9122430E+02  0.7546771E-02  0.1299914E+00
          1   -1    0    0  501    0  0.00000000000E+00  0.00000000000E+00  0.29870641494E+02  0.29870641494E+02  0.00000000000E+00 0. -1.
         -1   -1    0    0    0  501 -0.00000000000E+00 -0.00000000000E+00 -0.69649269266E+02  0.69649269266E+02  0.00000000000E+00 0.  1.
         23    2    1    2    0    0  0.00000000000E+00  0.00000000000E+00 -0.39778627771E+02  0.99519910760E+02  0.91224302739E+02 0.  0.
        -13    1    3    3    0    0  0.29585685637E+02  0.29478948915E+02 -0.39890885817E+02  0.57754688078E+02  0.00000000000E+00 0. -1.
         13    1    3    3    0    0 -0.29585685637E+02 -0.29478948915E+02  0.11225804587E+00  0.41765222681E+02  0.00000000000E+00 0.  1.
<mgrwt>
<rscale>  0 0.91224303E+02</rscale>
<asrwt>0</asrwt>
<pdfrwt beam="1">  1        1 0.45954833E-02 0.91224303E+02</pdfrwt>
<pdfrwt beam="2">  1       -1 0.10715272E-01 0.91224303E+02</pdfrwt>
<totfact> 0.86494640E+04</totfact>
</mgrwt>
</event>
<event>
 5    1  0.1310593E+001  0.9365256E+02  0.7546771E-02  0.1294240E+00
          2   -1    0    0  501    0  0.00000000000E+00  0.00000000000E+00  0.24203902077E+03  0.24203902077E+03  0.00000000000E+00 0. -1.
         -2   -1    0    0    0  501 -0.00000000000E+00 -0.00000000000E+00 -0.90592852853E+01  0.90592852853E+01  0.00000000000E+00 0.  1.
         23    2    1    2    0    0  0.00000000000E+00  0.00000000000E+00  0.23297973548E+03  0.25109830605E+03  0.93652560869E+02 0.  0.
        -11    1    3    3    0    0  0.34885151334E+02 -0.26947373072E+02  0.74133696475E+02  0.86249287835E+02  0.00000000000E+00 0.  1.
         11    1    3    3    0    0 -0.34885151334E+02  0.26947373072E+02  0.15884603901E+03  0.16484901822E+03  0.00000000000E+00 0. -1.
<mgrwt>
<rscale>  0 0.93652561E+02</rscale>
<asrwt>0</asrwt>
<pdfrwt beam="1">  1        2 0.37236768E-01 0.93652561E+02</pdfrwt>
<pdfrwt beam="2">  1       -2 0.13937364E-02 0.93652561E+02</pdfrwt>
<totfact> 0.15434808E+05</totfact>
</mgrwt>
</event>
<event>
 5    1  0.1310593E+001  0.9069208E+02  0.7546771E-02  0.1301184E+00
          3   -1    0    0  501    0  0.00000000000E+00  0.00000000000E+00  0.63763447459E+02  0.63763447459E+02  0.00000000000E+00 0. -1.
         -3   -1    0    0    0  501 -0.00000000000E+00 -0.00000000000E+00 -0.32248311241E+02  0.32248311241E+02  0.00000000000E+00 0.  1.
         23    2    1    2    0    0  0.00000000000E+00  0.00000000000E+00  0.31515136217E+02  0.96011758700E+02  0.90692083435E+02 0.  0.
        -13    1    3    3    0    0 -0.71911636533E+00  0.13403805882E+02 -0.30096854309E+02  0.32954510765E+02  0.00000000000E+00 0.  1.
         13    1    3    3    0    0  0.71911636533E+00 -0.13403805882E+02  0.61611990526E+02  0.63057247935E+02  0.00000000000E+00 0. -1.
<mgrwt>
<rscale>  0 0.90692083E+02</rscale>
<asrwt>0</asrwt>
<pdfrwt beam="1">  1        3 0.98097611E-02 0.90692083E+02</pdfrwt>
<pdfrwt beam="2">  1       -3 0.49612787E-02 0.90692083E+02</pdfrwt>
<totfact> 0.35480269E+04</totfact>
</mgrwt>
</event>
<event>
 5    1  0.1310593E+001  0.9046874E+02  0.7546771E-02  0.1301721E+00
         -1   -1    0    0    0  501 -0.00000000000E+00  0.00000000000E+00  0.18919036065E+02  0.18919036065E+02  0.00000000000E+00 0.  1.
          1   -1    0    0  501    0  0.00000000000E+00 -0.00000000000E+00 -0.10815286883E+03  0.10815286883E+03  0.00000000000E+00 0. -1.
         23    2    1    2    0    0  0.00000000000E+00  0.00000000000E+00 -0.89233832769E+02  0.12707190490E+03  0.90468735507E+02 0.  0.
        -11    1    3    3    0    0 -0.30984796669E+02  0.32898208517E+02 -0.47354354961E+02  0.65458266720E+02  0.00000000000E+00 0. -1.
         11    1    3    3    0    0  0.30984796669E+02 -0.32898208517E+02 -0.41879477809E+02  0.61613638180E+02  0.00000000000E+00 0.  1.
<mgrwt>
<rscale>  0 0.90468736E+02</rscale>
<asrwt>0</asrwt>
<pdfrwt beam="2">  1        1 0.16638903E-01 0.90468736E+02</pdfrwt>
<pdfrwt beam="1">  1       -1 0.29106209E-02 0.90468736E+02</pdfrwt>
<totfact> 0.10810096E+05</totfact>
</mgrwt>
</event>
<event>
 5    1  0.1310593E+001  0.8881421E+02  0.7546771E-02  0.1305749E+00
          1   -1    0    0  501    0  0.00000000000E+00  0.00000000000E+00  0.25489812364E+02  0.25489812364E+02  0.00000000000E+00 0. -1.
         -1   -1    0    0    0  501 -0.00000000000E+00 -0.00000000000E+00 -0.77363879648E+02  0.77363879648E+02  0.00000000000E+00 0.  1.
         23    2    1    2    0    0  0.00000000000E+00  0.00000000000E+00 -0.51874067284E+02  0.10285369201E+03  0.88814205529E+02 0.  0.
        -13    1    3    3    0    0  0.98027434673E+01 -0.10001219901E+02  0.22865610549E+02  0.26813323643E+02  0.00000000000E+00 0. -1.
         13    1    3    3    0    0 -0.98027434673E+01  0.10001219901E+02 -0.74739677833E+02  0.76040368368E+02  0.00000000000E+00 0.  1.
<mgrwt>
<rscale>  0 0.88814206E+02</rscale>
<asrwt>0</asrwt>
<pdfrwt beam="1">  1        1 0.39215096E-02 0.88814206E+02</pdfrwt>
<pdfrwt beam="2">  1       -1 0.11902135E-01 0.88814206E+02</pdfrwt>
<totfact> 0.91033173E+04</totfact>
</mgrwt>
</event>
<event>
 5    1  0.1310593E+001  0.9059141E+02  0.7546771E-02  0.1301426E+00
          1   -1    0    0  501    0  0.00000000000E+00  0.00000000000E+00  0.13736588160E+02  0.13736588160E+02  0.00000000000E+00 0. -1.
         -1   -1    0    0    0  501 -0.00000000000E+00 -0.00000000000E+00 -0.14936030749E+03  0.14936030749E+03  0.00000000000E+00 0.  1.
         23    2    1    2    0    0  0.00000000000E+00  0.00000000000E+00 -0.13562371933E+03  0.16309689565E+03  0.90591413088E+02 0.  0.
        -11    1    3    3    0    0  0.42424179221E+02 -0.24734826249E+01 -0.96036265159E+02  0.10501853800E+03  0.00000000000E+00 0.  1.
         11    1    3    3    0    0 -0.42424179221E+02  0.24734826249E+01 -0.39587454168E+02  0.58078357642E+02  0.00000000000E+00 0. -1.
<mgrwt>
<rscale>  0 0.90591413E+02</rscale>
<asrwt>0</asrwt>
<pdfrwt beam="1">  1        1 0.21133213E-02 0.90591413E+02</pdfrwt>
<pdfrwt beam="2">  1       -1 0.22978509E-01 0.90591413E+02</pdfrwt>
<totfact> 0.76124523E+04</totfact>
</mgrwt>
</event>
<event>
 5    1  0.1310593E+001  0.9422274E+02  0.7546771E-02  0.1292936E+00
          2   -1    0    0  501    0  0.00000000000E+00  0.00000000000E+00  0.88020403981E+01  0.88020403981E+01  0.00000000000E+00 0. -1.
         -2   -1    0    0    0  501 -0.00000000000E+00 -0.00000000000E+00 -0.25215532035E+03  0.25215532035E+03  0.00000000000E+00 0.  1.
         23    2    1    2    0    0  0.00000000000E+00  0.00000000000E+00 -0.24335327995E+03  0.26095736074E+03  0.94222742823E+02 0.  0.
        -11    1    3    3    0    0  0.16422521708E+01 -0.35796578655E+02 -0.36971453409E+02  0.51487672338E+02  0.00000000000E+00 0. -1.
         11    1    3    3    0    0 -0.16422521708E+01  0.35796578655E+02 -0.20638182654E+03  0.20946968841E+03  0.00000000000E+00 0.  1.
<mgrwt>
<rscale>  0 0.94222743E+02</rscale>
<asrwt>0</asrwt>
<pdfrwt beam="1">  1        2 0.13541599E-02 0.94222743E+02</pdfrwt>
<pdfrwt beam="2">  1       -2 0.38793131E-01 0.94222743E+02</pdfrwt>
<totfact> 0.51405452E+04</totfact>
</mgrwt>
</event>
<event>
 4    1  0.1310593E+001  0.4675592E+02  0.7546771E-02  0.1463668E+00
         -2   -1    0    0    0  501 -0.00000000000E+00  0.00000000000E+00  0.15199283089E+02  0.15199283089E+02  0.00000000000E+00 0. -1.
          2   -1    0    0  501    0  0.00000000000E+00 -0.00000000000E+00 -0.35957557979E+02  0.35957557979E+02  0.00000000000E+00 0.  1.
        -13    1    1    2    0    0  0.15383181733E+02 -0.43561509421E+01 -0.29040655865E+02  0.33150837461E+02  0.00000000000E+00 0.  1.
         13    1    1    2    0    0 -0.15383181733E+02  0.43561509421E+01  0.82823809751E+01  0.18006003607E+02  0.00000000000E+00 0. -1.
<mgrwt>
<rscale>  0 0.46755924E+02</rscale>
<asrwt>0</asrwt>
<pdfrwt beam="2">  1        2 0.55319319E-02 0.46755924E+02</pdfrwt>
<pdfrwt beam="1">  1       -2 0.23383513E-02 0.46755924E+02</pdfrwt>
<totfact> 0.57524210E+05</totfact>
</mgrwt>
</event>
<event>
 5    1  0.1310593E+001  0.9293724E+02  0.7546771E-02  0.1295891E+00
         -1   -1    0    0    0  501 -0.00000000000E+00  0.00000000000E+00  0.34059246174E+02  0.34059246174E+02  0.00000000000E+00 0.  1.
          1   -1    0    0  501    0  0.00000000000E+00 -0.00000000000E+00 -0.63399313000E+02  0.63399313000E+02  0.00000000000E+00 0. -1.
         23    2    1    2    0    0  0.00000000000E+00  0.00000000000E+00 -0.29340066826E+02  0.97458559174E+02  0.92937243530E+02 0.  0.
        -13    1    3    3    0    0 -0.35860233255E+02 -0.14819493387E+02 -0.41482642170E+02  0.56801261560E+02  0.00000000000E+00 0.  1.
         13    1    3    3    0    0  0.35860233255E+02  0.14819493387E+02  0.12142575343E+02  0.40657297615E+02  0.00000000000E+00 0. -1.
<mgrwt>
<rscale>  0 0.92937244E+02</rscale>
<asrwt>0</asrwt>
<pdfrwt beam="2">  1        1 0.97537405E-02 0.92937244E+02</pdfrwt>
<pdfrwt beam="1">  1       -1 0.52398840E-02 0.92937244E+02</pdfrwt>
<totfact> 0.92158939E+04</totfact>
</mgrwt>
</event>
<event>
 5    1  0.1310593E+001  0.8905674E+02  0.7546771E-02  0.1305152E+00
          1   -1    0    0  501    0  0.00000000000E+00  0.00000000000E+00  0.67298558796E+02  0.67298558796E+02  0.00000000000E+00 0. -1.
         -1   -1    0    0    0  501 -0.00000000000E+00 -0.00000000000E+00 -0.29462377300E+02  0.29462377300E+02  0.00000000000E+00 0.  1.
         23    2    1    2    0    0  0.00000000000E+00  0.00000000000E+00  0.37836181496E+02  0.96760936096E+02  0.89056735421E+02 0.  0.
        -13    1    3    3    0    0 -0.33895642227E+02 -0.28851997570E+02  0.17621905580E+02  0.47873624075E+02  0.00000000000E+00 0. -1.
         13    1    3    3    0    0  0.33895642227E+02  0.28851997570E+02  0.20214275916E+02  0.48887312021E+02  0.00000000000E+00 0.  1.
<mgrwt>
<rscale>  0 0.89056735E+02</rscale>
<asrwt>0</asrwt>
<pdfrwt beam="1">  1        1 0.10353624E-01 0.89056735E+02</pdfrwt>
<pdfrwt beam="2">  1       -1 0.45326734E-02 0.89056735E+02</pdfrwt>
<totfact> 0.10463801E+05</totfact>
</mgrwt>
</event>
<event>
 5    1  0.1310593E+001  0.9188172E+02  0.7546771E-02  0.1298358E+00
          3   -1    0    0  501    0  0.00000000000E+00  0.00000000000E+00  0.17847060284E+02  0.17847060284E+02  0.00000000000E+00 0. -1.
         -3   -1    0    0    0  501 -0.00000000000E+00 -0.00000000000E+00 -0.11825828154E+03  0.11825828154E+03  0.00000000000E+00 0.  1.
         23    2    1    2    0    0  0.00000000000E+00  0.00000000000E+00 -0.10041122125E+03  0.13610534182E+03  0.91881721352E+02 0.  0.
        -11    1    3    3    0    0 -0.24908481192E+02 -0.36436875322E+02 -0.69087777492E+02  0.81982920888E+02  0.00000000000E+00 0.  1.
         11    1    3    3    0    0  0.24908481192E+02  0.36436875322E+02 -0.31323443761E+02  0.54122420933E+02  0.00000000000E+00 0. -1.
<mgrwt>
<rscale>  0 0.91881721E+02</rscale>
<asrwt>0</asrwt>
<pdfrwt beam="1">  1        3 0.27457016E-02 0.91881721E+02</pdfrwt>
<pdfrwt beam="2">  1       -3 0.18193582E-01 0.91881721E+02</pdfrwt>
<totfact> 0.31513993E+04</totfact>
</mgrwt>
</event>
<event>
 5    1  0.1310593E+001  0.9975108E+02  0.7546771E-02  0.1280820E+00
          2   -1    0    0  501    0  0.00000000000E+00  0.00000000000E+00  0.51003754913E+03  0.51003754913E+03  0.00000000000E+00 0.  1.
         -2   -1    0    0    0  501 -0.00000000000E+00 -0.00000000000E+00 -0.48772285048E+01  0.48772285048E+01  0.00000000000E+00 0. -1.
         23    2    1    2    0    0  0.00000000000E+00  0.00000000000E+00  0.50516032063E+03  0.51491477764E+03  0.99751083666E+02 0.  0.
        -11    1    3    3    0    0  0.27423384428E+02 -0.41338031114E+02  0.22590964413E+03  0.23129211431E+03  0.00000000000E+00 0. -1.
         11    1    3    3    0    0 -0.27423384428E+02  0.41338031114E+02  0.27925067650E+03  0.28362266333E+03  0.00000000000E+00 0.  1.
<mgrwt>
<rscale>  0 0.99751084E+02</rscale>
<asrwt>0</asrwt>
<pdfrwt beam="1">  1        2 0.78467273E-01 0.99751084E+02</pdfrwt>
<pdfrwt beam="2">  1       -2 0.75034325E-03 0.99751084E+02</pdfrwt>
<totfact> 0.17077948E+05</totfact>
</mgrwt>
</event>
<event>
 5    1  0.1310593E+001  0.6627063E+02  0.7546771E-02  0.1373255E+00
          2   -1    0    0  501    0  0.00000000000E+00  0.00000000000E+00  0.34841114361E+02  0.34841114361E+02  0.00000000000E+00 0.  1.
         -2   -1    0    0    0  501 -0.00000000000E+00 -0.00000000000E+00 -0.31513035133E+02  0.31513035133E+02  0.00000000000E+00 0. -1.
         23    2    1    2    0    0  0.00000000000E+00  0.00000000000E+00  0.33280792281E+01  0.66354149493E+02  0.66270634852E+02 0.  0.
        -13    1    3    3    0    0  0.22223011593E+02 -0.11985798466E+02  0.23148658536E+02  0.34254663933E+02  0.00000000000E+00 0.  1.
         13    1    3    3    0    0 -0.22223011593E+02  0.11985798466E+02 -0.19820579308E+02  0.32099485560E+02  0.00000000000E+00 0. -1.
<mgrwt>
<rscale>  0 0.66270635E+02</rscale>
<asrwt>0</asrwt>
<pdfrwt beam="1">  1        2 0.53601714E-02 0.66270635E+02</pdfrwt>
<pdfrwt beam="2">  1       -2 0.48481593E-02 0.66270635E+02</pdfrwt>
<totfact> 0.22686490E+05</totfact>
</mgrwt>
</event>
<event>
 5    1  0.1310593E+001  0.8957243E+02  0.7546771E-02  0.1303890E+00
          1   -1    0    0  501    0  0.00000000000E+00  0.00000000000E+00  0.61964275006E+02  0.61964275006E+02  0.00000000000E+00 0.  1.
         -1   -1    0    0    0  501 -0.00000000000E+00 -0.00000000000E+00 -0.32370345534E+02  0.32370345534E+02  0.00000000000E+00 0. -1.
         23    2    1    2    0    0  0.00000000000E+00  0.00000000000E+00  0.29593929471E+02  0.94334620540E+02  0.89572428631E+02 0.  0.
        -11    1    3    3    0    0  0.26941217480E+02  0.35605886253E+02  0.11118918604E+02  0.46013462010E+02  0.00000000000E+00 0.  1.
         11    1    3    3    0    0 -0.26941217480E+02 -0.35605886253E+02  0.18475010867E+02  0.48321158530E+02  0.00000000000E+00 0. -1.
<mgrwt>
<rscale>  0 0.89572429E+02</rscale>
<asrwt>0</asrwt>
<pdfrwt beam="1">  1        1 0.95329654E-02 0.89572429E+02</pdfrwt>
<pdfrwt beam="2">  1       -1 0.49800532E-02 0.89572429E+02</pdfrwt>
<totfact> 0.10171447E+05</totfact>
</mgrwt>
</event>
<event>
 5    1  0.1310593E+001  0.9057934E+02  0.7546771E-02  0.1301455E+00
         -1   -1    0    0    0  501 -0.00000000000E+00  0.00000000000E+00  0.80979575579E+01  0.80979575579E+01  0.00000000000E+00 0.  1.
          1   -1    0    0  501    0  0.00000000000E+00 -0.00000000000E+00 -0.25329279899E+03  0.25329279899E+03  0.00000000000E+00 0. -1.
         23    2    1    2    0    0  0.00000000000E+00  0.00000000000E+00 -0.24519484144E+03  0.26139075655E+03  0.90579342810E+02 0.  0.
        -11    1    3    3    0    0 -0.57111613599E+01 -0.38849786705E+02 -0.57476805253E+02  0.69609671980E+02  0.00000000000E+00 0.  1.
         11    1    3    3    0    0  0.57111613599E+01  0.38849786705E+02 -0.18771803618E+03  0.19178108457E+03  0.00000000000E+00 0. -1.
<mgrwt>
<rscale>  0 0.90579343E+02</rscale>
<asrwt>0</asrwt>
<pdfrwt beam="2">  1        1 0.38968125E-01 0.90579343E+02</pdfrwt>
<pdfrwt beam="1">  1       -1 0.12458396E-02 0.90579343E+02</pdfrwt>
<totfact> 0.12618029E+05</totfact>
</mgrwt>
</event>
<event>
 5    1  0.1310593E+001  0.9138971E+02  0.7546771E-02  0.1299521E+00
         -1   -1    0    0    0  501 -0.00000000000E+00  0.00000000000E+00  0.39758833660E+02  0.39758833660E+02  0.00000000000E+00 0.  1.
          1   -1    0    0  501    0  0.00000000000E+00 -0.00000000000E+00 -0.52517123090E+02  0.52517123090E+02  0.00000000000E+00 0. -1.
         23    2    1    2    0    0  0.00000000000E+00  0.00000000000E+00 -0.12758289430E+02  0.92275956750E+02  0.91389705356E+02 0.  0.
        -13    1    3    3    0    0 -0.23670449960E+02 -0.18235201148E+02  0.28527877884E+02  0.41311651852E+02  0.00000000000E+00 0.  1.
         13    1    3    3    0    0  0.23670449960E+02  0.18235201148E+02 -0.41286167315E+02  0.50964304898E+02  0.00000000000E+00 0. -1.
<mgrwt>
<rscale>  0 0.91389705E+02</rscale>
<asrwt>0</asrwt>
<pdfrwt beam="2">  1        1 0.80795574E-02 0.91389705E+02</pdfrwt>
<pdfrwt beam="1">  1       -1 0.61167437E-02 0.91389705E+02</pdfrwt>
<totfact> 0.93844681E+04</totfact>
</mgrwt>
</event>
<event>
 5    1  0.1310593E+001  0.9160595E+02  0.7546771E-02  0.1299009E+00
          2   -1    0    0  501    0  0.00000000000E+00  0.00000000000E+00  0.65905744945E+02  0.65905744945E+02  0.00000000000E+00 0. -1.
         -2   -1    0    0    0  501 -0.00000000000E+00 -0.00000000000E+00 -0.31832015174E+02  0.31832015174E+02  0.00000000000E+00 0.  1.
         23    2    1    2    0    0  0.00000000000E+00  0.00000000000E+00  0.34073729770E+02  0.97737760119E+02  0.91605953369E+02 0.  0.
        -13    1    3    3    0    0  0.15837672954E+02  0.14161007633E+02  0.60330664540E+02  0.63962138063E+02  0.00000000000E+00 0. -1.
         13    1    3    3    0    0 -0.15837672954E+02 -0.14161007633E+02 -0.26256934770E+02  0.33775622056E+02  0.00000000000E+00 0.  1.
<mgrwt>
<rscale>  0 0.91605953E+02</rscale>
<asrwt>0</asrwt>
<pdfrwt beam="1">  1        2 0.10139345E-01 0.91605953E+02</pdfrwt>
<pdfrwt beam="2">  1       -2 0.48972331E-02 0.91605953E+02</pdfrwt>
<totfact> 0.10737389E+05</totfact>
</mgrwt>
</event>
<event>
 5    1  0.1310593E+001  0.9082833E+02  0.7546771E-02  0.1300858E+00
          2   -1    0    0  501    0  0.00000000000E+00  0.00000000000E+00  0.18822170722E+03  0.18822170722E+03  0.00000000000E+00 0. -1.
         -2   -1    0    0    0  501 -0.00000000000E+00 -0.00000000000E+00 -0.10957536133E+02  0.10957536133E+02  0.00000000000E+00 0.  1.
         23    2    1    2    0    0  0.00000000000E+00  0.00000000000E+00  0.17726417109E+03  0.19917924336E+03  0.90828325052E+02 0.  0.
        -13    1    3    3    0    0  0.43847665449E+02 -0.11101891233E+02  0.97560368185E+02  0.10753555317E+03  0.00000000000E+00 0.  1.
         13    1    3    3    0    0 -0.43847665449E+02  0.11101891233E+02  0.79703802903E+02  0.91643690189E+02  0.00000000000E+00 0. -1.
<mgrwt>
<rscale>  0 0.90828325E+02</rscale>
<asrwt>0</asrwt>
<pdfrwt beam="1">  1        2 0.28957183E-01 0.90828325E+02</pdfrwt>
<pdfrwt beam="2">  1       -2 0.16857749E-02 0.90828325E+02</pdfrwt>
<totfact> 0.15290803E+05</totfact>
</mgrwt>
</event>
<event>
 5    1  0.1310593E+001  0.9173579E+02  0.7546771E-02  0.1298702E+00
         -1   -1    0    0    0  501 -0.00000000000E+00  0.00000000000E+00  0.22938542890E+02  0.22938542890E+02  0.00000000000E+00 0.  1.
          1   -1    0    0  501    0  0.00000000000E+00 -0.00000000000E+00 -0.91717407538E+02  0.91717407538E+02  0.00000000000E+00 0. -1.
         23    2    1    2    0    0  0.00000000000E+00  0.00000000000E+00 -0.68778864648E+02  0.11465595043E+03  0.91735787708E+02 0.  0.
        -13    1    3    3    0    0 -0.26710049194E+02 -0.88991180479E+01 -0.79647847152E+02  0.84477219331E+02  0.00000000000E+00 0. -1.
         13    1    3    3    0    0  0.26710049194E+02  0.88991180479E+01  0.10868982505E+02  0.30178731097E+02  0.00000000000E+00 0.  1.
<mgrwt>
<rscale>  0 0.91735788E+02</rscale>
<asrwt>0</asrwt>
<pdfrwt beam="2">  1        1 0.14110370E-01 0.91735788E+02</pdfrwt>
<pdfrwt beam="1">  1       -1 0.35290066E-02 0.91735788E+02</pdfrwt>
<totfact> 0.10126819E+05</totfact>
</mgrwt>
</event>
<event>
 5    1  0.1310593E+001  0.9050866E+02  0.7546771E-02  0.1301625E+00
          1   -1    0    0  501    0  0.00000000000E+00  0.00000000000E+00  0.22230439178E+03  0.22230439178E+03  0.00000000000E+00 0. -1.
         -1   -1    0    0    0  501 -0.00000000000E+00 -0.00000000000E+00 -0.92123886270E+01  0.92123886270E+01  0.00000000000E+00 0.  1.
         23    2    1    2    0    0  0.00000000000E+00  0.00000000000E+00  0.21309200316E+03  0.23151678041E+03  0.90508661477E+02 0.  0.
        -11    1    3    3    0    0  0.31720461010E+02  0.17625016465E+02  0.17571131146E+03  0.17941932400E+03  0.00000000000E+00 0. -1.
         11    1    3    3    0    0 -0.31720461010E+02 -0.17625016465E+02  0.37380691698E+02  0.52097456405E+02  0.00000000000E+00 0.  1.
<mgrwt>
<rscale>  0 0.90508661E+02</rscale>
<asrwt>0</asrwt>
<pdfrwt beam="1">  1        1 0.34200672E-01 0.90508661E+02</pdfrwt>
<pdfrwt beam="2">  1       -1 0.14172907E-02 0.90508661E+02</pdfrwt>
<totfact> 0.12327031E+05</totfact>
</mgrwt>
</event>
<event>
 5    1  0.1310593E+001  0.9161698E+02  0.7546771E-02  0.1298983E+00
         -2   -1    0    0    0  501 -0.00000000000E+00  0.00000000000E+00  0.10055220103E+03  0.10055220103E+03  0.00000000000E+00 0. -1.
          2   -1    0    0  501    0  0.00000000000E+00 -0.00000000000E+00 -0.20868939833E+02  0.20868939833E+02  0.00000000000E+00 0.  1.
         23    2    1    2    0    0  0.00000000000E+00  0.00000000000E+00  0.79683261197E+02  0.12142114086E+03  0.91616981688E+02 0.  0.
        -13    1    3    3    0    0  0.34666897599E+02 -0.25638789008E+02  0.60342316490E+02  0.74164253184E+02  0.00000000000E+00 0. -1.
         13    1    3    3    0    0 -0.34666897599E+02  0.25638789008E+02  0.19340944706E+02  0.47256887679E+02  0.00000000000E+00 0.  1.
<mgrwt>
<rscale>  0 0.91616982E+02</rscale>
<asrwt>0</asrwt>
<pdfrwt beam="2">  1        2 0.32106062E-02 0.91616982E+02</pdfrwt>
<pdfrwt beam="1">  1       -2 0.15469569E-01 0.91616982E+02</pdfrwt>
<totfact> 0.78724803E+04</totfact>
</mgrwt>
</event>
<event>
 5    1  0.1310593E+001  0.9044400E+02  0.7546771E-02  0.1301780E+00
         -1   -1    0    0    0  501 -0.00000000000E+00  0.00000000000E+00  0.55429288953E+02  0.55429288953E+02  0.00000000000E+00 0.  1.
          1   -1    0    0  501    0  0.00000000000E+00 -0.00000000000E+00 -0.36894381215E+02  0.36894381215E+02  0.00000000000E+00 0. -1.
         23    2    1    2    0    0  0.00000000000E+00  0.00000000000E+00  0.18534907738E+02  0.92323670168E+02  0.90444000732E+02 0.  0.
        -11    1    3    3    0    0 -0.38538167539E+02  0.16762170712E+02  0.26313870492E+02  0.49584075110E+02  0.00000000000E+00 0.  1.
         11    1    3    3    0    0  0.38538167539E+02 -0.16762170712E+02 -0.77789627548E+01  0.42739595058E+02  0.00000000000E+00 0. -1.
<mgrwt>
<rscale>  0 0.90444001E+02</rscale>
<asrwt>0</asrwt>
<pdfrwt beam="2">  1        1 0.56760586E-02 0.90444001E+02</pdfrwt>
<pdfrwt beam="1">  1       -1 0.85275830E-02 0.90444001E+02</pdfrwt>
<totfact> 0.91621495E+04</totfact>
</mgrwt>
</event>
<event>
 5    1  0.1310593E+001  0.7675866E+02  0.7546771E-02  0.1338510E+00
          2   -1    0    0  501    0  0.00000000000E+00  0.00000000000E+00  0.72264193733E+02  0.72264193733E+02  0.00000000000E+00 0.  1.
         -2   -1    0    0    0  501 -0.00000000000E+00 -0.00000000000E+00 -0.20383166144E+02  0.20383166144E+02  0.00000000000E+00 0. -1.
         23    2    1    2    0    0  0.00000000000E+00  0.00000000000E+00  0.51881027589E+02  0.92647359877E+02  0.76758662498E+02 0.  0.
        -11    1    3    3    0    0 -0.15049839940E+02 -0.34882854151E+02  0.32514138730E+02  0.50004803902E+02  0.00000000000E+00 0.  1.
         11    1    3    3    0    0  0.15049839940E+02  0.34882854151E+02  0.19366888859E+02  0.42642555974E+02  0.00000000000E+00 0. -1.
<mgrwt>
<rscale>  0 0.76758662E+02</rscale>
<asrwt>0</asrwt>
<pdfrwt beam="1">  1        2 0.11117568E-01 0.76758662E+02</pdfrwt>
<pdfrwt beam="2">  1       -2 0.31358718E-02 0.76758662E+02</pdfrwt>
<totfact> 0.17926539E+05</totfact>
</mgrwt>
</event>
<event>
 5    1  0.1310593E+001  0.9146793E+02  0.7546771E-02  0.1299335E+00
         -3   -1    0    0    0  501 -0.00000000000E+00  0.00000000000E+00  0.17295322968E+03  0.17295322968E+03  0.00000000000E+00 0.  1.
          3   -1    0    0  501    0  0.00000000000E+00 -0.00000000000E+00 -0.12093416643E+02  0.12093416643E+02  0.00000000000E+00 0. -1.
         23    2    1    2    0    0  0.00000000000E+00  0.00000000000E+00  0.16085981304E+03  0.18504664633E+03  0.91467928071E+02 0.  0.
        -13    1    3    3    0    0  0.90907470866E+01  0.42991327036E+02  0.10607591329E+03  0.11481722546E+03  0.00000000000E+00 0.  1.
         13    1    3    3    0    0 -0.90907470866E+01 -0.42991327036E+02  0.54783899750E+02  0.70229420863E+02  0.00000000000E+00 0. -1.
<mgrwt>
<rscale>  0 0.91467928E+02</rscale>
<asrwt>0</asrwt>
<pdfrwt beam="2">  1        3 0.18605258E-02 0.91467928E+02</pdfrwt>
<pdfrwt beam="1">  1       -3 0.26608187E-01 0.91467928E+02</pdfrwt>
<totfact> 0.29038427E+04</totfact>
</mgrwt>
</event>
<event>
 5    1  0.1310593E+001  0.9267591E+02  0.7546771E-02  0.1296498E+00
         -4   -1    0    0    0  501 -0.00000000000E+00  0.00000000000E+00  0.16890381094E+02  0.16890381094E+02  0.00000000000E+00 0.  1.
          4   -1    0    0  501    0  0.00000000000E+00 -0.00000000000E+00 -0.12712595928E+03  0.12712595928E+03  0.00000000000E+00 0. -1.
         23    2    1    2    0    0  0.00000000000E+00  0.00000000000E+00 -0.11023557819E+03  0.14401634038E+03  0.92675906237E+02 0.  0.
        -11    1    3    3    0    0 -0.29033785030E+02  0.20795231870E+02 -0.10100104707E+03  0.10712895898E+03  0.00000000000E+00 0. -1.
         11    1    3    3    0    0  0.29033785030E+02 -0.20795231870E+02 -0.92345311186E+01  0.36887381402E+02  0.00000000000E+00 0.  1.
<mgrwt>
<rscale>  0 0.92675906E+02</rscale>
<asrwt>0</asrwt>
<pdfrwt beam="2">  1        4 0.19557839E-01 0.92675906E+02</pdfrwt>
<pdfrwt beam="1">  1       -4 0.25985203E-02 0.92675906E+02</pdfrwt>
<totfact> 0.22944023E+04</totfact>
</mgrwt>
</event>
<event>
 5    1  0.1310593E+001  0.9423815E+02  0.7546771E-02  0.1292901E+00
         -1   -1    0    0    0  501 -0.00000000000E+00  0.00000000000E+00  0.18763269373E+03  0.18763269373E+03  0.00000000000E+00 0.  1.
          1   -1    0    0  501    0  0.00000000000E+00 -0.00000000000E+00 -0.11832732278E+02  0.11832732278E+02  0.00000000000E+00 0. -1.
         23    2    1    2    0    0  0.00000000000E+00  0.00000000000E+00  0.17579996145E+03  0.19946542600E+03  0.94238154300E+02 0.  0.
        -11    1    3    3    0    0  0.23228069532E+02  0.40897105595E+02  0.81879361145E+02  0.94426406486E+02  0.00000000000E+00 0.  1.
         11    1    3    3    0    0 -0.23228069532E+02 -0.40897105595E+02  0.93920600303E+02  0.10503901952E+03  0.00000000000E+00 0. -1.
<mgrwt>
<rscale>  0 0.94238154E+02</rscale>
<asrwt>0</asrwt>
<pdfrwt beam="2">  1        1 0.18204205E-02 0.94238154E+02</pdfrwt>
<pdfrwt beam="1">  1       -1 0.28866566E-01 0.94238154E+02</pdfrwt>
<totfact> 0.64842735E+04</totfact>
</mgrwt>
</event>
<event>
 5    1  0.1310593E+001  0.9156227E+02  0.7546771E-02  0.1299112E+00
         -3   -1    0    0    0  501 -0.00000000000E+00  0.00000000000E+00  0.12692518811E+03  0.12692518811E+03  0.00000000000E+00 0.  1.
          3   -1    0    0  501    0  0.00000000000E+00 -0.00000000000E+00 -0.16512975697E+02  0.16512975697E+02  0.00000000000E+00 0. -1.
         23    2    1    2    0    0  0.00000000000E+00  0.00000000000E+00  0.11041221241E+03  0.14343816380E+03  0.91562274907E+02 0.  0.
        -11    1    3    3    0    0 -0.43805836800E+02  0.10758128360E+02  0.67463794625E+02  0.81154496171E+02  0.00000000000E+00 0.  1.
         11    1    3    3    0    0  0.43805836800E+02 -0.10758128360E+02  0.42948417785E+02  0.62283667632E+02  0.00000000000E+00 0. -1.
<mgrwt>
<rscale>  0 0.91562275E+02</rscale>
<asrwt>0</asrwt>
<pdfrwt beam="2">  1        3 0.25404579E-02 0.91562275E+02</pdfrwt>
<pdfrwt beam="1">  1       -3 0.19526951E-01 0.91562275E+02</pdfrwt>
<totfact> 0.31353516E+04</totfact>
</mgrwt>
</event>
<event>
 5    1  0.1310593E+001  0.8628249E+02  0.7546771E-02  0.1312112E+00
          3   -1    0    0  501    0  0.00000000000E+00  0.00000000000E+00  0.16007540166E+02  0.16007540166E+02  0.00000000000E+00 0. -1.
         -3   -1    0    0    0  501 -0.00000000000E+00 -0.00000000000E+00 -0.11626813745E+03  0.11626813745E+03  0.00000000000E+00 0.  1.
         23    2    1    2    0    0  0.00000000000E+00  0.00000000000E+00 -0.10026059728E+03  0.13227567761E+03  0.86282486756E+02 0.  0.
        -11    1    3    3    0    0  0.39142407651E+02 -0.13008722370E+01 -0.77867409070E+02  0.87161652925E+02  0.00000000000E+00 0.  1.
         11    1    3    3    0    0 -0.39142407651E+02  0.13008722370E+01 -0.22393188210E+02  0.45114024687E+02  0.00000000000E+00 0. -1.
<mgrwt>
<rscale>  0 0.86282487E+02</rscale>
<asrwt>0</asrwt>
<pdfrwt beam="1">  1        3 0.24626985E-02 0.86282487E+02</pdfrwt>
<pdfrwt beam="2">  1       -3 0.17887405E-01 0.86282487E+02</pdfrwt>
<totfact> 0.37636987E+04</totfact>
</mgrwt>
</event>
<event>
 5    1  0.1310593E+001  0.9090692E+02  0.7546771E-02  0.1300670E+00
         -2   -1    0    0    0  501 -0.00000000000E+00  0.00000000000E+00  0.38285401897E+02  0.38285401897E+02  0.00000000000E+00 0.  1.
          2   -1    0    0  501    0  0.00000000000E+00 -0.00000000000E+00 -0.53963571192E+02  0.53963571192E+02  0.00000000000E+00 0. -1.
         23    2    1    2    0    0  0.00000000000E+00  0.00000000000E+00 -0.15678169296E+02  0.92248973089E+02  0.90906919668E+02 0.  0.
        -13    1    3    3    0    0  0.28459840510E+02  0.22056578803E+02 -0.35989600318E+02  0.50908805932E+02  0.00000000000E+00 0. -1.
         13    1    3    3    0    0 -0.28459840510E+02 -0.22056578803E+02  0.20311431023E+02  0.41340167157E+02  0.00000000000E+00 0.  1.
<mgrwt>
<rscale>  0 0.90906920E+02</rscale>
<asrwt>0</asrwt>
<pdfrwt beam="2">  1        2 0.83020878E-02 0.90906920E+02</pdfrwt>
<pdfrwt beam="1">  1       -2 0.58900619E-02 0.90906920E+02</pdfrwt>
<totfact> 0.10399269E+05</totfact>
</mgrwt>
</event>
<event>
 5    1  0.1310593E+001  0.9078175E+02  0.7546771E-02  0.1300970E+00
          2   -1    0    0  501    0  0.00000000000E+00  0.00000000000E+00  0.49780179643E+02  0.49780179643E+02  0.00000000000E+00 0. -1.
         -2   -1    0    0    0  501 -0.00000000000E+00 -0.00000000000E+00 -0.41388589966E+02  0.41388589966E+02  0.00000000000E+00 0.  1.
         23    2    1    2    0    0  0.00000000000E+00  0.00000000000E+00  0.83915896768E+01  0.91168769608E+02  0.90781748026E+02 0.  0.
        -11    1    3    3    0    0  0.26658616135E+02  0.33488977498E+02  0.19364425695E+02  0.46980574822E+02  0.00000000000E+00 0.  1.
         11    1    3    3    0    0 -0.26658616135E+02 -0.33488977498E+02 -0.10972836018E+02  0.44188194786E+02  0.00000000000E+00 0. -1.
<mgrwt>
<rscale>  0 0.90781748E+02</rscale>
<asrwt>0</asrwt>
<pdfrwt beam="1">  1        2 0.76584891E-02 0.90781748E+02</pdfrwt>
<pdfrwt beam="2">  1       -2 0.63674754E-02 0.90781748E+02</pdfrwt>
<totfact> 0.10221858E+05</totfact>
</mgrwt>
</event>
<event>
 5    1  0.1310593E+001  0.9158587E+02  0.7546771E-02  0.1299056E+00
          1   -1    0    0  501    0  0.00000000000E+00  0.00000000000E+00  0.20970260601E+03  0.20970260601E+03  0.00000000000E+00 0. -1.
         -1   -1    0    0    0  501 -0.00000000000E+00 -0.00000000000E+00 -0.99998422744E+01  0.99998422744E+01  0.00000000000E+00 0.  1.
         23    2    1    2    0    0  0.00000000000E+00  0.00000000000E+00  0.19970276373E+03  0.21970244828E+03  0.91585871936E+02 0.  0.
        -13    1    3    3    0    0  0.23901418575E-02  0.44352875819E+02  0.72519502465E+02  0.85007386955E+02  0.00000000000E+00 0.  1.
         13    1    3    3    0    0 -0.23901418575E-02 -0.44352875819E+02  0.12718326127E+03  0.13469506133E+03  0.00000000000E+00 0. -1.
<mgrwt>
<rscale>  0 0.91585872E+02</rscale>
<asrwt>0</asrwt>
<pdfrwt beam="1">  1        1 0.32261936E-01 0.91585872E+02</pdfrwt>
<pdfrwt beam="2">  1       -1 0.15384374E-02 0.91585872E+02</pdfrwt>
<totfact> 0.11807498E+05</totfact>
</mgrwt>
</event>
<event>
 5    1  0.1310593E+001  0.9866191E+02  0.7546771E-02  0.1283135E+00
          3   -1    0    0  501    0  0.00000000000E+00  0.00000000000E+00  0.17968818737E+03  0.17968818737E+03  0.00000000000E+00 0. -1.
         -3   -1    0    0    0  501 -0.00000000000E+00 -0.00000000000E+00 -0.13543143944E+02  0.13543143944E+02  0.00000000000E+00 0.  1.
         23    2    1    2    0    0  0.00000000000E+00  0.00000000000E+00  0.16614504342E+03  0.19323133131E+03  0.98661907268E+02 0.  0.
        -13    1    3    3    0    0 -0.23695844527E+02  0.32145828080E+02  0.26353302831E+02  0.47847088531E+02  0.00000000000E+00 0.  1.
         13    1    3    3    0    0  0.23695844527E+02 -0.32145828080E+02  0.13979174059E+03  0.14538424278E+03  0.00000000000E+00 0. -1.
<mgrwt>
<rscale>  0 0.98661907E+02</rscale>
<asrwt>0</asrwt>
<pdfrwt beam="1">  1        3 0.27644335E-01 0.98661907E+02</pdfrwt>
<pdfrwt beam="2">  1       -3 0.20835607E-02 0.98661907E+02</pdfrwt>
<totfact> 0.23289705E+04</totfact>
</mgrwt>
</event>
<event>
 5    1  0.1310593E+001  0.8453849E+02  0.7546771E-02  0.1316644E+00
         -2   -1    0    0    0  501 -0.00000000000E+00  0.00000000000E+00  0.99815609169E+01  0.99815609169E+01  0.00000000000E+00 0.  1.
          2   -1    0    0  501    0  0.00000000000E+00 -0.00000000000E+00 -0.17899896403E+03  0.17899896403E+03  0.00000000000E+00 0. -1.
         23    2    1    2    0    0  0.00000000000E+00  0.00000000000E+00 -0.16901740312E+03  0.18898052495E+03  0.84538489780E+02 0.  0.
        -11    1    3    3    0    0  0.18377785239E+02 -0.37642525077E+02 -0.71865848048E+02  0.83182947773E+02  0.00000000000E+00 0.  1.
         11    1    3    3    0    0 -0.18377785239E+02  0.37642525077E+02 -0.97151555070E+02  0.10579757718E+03  0.00000000000E+00 0. -1.
<mgrwt>
<rscale>  0 0.84538490E+02</rscale>
<asrwt>0</asrwt>
<pdfrwt beam="2">  1        2 0.27538301E-01 0.84538490E+02</pdfrwt>
<pdfrwt beam="1">  1       -2 0.15356248E-02 0.84538490E+02</pdfrwt>
<totfact> 0.18211844E+05</totfact>
</mgrwt>
</event>
<event>
 5    1  0.1310593E+001  0.8949480E+02  0.7546771E-02  0.1304080E+00
          2   -1    0    0  501    0  0.00000000000E+00  0.00000000000E+00  0.19516578481E+02  0.19516578481E+02  0.00000000000E+00 0.  1.
         -2   -1    0    0    0  501 -0.00000000000E+00 -0.00000000000E+00 -0.10259635387E+03  0.10259635387E+03  0.00000000000E+00 0. -1.
         23    2    1    2    0    0  0.00000000000E+00  0.00000000000E+00 -0.83079775391E+02  0.12211293235E+03  0.89494799674E+02 0.  0.
        -13    1    3    3    0    0  0.33773010792E+02  0.17907921018E+02 -0.73277224412E+02  0.82649026072E+02  0.00000000000E+00 0. -1.
         13    1    3    3    0    0 -0.33773010792E+02 -0.17907921018E+02 -0.98025509787E+01  0.39463906280E+02  0.00000000000E+00 0.  1.
<mgrwt>
<rscale>  0 0.89494800E+02</rscale>
<asrwt>0</asrwt>
<pdfrwt beam="1">  1        2 0.30025505E-02 0.89494800E+02</pdfrwt>
<pdfrwt beam="2">  1       -2 0.15784055E-01 0.89494800E+02</pdfrwt>
<totfact> 0.82953133E+04</totfact>
</mgrwt>
</event>
<event>
 5    1  0.1310593E+001  0.8414644E+02  0.7546771E-02  0.1317680E+00
          1   -1    0    0  501    0  0.00000000000E+00  0.00000000000E+00  0.71995503436E+01  0.71995503436E+01  0.00000000000E+00 0. -1.
         -1   -1    0    0    0  501 -0.00000000000E+00 -0.00000000000E+00 -0.24587031919E+03  0.24587031919E+03  0.00000000000E+00 0.  1.
         23    2    1    2    0    0  0.00000000000E+00  0.00000000000E+00 -0.23867076884E+03  0.25306986953E+03  0.84146437618E+02 0.  0.
        -11    1    3    3    0    0  0.67760070069E+00 -0.41443861728E+02 -0.97626587706E+02  0.10606131927E+03  0.00000000000E+00 0.  1.
         11    1    3    3    0    0 -0.67760070069E+00  0.41443861728E+02 -0.14104418114E+03  0.14700855026E+03  0.00000000000E+00 0. -1.
<mgrwt>
<rscale>  0 0.84146438E+02</rscale>
<asrwt>0</asrwt>
<pdfrwt beam="1">  1        1 0.11076230E-02 0.84146438E+02</pdfrwt>
<pdfrwt beam="2">  1       -1 0.37826208E-01 0.84146438E+02</pdfrwt>
<totfact> 0.80254836E+04</totfact>
</mgrwt>
</event>
<event>
 5    1  0.1310593E+001  0.8973608E+02  0.7546771E-02  0.1303492E+00
         -1   -1    0    0    0  501 -0.00000000000E+00  0.00000000000E+00  0.16098308376E+03  0.16098308376E+03  0.00000000000E+00 0.  1.
          1   -1    0    0  501    0  0.00000000000E+00 -0.00000000000E+00 -0.12505296234E+02  0.12505296234E+02  0.00000000000E+00 0. -1.
         23    2    1    2    0    0  0.00000000000E+00  0.00000000000E+00  0.14847778753E+03  0.17348838000E+03  0.89736083070E+02 0.  0.
        -13    1    3    3    0    0 -0.20681941731E+02 -0.35279509046E+02  0.38550730528E+02  0.56200936794E+02  0.00000000000E+00 0. -1.
         13    1    3    3    0    0  0.20681941731E+02  0.35279509046E+02  0.10992705700E+03  0.11728744320E+03  0.00000000000E+00 0.  1.
<mgrwt>
<rscale>  0 0.89736083E+02</rscale>
<asrwt>0</asrwt>
<pdfrwt beam="2">  1        1 0.19238918E-02 0.89736083E+02</pdfrwt>
<pdfrwt beam="1">  1       -1 0.24766627E-01 0.89736083E+02</pdfrwt>
<totfact> 0.76635931E+04</totfact>
</mgrwt>
</event>
<event>
 5    1  0.1310593E+001  0.8955995E+02  0.7546771E-02  0.1303921E+00
         -2   -1    0    0    0  501 -0.00000000000E+00  0.00000000000E+00  0.10498437956E+03  0.10498437956E+03  0.00000000000E+00 0.  1.
          2   -1    0    0  501    0  0.00000000000E+00 -0.00000000000E+00 -0.19100423587E+02  0.19100423587E+02  0.00000000000E+00 0. -1.
         23    2    1    2    0    0  0.00000000000E+00  0.00000000000E+00  0.85883955976E+02  0.12408480315E+03  0.89559949078E+02 0.  0.
        -11    1    3    3    0    0 -0.44249146192E+01  0.40021029528E+02  0.15792529680E+02  0.43251204233E+02  0.00000000000E+00 0.  1.
         11    1    3    3    0    0  0.44249146192E+01 -0.40021029528E+02  0.70091426295E+02  0.80833598918E+02  0.00000000000E+00 0. -1.
<mgrwt>
<rscale>  0 0.89559949E+02</rscale>
<asrwt>0</asrwt>
<pdfrwt beam="2">  1        2 0.29385268E-02 0.89559949E+02</pdfrwt>
<pdfrwt beam="1">  1       -2 0.16151443E-01 0.89559949E+02</pdfrwt>
<totfact> 0.82232054E+04</totfact>
</mgrwt>
</event>
<event>
 5    1  0.1310593E+001  0.9289962E+02  0.7546771E-02  0.1295978E+00
         -2   -1    0    0    0  501 -0.00000000000E+00  0.00000000000E+00  0.16404050322E+02  0.16404050322E+02  0.00000000000E+00 0.  1.
          2   -1    0    0  501    0  0.00000000000E+00 -0.00000000000E+00 -0.13152756901E+03  0.13152756901E+03  0.00000000000E+00 0. -1.
         23    2    1    2    0    0  0.00000000000E+00  0.00000000000E+00 -0.11512351869E+03  0.14793161934E+03  0.92899620254E+02 0.  0.
        -11    1    3    3    0    0 -0.29894027623E+02 -0.99673151043E+01 -0.11190338101E+03  0.11625561036E+03  0.00000000000E+00 0. -1.
         11    1    3    3    0    0  0.29894027623E+02  0.99673151043E+01 -0.32201376769E+01  0.31676008974E+02  0.00000000000E+00 0.  1.
<mgrwt>
<rscale>  0 0.92899620E+02</rscale>
<asrwt>0</asrwt>
<pdfrwt beam="2">  1        2 0.20235012E-01 0.92899620E+02</pdfrwt>
<pdfrwt beam="1">  1       -2 0.25236999E-02 0.92899620E+02</pdfrwt>
<totfact> 0.12712502E+05</totfact>
</mgrwt>
</event>
<event>
 5    1  0.1310593E+001  0.6572124E+02  0.7546771E-02  0.1375279E+00
          1   -1    0    0  501    0  0.00000000000E+00  0.00000000000E+00  0.18386587467E+02  0.18386587467E+02  0.00000000000E+00 0.  1.
         -1   -1    0    0    0  501 -0.00000000000E+00 -0.00000000000E+00 -0.58728705845E+02  0.58728705845E+02  0.00000000000E+00 0. -1.
         23    2    1    2    0    0  0.00000000000E+00  0.00000000000E+00 -0.40342118378E+02  0.77115293313E+02  0.65721244263E+02 0.  0.
        -11    1    3    3    0    0 -0.31733542088E+02  0.53844487245E+01 -0.12404585613E+02  0.34494691270E+02  0.00000000000E+00 0.  1.
         11    1    3    3    0    0  0.31733542088E+02 -0.53844487245E+01 -0.27937532765E+02  0.42620602043E+02  0.00000000000E+00 0. -1.
<mgrwt>
<rscale>  0 0.65721244E+02</rscale>
<asrwt>0</asrwt>
<pdfrwt beam="1">  1        1 0.28287057E-02 0.65721244E+02</pdfrwt>
<pdfrwt beam="2">  1       -1 0.90351856E-02 0.65721244E+02</pdfrwt>
<totfact> 0.20326562E+05</totfact>
</mgrwt>
</event>
<event>
 5    1  0.1310593E+001  0.9443374E+02  0.7546771E-02  0.1292457E+00
         -3   -1    0    0    0  501 -0.00000000000E+00  0.00000000000E+00  0.12316907291E+02  0.12316907291E+02  0.00000000000E+00 0.  1.
          3   -1    0    0  501    0  0.00000000000E+00 -0.00000000000E+00 -0.18100590344E+03  0.18100590344E+03  0.00000000000E+00 0. -1.
         23    2    1    2    0    0  0.00000000000E+00  0.00000000000E+00 -0.16868899614E+03  0.19332281073E+03  0.94433742525E+02 0.  0.
        -11    1    3    3    0    0 -0.43697195624E+02  0.10511029570E+02 -0.54712944242E+02  0.70805599466E+02  0.00000000000E+00 0.  1.
         11    1    3    3    0    0  0.43697195624E+02 -0.10511029570E+02 -0.11397605190E+03  0.12251721126E+03  0.00000000000E+00 0. -1.
<mgrwt>
<rscale>  0 0.94433743E+02</rscale>
<asrwt>0</asrwt>
<pdfrwt beam="2">  1        3 0.27847058E-01 0.94433743E+02</pdfrwt>
<pdfrwt beam="1">  1       -3 0.18949091E-02 0.94433743E+02</pdfrwt>
<totfact> 0.26231783E+04</totfact>
</mgrwt>
</event>
<event>
 5    1  0.1310593E+001  0.9206324E+02  0.7546771E-02  0.1297931E+00
          1   -1    0    0  501    0  0.00000000000E+00  0.00000000000E+00  0.71475690222E+02  0.71475690222E+02  0.00000000000E+00 0. -1.
         -1   -1    0    0    0  501 -0.00000000000E+00 -0.00000000000E+00 -0.29645184545E+02  0.29645184545E+02  0.00000000000E+00 0.  1.
         23    2    1    2    0    0  0.00000000000E+00  0.00000000000E+00  0.41830505677E+02  0.10112087477E+03  0.92063239724E+02 0.  0.
        -13    1    3    3    0    0  0.64535862442E+01  0.36132524141E+02  0.51427863202E+02  0.63182538646E+02  0.00000000000E+00 0. -1.
         13    1    3    3    0    0 -0.64535862442E+01 -0.36132524141E+02 -0.95973575251E+01  0.37938336122E+02  0.00000000000E+00 0.  1.
<mgrwt>
<rscale>  0 0.92063240E+02</rscale>
<asrwt>0</asrwt>
<pdfrwt beam="1">  1        1 0.10996260E-01 0.92063240E+02</pdfrwt>
<pdfrwt beam="2">  1       -1 0.45607976E-02 0.92063240E+02</pdfrwt>
<totfact> 0.96377128E+04</totfact>
</mgrwt>
</event>
<event>
 5    1  0.1310593E+001  0.9091271E+02  0.7546771E-02  0.1300656E+00
         -2   -1    0    0    0  501 -0.00000000000E+00  0.00000000000E+00  0.36799931045E+02  0.36799931045E+02  0.00000000000E+00 0.  1.
          2   -1    0    0  501    0  0.00000000000E+00 -0.00000000000E+00 -0.56149020399E+02  0.56149020399E+02  0.00000000000E+00 0. -1.
         23    2    1    2    0    0  0.00000000000E+00  0.00000000000E+00 -0.19349089354E+02  0.92948951444E+02  0.90912707119E+02 0.  0.
        -13    1    3    3    0    0  0.27694667509E+02 -0.16403282015E+02 -0.42490453136E+02  0.53305730246E+02  0.00000000000E+00 0. -1.
         13    1    3    3    0    0 -0.27694667509E+02  0.16403282015E+02  0.23141363782E+02  0.39643221199E+02  0.00000000000E+00 0.  1.
<mgrwt>
<rscale>  0 0.90912707E+02</rscale>
<asrwt>0</asrwt>
<pdfrwt beam="2">  1        2 0.86383109E-02 0.90912707E+02</pdfrwt>
<pdfrwt beam="1">  1       -2 0.56615278E-02 0.90912707E+02</pdfrwt>
<totfact> 0.10506877E+05</totfact>
</mgrwt>
</event>
<event>
 5    1  0.1310593E+001  0.9200034E+02  0.7546771E-02  0.1298079E+00
         -4   -1    0    0    0  501 -0.00000000000E+00  0.00000000000E+00  0.73494415589E+01  0.73494415589E+01  0.00000000000E+00 0.  1.
          4   -1    0    0  501    0  0.00000000000E+00 -0.00000000000E+00 -0.28791515899E+03  0.28791515899E+03  0.00000000000E+00 0. -1.
         23    2    1    2    0    0  0.00000000000E+00  0.00000000000E+00 -0.28056571743E+03  0.29526460055E+03  0.92000339890E+02 0.  0.
        -13    1    3    3    0    0  0.45595326936E+02  0.59160227623E+01 -0.14491424981E+03  0.15203313113E+03  0.00000000000E+00 0. -1.
         13    1    3    3    0    0 -0.45595326936E+02 -0.59160227623E+01 -0.13565146762E+03  0.14323146942E+03  0.00000000000E+00 0.  1.
<mgrwt>
<rscale>  0 0.92000340E+02</rscale>
<asrwt>0</asrwt>
<pdfrwt beam="2">  1        4 0.44294633E-01 0.92000340E+02</pdfrwt>
<pdfrwt beam="1">  1       -4 0.11306835E-02 0.92000340E+02</pdfrwt>
<totfact> 0.17540220E+04</totfact>
</mgrwt>
</event>
<event>
 5    1  0.1310593E+001  0.9086209E+02  0.7546771E-02  0.1300777E+00
         -2   -1    0    0    0  501 -0.00000000000E+00  0.00000000000E+00  0.15533114663E+02  0.15533114663E+02  0.00000000000E+00 0.  1.
          2   -1    0    0  501    0  0.00000000000E+00 -0.00000000000E+00 -0.13287612267E+03  0.13287612267E+03  0.00000000000E+00 0. -1.
         23    2    1    2    0    0  0.00000000000E+00  0.00000000000E+00 -0.11734300801E+03  0.14840923733E+03  0.90862094392E+02 0.  0.
        -13    1    3    3    0    0  0.36151940066E+02 -0.26939888747E+02 -0.49539409310E+02  0.66984128352E+02  0.00000000000E+00 0.  1.
         13    1    3    3    0    0 -0.36151940066E+02  0.26939888747E+02 -0.67803598696E+02  0.81425108980E+02  0.00000000000E+00 0. -1.
<mgrwt>
<rscale>  0 0.90862094E+02</rscale>
<asrwt>0</asrwt>
<pdfrwt beam="2">  1        2 0.20442480E-01 0.90862094E+02</pdfrwt>
<pdfrwt beam="1">  1       -2 0.23897100E-02 0.90862094E+02</pdfrwt>
<totfact> 0.13551416E+05</totfact>
</mgrwt>
</event>
<event>
 5    1  0.1310593E+001  0.9166433E+02  0.7546771E-02  0.1298871E+00
         -2   -1    0    0    0  501 -0.00000000000E+00  0.00000000000E+00  0.28793432177E+02  0.28793432177E+02  0.00000000000E+00 0. -1.
          2   -1    0    0  501    0  0.00000000000E+00 -0.00000000000E+00 -0.72953702886E+02  0.72953702886E+02  0.00000000000E+00 0.  1.
         23    2    1    2    0    0  0.00000000000E+00  0.00000000000E+00 -0.44160270709E+02  0.10174713506E+03  0.91664333218E+02 0.  0.
        -11    1    3    3    0    0 -0.43783221769E+02 -0.98227500176E+01 -0.11719006312E+02  0.46376632428E+02  0.00000000000E+00 0.  1.
         11    1    3    3    0    0  0.43783221769E+02  0.98227500176E+01 -0.32441264397E+02  0.55370502635E+02  0.00000000000E+00 0. -1.
<mgrwt>
<rscale>  0 0.91664333E+02</rscale>
<asrwt>0</asrwt>
<pdfrwt beam="2">  1        2 0.11223647E-01 0.91664333E+02</pdfrwt>
<pdfrwt beam="1">  1       -2 0.44297587E-02 0.91664333E+02</pdfrwt>
<totfact> 0.11024365E+05</totfact>
</mgrwt>
</event>
<event>
 5    1  0.1310593E+001  0.9310012E+02  0.7546771E-02  0.1295513E+00
          1   -1    0    0  501    0  0.00000000000E+00  0.00000000000E+00  0.49923290319E+02  0.49923290319E+02  0.00000000000E+00 0. -1.
         -1   -1    0    0    0  501 -0.00000000000E+00 -0.00000000000E+00 -0.43404754276E+02  0.43404754276E+02  0.00000000000E+00 0.  1.
         23    2    1    2    0    0  0.00000000000E+00  0.00000000000E+00  0.65185360424E+01  0.93328044595E+02  0.93100121352E+02 0.  0.
        -11    1    3    3    0    0 -0.39775906641E+02 -0.17746335934E+02  0.19726686162E+02  0.47814195958E+02  0.00000000000E+00 0. -1.
         11    1    3    3    0    0  0.39775906641E+02  0.17746335934E+02 -0.13208150119E+02  0.45513848637E+02  0.00000000000E+00 0.  1.
<mgrwt>
<rscale>  0 0.93100121E+02</rscale>
<asrwt>0</asrwt>
<pdfrwt beam="1">  1        1 0.76805062E-02 0.93100121E+02</pdfrwt>
<pdfrwt beam="2">  1       -1 0.66776545E-02 0.93100121E+02</pdfrwt>
<totfact> 0.88415174E+04</totfact>
</mgrwt>
</event>
<event>
 5    1  0.1310593E+001  0.9042851E+02  0.7546771E-02  0.1301817E+00
         -2   -1    0    0    0  501 -0.00000000000E+00  0.00000000000E+00  0.27890371996E+02  0.27890371996E+02  0.00000000000E+00 0.  1.
          2   -1    0    0  501    0  0.00000000000E+00 -0.00000000000E+00 -0.73298722239E+02  0.73298722239E+02  0.00000000000E+00 0. -1.
         23    2    1    2    0    0  0.00000000000E+00  0.00000000000E+00 -0.45408350243E+02  0.10118909423E+03  0.90428505020E+02 0.  0.
        -11    1    3    3    0    0 -0.44161275722E+02 -0.63944489114E+01 -0.30867581607E+02  0.54257855141E+02  0.00000000000E+00 0.  1.
         11    1    3    3    0    0  0.44161275722E+02  0.63944489114E+01 -0.14540768636E+02  0.46931239093E+02  0.00000000000E+00 0. -1.
<mgrwt>
<rscale>  0 0.90428505E+02</rscale>
<asrwt>0</asrwt>
<pdfrwt beam="2">  1        2 0.11276727E-01 0.90428505E+02</pdfrwt>
<pdfrwt beam="1">  1       -2 0.42908265E-02 0.90428505E+02</pdfrwt>
<totfact> 0.11465144E+05</totfact>
</mgrwt>
</event>
<event>
 5    1  0.1310593E+001  0.9296559E+02  0.7546771E-02  0.1295825E+00
         -1   -1    0    0    0  501 -0.00000000000E+00  0.00000000000E+00  0.12367382340E+02  0.12367382340E+02  0.00000000000E+00 0.  1.
          1   -1    0    0  501    0  0.00000000000E+00 -0.00000000000E+00 -0.17470553440E+03  0.17470553440E+03  0.00000000000E+00 0. -1.
         23    2    1    2    0    0  0.00000000000E+00  0.00000000000E+00 -0.16233815206E+03  0.18707291674E+03  0.92965588061E+02 0.  0.
        -11    1    3    3    0    0 -0.44740465755E+02 -0.12413258555E+02 -0.85601523371E+02  0.97382847912E+02  0.00000000000E+00 0.  1.
         11    1    3    3    0    0  0.44740465755E+02  0.12413258555E+02 -0.76736628691E+02  0.89690068830E+02  0.00000000000E+00 0. -1.
<mgrwt>
<rscale>  0 0.92965588E+02</rscale>
<asrwt>0</asrwt>
<pdfrwt beam="2">  1        1 0.26877773E-01 0.92965588E+02</pdfrwt>
<pdfrwt beam="1">  1       -1 0.19026743E-02 0.92965588E+02</pdfrwt>
<totfact> 0.10948581E+05</totfact>
</mgrwt>
</event>
<event>
 5    1  0.1310593E+001  0.9287851E+02  0.7546771E-02  0.1296027E+00
         -2   -1    0    0    0  501 -0.00000000000E+00  0.00000000000E+00  0.17912492760E+02  0.17912492760E+02  0.00000000000E+00 0.  1.
          2   -1    0    0  501    0  0.00000000000E+00 -0.00000000000E+00 -0.12039667720E+03  0.12039667720E+03  0.00000000000E+00 0. -1.
         23    2    1    2    0    0  0.00000000000E+00  0.00000000000E+00 -0.10248418444E+03  0.13830916996E+03  0.92878514389E+02 0.  0.
        -13    1    3    3    0    0 -0.38481929520E+02 -0.23551190841E+02 -0.34855649346E+02  0.57012575638E+02  0.00000000000E+00 0.  1.
         13    1    3    3    0    0  0.38481929520E+02  0.23551190841E+02 -0.67628535097E+02  0.81296594325E+02  0.00000000000E+00 0. -1.
<mgrwt>
<rscale>  0 0.92878514E+02</rscale>
<asrwt>0</asrwt>
<pdfrwt beam="2">  1        2 0.18522565E-01 0.92878514E+02</pdfrwt>
<pdfrwt beam="1">  1       -2 0.27557682E-02 0.92878514E+02</pdfrwt>
<totfact> 0.12358001E+05</totfact>
</mgrwt>
</event>
<event>
 5    1  0.1310593E+001  0.8696721E+02  0.7546771E-02  0.1310367E+00
         -1   -1    0    0    0  501 -0.00000000000E+00  0.00000000000E+00  0.39337170075E+02  0.39337170075E+02  0.00000000000E+00 0.  1.
          1   -1    0    0  501    0  0.00000000000E+00 -0.00000000000E+00 -0.48067101991E+02  0.48067101991E+02  0.00000000000E+00 0. -1.
         23    2    1    2    0    0  0.00000000000E+00  0.00000000000E+00 -0.87299319166E+01  0.87404272066E+02  0.86967206832E+02 0.  0.
        -11    1    3    3    0    0 -0.27609849849E+01 -0.13995589303E+02 -0.45648456218E+02  0.47825527839E+02  0.00000000000E+00 0. -1.
         11    1    3    3    0    0  0.27609849849E+01  0.13995589303E+02  0.36918524301E+02  0.39578744227E+02  0.00000000000E+00 0.  1.
<mgrwt>
<rscale>  0 0.86967207E+02</rscale>
<asrwt>0</asrwt>
<pdfrwt beam="2">  1        1 0.73949388E-02 0.86967207E+02</pdfrwt>
<pdfrwt beam="1">  1       -1 0.60518723E-02 0.86967207E+02</pdfrwt>
<totfact> 0.10633670E+05</totfact>
</mgrwt>
</event>
<event>
 5    1  0.1310593E+001  0.9206709E+02  0.7546771E-02  0.1297922E+00
         -1   -1    0    0    0  501 -0.00000000000E+00  0.00000000000E+00  0.36660863683E+02  0.36660863683E+02  0.00000000000E+00 0.  1.
          1   -1    0    0  501    0  0.00000000000E+00 -0.00000000000E+00 -0.57802436917E+02  0.57802436917E+02  0.00000000000E+00 0. -1.
         23    2    1    2    0    0  0.00000000000E+00  0.00000000000E+00 -0.21141573233E+02  0.94463300600E+02  0.92067089894E+02 0.  0.
        -13    1    3    3    0    0 -0.39288138402E+02  0.16634046561E+02 -0.28307639521E+02  0.51201286892E+02  0.00000000000E+00 0.  1.
         13    1    3    3    0    0  0.39288138402E+02 -0.16634046561E+02  0.71660662882E+01  0.43262013709E+02  0.00000000000E+00 0. -1.
<mgrwt>
<rscale>  0 0.92067090E+02</rscale>
<asrwt>0</asrwt>
<pdfrwt beam="2">  1        1 0.88926826E-02 0.92067090E+02</pdfrwt>
<pdfrwt beam="1">  1       -1 0.56401329E-02 0.92067090E+02</pdfrwt>
<totfact> 0.93273135E+04</totfact>
</mgrwt>
</event>
<event>
 5    1  0.1310593E+001  0.9429220E+02  0.7546771E-02  0.1292778E+00
          1   -1    0    0  501    0  0.00000000000E+00  0.00000000000E+00  0.71481917421E+01  0.71481917421E+01  0.00000000000E+00 0. -1.
         -1   -1    0    0    0  501 -0.00000000000E+00 -0.00000000000E+00 -0.31095345997E+03  0.31095345997E+03  0.00000000000E+00 0.  1.
         23    2    1    2    0    0  0.00000000000E+00  0.00000000000E+00 -0.30380526822E+03  0.31810165171E+03  0.94292204444E+02 0.  0.
        -11    1    3    3    0    0  0.18703146984E+02 -0.40397511471E+02 -0.20427330376E+03  0.20906781021E+03  0.00000000000E+00 0.  1.
         11    1    3    3    0    0 -0.18703146984E+02  0.40397511471E+02 -0.99531964467E+02  0.10903384149E+03  0.00000000000E+00 0. -1.
<mgrwt>
<rscale>  0 0.94292204E+02</rscale>
<asrwt>0</asrwt>
<pdfrwt beam="1">  1        1 0.10997218E-02 0.94292204E+02</pdfrwt>
<pdfrwt beam="2">  1       -1 0.47838996E-01 0.94292204E+02</pdfrwt>
<totfact> 0.54690929E+04</totfact>
</mgrwt>
</event>
<event>
 5    1  0.1310593E+001  0.9566597E+02  0.7546771E-02  0.1289683E+00
         -1   -1    0    0    0  501 -0.00000000000E+00  0.00000000000E+00  0.25748573750E+02  0.25748573750E+02  0.00000000000E+00 0.  1.
          1   -1    0    0  501    0  0.00000000000E+00 -0.00000000000E+00 -0.88859073877E+02  0.88859073877E+02  0.00000000000E+00 0. -1.
         23    2    1    2    0    0  0.00000000000E+00  0.00000000000E+00 -0.63110500127E+02  0.11460764763E+03  0.95665969228E+02 0.  0.
        -13    1    3    3    0    0 -0.20623272756E+02 -0.67895217039E+01  0.19505016769E+02  0.29186686405E+02  0.00000000000E+00 0.  1.
         13    1    3    3    0    0  0.20623272756E+02  0.67895217039E+01 -0.82615516896E+02  0.85420961222E+02  0.00000000000E+00 0. -1.
<mgrwt>
<rscale>  0 0.95665969E+02</rscale>
<asrwt>0</asrwt>
<pdfrwt beam="2">  1        1 0.13670627E-01 0.95665969E+02</pdfrwt>
<pdfrwt beam="1">  1       -1 0.39613191E-02 0.95665969E+02</pdfrwt>
<totfact> 0.89778698E+04</totfact>
</mgrwt>
</event>
<event>
 5    1  0.1310593E+001  0.9032299E+02  0.7546771E-02  0.1302071E+00
          1   -1    0    0  501    0  0.00000000000E+00  0.00000000000E+00  0.69370460742E+02  0.69370460742E+02  0.00000000000E+00 0. -1.
         -1   -1    0    0    0  501 -0.00000000000E+00 -0.00000000000E+00 -0.29400994020E+02  0.29400994020E+02  0.00000000000E+00 0.  1.
         23    2    1    2    0    0  0.00000000000E+00  0.00000000000E+00  0.39969466722E+02  0.98771454762E+02  0.90322987139E+02 0.  0.
        -11    1    3    3    0    0 -0.18397630382E+02 -0.40615548839E+02  0.27829656339E+02  0.52560302350E+02  0.00000000000E+00 0. -1.
         11    1    3    3    0    0  0.18397630382E+02  0.40615548839E+02  0.12139810382E+02  0.46211152412E+02  0.00000000000E+00 0.  1.
<mgrwt>
<rscale>  0 0.90322987E+02</rscale>
<asrwt>0</asrwt>
<pdfrwt beam="1">  1        1 0.10672379E-01 0.90322987E+02</pdfrwt>
<pdfrwt beam="2">  1       -1 0.45232299E-02 0.90322987E+02</pdfrwt>
<totfact> 0.10111707E+05</totfact>
</mgrwt>
</event>
<event>
 5    1  0.1310593E+001  0.8935496E+02  0.7546771E-02  0.1304421E+00
         -1   -1    0    0    0  501 -0.00000000000E+00  0.00000000000E+00  0.12948168637E+02  0.12948168637E+02  0.00000000000E+00 0.  1.
          1   -1    0    0  501    0  0.00000000000E+00 -0.00000000000E+00 -0.15415902436E+03  0.15415902436E+03  0.00000000000E+00 0. -1.
         23    2    1    2    0    0  0.00000000000E+00  0.00000000000E+00 -0.14121085572E+03  0.16710719299E+03  0.89354956085E+02 0.  0.
        -13    1    3    3    0    0 -0.22958003127E+02 -0.16588047581E+02 -0.13522294329E+03  0.13815743780E+03  0.00000000000E+00 0. -1.
         13    1    3    3    0    0  0.22958003127E+02  0.16588047581E+02 -0.59879124344E+01  0.28949755188E+02  0.00000000000E+00 0.  1.
<mgrwt>
<rscale>  0 0.89354956E+02</rscale>
<asrwt>0</asrwt>
<pdfrwt beam="2">  1        1 0.23716774E-01 0.89354956E+02</pdfrwt>
<pdfrwt beam="1">  1       -1 0.19920258E-02 0.89354956E+02</pdfrwt>
<totfact> 0.11899025E+05</totfact>
</mgrwt>
</event>
<event>
 5    1  0.1310593E+001  0.9440186E+02  0.7546771E-02  0.1292529E+00
          1   -1    0    0  501    0  0.00000000000E+00  0.00000000000E+00  0.69231498082E+02  0.69231498082E+02  0.00000000000E+00 0. -1.
         -1   -1    0    0    0  501 -0.00000000000E+00 -0.00000000000E+00 -0.32180840721E+02  0.32180840721E+02  0.00000000000E+00 0.  1.
         23    2    1    2    0    0  0.00000000000E+00  0.00000000000E+00  0.37050657361E+02  0.10141233880E+03  0.94401860419E+02 0.  0.
        -13    1    3    3    0    0  0.41440769417E+02  0.11831637477E+02 -0.21553407165E+01  0.43150556299E+02  0.00000000000E+00 0.  1.
         13    1    3    3    0    0 -0.41440769417E+02 -0.11831637477E+02  0.39205998077E+02  0.58261782504E+02  0.00000000000E+00 0. -1.
<mgrwt>
<rscale>  0 0.94401860E+02</rscale>
<asrwt>0</asrwt>
<pdfrwt beam="1">  1        1 0.10651000E-01 0.94401860E+02</pdfrwt>
<pdfrwt beam="2">  1       -1 0.49508986E-02 0.94401860E+02</pdfrwt>
<totfact> 0.89462562E+04</totfact>
</mgrwt>
</event>
<event>
 5    1  0.1310593E+001  0.9069574E+02  0.7546771E-02  0.1301176E+00
         -2   -1    0    0    0  501 -0.00000000000E+00  0.00000000000E+00  0.75237678508E+01  0.75237678508E+01  0.00000000000E+00 0.  1.
          2   -1    0    0  501    0  0.00000000000E+00 -0.00000000000E+00 -0.27332440862E+03  0.27332440862E+03  0.00000000000E+00 0. -1.
         23    2    1    2    0    0  0.00000000000E+00  0.00000000000E+00 -0.26580064077E+03  0.28084817647E+03  0.90695741872E+02 0.  0.
        -11    1    3    3    0    0 -0.43147651656E+02  0.19386884933E+01 -0.90109981396E+02  0.99926408440E+02  0.00000000000E+00 0.  1.
         11    1    3    3    0    0  0.43147651656E+02 -0.19386884933E+01 -0.17569065937E+03  0.18092176803E+03  0.00000000000E+00 0. -1.
<mgrwt>
<rscale>  0 0.90695742E+02</rscale>
<asrwt>0</asrwt>
<pdfrwt beam="2">  1        2 0.42049906E-01 0.90695742E+02</pdfrwt>
<pdfrwt beam="1">  1       -2 0.11575028E-02 0.90695742E+02</pdfrwt>
<totfact> 0.17599719E+05</totfact>
</mgrwt>
</event>
<event>
 5    1  0.1310593E+001  0.9156931E+02  0.7546771E-02  0.1299095E+00
          1   -1    0    0  501    0  0.00000000000E+00  0.00000000000E+00  0.13460720611E+03  0.13460720611E+03  0.00000000000E+00 0. -1.
         -1   -1    0    0    0  501 -0.00000000000E+00 -0.00000000000E+00 -0.15572976508E+02  0.15572976508E+02  0.00000000000E+00 0.  1.
         23    2    1    2    0    0  0.00000000000E+00  0.00000000000E+00  0.11903422961E+03  0.15018018262E+03  0.91569314916E+02 0.  0.
        -11    1    3    3    0    0  0.29291901778E+02  0.35181138009E+02  0.60684768427E+02  0.76015584589E+02  0.00000000000E+00 0.  1.
         11    1    3    3    0    0 -0.29291901778E+02 -0.35181138009E+02  0.58349461178E+02  0.74164598032E+02  0.00000000000E+00 0. -1.
<mgrwt>
<rscale>  0 0.91569315E+02</rscale>
<asrwt>0</asrwt>
<pdfrwt beam="1">  1        1 0.20708800E-01 0.91569315E+02</pdfrwt>
<pdfrwt beam="2">  1       -1 0.23958426E-02 0.91569315E+02</pdfrwt>
<totfact> 0.10867767E+05</totfact>
</mgrwt>
</event>
<event>
 5    1  0.1310593E+001  0.9200626E+02  0.7546771E-02  0.1298065E+00
         -2   -1    0    0    0  501 -0.00000000000E+00  0.00000000000E+00  0.13657240007E+03  0.13657240007E+03  0.00000000000E+00 0.  1.
          2   -1    0    0  501    0  0.00000000000E+00 -0.00000000000E+00 -0.15495720998E+02  0.15495720998E+02  0.00000000000E+00 0. -1.
         23    2    1    2    0    0  0.00000000000E+00  0.00000000000E+00  0.12107667907E+03  0.15206812107E+03  0.92006256472E+02 0.  0.
        -11    1    3    3    0    0 -0.40979635714E+02 -0.69811245032E+01  0.93104039964E+02  0.10196288001E+03  0.00000000000E+00 0.  1.
         11    1    3    3    0    0  0.40979635714E+02  0.69811245032E+01  0.27972639105E+02  0.50105241054E+02  0.00000000000E+00 0. -1.
<mgrwt>
<rscale>  0 0.92006256E+02</rscale>
<asrwt>0</asrwt>
<pdfrwt beam="2">  1        2 0.23839572E-02 0.92006256E+02</pdfrwt>
<pdfrwt beam="1">  1       -2 0.21011138E-01 0.92006256E+02</pdfrwt>
<totfact> 0.70587744E+04</totfact>
</mgrwt>
</event>
<event>
 5    1  0.1310593E+001  0.8959719E+02  0.7546771E-02  0.1303830E+00
         -3   -1    0    0    0  501 -0.00000000000E+00  0.00000000000E+00  0.73521568334E+02  0.73521568334E+02  0.00000000000E+00 0.  1.
          3   -1    0    0  501    0  0.00000000000E+00 -0.00000000000E+00 -0.27296943380E+02  0.27296943380E+02  0.00000000000E+00 0. -1.
         23    2    1    2    0    0  0.00000000000E+00  0.00000000000E+00  0.46224624954E+02  0.10081851171E+03  0.89597189421E+02 0.  0.
        -11    1    3    3    0    0  0.26439473436E+02  0.28390831041E+02  0.48319465201E+02  0.61966569698E+02  0.00000000000E+00 0.  1.
         11    1    3    3    0    0 -0.26439473436E+02 -0.28390831041E+02 -0.20948402470E+01  0.38851942016E+02  0.00000000000E+00 0. -1.
<mgrwt>
<rscale>  0 0.89597189E+02</rscale>
<asrwt>0</asrwt>
<pdfrwt beam="2">  1        3 0.41995298E-02 0.89597189E+02</pdfrwt>
<pdfrwt beam="1">  1       -3 0.11311010E-01 0.89597189E+02</pdfrwt>
<totfact> 0.36293928E+04</totfact>
</mgrwt>
</event>
<event>
 5    1  0.1310593E+001  0.8991642E+02  0.7546771E-02  0.1303054E+00
          1   -1    0    0  501    0  0.00000000000E+00  0.00000000000E+00  0.86866780317E+02  0.86866780317E+02  0.00000000000E+00 0. -1.
         -1   -1    0    0    0  501 -0.00000000000E+00 -0.00000000000E+00 -0.23268279712E+02  0.23268279712E+02  0.00000000000E+00 0.  1.
         23    2    1    2    0    0  0.00000000000E+00  0.00000000000E+00  0.63598500605E+02  0.11013506003E+03  0.89916417680E+02 0.  0.
        -11    1    3    3    0    0  0.89309177158E+01 -0.18219829112E+02  0.80939164225E+02  0.83443824035E+02  0.00000000000E+00 0. -1.
         11    1    3    3    0    0 -0.89309177158E+01  0.18219829112E+02 -0.17340663620E+02  0.26691235994E+02  0.00000000000E+00 0.  1.
<mgrwt>
<rscale>  0 0.89916418E+02</rscale>
<asrwt>0</asrwt>
<pdfrwt beam="1">  1        1 0.13364120E-01 0.89916418E+02</pdfrwt>
<pdfrwt beam="2">  1       -1 0.35797354E-02 0.89916418E+02</pdfrwt>
<totfact> 0.10603262E+05</totfact>
</mgrwt>
</event>
<event>
 5    1  0.1310593E+001  0.8973585E+02  0.7546771E-02  0.1303493E+00
          1   -1    0    0  501    0  0.00000000000E+00  0.00000000000E+00  0.91624151969E+01  0.91624151969E+01  0.00000000000E+00 0. -1.
         -1   -1    0    0    0  501 -0.00000000000E+00 -0.00000000000E+00 -0.21971615055E+03  0.21971615055E+03  0.00000000000E+00 0.  1.
         23    2    1    2    0    0  0.00000000000E+00  0.00000000000E+00 -0.21055373535E+03  0.22887856574E+03  0.89735847837E+02 0.  0.
        -11    1    3    3    0    0 -0.11226900346E+02  0.42000426863E+02 -0.13357009692E+03  0.14046725575E+03  0.00000000000E+00 0.  1.
         11    1    3    3    0    0  0.11226900346E+02 -0.42000426863E+02 -0.76983638429E+02  0.88411309988E+02  0.00000000000E+00 0. -1.
<mgrwt>
<rscale>  0 0.89735848E+02</rscale>
<asrwt>0</asrwt>
<pdfrwt beam="1">  1        1 0.14096023E-02 0.89735848E+02</pdfrwt>
<pdfrwt beam="2">  1       -1 0.33802486E-01 0.89735848E+02</pdfrwt>
<totfact> 0.70379076E+04</totfact>
</mgrwt>
</event>
<event>
 5    1  0.1310593E+001  0.9197697E+02  0.7546771E-02  0.1298134E+00
          2   -1    0    0  501    0  0.00000000000E+00  0.00000000000E+00  0.57233445494E+02  0.57233445494E+02  0.00000000000E+00 0. -1.
         -2   -1    0    0    0  501 -0.00000000000E+00 -0.00000000000E+00 -0.36952881326E+02  0.36952881326E+02  0.00000000000E+00 0.  1.
         23    2    1    2    0    0  0.00000000000E+00  0.00000000000E+00  0.20280564169E+02  0.94186326820E+02  0.91976969274E+02 0.  0.
        -11    1    3    3    0    0 -0.73591643828E+00  0.45881418436E+02  0.13262217028E+02  0.47765390516E+02  0.00000000000E+00 0. -1.
         11    1    3    3    0    0  0.73591643828E+00 -0.45881418436E+02  0.70183471410E+01  0.46420936303E+02  0.00000000000E+00 0.  1.
<mgrwt>
<rscale>  0 0.91976969E+02</rscale>
<asrwt>0</asrwt>
<pdfrwt beam="1">  1        2 0.88051455E-02 0.91976969E+02</pdfrwt>
<pdfrwt beam="2">  1       -2 0.56850587E-02 0.91976969E+02</pdfrwt>
<totfact> 0.10217904E+05</totfact>
</mgrwt>
</event>
<event>
 5    1  0.1310593E+001  0.8863977E+02  0.7546771E-02  0.1306180E+00
         -2   -1    0    0    0  501 -0.00000000000E+00  0.00000000000E+00  0.43113606467E+02  0.43113606467E+02  0.00000000000E+00 0.  1.
          2   -1    0    0  501    0  0.00000000000E+00 -0.00000000000E+00 -0.45559916065E+02  0.45559916065E+02  0.00000000000E+00 0. -1.
         23    2    1    2    0    0  0.00000000000E+00  0.00000000000E+00 -0.24463095981E+01  0.88673522533E+02  0.88639771929E+02 0.  0.
        -11    1    3    3    0    0  0.39140522059E+02  0.10976141031E+02  0.16441319097E+02  0.43849436856E+02  0.00000000000E+00 0.  1.
         11    1    3    3    0    0 -0.39140522059E+02 -0.10976141031E+02 -0.18887628695E+02  0.44824085676E+02  0.00000000000E+00 0. -1.
<mgrwt>
<rscale>  0 0.88639772E+02</rscale>
<asrwt>0</asrwt>
<pdfrwt beam="2">  1        2 0.70092178E-02 0.88639772E+02</pdfrwt>
<pdfrwt beam="1">  1       -2 0.66328625E-02 0.88639772E+02</pdfrwt>
<totfact> 0.10694939E+05</totfact>
</mgrwt>
</event>
<event>
 5    1  0.1310593E+001  0.8629024E+02  0.7546771E-02  0.1312093E+00
         -4   -1    0    0    0  501 -0.00000000000E+00  0.00000000000E+00  0.50725864959E+01  0.50725864959E+01  0.00000000000E+00 0.  1.
          4   -1    0    0  501    0  0.00000000000E+00 -0.00000000000E+00 -0.36697279151E+03  0.36697279151E+03  0.00000000000E+00 0. -1.
         23    2    1    2    0    0  0.00000000000E+00  0.00000000000E+00 -0.36190020501E+03  0.37204537800E+03  0.86290236448E+02 0.  0.
        -11    1    3    3    0    0  0.32776382184E+02  0.27905282461E+02 -0.19352419734E+03  0.19825390532E+03  0.00000000000E+00 0. -1.
         11    1    3    3    0    0 -0.32776382184E+02 -0.27905282461E+02 -0.16837600768E+03  0.17379147269E+03  0.00000000000E+00 0.  1.
<mgrwt>
<rscale>  0 0.86290236E+02</rscale>
<asrwt>0</asrwt>
<pdfrwt beam="2">  1        4 0.56457384E-01 0.86290236E+02</pdfrwt>
<pdfrwt beam="1">  1       -4 0.78039748E-03 0.86290236E+02</pdfrwt>
<totfact> 0.18299470E+04</totfact>
</mgrwt>
</event>
<event>
 5    1  0.1310593E+001  0.9208469E+02  0.7546771E-02  0.1297880E+00
         -1   -1    0    0    0  501 -0.00000000000E+00  0.00000000000E+00  0.36372008073E+02  0.36372008073E+02  0.00000000000E+00 0.  1.
          1   -1    0    0  501    0  0.00000000000E+00 -0.00000000000E+00 -0.58283760788E+02  0.58283760788E+02  0.00000000000E+00 0. -1.
         23    2    1    2    0    0  0.00000000000E+00  0.00000000000E+00 -0.21911752715E+02  0.94655768861E+02  0.92084687498E+02 0.  0.
        -11    1    3    3    0    0  0.40807390172E+02  0.16269841352E+02  0.32110428382E+01  0.44048400952E+02  0.00000000000E+00 0.  1.
         11    1    3    3    0    0 -0.40807390172E+02 -0.16269841352E+02 -0.25122795553E+02  0.50607367909E+02  0.00000000000E+00 0. -1.
<mgrwt>
<rscale>  0 0.92084687E+02</rscale>
<asrwt>0</asrwt>
<pdfrwt beam="2">  1        1 0.89667323E-02 0.92084687E+02</pdfrwt>
<pdfrwt beam="1">  1       -1 0.55956937E-02 0.92084687E+02</pdfrwt>
<totfact> 0.93341090E+04</totfact>
</mgrwt>
</event>
<event>
 5    1  0.1310593E+001  0.9387623E+02  0.7546771E-02  0.1293727E+00
         -1   -1    0    0    0  501 -0.00000000000E+00  0.00000000000E+00  0.10171060304E+02  0.10171060304E+02  0.00000000000E+00 0.  1.
          1   -1    0    0  501    0  0.00000000000E+00 -0.00000000000E+00 -0.21661325617E+03  0.21661325617E+03  0.00000000000E+00 0. -1.
         23    2    1    2    0    0  0.00000000000E+00  0.00000000000E+00 -0.20644219586E+03  0.22678431647E+03  0.93876226836E+02 0.  0.
        -13    1    3    3    0    0 -0.73954708379E+01 -0.38433033117E+02 -0.40625096179E+02  0.56410898442E+02  0.00000000000E+00 0.  1.
         13    1    3    3    0    0  0.73954708379E+01  0.38433033117E+02 -0.16581709969E+03  0.17037341803E+03  0.00000000000E+00 0. -1.
<mgrwt>
<rscale>  0 0.93876227E+02</rscale>
<asrwt>0</asrwt>
<pdfrwt beam="2">  1        1 0.33325117E-01 0.93876227E+02</pdfrwt>
<pdfrwt beam="1">  1       -1 0.15647785E-02 0.93876227E+02</pdfrwt>
<totfact> 0.11120000E+05</totfact>
</mgrwt>
</event>
<event>
 5    1  0.1310593E+001  0.9095977E+02  0.7546771E-02  0.1300544E+00
         -2   -1    0    0    0  501 -0.00000000000E+00  0.00000000000E+00  0.60236139696E+02  0.60236139696E+02  0.00000000000E+00 0.  1.
          2   -1    0    0  501    0  0.00000000000E+00 -0.00000000000E+00 -0.34338523611E+02  0.34338523611E+02  0.00000000000E+00 0. -1.
         23    2    1    2    0    0  0.00000000000E+00  0.00000000000E+00  0.25897616085E+02  0.94574663306E+02  0.90959773640E+02 0.  0.
        -13    1    3    3    0    0 -0.38595927489E+02  0.51016057563E+01  0.37393753026E+02  0.53981151946E+02  0.00000000000E+00 0. -1.
         13    1    3    3    0    0  0.38595927489E+02 -0.51016057563E+01 -0.11496136941E+02  0.40593511361E+02  0.00000000000E+00 0.  1.
<mgrwt>
<rscale>  0 0.90959774E+02</rscale>
<asrwt>0</asrwt>
<pdfrwt beam="2">  1        2 0.52828498E-02 0.90959774E+02</pdfrwt>
<pdfrwt beam="1">  1       -2 0.92670984E-02 0.90959774E+02</pdfrwt>
<totfact> 0.92322318E+04</totfact>
</mgrwt>
</event>
<event>
 5    1  0.1310593E+001  0.9238778E+02  0.7546771E-02  0.1297170E+00
         -2   -1    0    0    0  501 -0.00000000000E+00  0.00000000000E+00  0.84113062118E+02  0.84113062118E+02  0.00000000000E+00 0.  1.
          2   -1    0    0  501    0  0.00000000000E+00 -0.00000000000E+00 -0.25369134327E+02  0.25369134327E+02  0.00000000000E+00 0. -1.
         23    2    1    2    0    0  0.00000000000E+00  0.00000000000E+00  0.58743927791E+02  0.10948219644E+03  0.92387782125E+02 0.  0.
        -11    1    3    3    0    0  0.44507319113E+01 -0.45074212725E+02  0.40127817269E+02  0.60512274673E+02  0.00000000000E+00 0. -1.
         11    1    3    3    0    0 -0.44507319113E+01  0.45074212725E+02  0.18616110522E+02  0.48969921771E+02  0.00000000000E+00 0.  1.
<mgrwt>
<rscale>  0 0.92387782E+02</rscale>
<asrwt>0</asrwt>
<pdfrwt beam="2">  1        2 0.39029438E-02 0.92387782E+02</pdfrwt>
<pdfrwt beam="1">  1       -2 0.12940471E-01 0.92387782E+02</pdfrwt>
<totfact> 0.81214014E+04</totfact>
</mgrwt>
</event>
<event>
 5    1  0.1310593E+001  0.8883165E+02  0.7546771E-02  0.1305706E+00
         -3   -1    0    0    0  501 -0.00000000000E+00  0.00000000000E+00  0.17401164773E+02  0.17401164773E+02  0.00000000000E+00 0.  1.
          3   -1    0    0  501    0  0.00000000000E+00 -0.00000000000E+00 -0.11336974140E+03  0.11336974140E+03  0.00000000000E+00 0. -1.
         23    2    1    2    0    0  0.00000000000E+00  0.00000000000E+00 -0.95968576631E+02  0.13077090618E+03  0.88831650900E+02 0.  0.
        -11    1    3    3    0    0  0.63081730208E+01 -0.38742475308E+02 -0.78581497115E+02  0.87839763938E+02  0.00000000000E+00 0. -1.
         11    1    3    3    0    0 -0.63081730208E+01  0.38742475308E+02 -0.17387079516E+02  0.42931142239E+02  0.00000000000E+00 0.  1.
<mgrwt>
<rscale>  0 0.88831651E+02</rscale>
<asrwt>0</asrwt>
<pdfrwt beam="2">  1        3 0.17441498E-01 0.88831651E+02</pdfrwt>
<pdfrwt beam="1">  1       -3 0.26771023E-02 0.88831651E+02</pdfrwt>
<totfact> 0.34900008E+04</totfact>
</mgrwt>
</event>
<event>
 5    1  0.1310593E+001  0.9051543E+02  0.7546771E-02  0.1301608E+00
          1   -1    0    0  501    0  0.00000000000E+00  0.00000000000E+00  0.13620956506E+02  0.13620956506E+02  0.00000000000E+00 0. -1.
         -1   -1    0    0    0  501 -0.00000000000E+00 -0.00000000000E+00 -0.15037568984E+03  0.15037568984E+03  0.00000000000E+00 0.  1.
         23    2    1    2    0    0  0.00000000000E+00  0.00000000000E+00 -0.13675473334E+03  0.16399664635E+03  0.90515429202E+02 0.  0.
        -13    1    3    3    0    0 -0.11102569106E+02  0.29573390470E+02 -0.12709809280E+03  0.13096479549E+03  0.00000000000E+00 0.  1.
         13    1    3    3    0    0  0.11102569106E+02 -0.29573390470E+02 -0.96566405376E+01  0.33031850858E+02  0.00000000000E+00 0. -1.
<mgrwt>
<rscale>  0 0.90515429E+02</rscale>
<asrwt>0</asrwt>
<pdfrwt beam="1">  1        1 0.20955319E-02 0.90515429E+02</pdfrwt>
<pdfrwt beam="2">  1       -1 0.23134720E-01 0.90515429E+02</pdfrwt>
<totfact> 0.76169567E+04</totfact>
</mgrwt>
</event>
<event>
 5    1  0.1310593E+001  0.9128989E+02  0.7546771E-02  0.1299758E+00
          1   -1    0    0  501    0  0.00000000000E+00  0.00000000000E+00  0.49251542184E+02  0.49251542184E+02  0.00000000000E+00 0. -1.
         -1   -1    0    0    0  501 -0.00000000000E+00 -0.00000000000E+00 -0.42302454474E+02  0.42302454474E+02  0.00000000000E+00 0.  1.
         23    2    1    2    0    0  0.00000000000E+00  0.00000000000E+00  0.69490877103E+01  0.91553996659E+02  0.91289892563E+02 0.  0.
        -13    1    3    3    0    0  0.15781921682E+02 -0.12075619679E+02 -0.37736568430E+02  0.42649012175E+02  0.00000000000E+00 0.  1.
         13    1    3    3    0    0 -0.15781921682E+02  0.12075619679E+02  0.44685656141E+02  0.48904984484E+02  0.00000000000E+00 0. -1.
<mgrwt>
<rscale>  0 0.91289893E+02</rscale>
<asrwt>0</asrwt>
<pdfrwt beam="1">  1        1 0.75771603E-02 0.91289893E+02</pdfrwt>
<pdfrwt beam="2">  1       -1 0.65080700E-02 0.91289893E+02</pdfrwt>
<totfact> 0.93227836E+04</totfact>
</mgrwt>
</event>
<event>
 5    1  0.1310593E+001  0.9338949E+02  0.7546771E-02  0.1294845E+00
         -2   -1    0    0    0  501 -0.00000000000E+00  0.00000000000E+00  0.51116666577E+02  0.51116666577E+02  0.00000000000E+00 0.  1.
          2   -1    0    0  501    0  0.00000000000E+00 -0.00000000000E+00 -0.42655343641E+02  0.42655343641E+02  0.00000000000E+00 0. -1.
         23    2    1    2    0    0  0.00000000000E+00  0.00000000000E+00  0.84613229359E+01  0.93772010217E+02  0.93389485031E+02 0.  0.
        -13    1    3    3    0    0  0.40479959696E+02 -0.21877862754E+02 -0.37473829964E+01  0.46166122806E+02  0.00000000000E+00 0. -1.
         13    1    3    3    0    0 -0.40479959696E+02  0.21877862754E+02  0.12208705932E+02  0.47605887411E+02  0.00000000000E+00 0.  1.
<mgrwt>
<rscale>  0 0.93389485E+02</rscale>
<asrwt>0</asrwt>
<pdfrwt beam="2">  1        2 0.65623606E-02 0.93389485E+02</pdfrwt>
<pdfrwt beam="1">  1       -2 0.78641026E-02 0.93389485E+02</pdfrwt>
<totfact> 0.90488519E+04</totfact>
</mgrwt>
</event>
<event>
 5    1  0.1310593E+001  0.5809566E+02  0.7546771E-02  0.1406002E+00
         -1   -1    0    0    0  501 -0.00000000000E+00  0.00000000000E+00  0.36053489811E+02  0.36053489811E+02  0.00000000000E+00 0.  1.
          1   -1    0    0  501    0  0.00000000000E+00 -0.00000000000E+00 -0.23403458061E+02  0.23403458061E+02  0.00000000000E+00 0. -1.
         23    2    1    2    0    0  0.00000000000E+00  0.00000000000E+00  0.12650031750E+02  0.59456947873E+02  0.58095656869E+02 0.  0.
        -11    1    3    3    0    0  0.18560498334E+02 -0.82991867296E+01 -0.14907378899E+02  0.25211079794E+02  0.00000000000E+00 0. -1.
         11    1    3    3    0    0 -0.18560498334E+02  0.82991867296E+01  0.27557410649E+02  0.34245868078E+02  0.00000000000E+00 0.  1.
<mgrwt>
<rscale>  0 0.58095657E+02</rscale>
<asrwt>0</asrwt>
<pdfrwt beam="2">  1        1 0.36005320E-02 0.58095657E+02</pdfrwt>
<pdfrwt beam="1">  1       -1 0.55466907E-02 0.58095657E+02</pdfrwt>
<totfact> 0.29246855E+05</totfact>
</mgrwt>
</event>
<event>
 5    1  0.1310593E+001  0.9115170E+02  0.7546771E-02  0.1300086E+00
          1   -1    0    0  501    0  0.00000000000E+00  0.00000000000E+00  0.21444701322E+02  0.21444701322E+02  0.00000000000E+00 0. -1.
         -1   -1    0    0    0  501 -0.00000000000E+00 -0.00000000000E+00 -0.96861133288E+02  0.96861133288E+02  0.00000000000E+00 0.  1.
         23    2    1    2    0    0  0.00000000000E+00  0.00000000000E+00 -0.75416431966E+02  0.11830583461E+03  0.91151699339E+02 0.  0.
        -13    1    3    3    0    0 -0.17440918598E+02 -0.37342453350E+02 -0.62959423071E+02  0.75249806759E+02  0.00000000000E+00 0.  1.
         13    1    3    3    0    0  0.17440918598E+02  0.37342453350E+02 -0.12457008895E+02  0.43056027852E+02  0.00000000000E+00 0. -1.
<mgrwt>
<rscale>  0 0.91151699E+02</rscale>
<asrwt>0</asrwt>
<pdfrwt beam="1">  1        1 0.32991848E-02 0.91151699E+02</pdfrwt>
<pdfrwt beam="2">  1       -1 0.14901713E-01 0.91151699E+02</pdfrwt>
<totfact> 0.81909173E+04</totfact>
</mgrwt>
</event>
<event>
 5    1  0.1310593E+001  0.8583648E+02  0.7546771E-02  0.1313259E+00
          4   -1    0    0  501    0  0.00000000000E+00  0.00000000000E+00  0.15695262653E+03  0.15695262653E+03  0.00000000000E+00 0. -1.
         -4   -1    0    0    0  501 -0.00000000000E+00 -0.00000000000E+00 -0.11735867011E+02  0.11735867011E+02  0.00000000000E+00 0.  1.
         23    2    1    2    0    0  0.00000000000E+00  0.00000000000E+00  0.14521675952E+03  0.16868849354E+03  0.85836475976E+02 0.  0.
        -13    1    3    3    0    0  0.29609623311E+02 -0.28120234324E+02  0.98568609694E+02  0.10669230613E+03  0.00000000000E+00 0. -1.
         13    1    3    3    0    0 -0.29609623311E+02  0.28120234324E+02  0.46648149826E+02  0.61996187409E+02  0.00000000000E+00 0.  1.
<mgrwt>
<rscale>  0 0.85836476E+02</rscale>
<asrwt>0</asrwt>
<pdfrwt beam="1">  1        4 0.24146557E-01 0.85836476E+02</pdfrwt>
<pdfrwt beam="2">  1       -4 0.18055181E-02 0.85836476E+02</pdfrwt>
<totfact> 0.26749420E+04</totfact>
</mgrwt>
</event>
<event>
 5    1  0.1310593E+001  0.8950883E+02  0.7546771E-02  0.1304046E+00
         -1   -1    0    0    0  501 -0.00000000000E+00  0.00000000000E+00  0.12116006618E+02  0.12116006618E+02  0.00000000000E+00 0.  1.
          1   -1    0    0  501    0  0.00000000000E+00 -0.00000000000E+00 -0.16531500134E+03  0.16531500134E+03  0.00000000000E+00 0. -1.
         23    2    1    2    0    0  0.00000000000E+00  0.00000000000E+00 -0.15319899473E+03  0.17743100796E+03  0.89508829740E+02 0.  0.
        -11    1    3    3    0    0 -0.21601554740E+02  0.22048998569E+02 -0.14083777500E+03  0.14418066574E+03  0.00000000000E+00 0. -1.
         11    1    3    3    0    0  0.21601554740E+02 -0.22048998569E+02 -0.12361219726E+02  0.33250342227E+02  0.00000000000E+00 0.  1.
<mgrwt>
<rscale>  0 0.89508830E+02</rscale>
<asrwt>0</asrwt>
<pdfrwt beam="2">  1        1 0.25433076E-01 0.89508830E+02</pdfrwt>
<pdfrwt beam="1">  1       -1 0.18640011E-02 0.89508830E+02</pdfrwt>
<totfact> 0.11998217E+05</totfact>
</mgrwt>
</event>
<event>
 5    1  0.1310593E+001  0.8898516E+02  0.7546771E-02  0.1305328E+00
          2   -1    0    0  501    0  0.00000000000E+00  0.00000000000E+00  0.78009682996E+02  0.78009682996E+02  0.00000000000E+00 0. -1.
         -2   -1    0    0    0  501 -0.00000000000E+00 -0.00000000000E+00 -0.25376203435E+02  0.25376203435E+02  0.00000000000E+00 0.  1.
         23    2    1    2    0    0  0.00000000000E+00  0.00000000000E+00  0.52633479560E+02  0.10338588643E+03  0.88985157990E+02 0.  0.
        -13    1    3    3    0    0  0.11048627903E+02  0.33854759431E+02 -0.46711689569E+01  0.35917081370E+02  0.00000000000E+00 0.  1.
         13    1    3    3    0    0 -0.11048627903E+02 -0.33854759431E+02  0.57304648517E+02  0.67468805061E+02  0.00000000000E+00 0. -1.
<mgrwt>
<rscale>  0 0.88985158E+02</rscale>
<asrwt>0</asrwt>
<pdfrwt beam="1">  1        2 0.12001490E-01 0.88985158E+02</pdfrwt>
<pdfrwt beam="2">  1       -2 0.39040313E-02 0.88985158E+02</pdfrwt>
<totfact> 0.12199844E+05</totfact>
</mgrwt>
</event>
<event>
 5    1  0.1310593E+001  0.9136540E+02  0.7546771E-02  0.1299578E+00
          2   -1    0    0  501    0  0.00000000000E+00  0.00000000000E+00  0.14441673884E+02  0.14441673884E+02  0.00000000000E+00 0. -1.
         -2   -1    0    0    0  501 -0.00000000000E+00 -0.00000000000E+00 -0.14450602869E+03  0.14450602869E+03  0.00000000000E+00 0.  1.
         23    2    1    2    0    0  0.00000000000E+00  0.00000000000E+00 -0.13006435480E+03  0.15894770257E+03  0.91365396961E+02 0.  0.
        -13    1    3    3    0    0  0.23356033222E+02  0.39048291524E+02 -0.57936538510E+02  0.73667603825E+02  0.00000000000E+00 0. -1.
         13    1    3    3    0    0 -0.23356033222E+02 -0.39048291524E+02 -0.72127816292E+02  0.85280098744E+02  0.00000000000E+00 0.  1.
<mgrwt>
<rscale>  0 0.91365397E+02</rscale>
<asrwt>0</asrwt>
<pdfrwt beam="1">  1        2 0.22217960E-02 0.91365397E+02</pdfrwt>
<pdfrwt beam="2">  1       -2 0.22231697E-01 0.91365397E+02</pdfrwt>
<totfact> 0.70432949E+04</totfact>
</mgrwt>
</event>
<event>
 5    1  0.1310593E+001  0.9229183E+02  0.7546771E-02  0.1297395E+00
          1   -1    0    0  501    0  0.00000000000E+00  0.00000000000E+00  0.15913404528E+03  0.15913404528E+03  0.00000000000E+00 0. -1.
         -1   -1    0    0    0  501 -0.00000000000E+00 -0.00000000000E+00 -0.13381457779E+02  0.13381457779E+02  0.00000000000E+00 0.  1.
         23    2    1    2    0    0  0.00000000000E+00  0.00000000000E+00  0.14575258750E+03  0.17251550306E+03  0.92291830801E+02 0.  0.
        -11    1    3    3    0    0 -0.31905047111E+02  0.19644899462E+02  0.12322762201E+03  0.12879790733E+03  0.00000000000E+00 0. -1.
         11    1    3    3    0    0  0.31905047111E+02 -0.19644899462E+02  0.22524965490E+02  0.43717595730E+02  0.00000000000E+00 0.  1.
<mgrwt>
<rscale>  0 0.92291831E+02</rscale>
<asrwt>0</asrwt>
<pdfrwt beam="1">  1        1 0.24482159E-01 0.92291831E+02</pdfrwt>
<pdfrwt beam="2">  1       -1 0.20586859E-02 0.92291831E+02</pdfrwt>
<totfact> 0.10970767E+05</totfact>
</mgrwt>
</event>
<event>
 5    1  0.1310593E+001  0.9014998E+02  0.7546771E-02  0.1302489E+00
         -2   -1    0    0    0  501 -0.00000000000E+00  0.00000000000E+00  0.42778477391E+02  0.42778477391E+02  0.00000000000E+00 0.  1.
          2   -1    0    0  501    0  0.00000000000E+00 -0.00000000000E+00 -0.47494785661E+02  0.47494785661E+02  0.00000000000E+00 0. -1.
         23    2    1    2    0    0  0.00000000000E+00  0.00000000000E+00 -0.47163082708E+01  0.90273263052E+02  0.90149977584E+02 0.  0.
        -13    1    3    3    0    0  0.12489385306E+02  0.11342811146E+02  0.39497458721E+02  0.42949893544E+02  0.00000000000E+00 0.  1.
         13    1    3    3    0    0 -0.12489385306E+02 -0.11342811146E+02 -0.44213766992E+02  0.47323369508E+02  0.00000000000E+00 0. -1.
<mgrwt>
<rscale>  0 0.90149978E+02</rscale>
<asrwt>0</asrwt>
<pdfrwt beam="2">  1        2 0.73068901E-02 0.90149978E+02</pdfrwt>
<pdfrwt beam="1">  1       -2 0.65813042E-02 0.90149978E+02</pdfrwt>
<totfact> 0.10301035E+05</totfact>
</mgrwt>
</event>
<event>
 5    1  0.1310593E+001  0.9112655E+02  0.7546771E-02  0.1300146E+00
         -1   -1    0    0    0  501 -0.00000000000E+00  0.00000000000E+00  0.11661077608E+02  0.11661077608E+02  0.00000000000E+00 0.  1.
          1   -1    0    0  501    0  0.00000000000E+00 -0.00000000000E+00 -0.17802918838E+03  0.17802918838E+03  0.00000000000E+00 0. -1.
         23    2    1    2    0    0  0.00000000000E+00  0.00000000000E+00 -0.16636811077E+03  0.18969026599E+03  0.91126553370E+02 0.  0.
        -13    1    3    3    0    0  0.45346081677E+02  0.29598489846E+01 -0.90083074352E+02  0.10089592714E+03  0.00000000000E+00 0.  1.
         13    1    3    3    0    0 -0.45346081677E+02 -0.29598489846E+01 -0.76285036423E+02  0.88794338848E+02  0.00000000000E+00 0. -1.
<mgrwt>
<rscale>  0 0.91126553E+02</rscale>
<asrwt>0</asrwt>
<pdfrwt beam="2">  1        1 0.27389105E-01 0.91126553E+02</pdfrwt>
<pdfrwt beam="1">  1       -1 0.17940120E-02 0.91126553E+02</pdfrwt>
<totfact> 0.11595425E+05</totfact>
</mgrwt>
</event>
<event>
 5    1  0.1310593E+001  0.9008043E+02  0.7546771E-02  0.1302657E+00
          4   -1    0    0  501    0  0.00000000000E+00  0.00000000000E+00  0.18823489824E+02  0.18823489824E+02  0.00000000000E+00 0. -1.
         -4   -1    0    0    0  501 -0.00000000000E+00 -0.00000000000E+00 -0.10777072045E+03  0.10777072045E+03  0.00000000000E+00 0.  1.
         23    2    1    2    0    0  0.00000000000E+00  0.00000000000E+00 -0.88947230630E+02  0.12659421028E+03  0.90080432053E+02 0.  0.
        -11    1    3    3    0    0 -0.17065296533E+02  0.41361634926E+02 -0.37223897852E+02  0.58203331184E+02  0.00000000000E+00 0. -1.
         11    1    3    3    0    0  0.17065296533E+02 -0.41361634926E+02 -0.51723332778E+02  0.68390879093E+02  0.00000000000E+00 0.  1.
<mgrwt>
<rscale>  0 0.90080432E+02</rscale>
<asrwt>0</asrwt>
<pdfrwt beam="1">  1        4 0.28959215E-02 0.90080432E+02</pdfrwt>
<pdfrwt beam="2">  1       -4 0.16580111E-01 0.90080432E+02</pdfrwt>
<totfact> 0.25728853E+04</totfact>
</mgrwt>
</event>
<event>
 5    1  0.1310593E+001  0.8962143E+02  0.7546771E-02  0.1303771E+00
          2   -1    0    0  501    0  0.00000000000E+00  0.00000000000E+00  0.15647328721E+03  0.15647328721E+03  0.00000000000E+00 0.  1.
         -2   -1    0    0    0  501 -0.00000000000E+00 -0.00000000000E+00 -0.12832861928E+02  0.12832861928E+02  0.00000000000E+00 0. -1.
         23    2    1    2    0    0  0.00000000000E+00  0.00000000000E+00  0.14364042529E+03  0.16930614914E+03  0.89621428022E+02 0.  0.
        -11    1    3    3    0    0 -0.40672733223E+02  0.17284551638E+02  0.57813502785E+02  0.72769691887E+02  0.00000000000E+00 0. -1.
         11    1    3    3    0    0  0.40672733223E+02 -0.17284551638E+02  0.85826922501E+02  0.96536457254E+02  0.00000000000E+00 0.  1.
<mgrwt>
<rscale>  0 0.89621428E+02</rscale>
<asrwt>0</asrwt>
<pdfrwt beam="1">  1        2 0.24072812E-01 0.89621428E+02</pdfrwt>
<pdfrwt beam="2">  1       -2 0.19742866E-02 0.89621428E+02</pdfrwt>
<totfact> 0.14860339E+05</totfact>
</mgrwt>
</event>
<event>
 5    1  0.1310593E+001  0.9144846E+02  0.7546771E-02  0.1299381E+00
          1   -1    0    0  501    0  0.00000000000E+00  0.00000000000E+00  0.20213869464E+02  0.20213869464E+02  0.00000000000E+00 0. -1.
         -1   -1    0    0    0  501 -0.00000000000E+00 -0.00000000000E+00 -0.10342925113E+03  0.10342925113E+03  0.00000000000E+00 0.  1.
         23    2    1    2    0    0  0.00000000000E+00  0.00000000000E+00 -0.83215381662E+02  0.12364312059E+03  0.91448463761E+02 0.  0.
        -13    1    3    3    0    0  0.23157544707E+02  0.42175291697E+01  0.11392868331E+02  0.26150657314E+02  0.00000000000E+00 0. -1.
         13    1    3    3    0    0 -0.23157544707E+02 -0.42175291697E+01 -0.94608249993E+02  0.97492463277E+02  0.00000000000E+00 0.  1.
<mgrwt>
<rscale>  0 0.91448464E+02</rscale>
<asrwt>0</asrwt>
<pdfrwt beam="1">  1        1 0.31098261E-02 0.91448464E+02</pdfrwt>
<pdfrwt beam="2">  1       -1 0.15912193E-01 0.91448464E+02</pdfrwt>
<totfact> 0.80239639E+04</totfact>
</mgrwt>
</event>
<event>
 5    1  0.1310593E+001  0.7479852E+02  0.7546771E-02  0.1344496E+00
          1   -1    0    0  501    0  0.00000000000E+00  0.00000000000E+00  0.82305580535E+02  0.82305580535E+02  0.00000000000E+00 0. -1.
         -1   -1    0    0    0  501 -0.00000000000E+00 -0.00000000000E+00 -0.16994045342E+02  0.16994045342E+02  0.00000000000E+00 0.  1.
         23    2    1    2    0    0  0.00000000000E+00  0.00000000000E+00  0.65311535193E+02  0.99299625877E+02  0.74798523180E+02 0.  0.
        -13    1    3    3    0    0 -0.11613837660E+02 -0.89050167878E+01  0.78346336046E+02  0.79701498863E+02  0.00000000000E+00 0. -1.
         13    1    3    3    0    0  0.11613837660E+02  0.89050167878E+01 -0.13034800853E+02  0.19598127014E+02  0.00000000000E+00 0.  1.
<mgrwt>
<rscale>  0 0.74798523E+02</rscale>
<asrwt>0</asrwt>
<pdfrwt beam="1">  1        1 0.12662397E-01 0.74798523E+02</pdfrwt>
<pdfrwt beam="2">  1       -1 0.26144686E-02 0.74798523E+02</pdfrwt>
<totfact> 0.17289166E+05</totfact>
</mgrwt>
</event>
<event>
 5    1  0.1310593E+001  0.9020989E+02  0.7546771E-02  0.1302344E+00
          4   -1    0    0  501    0  0.00000000000E+00  0.00000000000E+00  0.10600097326E+03  0.10600097326E+03  0.00000000000E+00 0. -1.
         -4   -1    0    0    0  501 -0.00000000000E+00 -0.00000000000E+00 -0.19192804315E+02  0.19192804315E+02  0.00000000000E+00 0.  1.
         23    2    1    2    0    0  0.00000000000E+00  0.00000000000E+00  0.86808168946E+02  0.12519377758E+03  0.90209887195E+02 0.  0.
        -13    1    3    3    0    0 -0.43354668831E+01 -0.19620360883E+02 -0.12638194368E+02  0.23737708212E+02  0.00000000000E+00 0.  1.
         13    1    3    3    0    0  0.43354668831E+01  0.19620360883E+02  0.99446363314E+02  0.10145606936E+03  0.00000000000E+00 0. -1.
<mgrwt>
<rscale>  0 0.90209887E+02</rscale>
<asrwt>0</asrwt>
<pdfrwt beam="1">  1        4 0.16307842E-01 0.90209887E+02</pdfrwt>
<pdfrwt beam="2">  1       -4 0.29527392E-02 0.90209887E+02</pdfrwt>
<totfact> 0.25709488E+04</totfact>
</mgrwt>
</event>
<event>
 5    1  0.1310593E+001  0.9185254E+02  0.7546771E-02  0.1298427E+00
          1   -1    0    0  501    0  0.00000000000E+00  0.00000000000E+00  0.37462666783E+02  0.37462666783E+02  0.00000000000E+00 0. -1.
         -1   -1    0    0    0  501 -0.00000000000E+00 -0.00000000000E+00 -0.56301978999E+02  0.56301978999E+02  0.00000000000E+00 0.  1.
         23    2    1    2    0    0  0.00000000000E+00  0.00000000000E+00 -0.18839312217E+02  0.93764645782E+02  0.91852540051E+02 0.  0.
        -13    1    3    3    0    0  0.16356599816E+02 -0.16199939485E+02 -0.49986649677E+02  0.55033094977E+02  0.00000000000E+00 0.  1.
         13    1    3    3    0    0 -0.16356599816E+02  0.16199939485E+02  0.31147337460E+02  0.38731550805E+02  0.00000000000E+00 0. -1.
<mgrwt>
<rscale>  0 0.91852540E+02</rscale>
<asrwt>0</asrwt>
<pdfrwt beam="1">  1        1 0.57634872E-02 0.91852540E+02</pdfrwt>
<pdfrwt beam="2">  1       -1 0.86618429E-02 0.91852540E+02</pdfrwt>
<totfact> 0.87899143E+04</totfact>
</mgrwt>
</event>
<event>
 5    1  0.1310593E+001  0.9191276E+02  0.7546771E-02  0.1298285E+00
         -2   -1    0    0    0  501 -0.00000000000E+00  0.00000000000E+00  0.11611654281E+02  0.11611654281E+02  0.00000000000E+00 0.  1.
          2   -1    0    0  501    0  0.00000000000E+00 -0.00000000000E+00 -0.18188525839E+03  0.18188525839E+03  0.00000000000E+00 0. -1.
         23    2    1    2    0    0  0.00000000000E+00  0.00000000000E+00 -0.17027360411E+03  0.19349691267E+03  0.91912757315E+02 0.  0.
        -11    1    3    3    0    0 -0.27357012729E+02 -0.36926706558E+02 -0.85201231041E+02  0.96805152619E+02  0.00000000000E+00 0. -1.
         11    1    3    3    0    0  0.27357012729E+02  0.36926706558E+02 -0.85072373068E+02  0.96691760053E+02  0.00000000000E+00 0.  1.
<mgrwt>
<rscale>  0 0.91912757E+02</rscale>
<asrwt>0</asrwt>
<pdfrwt beam="2">  1        2 0.27982349E-01 0.91912757E+02</pdfrwt>
<pdfrwt beam="1">  1       -2 0.17864082E-02 0.91912757E+02</pdfrwt>
<totfact> 0.14628631E+05</totfact>
</mgrwt>
</event>
<event>
 5    1  0.1310593E+001  0.8985748E+02  0.7546771E-02  0.1303197E+00
         -1   -1    0    0    0  501 -0.00000000000E+00  0.00000000000E+00  0.30883846173E+02  0.30883846173E+02  0.00000000000E+00 0.  1.
          1   -1    0    0  501    0  0.00000000000E+00 -0.00000000000E+00 -0.65360761915E+02  0.65360761915E+02  0.00000000000E+00 0. -1.
         23    2    1    2    0    0  0.00000000000E+00  0.00000000000E+00 -0.34476915743E+02  0.96244608088E+02  0.89857480862E+02 0.  0.
        -13    1    3    3    0    0  0.11843192844E+02  0.20921845116E+02 -0.57891674491E+02  0.62685172052E+02  0.00000000000E+00 0. -1.
         13    1    3    3    0    0 -0.11843192844E+02 -0.20921845116E+02  0.23414758748E+02  0.33559436036E+02  0.00000000000E+00 0.  1.
<mgrwt>
<rscale>  0 0.89857481E+02</rscale>
<asrwt>0</asrwt>
<pdfrwt beam="2">  1        1 0.10055502E-01 0.89857481E+02</pdfrwt>
<pdfrwt beam="1">  1       -1 0.47513610E-02 0.89857481E+02</pdfrwt>
<totfact> 0.10164081E+05</totfact>
</mgrwt>
</event>
<event>
 5    1  0.1310593E+001  0.8989847E+02  0.7546771E-02  0.1303098E+00
          2   -1    0    0  501    0  0.00000000000E+00  0.00000000000E+00  0.70686342197E+02  0.70686342197E+02  0.00000000000E+00 0.  1.
         -2   -1    0    0    0  501 -0.00000000000E+00 -0.00000000000E+00 -0.28583087430E+02  0.28583087430E+02  0.00000000000E+00 0. -1.
         23    2    1    2    0    0  0.00000000000E+00  0.00000000000E+00  0.42103254767E+02  0.99269429628E+02  0.89898473828E+02 0.  0.
        -11    1    3    3    0    0  0.25177920634E+02  0.16194755303E+02 -0.15973108857E+02  0.33931371816E+02  0.00000000000E+00 0. -1.
         11    1    3    3    0    0 -0.25177920634E+02 -0.16194755303E+02  0.58076363623E+02  0.65338057811E+02  0.00000000000E+00 0.  1.
<mgrwt>
<rscale>  0 0.89898474E+02</rscale>
<asrwt>0</asrwt>
<pdfrwt beam="1">  1        2 0.10874822E-01 0.89898474E+02</pdfrwt>
<pdfrwt beam="2">  1       -2 0.43973981E-02 0.89898474E+02</pdfrwt>
<totfact> 0.11537753E+05</totfact>
</mgrwt>
</event>
<event>
 5    1  0.1310593E+001  0.9168424E+02  0.7546771E-02  0.1298824E+00
         -2   -1    0    0    0  501 -0.00000000000E+00  0.00000000000E+00  0.69225751999E+02  0.69225751999E+02  0.00000000000E+00 0.  1.
          2   -1    0    0  501    0  0.00000000000E+00 -0.00000000000E+00 -0.30357199883E+02  0.30357199883E+02  0.00000000000E+00 0. -1.
         23    2    1    2    0    0  0.00000000000E+00  0.00000000000E+00  0.38868552116E+02  0.99582951882E+02  0.91684240531E+02 0.  0.
        -11    1    3    3    0    0  0.45121095432E+02 -0.46963348236E+01  0.26600502173E+02  0.52588549415E+02  0.00000000000E+00 0.  1.
         11    1    3    3    0    0 -0.45121095432E+02  0.46963348236E+01  0.12268049944E+02  0.46994402466E+02  0.00000000000E+00 0. -1.
<mgrwt>
<rscale>  0 0.91684241E+02</rscale>
<asrwt>0</asrwt>
<pdfrwt beam="2">  1        2 0.46703384E-02 0.91684241E+02</pdfrwt>
<pdfrwt beam="1">  1       -2 0.10650116E-01 0.91684241E+02</pdfrwt>
<totfact> 0.87295313E+04</totfact>
</mgrwt>
</event>
<event>
 5    1  0.1310593E+001  0.9048579E+02  0.7546771E-02  0.1301680E+00
          2   -1    0    0  501    0  0.00000000000E+00  0.00000000000E+00  0.32698305490E+02  0.32698305490E+02  0.00000000000E+00 0. -1.
         -2   -1    0    0    0  501 -0.00000000000E+00 -0.00000000000E+00 -0.62600168740E+02  0.62600168740E+02  0.00000000000E+00 0.  1.
         23    2    1    2    0    0  0.00000000000E+00  0.00000000000E+00 -0.29901863251E+02  0.95298474230E+02  0.90485787639E+02 0.  0.
        -11    1    3    3    0    0 -0.26237826204E+02  0.16310646017E+02 -0.49761258297E+02  0.58571695593E+02  0.00000000000E+00 0.  1.
         11    1    3    3    0    0  0.26237826204E+02 -0.16310646017E+02  0.19859395046E+02  0.36726778636E+02  0.00000000000E+00 0. -1.
<mgrwt>
<rscale>  0 0.90485788E+02</rscale>
<asrwt>0</asrwt>
<pdfrwt beam="1">  1        2 0.50305086E-02 0.90485788E+02</pdfrwt>
<pdfrwt beam="2">  1       -2 0.96307951E-02 0.90485788E+02</pdfrwt>
<totfact> 0.92556627E+04</totfact>
</mgrwt>
</event>
<event>
 5    1  0.1310593E+001  0.9257794E+02  0.7546771E-02  0.1296726E+00
          1   -1    0    0  501    0  0.00000000000E+00  0.00000000000E+00  0.31593462763E+02  0.31593462763E+02  0.00000000000E+00 0. -1.
         -1   -1    0    0    0  501 -0.00000000000E+00 -0.00000000000E+00 -0.67819997129E+02  0.67819997129E+02  0.00000000000E+00 0.  1.
         23    2    1    2    0    0  0.00000000000E+00  0.00000000000E+00 -0.36226534366E+02  0.99413459892E+02  0.92577935900E+02 0.  0.
        -11    1    3    3    0    0  0.24363402718E+02  0.29753103043E+02 -0.45780859871E+02  0.59788875748E+02  0.00000000000E+00 0.  1.
         11    1    3    3    0    0 -0.24363402718E+02 -0.29753103043E+02  0.95543255054E+01  0.39624584144E+02  0.00000000000E+00 0. -1.
<mgrwt>
<rscale>  0 0.92577936E+02</rscale>
<asrwt>0</asrwt>
<pdfrwt beam="1">  1        1 0.48605327E-02 0.92577936E+02</pdfrwt>
<pdfrwt beam="2">  1       -1 0.10433846E-01 0.92577936E+02</pdfrwt>
<totfact> 0.83664412E+04</totfact>
</mgrwt>
</event>
<event>
 5    1  0.1310593E+001  0.9124550E+02  0.7546771E-02  0.1299863E+00
          3   -1    0    0  501    0  0.00000000000E+00  0.00000000000E+00  0.24614647113E+02  0.24614647113E+02  0.00000000000E+00 0. -1.
         -3   -1    0    0    0  501 -0.00000000000E+00 -0.00000000000E+00 -0.84560835649E+02  0.84560835649E+02  0.00000000000E+00 0.  1.
         23    2    1    2    0    0  0.00000000000E+00  0.00000000000E+00 -0.59946188536E+02  0.10917548276E+03  0.91245495869E+02 0.  0.
        -13    1    3    3    0    0 -0.20768717178E+02  0.26873926251E+02 -0.66420059432E+02  0.74600079225E+02  0.00000000000E+00 0.  1.
         13    1    3    3    0    0  0.20768717178E+02 -0.26873926251E+02  0.64738708963E+01  0.34575403537E+02  0.00000000000E+00 0. -1.
<mgrwt>
<rscale>  0 0.91245496E+02</rscale>
<asrwt>0</asrwt>
<pdfrwt beam="1">  1        3 0.37868687E-02 0.91245496E+02</pdfrwt>
<pdfrwt beam="2">  1       -3 0.13009359E-01 0.91245496E+02</pdfrwt>
<totfact> 0.33935695E+04</totfact>
</mgrwt>
</event>
<event>
 5    1  0.1310593E+001  0.8498988E+02  0.7546771E-02  0.1315459E+00
          2   -1    0    0  501    0  0.00000000000E+00  0.00000000000E+00  0.22832197517E+02  0.22832197517E+02  0.00000000000E+00 0. -1.
         -2   -1    0    0    0  501 -0.00000000000E+00 -0.00000000000E+00 -0.79090943297E+02  0.79090943297E+02  0.00000000000E+00 0.  1.
         23    2    1    2    0    0  0.00000000000E+00  0.00000000000E+00 -0.56258745780E+02  0.10192314081E+03  0.84989882673E+02 0.  0.
        -11    1    3    3    0    0  0.16424919466E+00  0.33586041242E+02  0.30916427041E+01  0.33728436055E+02  0.00000000000E+00 0. -1.
         11    1    3    3    0    0 -0.16424919466E+00 -0.33586041242E+02 -0.59350388484E+02  0.68194704760E+02  0.00000000000E+00 0.  1.
<mgrwt>
<rscale>  0 0.84989883E+02</rscale>
<asrwt>0</asrwt>
<pdfrwt beam="1">  1        2 0.35126458E-02 0.84989883E+02</pdfrwt>
<pdfrwt beam="2">  1       -2 0.12167837E-01 0.84989883E+02</pdfrwt>
<totfact> 0.10142673E+05</totfact>
</mgrwt>
</event>
<event>
 5    1  0.1310593E+001  0.7439446E+02  0.7546771E-02  0.1345757E+00
         -3   -1    0    0    0  501 -0.00000000000E+00  0.00000000000E+00  0.65032568684E+02  0.65032568684E+02  0.00000000000E+00 0.  1.
          3   -1    0    0  501    0  0.00000000000E+00 -0.00000000000E+00 -0.21276015034E+02  0.21276015034E+02  0.00000000000E+00 0. -1.
         23    2    1    2    0    0  0.00000000000E+00  0.00000000000E+00  0.43756553649E+02  0.86308583718E+02  0.74394459714E+02 0.  0.
        -11    1    3    3    0    0  0.35114663676E+02  0.12271320288E+02  0.21768201145E+02  0.43098485911E+02  0.00000000000E+00 0. -1.
         11    1    3    3    0    0 -0.35114663676E+02 -0.12271320288E+02  0.21988352504E+02  0.43210097808E+02  0.00000000000E+00 0.  1.
<mgrwt>
<rscale>  0 0.74394460E+02</rscale>
<asrwt>0</asrwt>
<pdfrwt beam="2">  1        3 0.32732331E-02 0.74394460E+02</pdfrwt>
<pdfrwt beam="1">  1       -3 0.10005010E-01 0.74394460E+02</pdfrwt>
<totfact> 0.61743505E+04</totfact>
</mgrwt>
</event>
<event>
 5    1  0.1310593E+001  0.8688061E+02  0.7546771E-02  0.1310587E+00
          1   -1    0    0  501    0  0.00000000000E+00  0.00000000000E+00  0.23926055710E+02  0.23926055710E+02  0.00000000000E+00 0. -1.
         -1   -1    0    0    0  501 -0.00000000000E+00 -0.00000000000E+00 -0.78870511942E+02  0.78870511942E+02  0.00000000000E+00 0.  1.
         23    2    1    2    0    0  0.00000000000E+00  0.00000000000E+00 -0.54944456233E+02  0.10279656765E+03  0.86880613777E+02 0.  0.
        -11    1    3    3    0    0 -0.29886432132E+02 -0.12246735320E+02 -0.61843515611E+02  0.69769633615E+02  0.00000000000E+00 0.  1.
         11    1    3    3    0    0  0.29886432132E+02  0.12246735320E+02  0.68990593785E+01  0.33026934037E+02  0.00000000000E+00 0. -1.
<mgrwt>
<rscale>  0 0.86880614E+02</rscale>
<asrwt>0</asrwt>
<pdfrwt beam="1">  1        1 0.36809316E-02 0.86880614E+02</pdfrwt>
<pdfrwt beam="2">  1       -1 0.12133925E-01 0.86880614E+02</pdfrwt>
<totfact> 0.95991137E+04</totfact>
</mgrwt>
</event>
<event>
 5    1  0.1310593E+001  0.9164344E+02  0.7546771E-02  0.1298920E+00
          4   -1    0    0  501    0  0.00000000000E+00  0.00000000000E+00  0.48341474930E+02  0.48341474930E+02  0.00000000000E+00 0. -1.
         -4   -1    0    0    0  501 -0.00000000000E+00 -0.00000000000E+00 -0.43433302243E+02  0.43433302243E+02  0.00000000000E+00 0.  1.
         23    2    1    2    0    0  0.00000000000E+00  0.00000000000E+00  0.49081726867E+01  0.91774777173E+02  0.91643437114E+02 0.  0.
        -11    1    3    3    0    0 -0.10147401912E+02  0.34791825302E+02 -0.25625160588E+02  0.44385692837E+02  0.00000000000E+00 0.  1.
         11    1    3    3    0    0  0.10147401912E+02 -0.34791825302E+02  0.30533333274E+02  0.47389084337E+02  0.00000000000E+00 0. -1.
<mgrwt>
<rscale>  0 0.91643437E+02</rscale>
<asrwt>0</asrwt>
<pdfrwt beam="1">  1        4 0.74371500E-02 0.91643437E+02</pdfrwt>
<pdfrwt beam="2">  1       -4 0.66820465E-02 0.91643437E+02</pdfrwt>
<totfact> 0.26605659E+04</totfact>
</mgrwt>
</event>
<event>
 5    1  0.1310593E+001  0.9002095E+02  0.7546771E-02  0.1302801E+00
         -1   -1    0    0    0  501 -0.00000000000E+00  0.00000000000E+00  0.56214646359E+01  0.56214646359E+01  0.00000000000E+00 0.  1.
          1   -1    0    0  501    0  0.00000000000E+00 -0.00000000000E+00 -0.36039409938E+03  0.36039409938E+03  0.00000000000E+00 0. -1.
         23    2    1    2    0    0  0.00000000000E+00  0.00000000000E+00 -0.35477263474E+03  0.36601556401E+03  0.90020946110E+02 0.  0.
        -11    1    3    3    0    0  0.43083857026E+02 -0.16222851669E+01 -0.12482890319E+03  0.13206477811E+03  0.00000000000E+00 0.  1.
         11    1    3    3    0    0 -0.43083857026E+02  0.16222851669E+01 -0.22994373155E+03  0.23395078590E+03  0.00000000000E+00 0. -1.
<mgrwt>
<rscale>  0 0.90020946E+02</rscale>
<asrwt>0</asrwt>
<pdfrwt beam="2">  1        1 0.55445251E-01 0.90020946E+02</pdfrwt>
<pdfrwt beam="1">  1       -1 0.86484064E-03 0.90020946E+02</pdfrwt>
<totfact> 0.13708388E+05</totfact>
</mgrwt>
</event>
<event>
 5    1  0.1310593E+001  0.8444088E+02  0.7546771E-02  0.1316901E+00
          1   -1    0    0  501    0  0.00000000000E+00  0.00000000000E+00  0.10510374135E+02  0.10510374135E+02  0.00000000000E+00 0. -1.
         -1   -1    0    0    0  501 -0.00000000000E+00 -0.00000000000E+00 -0.16960056921E+03  0.16960056921E+03  0.00000000000E+00 0.  1.
         23    2    1    2    0    0  0.00000000000E+00  0.00000000000E+00 -0.15909019508E+03  0.18011094335E+03  0.84440877210E+02 0.  0.
        -13    1    3    3    0    0 -0.33574463552E+02  0.25415510697E+02 -0.73015016879E+02  0.84287516731E+02  0.00000000000E+00 0. -1.
         13    1    3    3    0    0  0.33574463552E+02 -0.25415510697E+02 -0.86075178199E+02  0.95823426618E+02  0.00000000000E+00 0.  1.
<mgrwt>
<rscale>  0 0.84440877E+02</rscale>
<asrwt>0</asrwt>
<pdfrwt beam="1">  1        1 0.16169807E-02 0.84440877E+02</pdfrwt>
<pdfrwt beam="2">  1       -1 0.26092395E-01 0.84440877E+02</pdfrwt>
<totfact> 0.88562085E+04</totfact>
</mgrwt>
</event>
<event>
 5    1  0.1310593E+001  0.8160899E+02  0.7546771E-02  0.1324546E+00
          1   -1    0    0  501    0  0.00000000000E+00  0.00000000000E+00  0.20916103725E+02  0.20916103725E+02  0.00000000000E+00 0. -1.
         -1   -1    0    0    0  501 -0.00000000000E+00 -0.00000000000E+00 -0.79604062641E+02  0.79604062641E+02  0.00000000000E+00 0.  1.
         23    2    1    2    0    0  0.00000000000E+00  0.00000000000E+00 -0.58687958916E+02  0.10052016637E+03  0.81608990464E+02 0.  0.
        -13    1    3    3    0    0 -0.26846374432E+02  0.12713762008E+02  0.51144921027E+01  0.30141758310E+02  0.00000000000E+00 0. -1.
         13    1    3    3    0    0  0.26846374432E+02 -0.12713762008E+02 -0.63802451019E+02  0.70378408057E+02  0.00000000000E+00 0.  1.
<mgrwt>
<rscale>  0 0.81608990E+02</rscale>
<asrwt>0</asrwt>
<pdfrwt beam="1">  1        1 0.32178620E-02 0.81608990E+02</pdfrwt>
<pdfrwt beam="2">  1       -1 0.12246779E-01 0.81608990E+02</pdfrwt>
<totfact> 0.11245230E+05</totfact>
</mgrwt>
</event>
<event>
 5    1  0.1310593E+001  0.9229075E+02  0.7546771E-02  0.1297397E+00
         -1   -1    0    0    0  501 -0.00000000000E+00  0.00000000000E+00  0.31594176487E+02  0.31594176487E+02  0.00000000000E+00 0.  1.
          1   -1    0    0  501    0  0.00000000000E+00 -0.00000000000E+00 -0.67398357641E+02  0.67398357641E+02  0.00000000000E+00 0. -1.
         23    2    1    2    0    0  0.00000000000E+00  0.00000000000E+00 -0.35804181153E+02  0.98992534128E+02  0.92290749401E+02 0.  0.
        -13    1    3    3    0    0  0.12858750132E+02  0.36401887582E+02  0.92109332314E+01  0.39689874848E+02  0.00000000000E+00 0.  1.
         13    1    3    3    0    0 -0.12858750132E+02 -0.36401887582E+02 -0.45015114385E+02  0.59302659279E+02  0.00000000000E+00 0. -1.
<mgrwt>
<rscale>  0 0.92290749E+02</rscale>
<asrwt>0</asrwt>
<pdfrwt beam="2">  1        1 0.10368978E-01 0.92290749E+02</pdfrwt>
<pdfrwt beam="1">  1       -1 0.48606426E-02 0.92290749E+02</pdfrwt>
<totfact> 0.94852627E+04</totfact>
</mgrwt>
</event>
<event>
 5    1  0.1310593E+001  0.9213560E+02  0.7546771E-02  0.1297761E+00
         -2   -1    0    0    0  501 -0.00000000000E+00  0.00000000000E+00  0.10584041116E+02  0.10584041116E+02  0.00000000000E+00 0.  1.
          2   -1    0    0  501    0  0.00000000000E+00 -0.00000000000E+00 -0.20051342698E+03  0.20051342698E+03  0.00000000000E+00 0. -1.
         23    2    1    2    0    0  0.00000000000E+00  0.00000000000E+00 -0.18992938587E+03  0.21109746810E+03  0.92135603444E+02 0.  0.
        -13    1    3    3    0    0  0.16380038060E+02  0.25230080171E+02 -0.15023876598E+02  0.33624090476E+02  0.00000000000E+00 0.  1.
         13    1    3    3    0    0 -0.16380038060E+02 -0.25230080171E+02 -0.17490550927E+03  0.17747337762E+03  0.00000000000E+00 0. -1.
<mgrwt>
<rscale>  0 0.92135603E+02</rscale>
<asrwt>0</asrwt>
<pdfrwt beam="2">  1        2 0.30848219E-01 0.92135603E+02</pdfrwt>
<pdfrwt beam="1">  1       -2 0.16283141E-02 0.92135603E+02</pdfrwt>
<totfact> 0.15051793E+05</totfact>
</mgrwt>
</event>
<event>
 5    1  0.1310593E+001  0.9150071E+02  0.7546771E-02  0.1299258E+00
         -1   -1    0    0    0  501 -0.00000000000E+00  0.00000000000E+00  0.12184186361E+03  0.12184186361E+03  0.00000000000E+00 0.  1.
          1   -1    0    0  501    0  0.00000000000E+00 -0.00000000000E+00 -0.17178782714E+02  0.17178782714E+02  0.00000000000E+00 0. -1.
         23    2    1    2    0    0  0.00000000000E+00  0.00000000000E+00  0.10466308089E+03  0.13902064632E+03  0.91500708201E+02 0.  0.
        -11    1    3    3    0    0 -0.25992426042E+02  0.27925980160E+02  0.13966236164E+02  0.40626620977E+02  0.00000000000E+00 0. -1.
         11    1    3    3    0    0  0.25992426042E+02 -0.27925980160E+02  0.90696844727E+02  0.98394025342E+02  0.00000000000E+00 0.  1.
<mgrwt>
<rscale>  0 0.91500708E+02</rscale>
<asrwt>0</asrwt>
<pdfrwt beam="2">  1        1 0.26428897E-02 0.91500708E+02</pdfrwt>
<pdfrwt beam="1">  1       -1 0.18744902E-01 0.91500708E+02</pdfrwt>
<totfact> 0.77570113E+04</totfact>
</mgrwt>
</event>
<event>
 5    1  0.1310593E+001  0.9173549E+02  0.7546771E-02  0.1298703E+00
          1   -1    0    0  501    0  0.00000000000E+00  0.00000000000E+00  0.25120442346E+02  0.25120442346E+02  0.00000000000E+00 0. -1.
         -1   -1    0    0    0  501 -0.00000000000E+00 -0.00000000000E+00 -0.83750516466E+02  0.83750516466E+02  0.00000000000E+00 0.  1.
         23    2    1    2    0    0  0.00000000000E+00  0.00000000000E+00 -0.58630074120E+02  0.10887095881E+03  0.91735489759E+02 0.  0.
        -11    1    3    3    0    0 -0.10634888935E+02 -0.24392777346E+02 -0.73653146466E+02  0.78312798658E+02  0.00000000000E+00 0.  1.
         11    1    3    3    0    0  0.10634888935E+02  0.24392777346E+02  0.15023072345E+02  0.30558160154E+02  0.00000000000E+00 0. -1.
<mgrwt>
<rscale>  0 0.91735490E+02</rscale>
<asrwt>0</asrwt>
<pdfrwt beam="1">  1        1 0.38646834E-02 0.91735490E+02</pdfrwt>
<pdfrwt beam="2">  1       -1 0.12884695E-01 0.91735490E+02</pdfrwt>
<totfact> 0.82685516E+04</totfact>
</mgrwt>
</event>
<event>
 5    1  0.1310593E+001  0.9577190E+02  0.7546771E-02  0.1289447E+00
         -1   -1    0    0    0  501 -0.00000000000E+00  0.00000000000E+00  0.81927408723E+02  0.81927408723E+02  0.00000000000E+00 0.  1.
          1   -1    0    0  501    0  0.00000000000E+00 -0.00000000000E+00 -0.27988974904E+02  0.27988974904E+02  0.00000000000E+00 0. -1.
         23    2    1    2    0    0  0.00000000000E+00  0.00000000000E+00  0.53938433818E+02  0.10991638363E+03  0.95771899568E+02 0.  0.
        -11    1    3    3    0    0  0.24729249447E+02 -0.29808071578E+02  0.59288589114E+02  0.70818032369E+02  0.00000000000E+00 0.  1.
         11    1    3    3    0    0 -0.24729249447E+02  0.29808071578E+02 -0.53501552956E+01  0.39098351258E+02  0.00000000000E+00 0. -1.
<mgrwt>
<rscale>  0 0.95771900E+02</rscale>
<asrwt>0</asrwt>
<pdfrwt beam="2">  1        1 0.43059962E-02 0.95771900E+02</pdfrwt>
<pdfrwt beam="1">  1       -1 0.12604217E-01 0.95771900E+02</pdfrwt>
<totfact> 0.74318807E+04</totfact>
</mgrwt>
</event>
<event>
 5    1  0.1310593E+001  0.9112950E+02  0.7546771E-02  0.1300139E+00
          2   -1    0    0  501    0  0.00000000000E+00  0.00000000000E+00  0.29806933771E+03  0.29806933771E+03  0.00000000000E+00 0.  1.
         -2   -1    0    0    0  501 -0.00000000000E+00 -0.00000000000E+00 -0.69653137836E+01  0.69653137836E+01  0.00000000000E+00 0. -1.
         23    2    1    2    0    0  0.00000000000E+00  0.00000000000E+00  0.29110402393E+03  0.30503465150E+03  0.91129500524E+02 0.  0.
        -11    1    3    3    0    0  0.45149917651E+02  0.45108052874E+00  0.16603003775E+03  0.17206014057E+03  0.00000000000E+00 0.  1.
         11    1    3    3    0    0 -0.45149917651E+02 -0.45108052874E+00  0.12507398618E+03  0.13297451093E+03  0.00000000000E+00 0. -1.
<mgrwt>
<rscale>  0 0.91129501E+02</rscale>
<asrwt>0</asrwt>
<pdfrwt beam="1">  1        2 0.45856811E-01 0.91129501E+02</pdfrwt>
<pdfrwt beam="2">  1       -2 0.10715870E-02 0.91129501E+02</pdfrwt>
<totfact> 0.17947738E+05</totfact>
</mgrwt>
</event>
<event>
 5    1  0.1310593E+001  0.9082999E+02  0.7546771E-02  0.1300854E+00
         -2   -1    0    0    0  501 -0.00000000000E+00  0.00000000000E+00  0.27463416393E+02  0.27463416393E+02  0.00000000000E+00 0.  1.
          2   -1    0    0  501    0  0.00000000000E+00 -0.00000000000E+00 -0.75100696211E+02  0.75100696211E+02  0.00000000000E+00 0. -1.
         23    2    1    2    0    0  0.00000000000E+00  0.00000000000E+00 -0.47637279819E+02  0.10256411260E+03  0.90829988251E+02 0.  0.
        -11    1    3    3    0    0 -0.26587048191E+02 -0.34717621439E+02 -0.99734290923E+01  0.44851462159E+02  0.00000000000E+00 0.  1.
         11    1    3    3    0    0  0.26587048191E+02  0.34717621439E+02 -0.37663850726E+02  0.57712650445E+02  0.00000000000E+00 0. -1.
<mgrwt>
<rscale>  0 0.90829988E+02</rscale>
<asrwt>0</asrwt>
<pdfrwt beam="2">  1        2 0.11553953E-01 0.90829988E+02</pdfrwt>
<pdfrwt beam="1">  1       -2 0.42251411E-02 0.90829988E+02</pdfrwt>
<totfact> 0.11401897E+05</totfact>
</mgrwt>
</event>
<event>
 5    1  0.1310593E+001  0.9103525E+02  0.7546771E-02  0.1300364E+00
         -1   -1    0    0    0  501 -0.00000000000E+00  0.00000000000E+00  0.41440749654E+02  0.41440749654E+02  0.00000000000E+00 0.  1.
          1   -1    0    0  501    0  0.00000000000E+00 -0.00000000000E+00 -0.49995571688E+02  0.49995571688E+02  0.00000000000E+00 0. -1.
         23    2    1    2    0    0  0.00000000000E+00  0.00000000000E+00 -0.85548220341E+01  0.91436321341E+02  0.91035245265E+02 0.  0.
        -11    1    3    3    0    0  0.35904303707E+02 -0.17286487144E+02  0.17817513010E+02  0.43650949959E+02  0.00000000000E+00 0.  1.
         11    1    3    3    0    0 -0.35904303707E+02  0.17286487144E+02 -0.26372335044E+02  0.47785371382E+02  0.00000000000E+00 0. -1.
<mgrwt>
<rscale>  0 0.91035245E+02</rscale>
<asrwt>0</asrwt>
<pdfrwt beam="2">  1        1 0.76916264E-02 0.91035245E+02</pdfrwt>
<pdfrwt beam="1">  1       -1 0.63755000E-02 0.91035245E+02</pdfrwt>
<totfact> 0.94171238E+04</totfact>
</mgrwt>
</event>
<event>
 5    1  0.1310593E+001  0.9199733E+02  0.7546771E-02  0.1298086E+00
          2   -1    0    0  501    0  0.00000000000E+00  0.00000000000E+00  0.87943171999E+02  0.87943171999E+02  0.00000000000E+00 0. -1.
         -2   -1    0    0    0  501 -0.00000000000E+00 -0.00000000000E+00 -0.24059597178E+02  0.24059597178E+02  0.00000000000E+00 0.  1.
         23    2    1    2    0    0  0.00000000000E+00  0.00000000000E+00  0.63883574821E+02  0.11200276918E+03  0.91997332414E+02 0.  0.
        -11    1    3    3    0    0 -0.32851427013E+02  0.30278791117E+02  0.18613230399E+02  0.48399109436E+02  0.00000000000E+00 0.  1.
         11    1    3    3    0    0  0.32851427013E+02 -0.30278791117E+02  0.45270344422E+02  0.63603659740E+02  0.00000000000E+00 0. -1.
<mgrwt>
<rscale>  0 0.91997332E+02</rscale>
<asrwt>0</asrwt>
<pdfrwt beam="1">  1        2 0.13529719E-01 0.91997332E+02</pdfrwt>
<pdfrwt beam="2">  1       -2 0.37014765E-02 0.91997332E+02</pdfrwt>
<totfact> 0.11515553E+05</totfact>
</mgrwt>
</event>
<event>
 5    1  0.1310593E+001  0.9021518E+02  0.7546771E-02  0.1302331E+00
         -2   -1    0    0    0  501 -0.00000000000E+00  0.00000000000E+00  0.95010899088E+01  0.95010899088E+01  0.00000000000E+00 0.  1.
          2   -1    0    0  501    0  0.00000000000E+00 -0.00000000000E+00 -0.21415379435E+03  0.21415379435E+03  0.00000000000E+00 0. -1.
         23    2    1    2    0    0  0.00000000000E+00  0.00000000000E+00 -0.20465270444E+03  0.22365488425E+03  0.90215175096E+02 0.  0.
        -11    1    3    3    0    0 -0.18239419946E+01  0.44996983865E+02 -0.95938505631E+02  0.10598232015E+03  0.00000000000E+00 0. -1.
         11    1    3    3    0    0  0.18239419946E+01 -0.44996983865E+02 -0.10871419881E+03  0.11767256411E+03  0.00000000000E+00 0.  1.
<mgrwt>
<rscale>  0 0.90215175E+02</rscale>
<asrwt>0</asrwt>
<pdfrwt beam="2">  1        2 0.32946734E-01 0.90215175E+02</pdfrwt>
<pdfrwt beam="1">  1       -2 0.14617063E-02 0.90215175E+02</pdfrwt>
<totfact> 0.16314988E+05</totfact>
</mgrwt>
</event>
<event>
 5    1  0.1310593E+001  0.9243970E+02  0.7546771E-02  0.1297049E+00
         -3   -1    0    0    0  501 -0.00000000000E+00  0.00000000000E+00  0.46700728556E+01  0.46700728556E+01  0.00000000000E+00 0.  1.
          3   -1    0    0  501    0  0.00000000000E+00 -0.00000000000E+00 -0.45743921152E+03  0.45743921152E+03  0.00000000000E+00 0. -1.
         23    2    1    2    0    0  0.00000000000E+00  0.00000000000E+00 -0.45276913866E+03  0.46210928438E+03  0.92439698070E+02 0.  0.
        -13    1    3    3    0    0 -0.44940944178E+02  0.81607244682E+01 -0.26172903964E+03  0.26568473061E+03  0.00000000000E+00 0. -1.
         13    1    3    3    0    0  0.44940944178E+02 -0.81607244682E+01 -0.19104009902E+03  0.19642455376E+03  0.00000000000E+00 0.  1.
<mgrwt>
<rscale>  0 0.92439698E+02</rscale>
<asrwt>0</asrwt>
<pdfrwt beam="2">  1        3 0.70375299E-01 0.92439698E+02</pdfrwt>
<pdfrwt beam="1">  1       -3 0.71847238E-03 0.92439698E+02</pdfrwt>
<totfact> 0.18185013E+04</totfact>
</mgrwt>
</event>
<event>
 5    1  0.1310593E+001  0.8905496E+02  0.7546771E-02  0.1305157E+00
          1   -1    0    0  501    0  0.00000000000E+00  0.00000000000E+00  0.87692567220E+02  0.87692567220E+02  0.00000000000E+00 0. -1.
         -1   -1    0    0    0  501 -0.00000000000E+00 -0.00000000000E+00 -0.22609631078E+02  0.22609631078E+02  0.00000000000E+00 0.  1.
         23    2    1    2    0    0  0.00000000000E+00  0.00000000000E+00  0.65082936142E+02  0.11030219830E+03  0.89054962650E+02 0.  0.
        -13    1    3    3    0    0  0.20908451074E+02  0.32113903875E+02  0.60628440937E+02  0.71723594436E+02  0.00000000000E+00 0. -1.
         13    1    3    3    0    0 -0.20908451074E+02 -0.32113903875E+02  0.44544952049E+01  0.38578603862E+02  0.00000000000E+00 0.  1.
<mgrwt>
<rscale>  0 0.89054963E+02</rscale>
<asrwt>0</asrwt>
<pdfrwt beam="1">  1        1 0.13491164E-01 0.89054963E+02</pdfrwt>
<pdfrwt beam="2">  1       -1 0.34784048E-02 0.89054963E+02</pdfrwt>
<totfact> 0.10901832E+05</totfact>
</mgrwt>
</event>
<event>
 5    1  0.1310593E+001  0.9229946E+02  0.7546771E-02  0.1297377E+00
         -1   -1    0    0    0  501 -0.00000000000E+00  0.00000000000E+00  0.24456085627E+03  0.24456085627E+03  0.00000000000E+00 0.  1.
          1   -1    0    0  501    0  0.00000000000E+00 -0.00000000000E+00 -0.87086609318E+01  0.87086609318E+01  0.00000000000E+00 0. -1.
         23    2    1    2    0    0  0.00000000000E+00  0.00000000000E+00  0.23585219534E+03  0.25326951720E+03  0.92299459900E+02 0.  0.
        -11    1    3    3    0    0  0.44606290178E+02  0.55055585098E+01  0.14667466791E+03  0.15340629226E+03  0.00000000000E+00 0.  1.
         11    1    3    3    0    0 -0.44606290178E+02 -0.55055585098E+01  0.89177527427E+02  0.99863224942E+02  0.00000000000E+00 0. -1.
<mgrwt>
<rscale>  0 0.92299460E+02</rscale>
<asrwt>0</asrwt>
<pdfrwt beam="2">  1        1 0.13397942E-02 0.92299460E+02</pdfrwt>
<pdfrwt beam="1">  1       -1 0.37624742E-01 0.92299460E+02</pdfrwt>
<totfact> 0.63191549E+04</totfact>
</mgrwt>
</event>
<event>
 5    1  0.1310593E+001  0.9123448E+02  0.7546771E-02  0.1299889E+00
          2   -1    0    0  501    0  0.00000000000E+00  0.00000000000E+00  0.65493931626E+02  0.65493931626E+02  0.00000000000E+00 0.  1.
         -2   -1    0    0    0  501 -0.00000000000E+00 -0.00000000000E+00 -0.31772903802E+02  0.31772903802E+02  0.00000000000E+00 0. -1.
         23    2    1    2    0    0  0.00000000000E+00  0.00000000000E+00  0.33721027824E+02  0.97266835428E+02  0.91234475702E+02 0.  0.
        -13    1    3    3    0    0  0.31511097744E+02 -0.25395348546E+02  0.39301233225E+02  0.56413295789E+02  0.00000000000E+00 0.  1.
         13    1    3    3    0    0 -0.31511097744E+02  0.25395348546E+02 -0.55802054004E+01  0.40853539639E+02  0.00000000000E+00 0. -1.
<mgrwt>
<rscale>  0 0.91234476E+02</rscale>
<asrwt>0</asrwt>
<pdfrwt beam="1">  1        2 0.10075989E-01 0.91234476E+02</pdfrwt>
<pdfrwt beam="2">  1       -2 0.48881391E-02 0.91234476E+02</pdfrwt>
<totfact> 0.10842122E+05</totfact>
</mgrwt>
</event>
<event>
 5    1  0.1310593E+001  0.8939034E+02  0.7546771E-02  0.1304335E+00
          1   -1    0    0  501    0  0.00000000000E+00  0.00000000000E+00  0.35285116788E+02  0.35285116788E+02  0.00000000000E+00 0. -1.
         -1   -1    0    0    0  501 -0.00000000000E+00 -0.00000000000E+00 -0.56614760157E+02  0.56614760157E+02  0.00000000000E+00 0.  1.
         23    2    1    2    0    0  0.00000000000E+00  0.00000000000E+00 -0.21329643368E+02  0.91899876945E+02  0.89390344536E+02 0.  0.
        -11    1    3    3    0    0  0.16144968908E+02 -0.30821867103E+02  0.18176469249E+02  0.39255974668E+02  0.00000000000E+00 0. -1.
         11    1    3    3    0    0 -0.16144968908E+02  0.30821867103E+02 -0.39506112618E+02  0.52643902277E+02  0.00000000000E+00 0.  1.
<mgrwt>
<rscale>  0 0.89390345E+02</rscale>
<asrwt>0</asrwt>
<pdfrwt beam="1">  1        1 0.54284795E-02 0.89390345E+02</pdfrwt>
<pdfrwt beam="2">  1       -1 0.87099631E-02 0.89390345E+02</pdfrwt>
<totfact> 0.94070292E+04</totfact>
</mgrwt>
</event>
<event>
 5    1  0.1310593E+001  0.8383251E+02  0.7546771E-02  0.1318514E+00
          4   -1    0    0  501    0  0.00000000000E+00  0.00000000000E+00  0.18191396913E+02  0.18191396913E+02  0.00000000000E+00 0. -1.
         -4   -1    0    0    0  501 -0.00000000000E+00 -0.00000000000E+00 -0.96582607956E+02  0.96582607956E+02  0.00000000000E+00 0.  1.
         23    2    1    2    0    0  0.00000000000E+00  0.00000000000E+00 -0.78391211043E+02  0.11477400487E+03  0.83832512935E+02 0.  0.
        -11    1    3    3    0    0 -0.33628098488E+02 -0.22239487100E+02 -0.23494095623E+02  0.46662793782E+02  0.00000000000E+00 0. -1.
         11    1    3    3    0    0  0.33628098488E+02  0.22239487100E+02 -0.54897115421E+02  0.68111211088E+02  0.00000000000E+00 0.  1.
<mgrwt>
<rscale>  0 0.83832513E+02</rscale>
<asrwt>0</asrwt>
<pdfrwt beam="1">  1        4 0.27986765E-02 0.83832513E+02</pdfrwt>
<pdfrwt beam="2">  1       -4 0.14858863E-01 0.83832513E+02</pdfrwt>
<totfact> 0.32037327E+04</totfact>
</mgrwt>
</event>
<event>
 5    1  0.1310593E+001  0.9072067E+02  0.7546771E-02  0.1301116E+00
         -1   -1    0    0    0  501 -0.00000000000E+00  0.00000000000E+00  0.26571688979E+02  0.26571688979E+02  0.00000000000E+00 0.  1.
          1   -1    0    0  501    0  0.00000000000E+00 -0.00000000000E+00 -0.77434300990E+02  0.77434300990E+02  0.00000000000E+00 0. -1.
         23    2    1    2    0    0  0.00000000000E+00  0.00000000000E+00 -0.50862612011E+02  0.10400598997E+03  0.90720673767E+02 0.  0.
        -11    1    3    3    0    0  0.35257236094E+02  0.63990287681E+01  0.64542095910E+01  0.36409848772E+02  0.00000000000E+00 0.  1.
         11    1    3    3    0    0 -0.35257236094E+02 -0.63990287681E+01 -0.57316821602E+02  0.67596141197E+02  0.00000000000E+00 0. -1.
<mgrwt>
<rscale>  0 0.90720674E+02</rscale>
<asrwt>0</asrwt>
<pdfrwt beam="2">  1        1 0.11912969E-01 0.90720674E+02</pdfrwt>
<pdfrwt beam="1">  1       -1 0.40879522E-02 0.90720674E+02</pdfrwt>
<totfact> 0.10161871E+05</totfact>
</mgrwt>
</event>
<event>
 5    1  0.1310593E+001  0.9284396E+02  0.7546771E-02  0.1296107E+00
          2   -1    0    0  501    0  0.00000000000E+00  0.00000000000E+00  0.19644823666E+02  0.19644823666E+02  0.00000000000E+00 0. -1.
         -2   -1    0    0    0  501 -0.00000000000E+00 -0.00000000000E+00 -0.10969811419E+03  0.10969811419E+03  0.00000000000E+00 0.  1.
         23    2    1    2    0    0  0.00000000000E+00  0.00000000000E+00 -0.90053290523E+02  0.12934293786E+03  0.92843957472E+02 0.  0.
        -13    1    3    3    0    0 -0.42454384506E+02 -0.74059218555E+01 -0.69066682663E+02  0.81409023434E+02  0.00000000000E+00 0.  1.
         13    1    3    3    0    0  0.42454384506E+02  0.74059218555E+01 -0.20986607860E+02  0.47933914422E+02  0.00000000000E+00 0. -1.
<mgrwt>
<rscale>  0 0.92843957E+02</rscale>
<asrwt>0</asrwt>
<pdfrwt beam="1">  1        2 0.30222806E-02 0.92843957E+02</pdfrwt>
<pdfrwt beam="2">  1       -2 0.16876633E-01 0.92843957E+02</pdfrwt>
<totfact> 0.74152333E+04</totfact>
</mgrwt>
</event>
<event>
 5    1  0.1310593E+001  0.9046074E+02  0.7546771E-02  0.1301740E+00
         -3   -1    0    0    0  501 -0.00000000000E+00  0.00000000000E+00  0.63147079122E+02  0.63147079122E+02  0.00000000000E+00 0.  1.
          3   -1    0    0  501    0  0.00000000000E+00 -0.00000000000E+00 -0.32397163906E+02  0.32397163906E+02  0.00000000000E+00 0. -1.
         23    2    1    2    0    0  0.00000000000E+00  0.00000000000E+00  0.30749915216E+02  0.95544243027E+02  0.90460737836E+02 0.  0.
        -13    1    3    3    0    0  0.41497560450E+02 -0.13652876173E+02  0.27752639499E+02  0.51755748959E+02  0.00000000000E+00 0.  1.
         13    1    3    3    0    0 -0.41497560450E+02  0.13652876173E+02  0.29972757169E+01  0.43788494069E+02  0.00000000000E+00 0. -1.
<mgrwt>
<rscale>  0 0.90460738E+02</rscale>
<asrwt>0</asrwt>
<pdfrwt beam="2">  1        3 0.49841791E-02 0.90460738E+02</pdfrwt>
<pdfrwt beam="1">  1       -3 0.97149352E-02 0.90460738E+02</pdfrwt>
<totfact> 0.35764532E+04</totfact>
</mgrwt>
</event>
<event>
 5    1  0.1310593E+001  0.9165998E+02  0.7546771E-02  0.1298881E+00
          1   -1    0    0  501    0  0.00000000000E+00  0.00000000000E+00  0.11501342162E+03  0.11501342162E+03  0.00000000000E+00 0. -1.
         -1   -1    0    0    0  501 -0.00000000000E+00 -0.00000000000E+00 -0.18262110244E+02  0.18262110244E+02  0.00000000000E+00 0.  1.
         23    2    1    2    0    0  0.00000000000E+00  0.00000000000E+00  0.96751311372E+02  0.13327553186E+03  0.91659975673E+02 0.  0.
        -13    1    3    3    0    0 -0.15306122715E+02 -0.35718664763E+02  0.13049007287E+02  0.40992401689E+02  0.00000000000E+00 0.  1.
         13    1    3    3    0    0  0.15306122715E+02  0.35718664763E+02  0.83702304085E+02  0.92283130171E+02  0.00000000000E+00 0. -1.
<mgrwt>
<rscale>  0 0.91659976E+02</rscale>
<asrwt>0</asrwt>
<pdfrwt beam="1">  1        1 0.17694372E-01 0.91659976E+02</pdfrwt>
<pdfrwt beam="2">  1       -1 0.28095555E-02 0.91659976E+02</pdfrwt>
<totfact> 0.10542583E+05</totfact>
</mgrwt>
</event>
<event>
 5    1  0.1310593E+001  0.8973547E+02  0.7546771E-02  0.1303494E+00
         -1   -1    0    0    0  501 -0.00000000000E+00  0.00000000000E+00  0.76453678253E+01  0.76453678253E+01  0.00000000000E+00 0.  1.
          1   -1    0    0  501    0  0.00000000000E+00 -0.00000000000E+00 -0.26331154090E+03  0.26331154090E+03  0.00000000000E+00 0. -1.
         23    2    1    2    0    0  0.00000000000E+00  0.00000000000E+00 -0.25566617308E+03  0.27095690873E+03  0.89735468636E+02 0.  0.
        -11    1    3    3    0    0  0.34082263700E+02  0.24876303459E+02 -0.17389244350E+03  0.17893857348E+03  0.00000000000E+00 0. -1.
         11    1    3    3    0    0 -0.34082263700E+02 -0.24876303459E+02 -0.81773729575E+02  0.92018335245E+02  0.00000000000E+00 0.  1.
<mgrwt>
<rscale>  0 0.89735469E+02</rscale>
<asrwt>0</asrwt>
<pdfrwt beam="2">  1        1 0.40509465E-01 0.89735469E+02</pdfrwt>
<pdfrwt beam="1">  1       -1 0.11762105E-02 0.89735469E+02</pdfrwt>
<totfact> 0.13034982E+05</totfact>
</mgrwt>
</event>
<event>
 5    1  0.1310593E+001  0.9068071E+02  0.7546771E-02  0.1301212E+00
         -1   -1    0    0    0  501 -0.00000000000E+00  0.00000000000E+00  0.17783998776E+03  0.17783998776E+03  0.00000000000E+00 0.  1.
          1   -1    0    0  501    0  0.00000000000E+00 -0.00000000000E+00 -0.11559535448E+02  0.11559535448E+02  0.00000000000E+00 0. -1.
         23    2    1    2    0    0  0.00000000000E+00  0.00000000000E+00  0.16628045231E+03  0.18939952321E+03  0.90680706715E+02 0.  0.
        -11    1    3    3    0    0  0.25563936083E+02  0.80416714028E+01  0.15952755532E+03  0.16176286413E+03  0.00000000000E+00 0.  1.
         11    1    3    3    0    0 -0.25563936083E+02 -0.80416714028E+01  0.67528969948E+01  0.27636659075E+02  0.00000000000E+00 0. -1.
<mgrwt>
<rscale>  0 0.90680707E+02</rscale>
<asrwt>0</asrwt>
<pdfrwt beam="2">  1        1 0.17783902E-02 0.90680707E+02</pdfrwt>
<pdfrwt beam="1">  1       -1 0.27359996E-01 0.90680707E+02</pdfrwt>
<totfact> 0.72722149E+04</totfact>
</mgrwt>
</event>
<event>
 5    1  0.1310593E+001  0.9025166E+02  0.7546771E-02  0.1302243E+00
         -2   -1    0    0    0  501 -0.00000000000E+00  0.00000000000E+00  0.43140134622E+02  0.43140134622E+02  0.00000000000E+00 0.  1.
          2   -1    0    0  501    0  0.00000000000E+00 -0.00000000000E+00 -0.47202923733E+02  0.47202923733E+02  0.00000000000E+00 0. -1.
         23    2    1    2    0    0  0.00000000000E+00  0.00000000000E+00 -0.40627891112E+01  0.90343058355E+02  0.90251658918E+02 0.  0.
        -13    1    3    3    0    0  0.40316481146E+01 -0.32568034540E+02 -0.33037097733E+02  0.46565876851E+02  0.00000000000E+00 0. -1.
         13    1    3    3    0    0 -0.40316481146E+01  0.32568034540E+02  0.28974308622E+02  0.43777181504E+02  0.00000000000E+00 0.  1.
<mgrwt>
<rscale>  0 0.90251659E+02</rscale>
<asrwt>0</asrwt>
<pdfrwt beam="2">  1        2 0.72619882E-02 0.90251659E+02</pdfrwt>
<pdfrwt beam="1">  1       -2 0.66369438E-02 0.90251659E+02</pdfrwt>
<totfact> 0.10251624E+05</totfact>
</mgrwt>
</event>
<event>
 5    1  0.1310593E+001  0.9155718E+02  0.7546771E-02  0.1299124E+00
          3   -1    0    0  501    0  0.00000000000E+00  0.00000000000E+00  0.50203616432E+01  0.50203616432E+01  0.00000000000E+00 0. -1.
         -3   -1    0    0    0  501 -0.00000000000E+00 -0.00000000000E+00 -0.41743591651E+03  0.41743591651E+03  0.00000000000E+00 0.  1.
         23    2    1    2    0    0  0.00000000000E+00  0.00000000000E+00 -0.41241555487E+03  0.42245627816E+03  0.91557179156E+02 0.  0.
        -13    1    3    3    0    0 -0.17749006303E+02 -0.42161366494E+02 -0.19812157836E+03  0.20333412862E+03  0.00000000000E+00 0. -1.
         13    1    3    3    0    0  0.17749006303E+02  0.42161366494E+02 -0.21429397651E+03  0.21912214953E+03  0.00000000000E+00 0.  1.
<mgrwt>
<rscale>  0 0.91557179E+02</rscale>
<asrwt>0</asrwt>
<pdfrwt beam="1">  1        3 0.77236311E-03 0.91557179E+02</pdfrwt>
<pdfrwt beam="2">  1       -3 0.64220928E-01 0.91557179E+02</pdfrwt>
<totfact> 0.19717189E+04</totfact>
</mgrwt>
</event>
<event>
 5    1  0.1310593E+001  0.8463158E+02  0.7546771E-02  0.1316399E+00
         -1   -1    0    0    0  501 -0.00000000000E+00  0.00000000000E+00  0.85794527734E+02  0.85794527734E+02  0.00000000000E+00 0.  1.
          1   -1    0    0  501    0  0.00000000000E+00 -0.00000000000E+00 -0.20871098290E+02  0.20871098290E+02  0.00000000000E+00 0. -1.
         23    2    1    2    0    0  0.00000000000E+00  0.00000000000E+00  0.64923429444E+02  0.10666562602E+03  0.84631578529E+02 0.  0.
        -13    1    3    3    0    0  0.12488455120E+02 -0.37550958500E+02  0.13573658033E+02  0.41836350080E+02  0.00000000000E+00 0. -1.
         13    1    3    3    0    0 -0.12488455120E+02  0.37550958500E+02  0.51349771410E+02  0.64829275944E+02  0.00000000000E+00 0.  1.
<mgrwt>
<rscale>  0 0.84631579E+02</rscale>
<asrwt>0</asrwt>
<pdfrwt beam="2">  1        1 0.32109382E-02 0.84631579E+02</pdfrwt>
<pdfrwt beam="1">  1       -1 0.13199158E-01 0.84631579E+02</pdfrwt>
<totfact> 0.10121767E+05</totfact>
</mgrwt>
</event>
<event>
 5    1  0.1310593E+001  0.9372201E+02  0.7546771E-02  0.1294081E+00
         -1   -1    0    0    0  501 -0.00000000000E+00  0.00000000000E+00  0.15916640811E+03  0.15916640811E+03  0.00000000000E+00 0.  1.
          1   -1    0    0  501    0  0.00000000000E+00 -0.00000000000E+00 -0.13796589916E+02  0.13796589916E+02  0.00000000000E+00 0. -1.
         23    2    1    2    0    0  0.00000000000E+00  0.00000000000E+00  0.14536981820E+03  0.17296299803E+03  0.93722007258E+02 0.  0.
        -11    1    3    3    0    0  0.29734601216E+02 -0.14057552244E+02  0.13428646967E+03  0.13825562274E+03  0.00000000000E+00 0.  1.
         11    1    3    3    0    0 -0.29734601216E+02  0.14057552244E+02  0.11083348530E+02  0.34707375285E+02  0.00000000000E+00 0. -1.
<mgrwt>
<rscale>  0 0.93722007E+02</rscale>
<asrwt>0</asrwt>
<pdfrwt beam="2">  1        1 0.21225524E-02 0.93722007E+02</pdfrwt>
<pdfrwt beam="1">  1       -1 0.24487138E-01 0.93722007E+02</pdfrwt>
<totfact> 0.68639720E+04</totfact>
</mgrwt>
</event>
<event>
 5    1  0.1310593E+001  0.9340641E+02  0.7546771E-02  0.1294806E+00
         -2   -1    0    0    0  501 -0.00000000000E+00  0.00000000000E+00  0.11821011065E+02  0.11821011065E+02  0.00000000000E+00 0. -1.
          2   -1    0    0  501    0  0.00000000000E+00 -0.00000000000E+00 -0.18451800754E+03  0.18451800754E+03  0.00000000000E+00 0.  1.
         23    2    1    2    0    0  0.00000000000E+00  0.00000000000E+00 -0.17269699648E+03  0.19633901861E+03  0.93406411104E+02 0.  0.
        -11    1    3    3    0    0  0.42571064797E+02  0.34946846924E+01 -0.46650378621E+02  0.63251610291E+02  0.00000000000E+00 0. -1.
         11    1    3    3    0    0 -0.42571064797E+02 -0.34946846924E+01 -0.12604661786E+03  0.13308740831E+03  0.00000000000E+00 0.  1.
<mgrwt>
<rscale>  0 0.93406411E+02</rscale>
<asrwt>0</asrwt>
<pdfrwt beam="2">  1        2 0.28387384E-01 0.93406411E+02</pdfrwt>
<pdfrwt beam="1">  1       -2 0.18186172E-02 0.93406411E+02</pdfrwt>
<totfact> 0.14076404E+05</totfact>
</mgrwt>
</event>
<event>
 5    1  0.1310593E+001  0.9222162E+02  0.7546771E-02  0.1297559E+00
          1   -1    0    0  501    0  0.00000000000E+00  0.00000000000E+00  0.69477440401E+02  0.69477440401E+02  0.00000000000E+00 0. -1.
         -1   -1    0    0    0  501 -0.00000000000E+00 -0.00000000000E+00 -0.30602837640E+02  0.30602837640E+02  0.00000000000E+00 0.  1.
         23    2    1    2    0    0  0.00000000000E+00  0.00000000000E+00  0.38874602760E+02  0.10008027804E+03  0.92221620638E+02 0.  0.
        -11    1    3    3    0    0 -0.19872269685E+02 -0.11884579884E+02 -0.23836199318E+02  0.33231231385E+02  0.00000000000E+00 0.  1.
         11    1    3    3    0    0  0.19872269685E+02  0.11884579884E+02  0.62710802078E+02  0.66849046656E+02  0.00000000000E+00 0. -1.
<mgrwt>
<rscale>  0 0.92221621E+02</rscale>
<asrwt>0</asrwt>
<pdfrwt beam="1">  1        1 0.10688837E-01 0.92221621E+02</pdfrwt>
<pdfrwt beam="2">  1       -1 0.47081289E-02 0.92221621E+02</pdfrwt>
<totfact> 0.95498183E+04</totfact>
</mgrwt>
</event>
<event>
 5    1  0.1310593E+001  0.8587258E+02  0.7546771E-02  0.1313166E+00
         -2   -1    0    0    0  501 -0.00000000000E+00  0.00000000000E+00  0.82696293189E+01  0.82696293189E+01  0.00000000000E+00 0.  1.
          2   -1    0    0  501    0  0.00000000000E+00 -0.00000000000E+00 -0.22292715756E+03  0.22292715756E+03  0.00000000000E+00 0. -1.
         23    2    1    2    0    0  0.00000000000E+00  0.00000000000E+00 -0.21465752824E+03  0.23119678688E+03  0.85872579049E+02 0.  0.
        -13    1    3    3    0    0 -0.40178067142E+02 -0.14749294343E+02 -0.98117162046E+02  0.10704576709E+03  0.00000000000E+00 0.  1.
         13    1    3    3    0    0  0.40178067142E+02  0.14749294343E+02 -0.11654036620E+03  0.12415101979E+03  0.00000000000E+00 0. -1.
<mgrwt>
<rscale>  0 0.85872579E+02</rscale>
<asrwt>0</asrwt>
<pdfrwt beam="2">  1        2 0.34296485E-01 0.85872579E+02</pdfrwt>
<pdfrwt beam="1">  1       -2 0.12722507E-02 0.85872579E+02</pdfrwt>
<totfact> 0.18889099E+05</totfact>
</mgrwt>
</event>
<event>
 5    1  0.1310593E+001  0.9096916E+02  0.7546771E-02  0.1300522E+00
          2   -1    0    0  501    0  0.00000000000E+00  0.00000000000E+00  0.18902397671E+03  0.18902397671E+03  0.00000000000E+00 0. -1.
         -2   -1    0    0    0  501 -0.00000000000E+00 -0.00000000000E+00 -0.10944892541E+02  0.10944892541E+02  0.00000000000E+00 0.  1.
         23    2    1    2    0    0  0.00000000000E+00  0.00000000000E+00  0.17807908417E+03  0.19996886925E+03  0.90969162088E+02 0.  0.
        -13    1    3    3    0    0 -0.21415484845E+02  0.34744403140E+02  0.44908115424E+02  0.60683897136E+02  0.00000000000E+00 0.  1.
         13    1    3    3    0    0  0.21415484845E+02 -0.34744403140E+02  0.13317096874E+03  0.13928497211E+03  0.00000000000E+00 0. -1.
<mgrwt>
<rscale>  0 0.90969162E+02</rscale>
<asrwt>0</asrwt>
<pdfrwt beam="1">  1        2 0.29080609E-01 0.90969162E+02</pdfrwt>
<pdfrwt beam="2">  1       -2 0.16838298E-02 0.90969162E+02</pdfrwt>
<totfact> 0.15250333E+05</totfact>
</mgrwt>
</event>
<event>
 5    1  0.1310593E+001  0.9084518E+02  0.7546771E-02  0.1300818E+00
         -4   -1    0    0    0  501 -0.00000000000E+00  0.00000000000E+00  0.42327043800E+02  0.42327043800E+02  0.00000000000E+00 0.  1.
          4   -1    0    0  501    0  0.00000000000E+00 -0.00000000000E+00 -0.48744525392E+02  0.48744525392E+02  0.00000000000E+00 0. -1.
         23    2    1    2    0    0  0.00000000000E+00  0.00000000000E+00 -0.64174815917E+01  0.91071569192E+02  0.90845179537E+02 0.  0.
        -13    1    3    3    0    0 -0.25909597442E+02  0.51980353982E+01  0.33827673936E+02  0.42925963420E+02  0.00000000000E+00 0.  1.
         13    1    3    3    0    0  0.25909597442E+02 -0.51980353982E+01 -0.40245155528E+02  0.48145605771E+02  0.00000000000E+00 0. -1.
<mgrwt>
<rscale>  0 0.90845180E+02</rscale>
<asrwt>0</asrwt>
<pdfrwt beam="2">  1        4 0.74991578E-02 0.90845180E+02</pdfrwt>
<pdfrwt beam="1">  1       -4 0.65118529E-02 0.90845180E+02</pdfrwt>
<totfact> 0.27291632E+04</totfact>
</mgrwt>
</event>
<event>
 5    1  0.1310593E+001  0.9450183E+02  0.7546771E-02  0.1292302E+00
          2   -1    0    0  501    0  0.00000000000E+00  0.00000000000E+00  0.23594689034E+02  0.23594689034E+02  0.00000000000E+00 0. -1.
         -2   -1    0    0    0  501 -0.00000000000E+00 -0.00000000000E+00 -0.94625054892E+02  0.94625054892E+02  0.00000000000E+00 0.  1.
         23    2    1    2    0    0  0.00000000000E+00  0.00000000000E+00 -0.71030365858E+02  0.11821974393E+03  0.94501825274E+02 0.  0.
        -13    1    3    3    0    0  0.30775703189E+02  0.75903003204E+01 -0.79351083589E+02  0.85447943407E+02  0.00000000000E+00 0.  1.
         13    1    3    3    0    0 -0.30775703189E+02 -0.75903003204E+01  0.83207177312E+01  0.32771800519E+02  0.00000000000E+00 0. -1.
<mgrwt>
<rscale>  0 0.94501825E+02</rscale>
<asrwt>0</asrwt>
<pdfrwt beam="1">  1        2 0.36299522E-02 0.94501825E+02</pdfrwt>
<pdfrwt beam="2">  1       -2 0.14557700E-01 0.94501825E+02</pdfrwt>
<totfact> 0.74218078E+04</totfact>
</mgrwt>
</event>
<event>
 5    1  0.1310593E+001  0.9338286E+02  0.7546771E-02  0.1294860E+00
          1   -1    0    0  501    0  0.00000000000E+00  0.00000000000E+00  0.42695334302E+02  0.42695334302E+02  0.00000000000E+00 0. -1.
         -1   -1    0    0    0  501 -0.00000000000E+00 -0.00000000000E+00 -0.51061542306E+02  0.51061542306E+02  0.00000000000E+00 0.  1.
         23    2    1    2    0    0  0.00000000000E+00  0.00000000000E+00 -0.83662080038E+01  0.93756876608E+02  0.93382859642E+02 0.  0.
        -11    1    3    3    0    0 -0.35735026441E+01  0.11338089266E+02  0.41150453925E+02  0.42833188623E+02  0.00000000000E+00 0. -1.
         11    1    3    3    0    0  0.35735026441E+01 -0.11338089266E+02 -0.49516661929E+02  0.50923687985E+02  0.00000000000E+00 0.  1.
<mgrwt>
<rscale>  0 0.93382860E+02</rscale>
<asrwt>0</asrwt>
<pdfrwt beam="1">  1        1 0.65685130E-02 0.93382860E+02</pdfrwt>
<pdfrwt beam="2">  1       -1 0.78556219E-02 0.93382860E+02</pdfrwt>
<totfact> 0.85585854E+04</totfact>
</mgrwt>
</event>
<event>
 5    1  0.1310593E+001  0.9107390E+02  0.7546771E-02  0.1300272E+00
         -1   -1    0    0    0  501 -0.00000000000E+00  0.00000000000E+00  0.68605809805E+02  0.68605809805E+02  0.00000000000E+00 0.  1.
          1   -1    0    0  501    0  0.00000000000E+00 -0.00000000000E+00 -0.30225049858E+02  0.30225049858E+02  0.00000000000E+00 0. -1.
         23    2    1    2    0    0  0.00000000000E+00  0.00000000000E+00  0.38380759947E+02  0.98830859663E+02  0.91073904537E+02 0.  0.
        -13    1    3    3    0    0  0.25342002960E+02  0.28477942407E+02 -0.78389828481E+01  0.38918632682E+02  0.00000000000E+00 0. -1.
         13    1    3    3    0    0 -0.25342002960E+02 -0.28477942407E+02  0.46219742796E+02  0.59912226981E+02  0.00000000000E+00 0.  1.
<mgrwt>
<rscale>  0 0.91073905E+02</rscale>
<asrwt>0</asrwt>
<pdfrwt beam="2">  1        1 0.46500077E-02 0.91073905E+02</pdfrwt>
<pdfrwt beam="1">  1       -1 0.10554740E-01 0.91073905E+02</pdfrwt>
<totfact> 0.87071049E+04</totfact>
</mgrwt>
</event>
<event>
 5    1  0.1310593E+001  0.9136708E+02  0.7546771E-02  0.1299574E+00
         -3   -1    0    0    0  501 -0.00000000000E+00  0.00000000000E+00  0.19225943992E+02  0.19225943992E+02  0.00000000000E+00 0.  1.
          3   -1    0    0  501    0  0.00000000000E+00 -0.00000000000E+00 -0.10855050098E+03  0.10855050098E+03  0.00000000000E+00 0. -1.
         23    2    1    2    0    0  0.00000000000E+00  0.00000000000E+00 -0.89324556990E+02  0.12777644497E+03  0.91367080552E+02 0.  0.
        -13    1    3    3    0    0 -0.27909841819E+02  0.18664227015E+02 -0.13388579144E+01  0.33602160361E+02  0.00000000000E+00 0.  1.
         13    1    3    3    0    0  0.27909841819E+02 -0.18664227015E+02 -0.87985699075E+02  0.94174284612E+02  0.00000000000E+00 0. -1.
<mgrwt>
<rscale>  0 0.91367081E+02</rscale>
<asrwt>0</asrwt>
<pdfrwt beam="2">  1        3 0.16700077E-01 0.91367081E+02</pdfrwt>
<pdfrwt beam="1">  1       -3 0.29578376E-02 0.91367081E+02</pdfrwt>
<totfact> 0.32537819E+04</totfact>
</mgrwt>
</event>
<event>
 5    1  0.1310593E+001  0.9201823E+02  0.7546771E-02  0.1298037E+00
         -2   -1    0    0    0  501 -0.00000000000E+00  0.00000000000E+00  0.39427992504E+02  0.39427992504E+02  0.00000000000E+00 0. -1.
          2   -1    0    0  501    0  0.00000000000E+00 -0.00000000000E+00 -0.53688723559E+02  0.53688723559E+02  0.00000000000E+00 0.  1.
         23    2    1    2    0    0  0.00000000000E+00  0.00000000000E+00 -0.14260731055E+02  0.93116716064E+02  0.92018228413E+02 0.  0.
        -11    1    3    3    0    0  0.33227486377E+02 -0.16753280257E+02  0.20249990302E+02  0.42365084180E+02  0.00000000000E+00 0. -1.
         11    1    3    3    0    0 -0.33227486377E+02  0.16753280257E+02 -0.34510721357E+02  0.50751631884E+02  0.00000000000E+00 0.  1.
<mgrwt>
<rscale>  0 0.92018228E+02</rscale>
<asrwt>0</asrwt>
<pdfrwt beam="2">  1        2 0.82598036E-02 0.92018228E+02</pdfrwt>
<pdfrwt beam="1">  1       -2 0.60658450E-02 0.92018228E+02</pdfrwt>
<totfact> 0.10032712E+05</totfact>
</mgrwt>
</event>
<event>
 5    1  0.1310593E+001  0.8781199E+02  0.7546771E-02  0.1308238E+00
          3   -1    0    0  501    0  0.00000000000E+00  0.00000000000E+00  0.15793711246E+02  0.15793711246E+02  0.00000000000E+00 0. -1.
         -3   -1    0    0    0  501 -0.00000000000E+00 -0.00000000000E+00 -0.12205721291E+03  0.12205721291E+03  0.00000000000E+00 0.  1.
         23    2    1    2    0    0  0.00000000000E+00  0.00000000000E+00 -0.10626350166E+03  0.13785092415E+03  0.87811989526E+02 0.  0.
        -13    1    3    3    0    0 -0.21074896131E+02  0.17040627007E+02 -0.10735841394E+03  0.11072652464E+03  0.00000000000E+00 0.  1.
         13    1    3    3    0    0  0.21074896131E+02 -0.17040627007E+02  0.10949122825E+01  0.27124399507E+02  0.00000000000E+00 0. -1.
<mgrwt>
<rscale>  0 0.87811990E+02</rscale>
<asrwt>0</asrwt>
<pdfrwt beam="1">  1        3 0.24298017E-02 0.87811990E+02</pdfrwt>
<pdfrwt beam="2">  1       -3 0.18778033E-01 0.87811990E+02</pdfrwt>
<totfact> 0.35496763E+04</totfact>
</mgrwt>
</event>
<event>
 5    1  0.1310593E+001  0.9339735E+02  0.7546771E-02  0.1294827E+00
         -2   -1    0    0    0  501 -0.00000000000E+00  0.00000000000E+00  0.74416379908E+01  0.74416379908E+01  0.00000000000E+00 0.  1.
          2   -1    0    0  501    0  0.00000000000E+00 -0.00000000000E+00 -0.29304924487E+03  0.29304924487E+03  0.00000000000E+00 0. -1.
         23    2    1    2    0    0  0.00000000000E+00  0.00000000000E+00 -0.28560760688E+03  0.30049088286E+03  0.93397353149E+02 0.  0.
        -11    1    3    3    0    0 -0.17093209758E+02  0.41735072266E+02 -0.18178173656E+03  0.18729280238E+03  0.00000000000E+00 0.  1.
         11    1    3    3    0    0  0.17093209758E+02 -0.41735072266E+02 -0.10382587032E+03  0.11319808048E+03  0.00000000000E+00 0. -1.
<mgrwt>
<rscale>  0 0.93397353E+02</rscale>
<asrwt>0</asrwt>
<pdfrwt beam="2">  1        2 0.45084492E-01 0.93397353E+02</pdfrwt>
<pdfrwt beam="1">  1       -2 0.11448676E-02 0.93397353E+02</pdfrwt>
<totfact> 0.16699703E+05</totfact>
</mgrwt>
</event>
<event>
 5    1  0.1310593E+001  0.8899179E+02  0.7546771E-02  0.1305312E+00
          1   -1    0    0  501    0  0.00000000000E+00  0.00000000000E+00  0.12154635707E+03  0.12154635707E+03  0.00000000000E+00 0. -1.
         -1   -1    0    0    0  501 -0.00000000000E+00 -0.00000000000E+00 -0.16289130779E+02  0.16289130779E+02  0.00000000000E+00 0.  1.
         23    2    1    2    0    0  0.00000000000E+00  0.00000000000E+00  0.10525722629E+03  0.13783548785E+03  0.88991786274E+02 0.  0.
        -13    1    3    3    0    0 -0.15569017760E+01 -0.33453189026E+02  0.72509642789E+01  0.34265380227E+02  0.00000000000E+00 0.  1.
         13    1    3    3    0    0  0.15569017760E+01  0.33453189026E+02  0.98006262016E+02  0.10357010763E+03  0.00000000000E+00 0. -1.
<mgrwt>
<rscale>  0 0.88991786E+02</rscale>
<asrwt>0</asrwt>
<pdfrwt beam="1">  1        1 0.18699439E-01 0.88991786E+02</pdfrwt>
<pdfrwt beam="2">  1       -1 0.25060202E-02 0.88991786E+02</pdfrwt>
<totfact> 0.11530209E+05</totfact>
</mgrwt>
</event>
<event>
 5    1  0.1310593E+001  0.9197304E+02  0.7546771E-02  0.1298143E+00
          2   -1    0    0  501    0  0.00000000000E+00  0.00000000000E+00  0.59288973697E+02  0.59288973697E+02  0.00000000000E+00 0.  1.
         -2   -1    0    0    0  501 -0.00000000000E+00 -0.00000000000E+00 -0.35668689139E+02  0.35668689139E+02  0.00000000000E+00 0. -1.
         23    2    1    2    0    0  0.00000000000E+00  0.00000000000E+00  0.23620284558E+02  0.94957662836E+02  0.91973038923E+02 0.  0.
        -11    1    3    3    0    0  0.32863579695E+02  0.86300183825E+01 -0.20183647193E+02  0.39520522537E+02  0.00000000000E+00 0. -1.
         11    1    3    3    0    0 -0.32863579695E+02 -0.86300183825E+01  0.43803931751E+02  0.55437140299E+02  0.00000000000E+00 0.  1.
<mgrwt>
<rscale>  0 0.91973039E+02</rscale>
<asrwt>0</asrwt>
<pdfrwt beam="1">  1        2 0.91213805E-02 0.91973039E+02</pdfrwt>
<pdfrwt beam="2">  1       -2 0.54874907E-02 0.91973039E+02</pdfrwt>
<totfact> 0.10316337E+05</totfact>
</mgrwt>
</event>
<event>
 5    1  0.1310593E+001  0.9219693E+02  0.7546771E-02  0.1297617E+00
          1   -1    0    0  501    0  0.00000000000E+00  0.00000000000E+00  0.30143106862E+02  0.30143106862E+02  0.00000000000E+00 0. -1.
         -1   -1    0    0    0  501 -0.00000000000E+00 -0.00000000000E+00 -0.70499314712E+02  0.70499314712E+02  0.00000000000E+00 0.  1.
         23    2    1    2    0    0  0.00000000000E+00  0.00000000000E+00 -0.40356207850E+02  0.10064242157E+03  0.92196927867E+02 0.  0.
        -13    1    3    3    0    0  0.98534906518E+01  0.24379340373E+02  0.21153512457E+02  0.33747808881E+02  0.00000000000E+00 0. -1.
         13    1    3    3    0    0 -0.98534906518E+01 -0.24379340373E+02 -0.61509720307E+02  0.66894612692E+02  0.00000000000E+00 0.  1.
<mgrwt>
<rscale>  0 0.92196928E+02</rscale>
<asrwt>0</asrwt>
<pdfrwt beam="1">  1        1 0.46374011E-02 0.92196928E+02</pdfrwt>
<pdfrwt beam="2">  1       -1 0.10846048E-01 0.92196928E+02</pdfrwt>
<totfact> 0.84019164E+04</totfact>
</mgrwt>
</event>
<event>
 5    1  0.1310593E+001  0.9116508E+02  0.7546771E-02  0.1300055E+00
         -2   -1    0    0    0  501 -0.00000000000E+00  0.00000000000E+00  0.20403574440E+02  0.20403574440E+02  0.00000000000E+00 0.  1.
          2   -1    0    0  501    0  0.00000000000E+00 -0.00000000000E+00 -0.10183353124E+03  0.10183353124E+03  0.00000000000E+00 0. -1.
         23    2    1    2    0    0  0.00000000000E+00  0.00000000000E+00 -0.81429956805E+02  0.12223710568E+03  0.91165081807E+02 0.  0.
        -11    1    3    3    0    0 -0.27476514432E+02  0.10252779753E+02 -0.87503879782E+02  0.92287633597E+02  0.00000000000E+00 0. -1.
         11    1    3    3    0    0  0.27476514432E+02 -0.10252779753E+02  0.60739229775E+01  0.29949472087E+02  0.00000000000E+00 0.  1.
<mgrwt>
<rscale>  0 0.91165082E+02</rscale>
<asrwt>0</asrwt>
<pdfrwt beam="2">  1        2 0.15666697E-01 0.91165082E+02</pdfrwt>
<pdfrwt beam="1">  1       -2 0.31390115E-02 0.91165082E+02</pdfrwt>
<totfact> 0.12340234E+05</totfact>
</mgrwt>
</event>
<event>
 5    1  0.1310593E+001  0.8449398E+02  0.7546771E-02  0.1316761E+00
         -2   -1    0    0    0  501 -0.00000000000E+00  0.00000000000E+00  0.45471330847E+01  0.45471330847E+01  0.00000000000E+00 0.  1.
          2   -1    0    0  501    0  0.00000000000E+00 -0.00000000000E+00 -0.39251288933E+03  0.39251288933E+03  0.00000000000E+00 0. -1.
         23    2    1    2    0    0  0.00000000000E+00  0.00000000000E+00 -0.38796575625E+03  0.39706002242E+03  0.84493984289E+02 0.  0.
        -11    1    3    3    0    0  0.32378056845E+02  0.26846652248E+02 -0.17534682610E+03  0.18032079948E+03  0.00000000000E+00 0.  1.
         11    1    3    3    0    0 -0.32378056845E+02 -0.26846652248E+02 -0.21261893014E+03  0.21673922293E+03  0.00000000000E+00 0. -1.
<mgrwt>
<rscale>  0 0.84493984E+02</rscale>
<asrwt>0</asrwt>
<pdfrwt beam="2">  1        2 0.60386618E-01 0.84493984E+02</pdfrwt>
<pdfrwt beam="1">  1       -2 0.69955871E-03 0.84493984E+02</pdfrwt>
<totfact> 0.24248048E+05</totfact>
</mgrwt>
</event>
<event>
 5    1  0.1310593E+001  0.9219735E+02  0.7546771E-02  0.1297616E+00
         -3   -1    0    0    0  501 -0.00000000000E+00  0.00000000000E+00  0.13725213808E+02  0.13725213808E+02  0.00000000000E+00 0.  1.
          3   -1    0    0  501    0  0.00000000000E+00 -0.00000000000E+00 -0.15483095653E+03  0.15483095653E+03  0.00000000000E+00 0. -1.
         23    2    1    2    0    0  0.00000000000E+00  0.00000000000E+00 -0.14110574272E+03  0.16855617034E+03  0.92197353159E+02 0.  0.
        -11    1    3    3    0    0  0.42674747445E+02  0.13715225861E+02 -0.50875474414E+02  0.67805275509E+02  0.00000000000E+00 0.  1.
         11    1    3    3    0    0 -0.42674747445E+02 -0.13715225861E+02 -0.90230268305E+02  0.10075089483E+03  0.00000000000E+00 0. -1.
<mgrwt>
<rscale>  0 0.92197353E+02</rscale>
<asrwt>0</asrwt>
<pdfrwt beam="2">  1        3 0.23820146E-01 0.92197353E+02</pdfrwt>
<pdfrwt beam="1">  1       -3 0.21115715E-02 0.92197353E+02</pdfrwt>
<totfact> 0.29311343E+04</totfact>
</mgrwt>
</event>
<event>
 5    1  0.1310593E+001  0.9648986E+02  0.7546771E-02  0.1287855E+00
          2   -1    0    0  501    0  0.00000000000E+00  0.00000000000E+00  0.25584314447E+02  0.25584314447E+02  0.00000000000E+00 0. -1.
         -2   -1    0    0    0  501 -0.00000000000E+00 -0.00000000000E+00 -0.90976573390E+02  0.90976573390E+02  0.00000000000E+00 0.  1.
         23    2    1    2    0    0  0.00000000000E+00  0.00000000000E+00 -0.65392258943E+02  0.11656088784E+03  0.96489859797E+02 0.  0.
        -13    1    3    3    0    0 -0.22750965489E+02  0.13212120681E+01 -0.84064637640E+02  0.87098882505E+02  0.00000000000E+00 0.  1.
         13    1    3    3    0    0  0.22750965489E+02 -0.13212120681E+01  0.18672378697E+02  0.29462005333E+02  0.00000000000E+00 0. -1.
<mgrwt>
<rscale>  0 0.96489860E+02</rscale>
<asrwt>0</asrwt>
<pdfrwt beam="1">  1        2 0.39360484E-02 0.96489860E+02</pdfrwt>
<pdfrwt beam="2">  1       -2 0.13996396E-01 0.96489860E+02</pdfrwt>
<totfact> 0.71316074E+04</totfact>
</mgrwt>
</event>
<event>
 5    1  0.1310593E+001  0.9087111E+02  0.7546771E-02  0.1300756E+00
          2   -1    0    0  501    0  0.00000000000E+00  0.00000000000E+00  0.25615477473E+02  0.25615477473E+02  0.00000000000E+00 0. -1.
         -2   -1    0    0    0  501 -0.00000000000E+00 -0.00000000000E+00 -0.80591492259E+02  0.80591492259E+02  0.00000000000E+00 0.  1.
         23    2    1    2    0    0  0.00000000000E+00  0.00000000000E+00 -0.54976014786E+02  0.10620696973E+03  0.90871107718E+02 0.  0.
        -11    1    3    3    0    0 -0.19382897377E+02 -0.35244767275E+02 -0.52184629113E+02  0.65887220663E+02  0.00000000000E+00 0.  1.
         11    1    3    3    0    0  0.19382897377E+02  0.35244767275E+02 -0.27913856731E+01  0.40319749069E+02  0.00000000000E+00 0. -1.
<mgrwt>
<rscale>  0 0.90871108E+02</rscale>
<asrwt>0</asrwt>
<pdfrwt beam="1">  1        2 0.39408427E-02 0.90871108E+02</pdfrwt>
<pdfrwt beam="2">  1       -2 0.12398691E-01 0.90871108E+02</pdfrwt>
<totfact> 0.85609489E+04</totfact>
</mgrwt>
</event>
<event>
 5    1  0.1310593E+001  0.9125773E+02  0.7546771E-02  0.1299834E+00
          3   -1    0    0  501    0  0.00000000000E+00  0.00000000000E+00  0.40081796150E+02  0.40081796150E+02  0.00000000000E+00 0. -1.
         -3   -1    0    0    0  501 -0.00000000000E+00 -0.00000000000E+00 -0.51943615776E+02  0.51943615776E+02  0.00000000000E+00 0.  1.
         23    2    1    2    0    0  0.00000000000E+00  0.00000000000E+00 -0.11861819626E+02  0.92025411926E+02  0.91257732140E+02 0.  0.
        -13    1    3    3    0    0  0.29109771140E+02 -0.15528912638E+02  0.25853557239E+02  0.41915776570E+02  0.00000000000E+00 0. -1.
         13    1    3    3    0    0 -0.29109771140E+02  0.15528912638E+02 -0.37715376864E+02  0.50109635357E+02  0.00000000000E+00 0.  1.
<mgrwt>
<rscale>  0 0.91257732E+02</rscale>
<asrwt>0</asrwt>
<pdfrwt beam="1">  1        3 0.61664302E-02 0.91257732E+02</pdfrwt>
<pdfrwt beam="2">  1       -3 0.79913255E-02 0.91257732E+02</pdfrwt>
<totfact> 0.35188966E+04</totfact>
</mgrwt>
</event>
<event>
 5    1  0.1310593E+001  0.8255568E+02  0.7546771E-02  0.1321951E+00
          3   -1    0    0  501    0  0.00000000000E+00  0.00000000000E+00  0.15740120677E+02  0.15740120677E+02  0.00000000000E+00 0. -1.
         -3   -1    0    0    0  501 -0.00000000000E+00 -0.00000000000E+00 -0.10824948067E+03  0.10824948067E+03  0.00000000000E+00 0.  1.
         23    2    1    2    0    0  0.00000000000E+00  0.00000000000E+00 -0.92509359998E+02  0.12398960135E+03  0.82555675492E+02 0.  0.
        -11    1    3    3    0    0  0.37636844810E+02  0.16404883582E+02 -0.39846058275E+02  0.57213290874E+02  0.00000000000E+00 0. -1.
         11    1    3    3    0    0 -0.37636844810E+02 -0.16404883582E+02 -0.52663301723E+02  0.66776310477E+02  0.00000000000E+00 0.  1.
<mgrwt>
<rscale>  0 0.82555675E+02</rscale>
<asrwt>0</asrwt>
<pdfrwt beam="1">  1        3 0.24215570E-02 0.82555675E+02</pdfrwt>
<pdfrwt beam="2">  1       -3 0.16653767E-01 0.82555675E+02</pdfrwt>
<totfact> 0.43100742E+04</totfact>
</mgrwt>
</event>
<event>
 5    1  0.1310593E+001  0.8984196E+02  0.7546771E-02  0.1303235E+00
          3   -1    0    0  501    0  0.00000000000E+00  0.00000000000E+00  0.44610877103E+02  0.44610877103E+02  0.00000000000E+00 0. -1.
         -3   -1    0    0    0  501 -0.00000000000E+00 -0.00000000000E+00 -0.45233235140E+02  0.45233235140E+02  0.00000000000E+00 0.  1.
         23    2    1    2    0    0  0.00000000000E+00  0.00000000000E+00 -0.62235803683E+00  0.89844112242E+02  0.89841956652E+02 0.  0.
        -11    1    3    3    0    0 -0.20869167587E+02 -0.25478943821E+02  0.30237803630E+02  0.44710440642E+02  0.00000000000E+00 0. -1.
         11    1    3    3    0    0  0.20869167587E+02  0.25478943821E+02 -0.30860161667E+02  0.45133671600E+02  0.00000000000E+00 0.  1.
<mgrwt>
<rscale>  0 0.89841957E+02</rscale>
<asrwt>0</asrwt>
<pdfrwt beam="1">  1        3 0.68632119E-02 0.89841957E+02</pdfrwt>
<pdfrwt beam="2">  1       -3 0.69589592E-02 0.89841957E+02</pdfrwt>
<totfact> 0.36891688E+04</totfact>
</mgrwt>
</event>
<event>
 5    1  0.1310593E+001  0.9318365E+02  0.7546771E-02  0.1295320E+00
         -1   -1    0    0    0  501 -0.00000000000E+00  0.00000000000E+00  0.11780668012E+03  0.11780668012E+03  0.00000000000E+00 0.  1.
          1   -1    0    0  501    0  0.00000000000E+00 -0.00000000000E+00 -0.18426783523E+02  0.18426783523E+02  0.00000000000E+00 0. -1.
         23    2    1    2    0    0  0.00000000000E+00  0.00000000000E+00  0.99379896600E+02  0.13623346365E+03  0.93183650758E+02 0.  0.
        -11    1    3    3    0    0 -0.20471382195E+02  0.24368731600E+02  0.99438095186E+02  0.10440712305E+03  0.00000000000E+00 0.  1.
         11    1    3    3    0    0  0.20471382195E+02 -0.24368731600E+02 -0.58198586569E-01  0.31826340598E+02  0.00000000000E+00 0. -1.
<mgrwt>
<rscale>  0 0.93183651E+02</rscale>
<asrwt>0</asrwt>
<pdfrwt beam="2">  1        1 0.28348899E-02 0.93183651E+02</pdfrwt>
<pdfrwt beam="1">  1       -1 0.18124104E-01 0.93183651E+02</pdfrwt>
<totfact> 0.74507855E+04</totfact>
</mgrwt>
</event>
<event>
 5    1  0.1310593E+001  0.9476600E+02  0.7546771E-02  0.1291704E+00
          2   -1    0    0  501    0  0.00000000000E+00  0.00000000000E+00  0.14569950539E+03  0.14569950539E+03  0.00000000000E+00 0.  1.
         -2   -1    0    0    0  501 -0.00000000000E+00 -0.00000000000E+00 -0.15409445702E+02  0.15409445702E+02  0.00000000000E+00 0. -1.
         23    2    1    2    0    0  0.00000000000E+00  0.00000000000E+00  0.13029005969E+03  0.16110895109E+03  0.94765998483E+02 0.  0.
        -11    1    3    3    0    0 -0.37930107673E+02 -0.16315291422E+02  0.25629184817E+02  0.48597704850E+02  0.00000000000E+00 0. -1.
         11    1    3    3    0    0  0.37930107673E+02  0.16315291422E+02  0.10466087487E+03  0.11251124624E+03  0.00000000000E+00 0.  1.
<mgrwt>
<rscale>  0 0.94765998E+02</rscale>
<asrwt>0</asrwt>
<pdfrwt beam="1">  1        2 0.22415308E-01 0.94765998E+02</pdfrwt>
<pdfrwt beam="2">  1       -2 0.23706841E-02 0.94765998E+02</pdfrwt>
<totfact> 0.12460988E+05</totfact>
</mgrwt>
</event>
<event>
 5    1  0.1310593E+001  0.9138189E+02  0.7546771E-02  0.1299539E+00
          1   -1    0    0  501    0  0.00000000000E+00  0.00000000000E+00  0.19803302806E+02  0.19803302806E+02  0.00000000000E+00 0. -1.
         -1   -1    0    0    0  501 -0.00000000000E+00 -0.00000000000E+00 -0.10541991475E+03  0.10541991475E+03  0.00000000000E+00 0.  1.
         23    2    1    2    0    0  0.00000000000E+00  0.00000000000E+00 -0.85616611943E+02  0.12522321755E+03  0.91381890844E+02 0.  0.
        -13    1    3    3    0    0  0.37342245839E+02  0.89932253743E+01 -0.88988039742E+01  0.39427276587E+02  0.00000000000E+00 0. -1.
         13    1    3    3    0    0 -0.37342245839E+02 -0.89932253743E+01 -0.76717807969E+02  0.85795940968E+02  0.00000000000E+00 0.  1.
<mgrwt>
<rscale>  0 0.91381891E+02</rscale>
<asrwt>0</asrwt>
<pdfrwt beam="1">  1        1 0.30466619E-02 0.91381891E+02</pdfrwt>
<pdfrwt beam="2">  1       -1 0.16218449E-01 0.91381891E+02</pdfrwt>
<totfact> 0.80099817E+04</totfact>
</mgrwt>
</event>
<event>
 5    1  0.1310593E+001  0.8511988E+02  0.7546771E-02  0.1315119E+00
          2   -1    0    0  501    0  0.00000000000E+00  0.00000000000E+00  0.15519004339E+03  0.15519004339E+03  0.00000000000E+00 0.  1.
         -2   -1    0    0    0  501 -0.00000000000E+00 -0.00000000000E+00 -0.11671808218E+02  0.11671808218E+02  0.00000000000E+00 0. -1.
         23    2    1    2    0    0  0.00000000000E+00  0.00000000000E+00  0.14351823518E+03  0.16686185161E+03  0.85119878378E+02 0.  0.
        -11    1    3    3    0    0 -0.34206004251E+02  0.22896976089E+02  0.92965548600E+02  0.10167062244E+03  0.00000000000E+00 0.  1.
         11    1    3    3    0    0  0.34206004251E+02 -0.22896976089E+02  0.50552686576E+02  0.65191229171E+02  0.00000000000E+00 0. -1.
<mgrwt>
<rscale>  0 0.85119878E+02</rscale>
<asrwt>0</asrwt>
<pdfrwt beam="1">  1        2 0.23875390E-01 0.85119878E+02</pdfrwt>
<pdfrwt beam="2">  1       -2 0.17956629E-02 0.85119878E+02</pdfrwt>
<totfact> 0.17026023E+05</totfact>
</mgrwt>
</event>
<event>
 5    1  0.1310593E+001  0.9129099E+02  0.7546771E-02  0.1299755E+00
          2   -1    0    0  501    0  0.00000000000E+00  0.00000000000E+00  0.44609554782E+01  0.44609554782E+01  0.00000000000E+00 0. -1.
         -2   -1    0    0    0  501 -0.00000000000E+00 -0.00000000000E+00 -0.46705491282E+03  0.46705491282E+03  0.00000000000E+00 0.  1.
         23    2    1    2    0    0  0.00000000000E+00  0.00000000000E+00 -0.46259395734E+03  0.47151586830E+03  0.91290989084E+02 0.  0.
        -13    1    3    3    0    0  0.44980880831E+02  0.66457588337E+01 -0.25199908136E+03  0.25606831658E+03  0.00000000000E+00 0.  1.
         13    1    3    3    0    0 -0.44980880831E+02 -0.66457588337E+01 -0.21059487599E+03  0.21544755172E+03  0.00000000000E+00 0. -1.
<mgrwt>
<rscale>  0 0.91290989E+02</rscale>
<asrwt>0</asrwt>
<pdfrwt beam="1">  1        2 0.68630082E-03 0.91290989E+02</pdfrwt>
<pdfrwt beam="2">  1       -2 0.71854604E-01 0.91290989E+02</pdfrwt>
<totfact> 0.38115791E+04</totfact>
</mgrwt>
</event>
<event>
 5    1  0.1310593E+001  0.9191054E+02  0.7546771E-02  0.1298290E+00
          1   -1    0    0  501    0  0.00000000000E+00  0.00000000000E+00  0.95459391099E+01  0.95459391099E+01  0.00000000000E+00 0. -1.
         -1   -1    0    0    0  501 -0.00000000000E+00 -0.00000000000E+00 -0.22123407411E+03  0.22123407411E+03  0.00000000000E+00 0.  1.
         23    2    1    2    0    0  0.00000000000E+00  0.00000000000E+00 -0.21168813500E+03  0.23078001322E+03  0.91910543476E+02 0.  0.
        -13    1    3    3    0    0 -0.34493763483E+02  0.17982767686E+02 -0.16728147762E+03  0.17174484681E+03  0.00000000000E+00 0.  1.
         13    1    3    3    0    0  0.34493763483E+02 -0.17982767686E+02 -0.44406657386E+02  0.59035166410E+02  0.00000000000E+00 0. -1.
<mgrwt>
<rscale>  0 0.91910543E+02</rscale>
<asrwt>0</asrwt>
<pdfrwt beam="1">  1        1 0.14686062E-02 0.91910543E+02</pdfrwt>
<pdfrwt beam="2">  1       -1 0.34036007E-01 0.91910543E+02</pdfrwt>
<totfact> 0.65979828E+04</totfact>
</mgrwt>
</event>
<event>
 5    1  0.1310593E+001  0.9145319E+02  0.7546771E-02  0.1299370E+00
         -3   -1    0    0    0  501 -0.00000000000E+00  0.00000000000E+00  0.25028197070E+02  0.25028197070E+02  0.00000000000E+00 0.  1.
          3   -1    0    0  501    0  0.00000000000E+00 -0.00000000000E+00 -0.83542637532E+02  0.83542637532E+02  0.00000000000E+00 0. -1.
         23    2    1    2    0    0  0.00000000000E+00  0.00000000000E+00 -0.58514440462E+02  0.10857083460E+03  0.91453192310E+02 0.  0.
        -13    1    3    3    0    0  0.19433747411E+02 -0.10342059443E+02 -0.76837464966E+02  0.79928873096E+02  0.00000000000E+00 0. -1.
         13    1    3    3    0    0 -0.19433747411E+02  0.10342059443E+02  0.18323024504E+02  0.28641961507E+02  0.00000000000E+00 0.  1.
<mgrwt>
<rscale>  0 0.91453192E+02</rscale>
<asrwt>0</asrwt>
<pdfrwt beam="2">  1        3 0.12852713E-01 0.91453192E+02</pdfrwt>
<pdfrwt beam="1">  1       -3 0.38504919E-02 0.91453192E+02</pdfrwt>
<totfact> 0.33767458E+04</totfact>
</mgrwt>
</event>
<event>
 5    1  0.1310593E+001  0.1038332E+03  0.7546771E-02  0.1272436E+00
          3   -1    0    0  501    0  0.00000000000E+00  0.00000000000E+00  0.45180059055E+02  0.45180059055E+02  0.00000000000E+00 0. -1.
         -3   -1    0    0    0  501 -0.00000000000E+00 -0.00000000000E+00 -0.59657548848E+02  0.59657548848E+02  0.00000000000E+00 0.  1.
         23    2    1    2    0    0  0.00000000000E+00  0.00000000000E+00 -0.14477489793E+02  0.10483760790E+03  0.10383316580E+03 0.  0.
        -11    1    3    3    0    0  0.38845638885E+02 -0.25492585150E+02  0.16147266951E+02  0.49189325956E+02  0.00000000000E+00 0. -1.
         11    1    3    3    0    0 -0.38845638885E+02  0.25492585150E+02 -0.30624756744E+02  0.55648281947E+02  0.00000000000E+00 0.  1.
<mgrwt>
<rscale>  0 0.10383317E+03</rscale>
<asrwt>0</asrwt>
<pdfrwt beam="1">  1        3 0.69507784E-02 0.10383317E+03</pdfrwt>
<pdfrwt beam="2">  1       -3 0.91780844E-02 0.10383317E+03</pdfrwt>
<totfact> 0.24022033E+04</totfact>
</mgrwt>
</event>
<event>
 5    1  0.1310593E+001  0.8958664E+02  0.7546771E-02  0.1303856E+00
         -1   -1    0    0    0  501 -0.00000000000E+00  0.00000000000E+00  0.29531651748E+02  0.29531651748E+02  0.00000000000E+00 0.  1.
          1   -1    0    0  501    0  0.00000000000E+00 -0.00000000000E+00 -0.67942068308E+02  0.67942068308E+02  0.00000000000E+00 0. -1.
         23    2    1    2    0    0  0.00000000000E+00  0.00000000000E+00 -0.38410416560E+02  0.97473720055E+02  0.89586639635E+02 0.  0.
        -13    1    3    3    0    0 -0.11122132563E+02  0.42003830237E+02 -0.73651730220E+01  0.44071185156E+02  0.00000000000E+00 0. -1.
         13    1    3    3    0    0  0.11122132563E+02 -0.42003830237E+02 -0.31045243538E+02  0.53402534900E+02  0.00000000000E+00 0.  1.
<mgrwt>
<rscale>  0 0.89586640E+02</rscale>
<asrwt>0</asrwt>
<pdfrwt beam="2">  1        1 0.10452626E-01 0.89586640E+02</pdfrwt>
<pdfrwt beam="1">  1       -1 0.45433310E-02 0.89586640E+02</pdfrwt>
<totfact> 0.10309290E+05</totfact>
</mgrwt>
</event>
<event>
 5    1  0.1310593E+001  0.8663441E+02  0.7546771E-02  0.1311213E+00
          2   -1    0    0  501    0  0.00000000000E+00  0.00000000000E+00  0.13840873267E+02  0.13840873267E+02  0.00000000000E+00 0. -1.
         -2   -1    0    0    0  501 -0.00000000000E+00 -0.00000000000E+00 -0.13556804522E+03  0.13556804522E+03  0.00000000000E+00 0.  1.
         23    2    1    2    0    0  0.00000000000E+00  0.00000000000E+00 -0.12172717196E+03  0.14940891849E+03  0.86634407322E+02 0.  0.
        -13    1    3    3    0    0 -0.25097374070E+02  0.34262057745E+02 -0.46167748493E+02  0.62731393951E+02  0.00000000000E+00 0.  1.
         13    1    3    3    0    0  0.25097374070E+02 -0.34262057745E+02 -0.75559423464E+02  0.86677524540E+02  0.00000000000E+00 0. -1.
<mgrwt>
<rscale>  0 0.86634407E+02</rscale>
<asrwt>0</asrwt>
<pdfrwt beam="1">  1        2 0.21293652E-02 0.86634407E+02</pdfrwt>
<pdfrwt beam="2">  1       -2 0.20856621E-01 0.86634407E+02</pdfrwt>
<totfact> 0.82355530E+04</totfact>
</mgrwt>
</event>
<event>
 5    1  0.1310593E+001  0.9101425E+02  0.7546771E-02  0.1300414E+00
          2   -1    0    0  501    0  0.00000000000E+00  0.00000000000E+00  0.30539554708E+03  0.30539554708E+03  0.00000000000E+00 0. -1.
         -2   -1    0    0    0  501 -0.00000000000E+00 -0.00000000000E+00 -0.67810364176E+01  0.67810364176E+01  0.00000000000E+00 0.  1.
         23    2    1    2    0    0  0.00000000000E+00  0.00000000000E+00  0.29861451067E+03  0.31217658350E+03  0.91014247820E+02 0.  0.
        -11    1    3    3    0    0 -0.40891757569E+02  0.19836429296E+02  0.14142684622E+03  0.14855023594E+03  0.00000000000E+00 0. -1.
         11    1    3    3    0    0  0.40891757569E+02 -0.19836429296E+02  0.15718766444E+03  0.16362634756E+03  0.00000000000E+00 0.  1.
<mgrwt>
<rscale>  0 0.91014248E+02</rscale>
<asrwt>0</asrwt>
<pdfrwt beam="1">  1        2 0.46983920E-01 0.91014248E+02</pdfrwt>
<pdfrwt beam="2">  1       -2 0.10432366E-02 0.91014248E+02</pdfrwt>
<totfact> 0.18171944E+05</totfact>
</mgrwt>
</event>
<event>
 5    1  0.1310593E+001  0.8871625E+02  0.7546771E-02  0.1305991E+00
          1   -1    0    0  501    0  0.00000000000E+00  0.00000000000E+00  0.39535355291E+02  0.39535355291E+02  0.00000000000E+00 0. -1.
         -1   -1    0    0    0  501 -0.00000000000E+00 -0.00000000000E+00 -0.49769206735E+02  0.49769206735E+02  0.00000000000E+00 0.  1.
         23    2    1    2    0    0  0.00000000000E+00  0.00000000000E+00 -0.10233851444E+02  0.89304562025E+02  0.88716250389E+02 0.  0.
        -11    1    3    3    0    0 -0.27304998544E+01  0.36297056946E+02  0.20402942895E+02  0.41727833052E+02  0.00000000000E+00 0. -1.
         11    1    3    3    0    0  0.27304998544E+01 -0.36297056946E+02 -0.30636794339E+02  0.47576728973E+02  0.00000000000E+00 0.  1.
<mgrwt>
<rscale>  0 0.88716250E+02</rscale>
<asrwt>0</asrwt>
<pdfrwt beam="1">  1        1 0.60823624E-02 0.88716250E+02</pdfrwt>
<pdfrwt beam="2">  1       -1 0.76568010E-02 0.88716250E+02</pdfrwt>
<totfact> 0.97754393E+04</totfact>
</mgrwt>
</event>
<event>
 5    1  0.1310593E+001  0.9007951E+02  0.7546771E-02  0.1302659E+00
          1   -1    0    0  501    0  0.00000000000E+00  0.00000000000E+00  0.10415013146E+03  0.10415013146E+03  0.00000000000E+00 0. -1.
         -1   -1    0    0    0  501 -0.00000000000E+00 -0.00000000000E+00 -0.19477455739E+02  0.19477455739E+02  0.00000000000E+00 0.  1.
         23    2    1    2    0    0  0.00000000000E+00  0.00000000000E+00  0.84672675722E+02  0.12362758720E+03  0.90079511007E+02 0.  0.
        -13    1    3    3    0    0 -0.68384931462E+01 -0.30273207554E+02 -0.24592269916E+01  0.31133260053E+02  0.00000000000E+00 0.  1.
         13    1    3    3    0    0  0.68384931462E+01  0.30273207554E+02  0.87131902714E+02  0.92494327148E+02  0.00000000000E+00 0. -1.
<mgrwt>
<rscale>  0 0.90079511E+02</rscale>
<asrwt>0</asrwt>
<pdfrwt beam="1">  1        1 0.16023097E-01 0.90079511E+02</pdfrwt>
<pdfrwt beam="2">  1       -1 0.29965317E-02 0.90079511E+02</pdfrwt>
<totfact> 0.10868351E+05</totfact>
</mgrwt>
</event>
<event>
 5    1  0.1310593E+001  0.9135600E+02  0.7546771E-02  0.1299601E+00
         -1   -1    0    0    0  501 -0.00000000000E+00  0.00000000000E+00  0.11743349224E+03  0.11743349224E+03  0.00000000000E+00 0.  1.
          1   -1    0    0  501    0  0.00000000000E+00 -0.00000000000E+00 -0.17767329617E+02  0.17767329617E+02  0.00000000000E+00 0. -1.
         23    2    1    2    0    0  0.00000000000E+00  0.00000000000E+00  0.99666162621E+02  0.13520082186E+03  0.91355997389E+02 0.  0.
        -11    1    3    3    0    0  0.32354142296E+02  0.29015934818E+02  0.70645210366E+02  0.82942514700E+02  0.00000000000E+00 0.  1.
         11    1    3    3    0    0 -0.32354142296E+02 -0.29015934818E+02  0.29020952256E+02  0.52258307157E+02  0.00000000000E+00 0. -1.
<mgrwt>
<rscale>  0 0.91355997E+02</rscale>
<asrwt>0</asrwt>
<pdfrwt beam="2">  1        1 0.27334354E-02 0.91355997E+02</pdfrwt>
<pdfrwt beam="1">  1       -1 0.18066691E-01 0.91355997E+02</pdfrwt>
<totfact> 0.78477069E+04</totfact>
</mgrwt>
</event>
<event>
 5    1  0.1310593E+001  0.8888165E+02  0.7546771E-02  0.1305583E+00
          1   -1    0    0  501    0  0.00000000000E+00  0.00000000000E+00  0.39624925961E+03  0.39624925961E+03  0.00000000000E+00 0. -1.
         -1   -1    0    0    0  501 -0.00000000000E+00 -0.00000000000E+00 -0.49842030918E+01  0.49842030918E+01  0.00000000000E+00 0.  1.
         23    2    1    2    0    0  0.00000000000E+00  0.00000000000E+00  0.39126505651E+03  0.40123346270E+03  0.88881646809E+02 0.  0.
        -13    1    3    3    0    0 -0.38737062308E+02  0.21663157270E+02  0.20586145680E+03  0.21059152826E+03  0.00000000000E+00 0. -1.
         13    1    3    3    0    0  0.38737062308E+02 -0.21663157270E+02  0.18540359971E+03  0.19064193443E+03  0.00000000000E+00 0.  1.
<mgrwt>
<rscale>  0 0.88881647E+02</rscale>
<asrwt>0</asrwt>
<pdfrwt beam="1">  1        1 0.60961400E-01 0.88881647E+02</pdfrwt>
<pdfrwt beam="2">  1       -1 0.76680079E-03 0.88881647E+02</pdfrwt>
<totfact> 0.14410053E+05</totfact>
</mgrwt>
</event>
<event>
 5    1  0.1310593E+001  0.9199528E+02  0.7546771E-02  0.1298091E+00
         -2   -1    0    0    0  501 -0.00000000000E+00  0.00000000000E+00  0.33394938181E+02  0.33394938181E+02  0.00000000000E+00 0.  1.
          2   -1    0    0  501    0  0.00000000000E+00 -0.00000000000E+00 -0.63356401229E+02  0.63356401229E+02  0.00000000000E+00 0. -1.
         23    2    1    2    0    0  0.00000000000E+00  0.00000000000E+00 -0.29961463048E+02  0.96751339410E+02  0.91995284714E+02 0.  0.
        -11    1    3    3    0    0 -0.18992367306E+02  0.40514993653E+02 -0.37709643158E+01  0.44904285970E+02  0.00000000000E+00 0. -1.
         11    1    3    3    0    0  0.18992367306E+02 -0.40514993653E+02 -0.26190498732E+02  0.51847053440E+02  0.00000000000E+00 0.  1.
<mgrwt>
<rscale>  0 0.91995285E+02</rscale>
<asrwt>0</asrwt>
<pdfrwt beam="2">  1        2 0.97471385E-02 0.91995285E+02</pdfrwt>
<pdfrwt beam="1">  1       -2 0.51376829E-02 0.91995285E+02</pdfrwt>
<totfact> 0.10496189E+05</totfact>
</mgrwt>
</event>
<event>
 5    1  0.1310593E+001  0.8860769E+02  0.7546771E-02  0.1306259E+00
          2   -1    0    0  501    0  0.00000000000E+00  0.00000000000E+00  0.13077158727E+02  0.13077158727E+02  0.00000000000E+00 0. -1.
         -2   -1    0    0    0  501 -0.00000000000E+00 -0.00000000000E+00 -0.15009611089E+03  0.15009611089E+03  0.00000000000E+00 0.  1.
         23    2    1    2    0    0  0.00000000000E+00  0.00000000000E+00 -0.13701895216E+03  0.16317326962E+03  0.88607689652E+02 0.  0.
        -11    1    3    3    0    0  0.20356274770E+02  0.19457173278E+02 -0.13149585171E+03  0.13447720450E+03  0.00000000000E+00 0.  1.
         11    1    3    3    0    0 -0.20356274770E+02 -0.19457173278E+02 -0.55231004576E+01  0.28696065116E+02  0.00000000000E+00 0. -1.
<mgrwt>
<rscale>  0 0.88607690E+02</rscale>
<asrwt>0</asrwt>
<pdfrwt beam="1">  1        2 0.20118707E-02 0.88607690E+02</pdfrwt>
<pdfrwt beam="2">  1       -2 0.23091708E-01 0.88607690E+02</pdfrwt>
<totfact> 0.75075994E+04</totfact>
</mgrwt>
</event>
<event>
 5    1  0.1310593E+001  0.9156846E+02  0.7546771E-02  0.1299097E+00
         -4   -1    0    0    0  501 -0.00000000000E+00  0.00000000000E+00  0.18775564778E+02  0.18775564778E+02  0.00000000000E+00 0.  1.
          4   -1    0    0  501    0  0.00000000000E+00 -0.00000000000E+00 -0.11164487124E+03  0.11164487124E+03  0.00000000000E+00 0. -1.
         23    2    1    2    0    0  0.00000000000E+00  0.00000000000E+00 -0.92869306460E+02  0.13042043602E+03  0.91568455532E+02 0.  0.
        -13    1    3    3    0    0  0.39935844377E+02  0.22371183360E+02 -0.47750874718E+02  0.66147468186E+02  0.00000000000E+00 0.  1.
         13    1    3    3    0    0 -0.39935844377E+02 -0.22371183360E+02 -0.45118431742E+02  0.64272967831E+02  0.00000000000E+00 0. -1.
<mgrwt>
<rscale>  0 0.91568456E+02</rscale>
<asrwt>0</asrwt>
<pdfrwt beam="2">  1        4 0.17176135E-01 0.91568456E+02</pdfrwt>
<pdfrwt beam="1">  1       -4 0.28885483E-02 0.91568456E+02</pdfrwt>
<totfact> 0.24410520E+04</totfact>
</mgrwt>
</event>
<event>
 5    1  0.1310593E+001  0.9863228E+02  0.7546771E-02  0.1283199E+00
         -2   -1    0    0    0  501 -0.00000000000E+00  0.00000000000E+00  0.12982369737E+02  0.12982369737E+02  0.00000000000E+00 0.  1.
          2   -1    0    0  501    0  0.00000000000E+00 -0.00000000000E+00 -0.18733724910E+03  0.18733724910E+03  0.00000000000E+00 0. -1.
         23    2    1    2    0    0  0.00000000000E+00  0.00000000000E+00 -0.17435487936E+03  0.20031961884E+03  0.98632275312E+02 0.  0.
        -13    1    3    3    0    0 -0.38815271994E+02 -0.10100888148E+02 -0.28897742198E+02  0.49434125718E+02  0.00000000000E+00 0.  1.
         13    1    3    3    0    0  0.38815271994E+02  0.10100888148E+02 -0.14545713716E+03  0.15088549312E+03  0.00000000000E+00 0. -1.
<mgrwt>
<rscale>  0 0.98632275E+02</rscale>
<asrwt>0</asrwt>
<pdfrwt beam="2">  1        2 0.28821112E-01 0.98632275E+02</pdfrwt>
<pdfrwt beam="1">  1       -2 0.19972879E-02 0.98632275E+02</pdfrwt>
<totfact> 0.12208373E+05</totfact>
</mgrwt>
</event>
<event>
 5    1  0.1310593E+001  0.9057723E+02  0.7546771E-02  0.1301460E+00
         -3   -1    0    0    0  501 -0.00000000000E+00  0.00000000000E+00  0.27451808935E+02  0.27451808935E+02  0.00000000000E+00 0.  1.
          3   -1    0    0  501    0  0.00000000000E+00 -0.00000000000E+00 -0.74714886921E+02  0.74714886921E+02  0.00000000000E+00 0. -1.
         23    2    1    2    0    0  0.00000000000E+00  0.00000000000E+00 -0.47263077986E+02  0.10216669586E+03  0.90577233350E+02 0.  0.
        -11    1    3    3    0    0 -0.20856441822E+02 -0.21967007084E+02 -0.61607130967E+02  0.68651140935E+02  0.00000000000E+00 0. -1.
         11    1    3    3    0    0  0.20856441822E+02  0.21967007084E+02  0.14344052981E+02  0.33515554921E+02  0.00000000000E+00 0.  1.
<mgrwt>
<rscale>  0 0.90577233E+02</rscale>
<asrwt>0</asrwt>
<pdfrwt beam="2">  1        3 0.11494598E-01 0.90577233E+02</pdfrwt>
<pdfrwt beam="1">  1       -3 0.42233553E-02 0.90577233E+02</pdfrwt>
<totfact> 0.35135711E+04</totfact>
</mgrwt>
</event>
<event>
 5    1  0.1310593E+001  0.9021623E+02  0.7546771E-02  0.1302329E+00
         -1   -1    0    0    0  501 -0.00000000000E+00  0.00000000000E+00  0.27390597919E+02  0.27390597919E+02  0.00000000000E+00 0.  1.
          1   -1    0    0  501    0  0.00000000000E+00 -0.00000000000E+00 -0.74286153856E+02  0.74286153856E+02  0.00000000000E+00 0. -1.
         23    2    1    2    0    0  0.00000000000E+00  0.00000000000E+00 -0.46895555937E+02  0.10167675178E+03  0.90216232935E+02 0.  0.
        -11    1    3    3    0    0  0.30549314599E+02  0.27973127189E+02 -0.43576795804E+02  0.60122321975E+02  0.00000000000E+00 0. -1.
         11    1    3    3    0    0 -0.30549314599E+02 -0.27973127189E+02 -0.33187601331E+01  0.41554429800E+02  0.00000000000E+00 0.  1.
<mgrwt>
<rscale>  0 0.90216233E+02</rscale>
<asrwt>0</asrwt>
<pdfrwt beam="2">  1        1 0.11428639E-01 0.90216233E+02</pdfrwt>
<pdfrwt beam="1">  1       -1 0.42139382E-02 0.90216233E+02</pdfrwt>
<totfact> 0.10252160E+05</totfact>
</mgrwt>
</event>
<event>
 5    1  0.1310593E+001  0.9248164E+02  0.7546771E-02  0.1296951E+00
         -1   -1    0    0    0  501 -0.00000000000E+00  0.00000000000E+00  0.65181705144E+01  0.65181705144E+01  0.00000000000E+00 0.  1.
          1   -1    0    0  501    0  0.00000000000E+00 -0.00000000000E+00 -0.32803890113E+03  0.32803890113E+03  0.00000000000E+00 0. -1.
         23    2    1    2    0    0  0.00000000000E+00  0.00000000000E+00 -0.32152073062E+03  0.33455707165E+03  0.92481641269E+02 0.  0.
        -11    1    3    3    0    0  0.31630505071E+02 -0.26466204767E+02 -0.85114208508E+02  0.94580004947E+02  0.00000000000E+00 0.  1.
         11    1    3    3    0    0 -0.31630505071E+02  0.26466204767E+02 -0.23640652211E+03  0.23997706670E+03  0.00000000000E+00 0. -1.
<mgrwt>
<rscale>  0 0.92481641E+02</rscale>
<asrwt>0</asrwt>
<pdfrwt beam="2">  1        1 0.50467521E-01 0.92481641E+02</pdfrwt>
<pdfrwt beam="1">  1       -1 0.10027955E-02 0.92481641E+02</pdfrwt>
<totfact> 0.12544834E+05</totfact>
</mgrwt>
</event>
<event>
 5    1  0.1310593E+001  0.8844747E+02  0.7546771E-02  0.1306656E+00
         -1   -1    0    0    0  501 -0.00000000000E+00  0.00000000000E+00  0.12825315308E+02  0.12825315308E+02  0.00000000000E+00 0.  1.
          1   -1    0    0  501    0  0.00000000000E+00 -0.00000000000E+00 -0.15249049998E+03  0.15249049998E+03  0.00000000000E+00 0. -1.
         23    2    1    2    0    0  0.00000000000E+00  0.00000000000E+00 -0.13966518467E+03  0.16531581529E+03  0.88447470143E+02 0.  0.
        -11    1    3    3    0    0  0.14630433399E+02 -0.37718982098E+02 -0.10321381506E+03  0.11085965366E+03  0.00000000000E+00 0.  1.
         11    1    3    3    0    0 -0.14630433399E+02  0.37718982098E+02 -0.36451369615E+02  0.54456161623E+02  0.00000000000E+00 0. -1.
<mgrwt>
<rscale>  0 0.88447470E+02</rscale>
<asrwt>0</asrwt>
<pdfrwt beam="2">  1        1 0.23460075E-01 0.88447470E+02</pdfrwt>
<pdfrwt beam="1">  1       -1 0.19731256E-02 0.88447470E+02</pdfrwt>
<totfact> 0.12205468E+05</totfact>
</mgrwt>
</event>
<event>
 5    1  0.1310593E+001  0.9166639E+02  0.7546771E-02  0.1298866E+00
         -1   -1    0    0    0  501 -0.00000000000E+00  0.00000000000E+00  0.69795875339E+02  0.69795875339E+02  0.00000000000E+00 0.  1.
          1   -1    0    0  501    0  0.00000000000E+00 -0.00000000000E+00 -0.30097507191E+02  0.30097507191E+02  0.00000000000E+00 0. -1.
         23    2    1    2    0    0  0.00000000000E+00  0.00000000000E+00  0.39698368148E+02  0.99893382530E+02  0.91666392094E+02 0.  0.
        -11    1    3    3    0    0 -0.15365405915E+02 -0.21301900679E+01 -0.27149825875E+02  0.31268937521E+02  0.00000000000E+00 0. -1.
         11    1    3    3    0    0  0.15365405915E+02  0.21301900679E+01  0.66848194023E+02  0.68624445009E+02  0.00000000000E+00 0.  1.
<mgrwt>
<rscale>  0 0.91666392E+02</rscale>
<asrwt>0</asrwt>
<pdfrwt beam="2">  1        1 0.46303857E-02 0.91666392E+02</pdfrwt>
<pdfrwt beam="1">  1       -1 0.10737827E-01 0.91666392E+02</pdfrwt>
<totfact> 0.85405049E+04</totfact>
</mgrwt>
</event>
<event>
 5    1  0.1310593E+001  0.1004226E+03  0.7546771E-02  0.1279410E+00
          2   -1    0    0  501    0  0.00000000000E+00  0.00000000000E+00  0.20518490505E+02  0.20518490505E+02  0.00000000000E+00 0. -1.
         -2   -1    0    0    0  501 -0.00000000000E+00 -0.00000000000E+00 -0.12287331467E+03  0.12287331467E+03  0.00000000000E+00 0.  1.
         23    2    1    2    0    0  0.00000000000E+00  0.00000000000E+00 -0.10235482417E+03  0.14339180518E+03  0.10042260583E+03 0.  0.
        -11    1    3    3    0    0 -0.33510604201E+02  0.83208793276E+01 -0.10323111502E+03  0.10885247235E+03  0.00000000000E+00 0.  1.
         11    1    3    3    0    0  0.33510604201E+02 -0.83208793276E+01  0.87629085726E+00  0.34539332831E+02  0.00000000000E+00 0. -1.
<mgrwt>
<rscale>  0 0.10042261E+03</rscale>
<asrwt>0</asrwt>
<pdfrwt beam="1">  1        2 0.31566908E-02 0.10042261E+03</pdfrwt>
<pdfrwt beam="2">  1       -2 0.18903587E-01 0.10042261E+03</pdfrwt>
<totfact> 0.58711484E+04</totfact>
</mgrwt>
</event>
<event>
 5    1  0.1310593E+001  0.9030912E+02  0.7546771E-02  0.1302105E+00
         -2   -1    0    0    0  501 -0.00000000000E+00  0.00000000000E+00  0.16850730185E+03  0.16850730185E+03  0.00000000000E+00 0.  1.
          2   -1    0    0  501    0  0.00000000000E+00 -0.00000000000E+00 -0.12099974739E+02  0.12099974739E+02  0.00000000000E+00 0. -1.
         23    2    1    2    0    0  0.00000000000E+00  0.00000000000E+00  0.15640732711E+03  0.18060727659E+03  0.90309115726E+02 0.  0.
        -13    1    3    3    0    0 -0.58149240252E+00  0.43815110001E+02  0.10000436846E+03  0.10918322082E+03  0.00000000000E+00 0.  1.
         13    1    3    3    0    0  0.58149240252E+00 -0.43815110001E+02  0.56402958653E+02  0.71424055770E+02  0.00000000000E+00 0. -1.
<mgrwt>
<rscale>  0 0.90309116E+02</rscale>
<asrwt>0</asrwt>
<pdfrwt beam="2">  1        2 0.18615347E-02 0.90309116E+02</pdfrwt>
<pdfrwt beam="1">  1       -2 0.25924199E-01 0.90309116E+02</pdfrwt>
<totfact> 0.68506781E+04</totfact>
</mgrwt>
</event>
<event>
 5    1  0.1310593E+001  0.9662973E+02  0.7546771E-02  0.1287547E+00
         -1   -1    0    0    0  501 -0.00000000000E+00  0.00000000000E+00  0.16264555851E+02  0.16264555851E+02  0.00000000000E+00 0.  1.
          1   -1    0    0  501    0  0.00000000000E+00 -0.00000000000E+00 -0.14352227636E+03  0.14352227636E+03  0.00000000000E+00 0. -1.
         23    2    1    2    0    0  0.00000000000E+00  0.00000000000E+00 -0.12725772051E+03  0.15978683221E+03  0.96629727925E+02 0.  0.
        -11    1    3    3    0    0 -0.44845249487E+02  0.66177236297E+01 -0.35986765503E+02  0.57878648559E+02  0.00000000000E+00 0.  1.
         11    1    3    3    0    0  0.44845249487E+02 -0.66177236297E+01 -0.91270955003E+02  0.10190818365E+03  0.00000000000E+00 0. -1.
<mgrwt>
<rscale>  0 0.96629728E+02</rscale>
<asrwt>0</asrwt>
<pdfrwt beam="2">  1        1 0.22080351E-01 0.96629728E+02</pdfrwt>
<pdfrwt beam="1">  1       -1 0.25022392E-02 0.96629728E+02</pdfrwt>
<totfact> 0.95020574E+04</totfact>
</mgrwt>
</event>
<event>
 5    1  0.1310593E+001  0.8763721E+02  0.7546771E-02  0.1308677E+00
          1   -1    0    0  501    0  0.00000000000E+00  0.00000000000E+00  0.24093397909E+03  0.24093397909E+03  0.00000000000E+00 0. -1.
         -1   -1    0    0    0  501 -0.00000000000E+00 -0.00000000000E+00 -0.79692797971E+01  0.79692797971E+01  0.00000000000E+00 0.  1.
         23    2    1    2    0    0  0.00000000000E+00  0.00000000000E+00  0.23296469929E+03  0.24890325888E+03  0.87637213374E+02 0.  0.
        -13    1    3    3    0    0  0.32971977024E+02  0.14402421926E+02  0.18751400792E+03  0.19093476423E+03  0.00000000000E+00 0. -1.
         13    1    3    3    0    0 -0.32971977024E+02 -0.14402421926E+02  0.45450691370E+02  0.57968494652E+02  0.00000000000E+00 0.  1.
<mgrwt>
<rscale>  0 0.87637213E+02</rscale>
<asrwt>0</asrwt>
<pdfrwt beam="1">  1        1 0.37066760E-01 0.87637213E+02</pdfrwt>
<pdfrwt beam="2">  1       -1 0.12260432E-02 0.87637213E+02</pdfrwt>
<totfact> 0.13645172E+05</totfact>
</mgrwt>
</event>
<event>
 4    1  0.1310593E+001  0.3671164E+02  0.7546771E-02  0.1533906E+00
          2   -1    0    0  501    0  0.00000000000E+00  0.00000000000E+00  0.35500777286E+01  0.35500777286E+01  0.00000000000E+00 0.  1.
         -2   -1    0    0    0  501 -0.00000000000E+00 -0.00000000000E+00 -0.94909513027E+02  0.94909513027E+02  0.00000000000E+00 0. -1.
        -11    1    1    2    0    0  0.12920730522E+02 -0.84802408464E+01 -0.72240230416E+02  0.73874966346E+02  0.00000000000E+00 0. -1.
         11    1    1    2    0    0 -0.12920730522E+02  0.84802408464E+01 -0.19119204883E+02  0.24584624410E+02  0.00000000000E+00 0.  1.
<mgrwt>
<rscale>  0 0.36711641E+02</rscale>
<asrwt>0</asrwt>
<pdfrwt beam="1">  1        2 0.54616574E-03 0.36711641E+02</pdfrwt>
<pdfrwt beam="2">  1       -2 0.14601465E-01 0.36711641E+02</pdfrwt>
<totfact> 0.75213290E+05</totfact>
</mgrwt>
</event>
<event>
 5    1  0.1310593E+001  0.9133637E+02  0.7546771E-02  0.1299647E+00
          1   -1    0    0  501    0  0.00000000000E+00  0.00000000000E+00  0.24502569558E+02  0.24502569558E+02  0.00000000000E+00 0. -1.
         -1   -1    0    0    0  501 -0.00000000000E+00 -0.00000000000E+00 -0.85116919894E+02  0.85116919894E+02  0.00000000000E+00 0.  1.
         23    2    1    2    0    0  0.00000000000E+00  0.00000000000E+00 -0.60614350336E+02  0.10961948945E+03  0.91336372826E+02 0.  0.
        -13    1    3    3    0    0 -0.34252918132E+02  0.19588086499E+02 -0.27129007199E+01  0.39551426820E+02  0.00000000000E+00 0. -1.
         13    1    3    3    0    0  0.34252918132E+02 -0.19588086499E+02 -0.57901449617E+02  0.70068062631E+02  0.00000000000E+00 0.  1.
<mgrwt>
<rscale>  0 0.91336373E+02</rscale>
<asrwt>0</asrwt>
<pdfrwt beam="1">  1        1 0.37696262E-02 0.91336373E+02</pdfrwt>
<pdfrwt beam="2">  1       -1 0.13094910E-01 0.91336373E+02</pdfrwt>
<totfact> 0.83382250E+04</totfact>
</mgrwt>
</event>
<event>
 5    1  0.1310593E+001  0.8900267E+02  0.7546771E-02  0.1305285E+00
         -2   -1    0    0    0  501 -0.00000000000E+00  0.00000000000E+00  0.79376509744E+01  0.79376509744E+01  0.00000000000E+00 0.  1.
          2   -1    0    0  501    0  0.00000000000E+00 -0.00000000000E+00 -0.24949053077E+03  0.24949053077E+03  0.00000000000E+00 0. -1.
         23    2    1    2    0    0  0.00000000000E+00  0.00000000000E+00 -0.24155287979E+03  0.25742818174E+03  0.89002668604E+02 0.  0.
        -11    1    3    3    0    0 -0.43202757952E+02 -0.14677235128E+01 -0.90202591895E+02  0.10002569716E+03  0.00000000000E+00 0. -1.
         11    1    3    3    0    0  0.43202757952E+02  0.14677235128E+01 -0.15135028790E+03  0.15740248458E+03  0.00000000000E+00 0.  1.
<mgrwt>
<rscale>  0 0.89002669E+02</rscale>
<asrwt>0</asrwt>
<pdfrwt beam="2">  1        2 0.38383163E-01 0.89002669E+02</pdfrwt>
<pdfrwt beam="1">  1       -2 0.12211769E-02 0.89002669E+02</pdfrwt>
<totfact> 0.17891064E+05</totfact>
</mgrwt>
</event>
<event>
 5    1  0.1310593E+001  0.9420876E+02  0.7546771E-02  0.1292968E+00
         -1   -1    0    0    0  501 -0.00000000000E+00  0.00000000000E+00  0.12540018372E+03  0.12540018372E+03  0.00000000000E+00 0.  1.
          1   -1    0    0  501    0  0.00000000000E+00 -0.00000000000E+00 -0.17693932543E+02  0.17693932543E+02  0.00000000000E+00 0. -1.
         23    2    1    2    0    0  0.00000000000E+00  0.00000000000E+00  0.10770625118E+03  0.14309411626E+03  0.94208755255E+02 0.  0.
        -11    1    3    3    0    0 -0.40964997032E+02  0.15825895717E+02  0.79729503407E+02  0.91024082916E+02  0.00000000000E+00 0.  1.
         11    1    3    3    0    0  0.40964997032E+02 -0.15825895717E+02  0.27976747769E+02  0.52070033348E+02  0.00000000000E+00 0. -1.
<mgrwt>
<rscale>  0 0.94208755E+02</rscale>
<asrwt>0</asrwt>
<pdfrwt beam="2">  1        1 0.27221435E-02 0.94208755E+02</pdfrwt>
<pdfrwt beam="1">  1       -1 0.19292335E-01 0.94208755E+02</pdfrwt>
<totfact> 0.71492649E+04</totfact>
</mgrwt>
</event>
<event>
 5    1  0.1310593E+001  0.9110118E+02  0.7546771E-02  0.1300207E+00
         -1   -1    0    0    0  501 -0.00000000000E+00  0.00000000000E+00  0.29519083271E+02  0.29519083271E+02  0.00000000000E+00 0.  1.
          1   -1    0    0  501    0  0.00000000000E+00 -0.00000000000E+00 -0.70288635538E+02  0.70288635538E+02  0.00000000000E+00 0. -1.
         23    2    1    2    0    0  0.00000000000E+00  0.00000000000E+00 -0.40769552266E+02  0.99807718809E+02  0.91101176403E+02 0.  0.
        -11    1    3    3    0    0 -0.13471315297E+02  0.34822574029E+02 -0.48969877656E+02  0.61580328965E+02  0.00000000000E+00 0. -1.
         11    1    3    3    0    0  0.13471315297E+02 -0.34822574029E+02  0.82003253892E+01  0.38227389844E+02  0.00000000000E+00 0.  1.
<mgrwt>
<rscale>  0 0.91101176E+02</rscale>
<asrwt>0</asrwt>
<pdfrwt beam="2">  1        1 0.10813636E-01 0.91101176E+02</pdfrwt>
<pdfrwt beam="1">  1       -1 0.45413975E-02 0.91101176E+02</pdfrwt>
<totfact> 0.98956161E+04</totfact>
</mgrwt>
</event>
<event>
 5    1  0.1310593E+001  0.8201152E+02  0.7546771E-02  0.1323438E+00
         -1   -1    0    0    0  501 -0.00000000000E+00  0.00000000000E+00  0.32052634606E+02  0.32052634606E+02  0.00000000000E+00 0.  1.
          1   -1    0    0  501    0  0.00000000000E+00 -0.00000000000E+00 -0.52459729761E+02  0.52459729761E+02  0.00000000000E+00 0. -1.
         23    2    1    2    0    0  0.00000000000E+00  0.00000000000E+00 -0.20407095155E+02  0.84512364367E+02  0.82011524789E+02 0.  0.
        -13    1    3    3    0    0  0.32568755057E+02  0.22029708675E+02 -0.22196329237E+02  0.45152064204E+02  0.00000000000E+00 0. -1.
         13    1    3    3    0    0 -0.32568755057E+02 -0.22029708675E+02  0.17892340821E+01  0.39360300163E+02  0.00000000000E+00 0.  1.
<mgrwt>
<rscale>  0 0.82011525E+02</rscale>
<asrwt>0</asrwt>
<pdfrwt beam="2">  1        1 0.80707276E-02 0.82011525E+02</pdfrwt>
<pdfrwt beam="1">  1       -1 0.49311746E-02 0.82011525E+02</pdfrwt>
<totfact> 0.12657871E+05</totfact>
</mgrwt>
</event>
<event>
 5    1  0.1310593E+001  0.9823376E+02  0.7546771E-02  0.1284055E+00
         -2   -1    0    0    0  501 -0.00000000000E+00  0.00000000000E+00  0.14792354927E+03  0.14792354927E+03  0.00000000000E+00 0.  1.
          2   -1    0    0  501    0  0.00000000000E+00 -0.00000000000E+00 -0.16308882976E+02  0.16308882976E+02  0.00000000000E+00 0. -1.
         23    2    1    2    0    0  0.00000000000E+00  0.00000000000E+00  0.13161466629E+03  0.16423243224E+03  0.98233759052E+02 0.  0.
        -11    1    3    3    0    0 -0.17275855076E+01 -0.25078188366E+02  0.13635414884E+03  0.13865191665E+03  0.00000000000E+00 0.  1.
         11    1    3    3    0    0  0.17275855076E+01  0.25078188366E+02 -0.47394825490E+01  0.25580515598E+02  0.00000000000E+00 0. -1.
<mgrwt>
<rscale>  0 0.98233759E+02</rscale>
<asrwt>0</asrwt>
<pdfrwt beam="2">  1        2 0.25090590E-02 0.98233759E+02</pdfrwt>
<pdfrwt beam="1">  1       -2 0.22757468E-01 0.98233759E+02</pdfrwt>
<totfact> 0.58130362E+04</totfact>
</mgrwt>
</event>
<event>
 5    1  0.1310593E+001  0.9753072E+02  0.7546771E-02  0.1285576E+00
         -1   -1    0    0    0  501 -0.00000000000E+00  0.00000000000E+00  0.16476839349E+03  0.16476839349E+03  0.00000000000E+00 0.  1.
          1   -1    0    0  501    0  0.00000000000E+00 -0.00000000000E+00 -0.14432747169E+02  0.14432747169E+02  0.00000000000E+00 0. -1.
         23    2    1    2    0    0  0.00000000000E+00  0.00000000000E+00  0.15033564632E+03  0.17920114066E+03  0.97530724691E+02 0.  0.
        -11    1    3    3    0    0  0.38812703578E+02  0.17471146731E+02  0.11889571112E+03  0.12628482510E+03  0.00000000000E+00 0.  1.
         11    1    3    3    0    0 -0.38812703578E+02 -0.17471146731E+02  0.31439935199E+02  0.52916315560E+02  0.00000000000E+00 0. -1.
<mgrwt>
<rscale>  0 0.97530725E+02</rscale>
<asrwt>0</asrwt>
<pdfrwt beam="2">  1        1 0.22204228E-02 0.97530725E+02</pdfrwt>
<pdfrwt beam="1">  1       -1 0.25348982E-01 0.97530725E+02</pdfrwt>
<totfact> 0.61342622E+04</totfact>
</mgrwt>
</event>
<event>
 5    1  0.1310593E+001  0.9035942E+02  0.7546771E-02  0.1301984E+00
          1   -1    0    0  501    0  0.00000000000E+00  0.00000000000E+00  0.17438180051E+02  0.17438180051E+02  0.00000000000E+00 0. -1.
         -1   -1    0    0    0  501 -0.00000000000E+00 -0.00000000000E+00 -0.11705385337E+03  0.11705385337E+03  0.00000000000E+00 0.  1.
         23    2    1    2    0    0  0.00000000000E+00  0.00000000000E+00 -0.99615673315E+02  0.13449203342E+03  0.90359419446E+02 0.  0.
        -13    1    3    3    0    0  0.26021345029E+02 -0.15778609090E+02 -0.10443359304E+00  0.30431657995E+02  0.00000000000E+00 0. -1.
         13    1    3    3    0    0 -0.26021345029E+02  0.15778609090E+02 -0.99511239722E+02  0.10406037542E+03  0.00000000000E+00 0.  1.
<mgrwt>
<rscale>  0 0.90359419E+02</rscale>
<asrwt>0</asrwt>
<pdfrwt beam="1">  1        1 0.26827970E-02 0.90359419E+02</pdfrwt>
<pdfrwt beam="2">  1       -1 0.18008285E-01 0.90359419E+02</pdfrwt>
<totfact> 0.80784717E+04</totfact>
</mgrwt>
</event>
<event>
 5    1  0.1310593E+001  0.9092510E+02  0.7546771E-02  0.1300627E+00
         -1   -1    0    0    0  501 -0.00000000000E+00  0.00000000000E+00  0.10900452440E+03  0.10900452440E+03  0.00000000000E+00 0.  1.
          1   -1    0    0  501    0  0.00000000000E+00 -0.00000000000E+00 -0.18961079412E+02  0.18961079412E+02  0.00000000000E+00 0. -1.
         23    2    1    2    0    0  0.00000000000E+00  0.00000000000E+00  0.90043444988E+02  0.12796560381E+03  0.90925099801E+02 0.  0.
        -11    1    3    3    0    0 -0.40909256012E+02 -0.11122023404E+02  0.68129103745E+02  0.80242391597E+02  0.00000000000E+00 0. -1.
         11    1    3    3    0    0  0.40909256012E+02  0.11122023404E+02  0.21914341243E+02  0.47723212216E+02  0.00000000000E+00 0.  1.
<mgrwt>
<rscale>  0 0.90925100E+02</rscale>
<asrwt>0</asrwt>
<pdfrwt beam="2">  1        1 0.29170892E-02 0.90925100E+02</pdfrwt>
<pdfrwt beam="1">  1       -1 0.16769926E-01 0.90925100E+02</pdfrwt>
<totfact> 0.80622030E+04</totfact>
</mgrwt>
</event>
<event>
 5    1  0.1310593E+001  0.9126092E+02  0.7546771E-02  0.1299827E+00
          2   -1    0    0  501    0  0.00000000000E+00  0.00000000000E+00  0.29637048842E+03  0.29637048842E+03  0.00000000000E+00 0. -1.
         -2   -1    0    0    0  501 -0.00000000000E+00 -0.00000000000E+00 -0.70254588840E+01  0.70254588840E+01  0.00000000000E+00 0.  1.
         23    2    1    2    0    0  0.00000000000E+00  0.00000000000E+00  0.28934502954E+03  0.30339594731E+03  0.91260915639E+02 0.  0.
        -13    1    3    3    0    0  0.32946961543E+02  0.31343159968E+02  0.15721898502E+03  0.16366338993E+03  0.00000000000E+00 0. -1.
         13    1    3    3    0    0 -0.32946961543E+02 -0.31343159968E+02  0.13212604451E+03  0.13973255737E+03  0.00000000000E+00 0.  1.
<mgrwt>
<rscale>  0 0.91260916E+02</rscale>
<asrwt>0</asrwt>
<pdfrwt beam="1">  1        2 0.45595450E-01 0.91260916E+02</pdfrwt>
<pdfrwt beam="2">  1       -2 0.10808401E-02 0.91260916E+02</pdfrwt>
<totfact> 0.17840770E+05</totfact>
</mgrwt>
</event>
<event>
 5    1  0.1310593E+001  0.9060105E+02  0.7546771E-02  0.1301403E+00
          1   -1    0    0  501    0  0.00000000000E+00  0.00000000000E+00  0.80527688654E+01  0.80527688654E+01  0.00000000000E+00 0. -1.
         -1   -1    0    0    0  501 -0.00000000000E+00 -0.00000000000E+00 -0.25483625449E+03  0.25483625449E+03  0.00000000000E+00 0.  1.
         23    2    1    2    0    0  0.00000000000E+00  0.00000000000E+00 -0.24678348562E+03  0.26288902335E+03  0.90601047586E+02 0.  0.
        -11    1    3    3    0    0 -0.19061895990E+02 -0.41077274603E+02 -0.11991091160E+03  0.12817692885E+03  0.00000000000E+00 0.  1.
         11    1    3    3    0    0  0.19061895990E+02  0.41077274603E+02 -0.12687257402E+03  0.13471209451E+03  0.00000000000E+00 0. -1.
<mgrwt>
<rscale>  0 0.90601048E+02</rscale>
<asrwt>0</asrwt>
<pdfrwt beam="1">  1        1 0.12388874E-02 0.90601048E+02</pdfrwt>
<pdfrwt beam="2">  1       -1 0.39205582E-01 0.90601048E+02</pdfrwt>
<totfact> 0.65415479E+04</totfact>
</mgrwt>
</event>
<event>
 5    1  0.1310593E+001  0.9119143E+02  0.7546771E-02  0.1299992E+00
         -1   -1    0    0    0  501 -0.00000000000E+00  0.00000000000E+00  0.22236612558E+02  0.22236612558E+02  0.00000000000E+00 0.  1.
          1   -1    0    0  501    0  0.00000000000E+00 -0.00000000000E+00 -0.93493069142E+02  0.93493069142E+02  0.00000000000E+00 0. -1.
         23    2    1    2    0    0  0.00000000000E+00  0.00000000000E+00 -0.71256456584E+02  0.11572968170E+03  0.91191428444E+02 0.  0.
        -11    1    3    3    0    0  0.43117846463E+02 -0.10545531701E+02 -0.22402179784E+02  0.49721369466E+02  0.00000000000E+00 0.  1.
         11    1    3    3    0    0 -0.43117846463E+02  0.10545531701E+02 -0.48854276800E+02  0.66008312235E+02  0.00000000000E+00 0. -1.
<mgrwt>
<rscale>  0 0.91191428E+02</rscale>
<asrwt>0</asrwt>
<pdfrwt beam="2">  1        1 0.14383549E-01 0.91191428E+02</pdfrwt>
<pdfrwt beam="1">  1       -1 0.34210173E-02 0.91191428E+02</pdfrwt>
<totfact> 0.10325391E+05</totfact>
</mgrwt>
</event>
<event>
 5    1  0.1310593E+001  0.8860436E+02  0.7546771E-02  0.1306267E+00
         -4   -1    0    0    0  501 -0.00000000000E+00  0.00000000000E+00  0.60922882149E+01  0.60922882149E+01  0.00000000000E+00 0.  1.
          4   -1    0    0  501    0  0.00000000000E+00 -0.00000000000E+00 -0.32215858494E+03  0.32215858494E+03  0.00000000000E+00 0. -1.
         23    2    1    2    0    0  0.00000000000E+00  0.00000000000E+00 -0.31606629673E+03  0.32825087316E+03  0.88604355432E+02 0.  0.
        -13    1    3    3    0    0 -0.27099930810E+02 -0.34770242790E+02 -0.17431138215E+03  0.17979942708E+03  0.00000000000E+00 0.  1.
         13    1    3    3    0    0  0.27099930810E+02  0.34770242790E+02 -0.14175491458E+03  0.14845144607E+03  0.00000000000E+00 0. -1.
<mgrwt>
<rscale>  0 0.88604355E+02</rscale>
<asrwt>0</asrwt>
<pdfrwt beam="2">  1        4 0.49562872E-01 0.88604355E+02</pdfrwt>
<pdfrwt beam="1">  1       -4 0.93727486E-03 0.88604355E+02</pdfrwt>
<totfact> 0.18327954E+04</totfact>
</mgrwt>
</event>
<event>
 5    1  0.1310593E+001  0.8613421E+02  0.7546771E-02  0.1312493E+00
         -1   -1    0    0    0  501 -0.00000000000E+00  0.00000000000E+00  0.39167227741E+02  0.39167227741E+02  0.00000000000E+00 0.  1.
          1   -1    0    0  501    0  0.00000000000E+00 -0.00000000000E+00 -0.47355292747E+02  0.47355292747E+02  0.00000000000E+00 0. -1.
         23    2    1    2    0    0  0.00000000000E+00  0.00000000000E+00 -0.81880650061E+01  0.86522520487E+02  0.86134210062E+02 0.  0.
        -11    1    3    3    0    0  0.15908346035E+01  0.37322901778E+02  0.17432598983E+02  0.41224085911E+02  0.00000000000E+00 0. -1.
         11    1    3    3    0    0 -0.15908346035E+01 -0.37322901778E+02 -0.25620663989E+02  0.45298434577E+02  0.00000000000E+00 0.  1.
<mgrwt>
<rscale>  0 0.86134210E+02</rscale>
<asrwt>0</asrwt>
<pdfrwt beam="2">  1        1 0.72854296E-02 0.86134210E+02</pdfrwt>
<pdfrwt beam="1">  1       -1 0.60257274E-02 0.86134210E+02</pdfrwt>
<totfact> 0.10898178E+05</totfact>
</mgrwt>
</event>
<event>
 5    1  0.1310593E+001  0.9317425E+02  0.7546771E-02  0.1295342E+00
          2   -1    0    0  501    0  0.00000000000E+00  0.00000000000E+00  0.88191049191E+02  0.88191049191E+02  0.00000000000E+00 0. -1.
         -2   -1    0    0    0  501 -0.00000000000E+00 -0.00000000000E+00 -0.24609753629E+02  0.24609753629E+02  0.00000000000E+00 0.  1.
         23    2    1    2    0    0  0.00000000000E+00  0.00000000000E+00  0.63581295562E+02  0.11280080282E+03  0.93174245216E+02 0.  0.
        -13    1    3    3    0    0 -0.31106415694E+02  0.91224220467E+01 -0.87167760044E+01  0.33567988699E+02  0.00000000000E+00 0.  1.
         13    1    3    3    0    0  0.31106415694E+02 -0.91224220467E+01  0.72298071567E+02  0.79232814122E+02  0.00000000000E+00 0. -1.
<mgrwt>
<rscale>  0 0.93174245E+02</rscale>
<asrwt>0</asrwt>
<pdfrwt beam="1">  1        2 0.13567854E-01 0.93174245E+02</pdfrwt>
<pdfrwt beam="2">  1       -2 0.37861160E-02 0.93174245E+02</pdfrwt>
<totfact> 0.11125485E+05</totfact>
</mgrwt>
</event>
<event>
 5    1  0.1310593E+001  0.9443213E+02  0.7546771E-02  0.1292460E+00
          2   -1    0    0  501    0  0.00000000000E+00  0.00000000000E+00  0.23892690469E+03  0.23892690469E+03  0.00000000000E+00 0. -1.
         -2   -1    0    0    0  501 -0.00000000000E+00 -0.00000000000E+00 -0.93307060031E+01  0.93307060031E+01  0.00000000000E+00 0.  1.
         23    2    1    2    0    0  0.00000000000E+00  0.00000000000E+00  0.22959619869E+03  0.24825761070E+03  0.94432128090E+02 0.  0.
        -13    1    3    3    0    0  0.31145666197E+02 -0.17357694605E+02  0.33427247488E+02  0.48874563522E+02  0.00000000000E+00 0.  1.
         13    1    3    3    0    0 -0.31145666197E+02  0.17357694605E+02  0.19616895120E+03  0.19938304717E+03  0.00000000000E+00 0. -1.
<mgrwt>
<rscale>  0 0.94432128E+02</rscale>
<asrwt>0</asrwt>
<pdfrwt beam="1">  1        2 0.36757981E-01 0.94432128E+02</pdfrwt>
<pdfrwt beam="2">  1       -2 0.14354934E-02 0.94432128E+02</pdfrwt>
<totfact> 0.15021881E+05</totfact>
</mgrwt>
</event>
<event>
 5    1  0.1310593E+001  0.9114623E+02  0.7546771E-02  0.1300099E+00
         -2   -1    0    0    0  501 -0.00000000000E+00  0.00000000000E+00  0.16891440878E+02  0.16891440878E+02  0.00000000000E+00 0.  1.
          2   -1    0    0  501    0  0.00000000000E+00 -0.00000000000E+00 -0.12295629564E+03  0.12295629564E+03  0.00000000000E+00 0. -1.
         23    2    1    2    0    0  0.00000000000E+00  0.00000000000E+00 -0.10606485476E+03  0.13984773651E+03  0.91146234114E+02 0.  0.
        -13    1    3    3    0    0 -0.16582741241E+02  0.27245059922E+02 -0.30872560814E+01  0.32043903435E+02  0.00000000000E+00 0.  1.
         13    1    3    3    0    0  0.16582741241E+02 -0.27245059922E+02 -0.10297759868E+03  0.10780383308E+03  0.00000000000E+00 0. -1.
<mgrwt>
<rscale>  0 0.91146234E+02</rscale>
<asrwt>0</asrwt>
<pdfrwt beam="2">  1        2 0.18916353E-01 0.91146234E+02</pdfrwt>
<pdfrwt beam="1">  1       -2 0.25986832E-02 0.91146234E+02</pdfrwt>
<totfact> 0.13100480E+05</totfact>
</mgrwt>
</event>
<event>
 5    1  0.1310593E+001  0.9121319E+02  0.7546771E-02  0.1299940E+00
          1   -1    0    0  501    0  0.00000000000E+00  0.00000000000E+00  0.26780974571E+02  0.26780974571E+02  0.00000000000E+00 0. -1.
         -1   -1    0    0    0  501 -0.00000000000E+00 -0.00000000000E+00 -0.77665639594E+02  0.77665639594E+02  0.00000000000E+00 0.  1.
         23    2    1    2    0    0  0.00000000000E+00  0.00000000000E+00 -0.50884665023E+02  0.10444661417E+03  0.91213190253E+02 0.  0.
        -11    1    3    3    0    0  0.36734567476E+02  0.24045055845E+02 -0.11307713139E+02  0.45337154020E+02  0.00000000000E+00 0. -1.
         11    1    3    3    0    0 -0.36734567476E+02 -0.24045055845E+02 -0.39576951883E+02  0.59109460145E+02  0.00000000000E+00 0.  1.
<mgrwt>
<rscale>  0 0.91213190E+02</rscale>
<asrwt>0</asrwt>
<pdfrwt beam="1">  1        1 0.41201501E-02 0.91213190E+02</pdfrwt>
<pdfrwt beam="2">  1       -1 0.11948559E-01 0.91213190E+02</pdfrwt>
<totfact> 0.84986523E+04</totfact>
</mgrwt>
</event>
<event>
 5    1  0.1310593E+001  0.9063521E+02  0.7546771E-02  0.1301321E+00
         -1   -1    0    0    0  501 -0.00000000000E+00  0.00000000000E+00  0.53692679328E+01  0.53692679328E+01  0.00000000000E+00 0.  1.
          1   -1    0    0  501    0  0.00000000000E+00 -0.00000000000E+00 -0.38248891386E+03  0.38248891386E+03  0.00000000000E+00 0. -1.
         23    2    1    2    0    0  0.00000000000E+00  0.00000000000E+00 -0.37711964593E+03  0.38785818180E+03  0.90635213022E+02 0.  0.
        -13    1    3    3    0    0 -0.43946014644E+02  0.10194509407E+02 -0.17015111548E+03  0.17603006085E+03  0.00000000000E+00 0. -1.
         13    1    3    3    0    0  0.43946014644E+02 -0.10194509407E+02 -0.20696853045E+03  0.21182812094E+03  0.00000000000E+00 0.  1.
<mgrwt>
<rscale>  0 0.90635213E+02</rscale>
<asrwt>0</asrwt>
<pdfrwt beam="2">  1        1 0.58844445E-01 0.90635213E+02</pdfrwt>
<pdfrwt beam="1">  1       -1 0.82604126E-03 0.90635213E+02</pdfrwt>
<totfact> 0.13602187E+05</totfact>
</mgrwt>
</event>
<event>
 5    1  0.1310593E+001  0.8753416E+02  0.7546771E-02  0.1308935E+00
          1   -1    0    0  501    0  0.00000000000E+00  0.00000000000E+00  0.10165881048E+03  0.10165881048E+03  0.00000000000E+00 0. -1.
         -1   -1    0    0    0  501 -0.00000000000E+00 -0.00000000000E+00 -0.18843002687E+02  0.18843002687E+02  0.00000000000E+00 0.  1.
         23    2    1    2    0    0  0.00000000000E+00  0.00000000000E+00  0.82815807789E+02  0.12050181316E+03  0.87534158795E+02 0.  0.
        -13    1    3    3    0    0  0.21899838919E+02 -0.34389301012E+02  0.63318770877E+02  0.75309320234E+02  0.00000000000E+00 0.  1.
         13    1    3    3    0    0 -0.21899838919E+02  0.34389301012E+02  0.19497036912E+02  0.45192492929E+02  0.00000000000E+00 0. -1.
<mgrwt>
<rscale>  0 0.87534159E+02</rscale>
<asrwt>0</asrwt>
<pdfrwt beam="1">  1        1 0.15639817E-01 0.87534159E+02</pdfrwt>
<pdfrwt beam="2">  1       -1 0.28989236E-02 0.87534159E+02</pdfrwt>
<totfact> 0.11700065E+05</totfact>
</mgrwt>
</event>
<event>
 5    1  0.1310593E+001  0.9108888E+02  0.7546771E-02  0.1300236E+00
          4   -1    0    0  501    0  0.00000000000E+00  0.00000000000E+00  0.11226295878E+02  0.11226295878E+02  0.00000000000E+00 0. -1.
         -4   -1    0    0    0  501 -0.00000000000E+00 -0.00000000000E+00 -0.18477118793E+03  0.18477118793E+03  0.00000000000E+00 0.  1.
         23    2    1    2    0    0  0.00000000000E+00  0.00000000000E+00 -0.17354489205E+03  0.19599748381E+03  0.91088880232E+02 0.  0.
        -13    1    3    3    0    0 -0.12551807471E+01  0.44276515716E+02 -0.10957564124E+03  0.11818970545E+03  0.00000000000E+00 0.  1.
         13    1    3    3    0    0  0.12551807471E+01 -0.44276515716E+02 -0.63969250812E+02  0.77807778352E+02  0.00000000000E+00 0. -1.
<mgrwt>
<rscale>  0 0.91088880E+02</rscale>
<asrwt>0</asrwt>
<pdfrwt beam="1">  1        4 0.17271225E-02 0.91088880E+02</pdfrwt>
<pdfrwt beam="2">  1       -4 0.28426335E-01 0.91088880E+02</pdfrwt>
<totfact> 0.21610436E+04</totfact>
</mgrwt>
</event>
<event>
 5    1  0.1310593E+001  0.9083726E+02  0.7546771E-02  0.1300837E+00
         -3   -1    0    0    0  501 -0.00000000000E+00  0.00000000000E+00  0.62341454449E+01  0.62341454449E+01  0.00000000000E+00 0.  1.
          3   -1    0    0  501    0  0.00000000000E+00 -0.00000000000E+00 -0.33089571775E+03  0.33089571775E+03  0.00000000000E+00 0. -1.
         23    2    1    2    0    0  0.00000000000E+00  0.00000000000E+00 -0.32466157231E+03  0.33712986320E+03  0.90837261773E+02 0.  0.
        -13    1    3    3    0    0  0.22801531953E+02 -0.38951747827E+02 -0.14351469381E+03  0.15044472692E+03  0.00000000000E+00 0.  1.
         13    1    3    3    0    0 -0.22801531953E+02  0.38951747827E+02 -0.18114687850E+03  0.18668513628E+03  0.00000000000E+00 0. -1.
<mgrwt>
<rscale>  0 0.90837262E+02</rscale>
<asrwt>0</asrwt>
<pdfrwt beam="2">  1        3 0.50907048E-01 0.90837262E+02</pdfrwt>
<pdfrwt beam="1">  1       -3 0.95909902E-03 0.90837262E+02</pdfrwt>
<totfact> 0.22890049E+04</totfact>
</mgrwt>
</event>
<event>
 5    1  0.1310593E+001  0.9139747E+02  0.7546771E-02  0.1299502E+00
         -2   -1    0    0    0  501 -0.00000000000E+00  0.00000000000E+00  0.39710165766E+02  0.39710165766E+02  0.00000000000E+00 0. -1.
          2   -1    0    0  501    0  0.00000000000E+00 -0.00000000000E+00 -0.52590418284E+02  0.52590418284E+02  0.00000000000E+00 0.  1.
         23    2    1    2    0    0  0.00000000000E+00  0.00000000000E+00 -0.12880252518E+02  0.92300584051E+02  0.91397466656E+02 0.  0.
        -11    1    3    3    0    0 -0.38048086576E+02 -0.24950732937E+02 -0.10745853014E+02  0.46751142480E+02  0.00000000000E+00 0.  1.
         11    1    3    3    0    0  0.38048086576E+02  0.24950732937E+02 -0.21343995042E+01  0.45549441571E+02  0.00000000000E+00 0. -1.
<mgrwt>
<rscale>  0 0.91397467E+02</rscale>
<asrwt>0</asrwt>
<pdfrwt beam="2">  1        2 0.80908336E-02 0.91397467E+02</pdfrwt>
<pdfrwt beam="1">  1       -2 0.61092563E-02 0.91397467E+02</pdfrwt>
<totfact> 0.10172237E+05</totfact>
</mgrwt>
</event>
<event>
 5    1  0.1310593E+001  0.9087877E+02  0.7546771E-02  0.1300737E+00
         -3   -1    0    0    0  501 -0.00000000000E+00  0.00000000000E+00  0.15740242520E+02  0.15740242520E+02  0.00000000000E+00 0.  1.
          3   -1    0    0  501    0  0.00000000000E+00 -0.00000000000E+00 -0.13117571074E+03  0.13117571074E+03  0.00000000000E+00 0. -1.
         23    2    1    2    0    0  0.00000000000E+00  0.00000000000E+00 -0.11543546822E+03  0.14691595326E+03  0.90878765390E+02 0.  0.
        -13    1    3    3    0    0 -0.17988615953E+02 -0.12053146287E+02 -0.12229878968E+03  0.12420089612E+03  0.00000000000E+00 0. -1.
         13    1    3    3    0    0  0.17988615953E+02  0.12053146287E+02  0.68633214624E+01  0.22715057139E+02  0.00000000000E+00 0.  1.
<mgrwt>
<rscale>  0 0.90878765E+02</rscale>
<asrwt>0</asrwt>
<pdfrwt beam="2">  1        3 0.20180878E-01 0.90878765E+02</pdfrwt>
<pdfrwt beam="1">  1       -3 0.24215758E-02 0.90878765E+02</pdfrwt>
<totfact> 0.31777264E+04</totfact>
</mgrwt>
</event>
<event>
 5    1  0.1310593E+001  0.9170715E+02  0.7546771E-02  0.1298769E+00
         -2   -1    0    0    0  501 -0.00000000000E+00  0.00000000000E+00  0.11838242499E+02  0.11838242499E+02  0.00000000000E+00 0.  1.
          2   -1    0    0  501    0  0.00000000000E+00 -0.00000000000E+00 -0.17760662050E+03  0.17760662050E+03  0.00000000000E+00 0. -1.
         23    2    1    2    0    0  0.00000000000E+00  0.00000000000E+00 -0.16576837800E+03  0.18944486300E+03  0.91707147876E+02 0.  0.
        -11    1    3    3    0    0 -0.34776089317E+02 -0.28913259151E+02 -0.98507296120E+02  0.10839299023E+03  0.00000000000E+00 0.  1.
         11    1    3    3    0    0  0.34776089317E+02  0.28913259151E+02 -0.67261081881E+02  0.81051872765E+02  0.00000000000E+00 0. -1.
<mgrwt>
<rscale>  0 0.91707148E+02</rscale>
<asrwt>0</asrwt>
<pdfrwt beam="2">  1        2 0.27324093E-01 0.91707148E+02</pdfrwt>
<pdfrwt beam="1">  1       -2 0.18212682E-02 0.91707148E+02</pdfrwt>
<totfact> 0.14593475E+05</totfact>
</mgrwt>
</event>
<event>
 5    1  0.1310593E+001  0.9200260E+02  0.7546771E-02  0.1298073E+00
          4   -1    0    0  501    0  0.00000000000E+00  0.00000000000E+00  0.18554487318E+03  0.18554487318E+03  0.00000000000E+00 0. -1.
         -4   -1    0    0    0  501 -0.00000000000E+00 -0.00000000000E+00 -0.11404893048E+02  0.11404893048E+02  0.00000000000E+00 0.  1.
         23    2    1    2    0    0  0.00000000000E+00  0.00000000000E+00  0.17413998013E+03  0.19694976623E+03  0.92002596361E+02 0.  0.
        -13    1    3    3    0    0 -0.94727724920E+01 -0.30952101336E+02  0.15704014929E+03  0.16034143096E+03  0.00000000000E+00 0. -1.
         13    1    3    3    0    0  0.94727724920E+01  0.30952101336E+02  0.17099830844E+02  0.36608335263E+02  0.00000000000E+00 0.  1.
<mgrwt>
<rscale>  0 0.92002596E+02</rscale>
<asrwt>0</asrwt>
<pdfrwt beam="1">  1        4 0.28545363E-01 0.92002596E+02</pdfrwt>
<pdfrwt beam="2">  1       -4 0.17545991E-02 0.92002596E+02</pdfrwt>
<totfact> 0.20999871E+04</totfact>
</mgrwt>
</event>
<event>
 5    1  0.1310593E+001  0.9207588E+02  0.7546771E-02  0.1297901E+00
         -2   -1    0    0    0  501 -0.00000000000E+00  0.00000000000E+00  0.13946061992E+02  0.13946061992E+02  0.00000000000E+00 0.  1.
          2   -1    0    0  501    0  0.00000000000E+00 -0.00000000000E+00 -0.15197781953E+03  0.15197781953E+03  0.00000000000E+00 0. -1.
         23    2    1    2    0    0  0.00000000000E+00  0.00000000000E+00 -0.13803175754E+03  0.16592388153E+03  0.92075883763E+02 0.  0.
        -11    1    3    3    0    0 -0.42422072826E+02 -0.10999869065E+02 -0.43603830014E+02  0.61821706335E+02  0.00000000000E+00 0. -1.
         11    1    3    3    0    0  0.42422072826E+02  0.10999869065E+02 -0.94427927529E+02  0.10410217519E+03  0.00000000000E+00 0.  1.
<mgrwt>
<rscale>  0 0.92075884E+02</rscale>
<asrwt>0</asrwt>
<pdfrwt beam="2">  1        2 0.23381205E-01 0.92075884E+02</pdfrwt>
<pdfrwt beam="1">  1       -2 0.21455479E-02 0.92075884E+02</pdfrwt>
<totfact> 0.13674035E+05</totfact>
</mgrwt>
</event>
<event>
 5    1  0.1310593E+001  0.9196761E+02  0.7546771E-02  0.1298156E+00
          1   -1    0    0  501    0  0.00000000000E+00  0.00000000000E+00  0.34596541936E+03  0.34596541936E+03  0.00000000000E+00 0. -1.
         -1   -1    0    0    0  501 -0.00000000000E+00 -0.00000000000E+00 -0.61119125803E+01  0.61119125803E+01  0.00000000000E+00 0.  1.
         23    2    1    2    0    0  0.00000000000E+00  0.00000000000E+00  0.33985350678E+03  0.35207733194E+03  0.91967611668E+02 0.  0.
        -11    1    3    3    0    0  0.45875789881E+02  0.90977195171E+00  0.15838171566E+03  0.16489446212E+03  0.00000000000E+00 0. -1.
         11    1    3    3    0    0 -0.45875789881E+02 -0.90977195171E+00  0.18147179112E+03  0.18718286982E+03  0.00000000000E+00 0.  1.
<mgrwt>
<rscale>  0 0.91967612E+02</rscale>
<asrwt>0</asrwt>
<pdfrwt beam="1">  1        1 0.53225434E-01 0.91967612E+02</pdfrwt>
<pdfrwt beam="2">  1       -1 0.94029451E-03 0.91967612E+02</pdfrwt>
<totfact> 0.12856897E+05</totfact>
</mgrwt>
</event>
<event>
 5    1  0.1310593E+001  0.8889752E+02  0.7546771E-02  0.1305544E+00
         -4   -1    0    0    0  501 -0.00000000000E+00  0.00000000000E+00  0.15208594150E+02  0.15208594150E+02  0.00000000000E+00 0.  1.
          4   -1    0    0  501    0  0.00000000000E+00 -0.00000000000E+00 -0.12990631493E+03  0.12990631493E+03  0.00000000000E+00 0. -1.
         23    2    1    2    0    0  0.00000000000E+00  0.00000000000E+00 -0.11469772078E+03  0.14511490908E+03  0.88897523502E+02 0.  0.
        -11    1    3    3    0    0 -0.26722741101E+01  0.40833822927E+02 -0.29020984875E+02  0.50167317119E+02  0.00000000000E+00 0.  1.
         11    1    3    3    0    0  0.26722741101E+01 -0.40833822927E+02 -0.85676735902E+02  0.94947591958E+02  0.00000000000E+00 0. -1.
<mgrwt>
<rscale>  0 0.88897524E+02</rscale>
<asrwt>0</asrwt>
<pdfrwt beam="2">  1        4 0.19985586E-01 0.88897524E+02</pdfrwt>
<pdfrwt beam="1">  1       -4 0.23397838E-02 0.88897524E+02</pdfrwt>
<totfact> 0.25601999E+04</totfact>
</mgrwt>
</event>
<event>
 5    1  0.1310593E+001  0.7321616E+02  0.7546771E-02  0.1349486E+00
          2   -1    0    0  501    0  0.00000000000E+00  0.00000000000E+00  0.10092380647E+03  0.10092380647E+03  0.00000000000E+00 0. -1.
         -2   -1    0    0    0  501 -0.00000000000E+00 -0.00000000000E+00 -0.13278844476E+02  0.13278844476E+02  0.00000000000E+00 0.  1.
         23    2    1    2    0    0  0.00000000000E+00  0.00000000000E+00  0.87644961989E+02  0.11420265094E+03  0.73216160238E+02 0.  0.
        -11    1    3    3    0    0  0.22415635954E+01  0.36329357099E+02  0.37720341245E+02  0.52418230972E+02  0.00000000000E+00 0. -1.
         11    1    3    3    0    0 -0.22415635954E+01 -0.36329357099E+02  0.49924620744E+02  0.61784419970E+02  0.00000000000E+00 0.  1.
<mgrwt>
<rscale>  0 0.73216160E+02</rscale>
<asrwt>0</asrwt>
<pdfrwt beam="1">  1        2 0.15526739E-01 0.73216160E+02</pdfrwt>
<pdfrwt beam="2">  1       -2 0.20428992E-02 0.73216160E+02</pdfrwt>
<totfact> 0.22282586E+05</totfact>
</mgrwt>
</event>
<event>
 5    1  0.1310593E+001  0.9162389E+02  0.7546771E-02  0.1298966E+00
          2   -1    0    0  501    0  0.00000000000E+00  0.00000000000E+00  0.82617988744E+02  0.82617988744E+02  0.00000000000E+00 0. -1.
         -2   -1    0    0    0  501 -0.00000000000E+00 -0.00000000000E+00 -0.25402875746E+02  0.25402875746E+02  0.00000000000E+00 0.  1.
         23    2    1    2    0    0  0.00000000000E+00  0.00000000000E+00  0.57215112999E+02  0.10802086449E+03  0.91623894317E+02 0.  0.
        -11    1    3    3    0    0 -0.30982900846E+02 -0.32965941929E+02  0.37112508074E+02  0.58515226460E+02  0.00000000000E+00 0. -1.
         11    1    3    3    0    0  0.30982900846E+02  0.32965941929E+02  0.20102604925E+02  0.49505638031E+02  0.00000000000E+00 0.  1.
<mgrwt>
<rscale>  0 0.91623894E+02</rscale>
<asrwt>0</asrwt>
<pdfrwt beam="1">  1        2 0.12710460E-01 0.91623894E+02</pdfrwt>
<pdfrwt beam="2">  1       -2 0.39081348E-02 0.91623894E+02</pdfrwt>
<totfact> 0.11435804E+05</totfact>
</mgrwt>
</event>
<event>
 5    1  0.1310593E+001  0.9147784E+02  0.7546771E-02  0.1299312E+00
          1   -1    0    0  501    0  0.00000000000E+00  0.00000000000E+00  0.57748651161E+02  0.57748651161E+02  0.00000000000E+00 0. -1.
         -1   -1    0    0    0  501 -0.00000000000E+00 -0.00000000000E+00 -0.36226797914E+02  0.36226797914E+02  0.00000000000E+00 0.  1.
         23    2    1    2    0    0  0.00000000000E+00  0.00000000000E+00  0.21521853247E+02  0.93975449075E+02  0.91477838091E+02 0.  0.
        -11    1    3    3    0    0  0.23007524864E+01 -0.12362572156E+02 -0.34416137189E+02  0.36641467647E+02  0.00000000000E+00 0.  1.
         11    1    3    3    0    0 -0.23007524864E+01  0.12362572156E+02  0.55937990436E+02  0.57333981428E+02  0.00000000000E+00 0. -1.
<mgrwt>
<rscale>  0 0.91477838E+02</rscale>
<asrwt>0</asrwt>
<pdfrwt beam="1">  1        1 0.88844078E-02 0.91477838E+02</pdfrwt>
<pdfrwt beam="2">  1       -1 0.55733535E-02 0.91477838E+02</pdfrwt>
<totfact> 0.94941667E+04</totfact>
</mgrwt>
</event>
<event>
 5    1  0.1310593E+001  0.8861936E+02  0.7546771E-02  0.1306230E+00
          1   -1    0    0  501    0  0.00000000000E+00  0.00000000000E+00  0.11379197279E+03  0.11379197279E+03  0.00000000000E+00 0. -1.
         -1   -1    0    0    0  501 -0.00000000000E+00 -0.00000000000E+00 -0.17253834675E+02  0.17253834675E+02  0.00000000000E+00 0.  1.
         23    2    1    2    0    0  0.00000000000E+00  0.00000000000E+00  0.96538138112E+02  0.13104580746E+03  0.88619363252E+02 0.  0.
        -13    1    3    3    0    0  0.21236165754E+02 -0.19018228578E+02 -0.18925808898E+01  0.28570082544E+02  0.00000000000E+00 0.  1.
         13    1    3    3    0    0 -0.21236165754E+02  0.19018228578E+02  0.98430719002E+02  0.10247572492E+03  0.00000000000E+00 0. -1.
<mgrwt>
<rscale>  0 0.88619363E+02</rscale>
<asrwt>0</asrwt>
<pdfrwt beam="1">  1        1 0.17506457E-01 0.88619363E+02</pdfrwt>
<pdfrwt beam="2">  1       -1 0.26544362E-02 0.88619363E+02</pdfrwt>
<totfact> 0.11530863E+05</totfact>
</mgrwt>
</event>
<event>
 5    1  0.1310593E+001  0.9166995E+02  0.7546771E-02  0.1298857E+00
          3   -1    0    0  501    0  0.00000000000E+00  0.00000000000E+00  0.32948113135E+02  0.32948113135E+02  0.00000000000E+00 0. -1.
         -3   -1    0    0    0  501 -0.00000000000E+00 -0.00000000000E+00 -0.63762216797E+02  0.63762216797E+02  0.00000000000E+00 0.  1.
         23    2    1    2    0    0  0.00000000000E+00  0.00000000000E+00 -0.30814103661E+02  0.96710329932E+02  0.91669945626E+02 0.  0.
        -11    1    3    3    0    0 -0.16034148782E+02 -0.35363283170E+01 -0.60553037498E+02  0.62739699516E+02  0.00000000000E+00 0.  1.
         11    1    3    3    0    0  0.16034148782E+02  0.35363283170E+01  0.29738933837E+02  0.33970630416E+02  0.00000000000E+00 0. -1.
<mgrwt>
<rscale>  0 0.91669946E+02</rscale>
<asrwt>0</asrwt>
<pdfrwt beam="1">  1        3 0.50689405E-02 0.91669946E+02</pdfrwt>
<pdfrwt beam="2">  1       -3 0.98095718E-02 0.91669946E+02</pdfrwt>
<totfact> 0.34407889E+04</totfact>
</mgrwt>
</event>
<event>
 5    1  0.1310593E+001  0.9153977E+02  0.7546771E-02  0.1299165E+00
          1   -1    0    0  501    0  0.00000000000E+00  0.00000000000E+00  0.19915278856E+02  0.19915278856E+02  0.00000000000E+00 0.  1.
         -1   -1    0    0    0  501 -0.00000000000E+00 -0.00000000000E+00 -0.10518971444E+03  0.10518971444E+03  0.00000000000E+00 0. -1.
         23    2    1    2    0    0  0.00000000000E+00  0.00000000000E+00 -0.85274435579E+02  0.12510499329E+03  0.91539772684E+02 0.  0.
        -13    1    3    3    0    0 -0.38330707416E+02 -0.14685885211E+02 -0.14965396161E+02  0.43690747736E+02  0.00000000000E+00 0.  1.
         13    1    3    3    0    0  0.38330707416E+02  0.14685885211E+02 -0.70309039418E+02  0.81414245556E+02  0.00000000000E+00 0. -1.
<mgrwt>
<rscale>  0 0.91539773E+02</rscale>
<asrwt>0</asrwt>
<pdfrwt beam="1">  1        1 0.30638891E-02 0.91539773E+02</pdfrwt>
<pdfrwt beam="2">  1       -1 0.16183033E-01 0.91539773E+02</pdfrwt>
<totfact> 0.79776995E+04</totfact>
</mgrwt>
</event>
<event>
 5    1  0.1310593E+001  0.9034736E+02  0.7546771E-02  0.1302013E+00
          3   -1    0    0  501    0  0.00000000000E+00  0.00000000000E+00  0.44849797095E+02  0.44849797095E+02  0.00000000000E+00 0. -1.
         -3   -1    0    0    0  501 -0.00000000000E+00 -0.00000000000E+00 -0.45499906575E+02  0.45499906575E+02  0.00000000000E+00 0.  1.
         23    2    1    2    0    0  0.00000000000E+00  0.00000000000E+00 -0.65010947997E+00  0.90349703671E+02  0.90347364716E+02 0.  0.
        -13    1    3    3    0    0 -0.15526662709E+02 -0.32151850453E+02 -0.27999636739E+02  0.45373983735E+02  0.00000000000E+00 0.  1.
         13    1    3    3    0    0  0.15526662709E+02  0.32151850453E+02  0.27349527259E+02  0.44975719936E+02  0.00000000000E+00 0. -1.
<mgrwt>
<rscale>  0 0.90347365E+02</rscale>
<asrwt>0</asrwt>
<pdfrwt beam="1">  1        3 0.68999688E-02 0.90347365E+02</pdfrwt>
<pdfrwt beam="2">  1       -3 0.69999856E-02 0.90347365E+02</pdfrwt>
<totfact> 0.36293571E+04</totfact>
</mgrwt>
</event>
<event>
 5    1  0.1310593E+001  0.9055126E+02  0.7546771E-02  0.1301522E+00
         -2   -1    0    0    0  501 -0.00000000000E+00  0.00000000000E+00  0.23246385770E+02  0.23246385770E+02  0.00000000000E+00 0.  1.
          2   -1    0    0  501    0  0.00000000000E+00 -0.00000000000E+00 -0.88180696844E+02  0.88180696844E+02  0.00000000000E+00 0. -1.
         23    2    1    2    0    0  0.00000000000E+00  0.00000000000E+00 -0.64934311074E+02  0.11142708261E+03  0.90551256122E+02 0.  0.
        -11    1    3    3    0    0 -0.32879418190E+02  0.28188490684E+02 -0.48710087129E+02  0.65179135739E+02  0.00000000000E+00 0.  1.
         11    1    3    3    0    0  0.32879418190E+02 -0.28188490684E+02 -0.16224223945E+02  0.46247946875E+02  0.00000000000E+00 0. -1.
<mgrwt>
<rscale>  0 0.90551256E+02</rscale>
<asrwt>0</asrwt>
<pdfrwt beam="2">  1        2 0.13566261E-01 0.90551256E+02</pdfrwt>
<pdfrwt beam="1">  1       -2 0.35763670E-02 0.90551256E+02</pdfrwt>
<totfact> 0.12041487E+05</totfact>
</mgrwt>
</event>
<event>
 5    1  0.1310593E+001  0.8832784E+02  0.7546771E-02  0.1306952E+00
          1   -1    0    0  501    0  0.00000000000E+00  0.00000000000E+00  0.17380426780E+02  0.17380426780E+02  0.00000000000E+00 0. -1.
         -1   -1    0    0    0  501 -0.00000000000E+00 -0.00000000000E+00 -0.11222118083E+03  0.11222118083E+03  0.00000000000E+00 0.  1.
         23    2    1    2    0    0  0.00000000000E+00  0.00000000000E+00 -0.94840754052E+02  0.12960160761E+03  0.88327844232E+02 0.  0.
        -13    1    3    3    0    0 -0.23961229217E+02 -0.57237764468E+01 -0.10120271249E+03  0.10415801043E+03  0.00000000000E+00 0.  1.
         13    1    3    3    0    0  0.23961229217E+02  0.57237764468E+01  0.63619584341E+01  0.25443597182E+02  0.00000000000E+00 0. -1.
<mgrwt>
<rscale>  0 0.88327844E+02</rscale>
<asrwt>0</asrwt>
<pdfrwt beam="1">  1        1 0.26739118E-02 0.88327844E+02</pdfrwt>
<pdfrwt beam="2">  1       -1 0.17264797E-01 0.88327844E+02</pdfrwt>
<totfact> 0.86382065E+04</totfact>
</mgrwt>
</event>
<event>
 5    1  0.1310593E+001  0.9169377E+02  0.7546771E-02  0.1298801E+00
          1   -1    0    0  501    0  0.00000000000E+00  0.00000000000E+00  0.17853831712E+03  0.17853831712E+03  0.00000000000E+00 0. -1.
         -1   -1    0    0    0  501 -0.00000000000E+00 -0.00000000000E+00 -0.11773030583E+02  0.11773030583E+02  0.00000000000E+00 0.  1.
         23    2    1    2    0    0  0.00000000000E+00  0.00000000000E+00  0.16676528654E+03  0.19031134770E+03  0.91693774437E+02 0.  0.
        -11    1    3    3    0    0  0.24301534131E+02  0.15545427362E+02  0.94259508427E+01  0.30349191460E+02  0.00000000000E+00 0.  1.
         11    1    3    3    0    0 -0.24301534131E+02 -0.15545427362E+02  0.15733933570E+03  0.15996215624E+03  0.00000000000E+00 0. -1.
<mgrwt>
<rscale>  0 0.91693774E+02</rscale>
<asrwt>0</asrwt>
<pdfrwt beam="1">  1        1 0.27467431E-01 0.91693774E+02</pdfrwt>
<pdfrwt beam="2">  1       -1 0.18112356E-02 0.91693774E+02</pdfrwt>
<totfact> 0.11409658E+05</totfact>
</mgrwt>
</event>
<event>
 4    1  0.1310593E+001  0.3083812E+02  0.7546771E-02  0.1589005E+00
          2   -1    0    0  501    0  0.00000000000E+00  0.00000000000E+00  0.59668252810E+02  0.59668252810E+02  0.00000000000E+00 0.  1.
         -2   -1    0    0    0  501 -0.00000000000E+00 -0.00000000000E+00 -0.39844885497E+01  0.39844885497E+01  0.00000000000E+00 0. -1.
        -11    1    1    2    0    0 -0.23860451428E+01  0.13091049033E+02  0.11763317466E+02  0.17760754883E+02  0.00000000000E+00 0. -1.
         11    1    1    2    0    0  0.23860451428E+01 -0.13091049033E+02  0.43920446794E+02  0.45891986476E+02  0.00000000000E+00 0.  1.
<mgrwt>
<rscale>  0 0.30838124E+02</rscale>
<asrwt>0</asrwt>
<pdfrwt beam="1">  1        2 0.91797306E-02 0.30838124E+02</pdfrwt>
<pdfrwt beam="2">  1       -2 0.61299828E-03 0.30838124E+02</pdfrwt>
<totfact> 0.17553966E+06</totfact>
</mgrwt>
</event>
<event>
 5    1  0.1310593E+001  0.8948412E+02  0.7546771E-02  0.1304106E+00
         -1   -1    0    0    0  501 -0.00000000000E+00  0.00000000000E+00  0.22351353688E+02  0.22351353688E+02  0.00000000000E+00 0.  1.
          1   -1    0    0  501    0  0.00000000000E+00 -0.00000000000E+00 -0.89562894253E+02  0.89562894253E+02  0.00000000000E+00 0. -1.
         23    2    1    2    0    0  0.00000000000E+00  0.00000000000E+00 -0.67211540564E+02  0.11191424794E+03  0.89484119861E+02 0.  0.
        -11    1    3    3    0    0 -0.18165568831E+02 -0.30383375564E+02 -0.67827151881E+02  0.76509214699E+02  0.00000000000E+00 0. -1.
         11    1    3    3    0    0  0.18165568831E+02  0.30383375564E+02  0.61561131621E+00  0.35405033242E+02  0.00000000000E+00 0.  1.
<mgrwt>
<rscale>  0 0.89484120E+02</rscale>
<asrwt>0</asrwt>
<pdfrwt beam="2">  1        1 0.13778907E-01 0.89484120E+02</pdfrwt>
<pdfrwt beam="1">  1       -1 0.34386698E-02 0.89484120E+02</pdfrwt>
<totfact> 0.10796268E+05</totfact>
</mgrwt>
</event>
<event>
 5    1  0.1310593E+001  0.9409270E+02  0.7546771E-02  0.1293233E+00
         -1   -1    0    0    0  501 -0.00000000000E+00  0.00000000000E+00  0.15368824301E+03  0.15368824301E+03  0.00000000000E+00 0.  1.
          1   -1    0    0  501    0  0.00000000000E+00 -0.00000000000E+00 -0.14401615027E+02  0.14401615027E+02  0.00000000000E+00 0. -1.
         23    2    1    2    0    0  0.00000000000E+00  0.00000000000E+00  0.13928662798E+03  0.16808985803E+03  0.94092697057E+02 0.  0.
        -11    1    3    3    0    0  0.23013372068E+02 -0.15575851976E+02  0.13746024693E+03  0.14024101378E+03  0.00000000000E+00 0.  1.
         11    1    3    3    0    0 -0.23013372068E+02  0.15575851976E+02  0.18263810497E+01  0.27848844257E+02  0.00000000000E+00 0. -1.
<mgrwt>
<rscale>  0 0.94092697E+02</rscale>
<asrwt>0</asrwt>
<pdfrwt beam="2">  1        1 0.22156332E-02 0.94092697E+02</pdfrwt>
<pdfrwt beam="1">  1       -1 0.23644344E-01 0.94092697E+02</pdfrwt>
<totfact> 0.68515745E+04</totfact>
</mgrwt>
</event>
<event>
 5    1  0.1310593E+001  0.8786400E+02  0.7546771E-02  0.1308108E+00
          3   -1    0    0  501    0  0.00000000000E+00  0.00000000000E+00  0.31826540403E+02  0.31826540403E+02  0.00000000000E+00 0. -1.
         -3   -1    0    0    0  501 -0.00000000000E+00 -0.00000000000E+00 -0.60641867195E+02  0.60641867195E+02  0.00000000000E+00 0.  1.
         23    2    1    2    0    0  0.00000000000E+00  0.00000000000E+00 -0.28815326792E+02  0.92468407599E+02  0.87864004835E+02 0.  0.
        -13    1    3    3    0    0 -0.15199909350E+02  0.28326528658E+01 -0.57683852415E+02  0.59720080341E+02  0.00000000000E+00 0.  1.
         13    1    3    3    0    0  0.15199909350E+02 -0.28326528658E+01  0.28868525623E+02  0.32748327257E+02  0.00000000000E+00 0. -1.
<mgrwt>
<rscale>  0 0.87864005E+02</rscale>
<asrwt>0</asrwt>
<pdfrwt beam="1">  1        3 0.48963908E-02 0.87864005E+02</pdfrwt>
<pdfrwt beam="2">  1       -3 0.93295181E-02 0.87864005E+02</pdfrwt>
<totfact> 0.38964021E+04</totfact>
</mgrwt>
</event>
<event>
 5    1  0.1310593E+001  0.9267672E+02  0.7546771E-02  0.1296496E+00
          4   -1    0    0  501    0  0.00000000000E+00  0.00000000000E+00  0.21822740098E+03  0.21822740098E+03  0.00000000000E+00 0. -1.
         -4   -1    0    0    0  501 -0.00000000000E+00 -0.00000000000E+00 -0.98394784046E+01  0.98394784046E+01  0.00000000000E+00 0.  1.
         23    2    1    2    0    0  0.00000000000E+00  0.00000000000E+00  0.20838792257E+03  0.22806687938E+03  0.92676724138E+02 0.  0.
        -11    1    3    3    0    0  0.20941283231E+01 -0.36146834138E+02  0.33029452447E+02  0.49009424814E+02  0.00000000000E+00 0.  1.
         11    1    3    3    0    0 -0.20941283231E+01  0.36146834138E+02  0.17535847013E+03  0.17905745457E+03  0.00000000000E+00 0. -1.
<mgrwt>
<rscale>  0 0.92676724E+02</rscale>
<asrwt>0</asrwt>
<pdfrwt beam="1">  1        4 0.33573443E-01 0.92676724E+02</pdfrwt>
<pdfrwt beam="2">  1       -4 0.15137661E-02 0.92676724E+02</pdfrwt>
<totfact> 0.19401532E+04</totfact>
</mgrwt>
</event>
<event>
 5    1  0.1310593E+001  0.8692444E+02  0.7546771E-02  0.1310475E+00
         -2   -1    0    0    0  501 -0.00000000000E+00  0.00000000000E+00  0.12348690860E+02  0.12348690860E+02  0.00000000000E+00 0.  1.
          2   -1    0    0  501    0  0.00000000000E+00 -0.00000000000E+00 -0.15296882341E+03  0.15296882341E+03  0.00000000000E+00 0. -1.
         23    2    1    2    0    0  0.00000000000E+00  0.00000000000E+00 -0.14062013255E+03  0.16531751427E+03  0.86924443316E+02 0.  0.
        -13    1    3    3    0    0  0.34125973564E+02 -0.83994580452E+01 -0.21679430246E+02  0.41293227810E+02  0.00000000000E+00 0.  1.
         13    1    3    3    0    0 -0.34125973564E+02  0.83994580452E+01 -0.11894070230E+03  0.12402428646E+03  0.00000000000E+00 0. -1.
<mgrwt>
<rscale>  0 0.86924443E+02</rscale>
<asrwt>0</asrwt>
<pdfrwt beam="2">  1        2 0.23533666E-01 0.86924443E+02</pdfrwt>
<pdfrwt beam="1">  1       -2 0.18997985E-02 0.86924443E+02</pdfrwt>
<totfact> 0.16013626E+05</totfact>
</mgrwt>
</event>
<event>
 5    1  0.1310593E+001  0.8799353E+02  0.7546771E-02  0.1307785E+00
          1   -1    0    0  501    0  0.00000000000E+00  0.00000000000E+00  0.35162794401E+02  0.35162794401E+02  0.00000000000E+00 0. -1.
         -1   -1    0    0    0  501 -0.00000000000E+00 -0.00000000000E+00 -0.55050095461E+02  0.55050095461E+02  0.00000000000E+00 0.  1.
         23    2    1    2    0    0  0.00000000000E+00  0.00000000000E+00 -0.19887301060E+02  0.90212889861E+02  0.87993526771E+02 0.  0.
        -13    1    3    3    0    0 -0.22736055962E+02 -0.19297924693E+02  0.23219972780E+02  0.37795572149E+02  0.00000000000E+00 0. -1.
         13    1    3    3    0    0  0.22736055962E+02  0.19297924693E+02 -0.43107273840E+02  0.52417317712E+02  0.00000000000E+00 0.  1.
<mgrwt>
<rscale>  0 0.87993527E+02</rscale>
<asrwt>0</asrwt>
<pdfrwt beam="1">  1        1 0.54096607E-02 0.87993527E+02</pdfrwt>
<pdfrwt beam="2">  1       -1 0.84692454E-02 0.87993527E+02</pdfrwt>
<totfact> 0.98302178E+04</totfact>
</mgrwt>
</event>
<event>
 5    1  0.1310593E+001  0.9036674E+02  0.7546771E-02  0.1301966E+00
         -3   -1    0    0    0  501 -0.00000000000E+00  0.00000000000E+00  0.89556835182E+02  0.89556835182E+02  0.00000000000E+00 0.  1.
          3   -1    0    0  501    0  0.00000000000E+00 -0.00000000000E+00 -0.22795992771E+02  0.22795992771E+02  0.00000000000E+00 0. -1.
         23    2    1    2    0    0  0.00000000000E+00  0.00000000000E+00  0.66760842411E+02  0.11235282795E+03  0.90366740948E+02 0.  0.
        -13    1    3    3    0    0  0.10945613775E+01  0.15146948002E+02  0.86288706440E+02  0.87614890045E+02  0.00000000000E+00 0.  1.
         13    1    3    3    0    0 -0.10945613775E+01 -0.15146948002E+02 -0.19527864030E+02  0.24737937908E+02  0.00000000000E+00 0. -1.
<mgrwt>
<rscale>  0 0.90366741E+02</rscale>
<asrwt>0</asrwt>
<pdfrwt beam="2">  1        3 0.35070759E-02 0.90366741E+02</pdfrwt>
<pdfrwt beam="1">  1       -3 0.13777974E-01 0.90366741E+02</pdfrwt>
<totfact> 0.34607373E+04</totfact>
</mgrwt>
</event>
<event>
 5    1  0.1310593E+001  0.9145863E+02  0.7546771E-02  0.1299357E+00
          2   -1    0    0  501    0  0.00000000000E+00  0.00000000000E+00  0.71257086829E+02  0.71257086829E+02  0.00000000000E+00 0.  1.
         -2   -1    0    0    0  501 -0.00000000000E+00 -0.00000000000E+00 -0.29346836634E+02  0.29346836634E+02  0.00000000000E+00 0. -1.
         23    2    1    2    0    0  0.00000000000E+00  0.00000000000E+00  0.41910250195E+02  0.10060392346E+03  0.91458626410E+02 0.  0.
        -13    1    3    3    0    0 -0.40563109571E+02 -0.21051912600E+02  0.22736029714E+02  0.51043862798E+02  0.00000000000E+00 0.  1.
         13    1    3    3    0    0  0.40563109571E+02  0.21051912600E+02  0.19174220481E+02  0.49560060666E+02  0.00000000000E+00 0. -1.
<mgrwt>
<rscale>  0 0.91458626E+02</rscale>
<asrwt>0</asrwt>
<pdfrwt beam="1">  1        2 0.10962629E-01 0.91458626E+02</pdfrwt>
<pdfrwt beam="2">  1       -2 0.45148980E-02 0.91458626E+02</pdfrwt>
<totfact> 0.11021154E+05</totfact>
</mgrwt>
</event>
<event>
 5    1  0.1310593E+001  0.9186016E+02  0.7546771E-02  0.1298409E+00
         -4   -1    0    0    0  501 -0.00000000000E+00  0.00000000000E+00  0.15692202046E+02  0.15692202046E+02  0.00000000000E+00 0.  1.
          4   -1    0    0  501    0  0.00000000000E+00 -0.00000000000E+00 -0.13443442357E+03  0.13443442357E+03  0.00000000000E+00 0. -1.
         23    2    1    2    0    0  0.00000000000E+00  0.00000000000E+00 -0.11874222152E+03  0.15012662562E+03  0.91860157557E+02 0.  0.
        -13    1    3    3    0    0 -0.36970135686E+02 -0.71138931562E+01 -0.10236810461E+03  0.10907166108E+03  0.00000000000E+00 0. -1.
         13    1    3    3    0    0  0.36970135686E+02  0.71138931562E+01 -0.16374116910E+02  0.41054964536E+02  0.00000000000E+00 0.  1.
<mgrwt>
<rscale>  0 0.91860158E+02</rscale>
<asrwt>0</asrwt>
<pdfrwt beam="2">  1        4 0.20682219E-01 0.91860158E+02</pdfrwt>
<pdfrwt beam="1">  1       -4 0.24141849E-02 0.91860158E+02</pdfrwt>
<totfact> 0.23194906E+04</totfact>
</mgrwt>
</event>
<event>
 5    1  0.1310593E+001  0.9126337E+02  0.7546771E-02  0.1299821E+00
          2   -1    0    0  501    0  0.00000000000E+00  0.00000000000E+00  0.18794139781E+02  0.18794139781E+02  0.00000000000E+00 0. -1.
         -2   -1    0    0    0  501 -0.00000000000E+00 -0.00000000000E+00 -0.11079255932E+03  0.11079255932E+03  0.00000000000E+00 0.  1.
         23    2    1    2    0    0  0.00000000000E+00  0.00000000000E+00 -0.91998419539E+02  0.12958669910E+03  0.91263373740E+02 0.  0.
        -13    1    3    3    0    0 -0.21433711583E+02 -0.23580306839E+02 -0.92376851903E+02  0.97718563387E+02  0.00000000000E+00 0.  1.
         13    1    3    3    0    0  0.21433711583E+02  0.23580306839E+02  0.37843236443E+00  0.31868135714E+02  0.00000000000E+00 0. -1.
<mgrwt>
<rscale>  0 0.91263374E+02</rscale>
<asrwt>0</asrwt>
<pdfrwt beam="1">  1        2 0.28914061E-02 0.91263374E+02</pdfrwt>
<pdfrwt beam="2">  1       -2 0.17045009E-01 0.91263374E+02</pdfrwt>
<totfact> 0.77168570E+04</totfact>
</mgrwt>
</event>
<event>
 5    1  0.1310593E+001  0.9317817E+02  0.7546771E-02  0.1295333E+00
         -1   -1    0    0    0  501 -0.00000000000E+00  0.00000000000E+00  0.81153983276E+01  0.81153983276E+01  0.00000000000E+00 0.  1.
          1   -1    0    0  501    0  0.00000000000E+00 -0.00000000000E+00 -0.26745978088E+03  0.26745978088E+03  0.00000000000E+00 0. -1.
         23    2    1    2    0    0  0.00000000000E+00  0.00000000000E+00 -0.25934438255E+03  0.27557517921E+03  0.93178166079E+02 0.  0.
        -13    1    3    3    0    0  0.98161528148E+00  0.37366592205E+02 -0.47428104204E+02  0.60387505744E+02  0.00000000000E+00 0.  1.
         13    1    3    3    0    0 -0.98161528148E+00 -0.37366592205E+02 -0.21191627835E+03  0.21518767346E+03  0.00000000000E+00 0. -1.
<mgrwt>
<rscale>  0 0.93178166E+02</rscale>
<asrwt>0</asrwt>
<pdfrwt beam="2">  1        1 0.41147664E-01 0.93178166E+02</pdfrwt>
<pdfrwt beam="1">  1       -1 0.12485227E-02 0.93178166E+02</pdfrwt>
<totfact> 0.11824386E+05</totfact>
</mgrwt>
</event>
<event>
 5    1  0.1310593E+001  0.8744657E+02  0.7546771E-02  0.1309156E+00
         -1   -1    0    0    0  501 -0.00000000000E+00  0.00000000000E+00  0.14939501101E+03  0.14939501101E+03  0.00000000000E+00 0.  1.
          1   -1    0    0  501    0  0.00000000000E+00 -0.00000000000E+00 -0.12796448171E+02  0.12796448171E+02  0.00000000000E+00 0. -1.
         23    2    1    2    0    0  0.00000000000E+00  0.00000000000E+00  0.13659856284E+03  0.16219145918E+03  0.87446566893E+02 0.  0.
        -11    1    3    3    0    0 -0.31727609486E+02 -0.29696076519E+02  0.77238201593E+02  0.88624138640E+02  0.00000000000E+00 0.  1.
         11    1    3    3    0    0  0.31727609486E+02  0.29696076519E+02  0.59360361248E+02  0.73567320543E+02  0.00000000000E+00 0. -1.
<mgrwt>
<rscale>  0 0.87446567E+02</rscale>
<asrwt>0</asrwt>
<pdfrwt beam="2">  1        1 0.19686844E-02 0.87446567E+02</pdfrwt>
<pdfrwt beam="1">  1       -1 0.22983847E-01 0.87446567E+02</pdfrwt>
<totfact> 0.83414608E+04</totfact>
</mgrwt>
</event>
<event>
 5    1  0.1310593E+001  0.9203247E+02  0.7546771E-02  0.1298003E+00
          3   -1    0    0  501    0  0.00000000000E+00  0.00000000000E+00  0.10690587219E+03  0.10690587219E+03  0.00000000000E+00 0. -1.
         -3   -1    0    0    0  501 -0.00000000000E+00 -0.00000000000E+00 -0.19807087427E+02  0.19807087427E+02  0.00000000000E+00 0.  1.
         23    2    1    2    0    0  0.00000000000E+00  0.00000000000E+00  0.87098784759E+02  0.12671295961E+03  0.92032471593E+02 0.  0.
        -11    1    3    3    0    0 -0.13518311733E+02  0.25910035756E+02  0.92488235025E+02  0.96995609813E+02  0.00000000000E+00 0. -1.
         11    1    3    3    0    0  0.13518311733E+02 -0.25910035756E+02 -0.53894502660E+01  0.29717349800E+02  0.00000000000E+00 0.  1.
<mgrwt>
<rscale>  0 0.92032472E+02</rscale>
<asrwt>0</asrwt>
<pdfrwt beam="1">  1        3 0.16447057E-01 0.92032472E+02</pdfrwt>
<pdfrwt beam="2">  1       -3 0.30472443E-02 0.92032472E+02</pdfrwt>
<totfact> 0.31970686E+04</totfact>
</mgrwt>
</event>
<event>
 5    1  0.1310593E+001  0.8450152E+02  0.7546771E-02  0.1316741E+00
          1   -1    0    0  501    0  0.00000000000E+00  0.00000000000E+00  0.12447540285E+03  0.12447540285E+03  0.00000000000E+00 0. -1.
         -1   -1    0    0    0  501 -0.00000000000E+00 -0.00000000000E+00 -0.14341199765E+02  0.14341199765E+02  0.00000000000E+00 0.  1.
         23    2    1    2    0    0  0.00000000000E+00  0.00000000000E+00  0.11013420309E+03  0.13881660262E+03  0.84501517576E+02 0.  0.
        -11    1    3    3    0    0  0.31267310956E+02 -0.26013351925E+02  0.36279996452E+02  0.54503003178E+02  0.00000000000E+00 0.  1.
         11    1    3    3    0    0 -0.31267310956E+02  0.26013351925E+02  0.73854206636E+02  0.84313599440E+02  0.00000000000E+00 0. -1.
<mgrwt>
<rscale>  0 0.84501518E+02</rscale>
<asrwt>0</asrwt>
<pdfrwt beam="1">  1        1 0.19150061E-01 0.84501518E+02</pdfrwt>
<pdfrwt beam="2">  1       -1 0.22063385E-02 0.84501518E+02</pdfrwt>
<totfact> 0.13309206E+05</totfact>
</mgrwt>
</event>
<event>
 5    1  0.1310593E+001  0.8348325E+02  0.7546771E-02  0.1319447E+00
          1   -1    0    0  501    0  0.00000000000E+00  0.00000000000E+00  0.11687627710E+03  0.11687627710E+03  0.00000000000E+00 0. -1.
         -1   -1    0    0    0  501 -0.00000000000E+00 -0.00000000000E+00 -0.14907758045E+02  0.14907758045E+02  0.00000000000E+00 0.  1.
         23    2    1    2    0    0  0.00000000000E+00  0.00000000000E+00  0.10196851905E+03  0.13178403514E+03  0.83483250061E+02 0.  0.
        -11    1    3    3    0    0 -0.28433388068E+02  0.23391166809E+02  0.82028688637E+02  0.89912791088E+02  0.00000000000E+00 0. -1.
         11    1    3    3    0    0  0.28433388068E+02 -0.23391166809E+02  0.19939830416E+02  0.41871244056E+02  0.00000000000E+00 0.  1.
<mgrwt>
<rscale>  0 0.83483250E+02</rscale>
<asrwt>0</asrwt>
<pdfrwt beam="1">  1        1 0.17980965E-01 0.83483250E+02</pdfrwt>
<pdfrwt beam="2">  1       -1 0.22935013E-02 0.83483250E+02</pdfrwt>
<totfact> 0.13603859E+05</totfact>
</mgrwt>
</event>
<event>
 5    1  0.1310593E+001  0.9211608E+02  0.7546771E-02  0.1297807E+00
          2   -1    0    0  501    0  0.00000000000E+00  0.00000000000E+00  0.44232545639E+02  0.44232545639E+02  0.00000000000E+00 0. -1.
         -2   -1    0    0    0  501 -0.00000000000E+00 -0.00000000000E+00 -0.47958874898E+02  0.47958874898E+02  0.00000000000E+00 0.  1.
         23    2    1    2    0    0  0.00000000000E+00  0.00000000000E+00 -0.37263292583E+01  0.92191420537E+02  0.92116081608E+02 0.  0.
        -11    1    3    3    0    0  0.33467136584E+02 -0.31245510567E+02 -0.68684509074E+01  0.46298021336E+02  0.00000000000E+00 0.  1.
         11    1    3    3    0    0 -0.33467136584E+02  0.31245510567E+02  0.31421216491E+01  0.45893399201E+02  0.00000000000E+00 0. -1.
<mgrwt>
<rscale>  0 0.92116082E+02</rscale>
<asrwt>0</asrwt>
<pdfrwt beam="1">  1        2 0.68050070E-02 0.92116082E+02</pdfrwt>
<pdfrwt beam="2">  1       -2 0.73782884E-02 0.92116082E+02</pdfrwt>
<totfact> 0.95055874E+04</totfact>
</mgrwt>
</event>
<event>
 5    1  0.1310593E+001  0.9346752E+02  0.7546771E-02  0.1294665E+00
          2   -1    0    0  501    0  0.00000000000E+00  0.00000000000E+00  0.27129098171E+02  0.27129098171E+02  0.00000000000E+00 0. -1.
         -2   -1    0    0    0  501 -0.00000000000E+00 -0.00000000000E+00 -0.80505600535E+02  0.80505600535E+02  0.00000000000E+00 0.  1.
         23    2    1    2    0    0  0.00000000000E+00  0.00000000000E+00 -0.53376502363E+02  0.10763469871E+03  0.93467520353E+02 0.  0.
        -13    1    3    3    0    0 -0.27633622712E+02 -0.31474287597E+02 -0.50562130458E+02  0.65656507068E+02  0.00000000000E+00 0.  1.
         13    1    3    3    0    0  0.27633622712E+02  0.31474287597E+02 -0.28143719058E+01  0.41978191638E+02  0.00000000000E+00 0. -1.
<mgrwt>
<rscale>  0 0.93467520E+02</rscale>
<asrwt>0</asrwt>
<pdfrwt beam="1">  1        2 0.41737074E-02 0.93467520E+02</pdfrwt>
<pdfrwt beam="2">  1       -2 0.12385477E-01 0.93467520E+02</pdfrwt>
<totfact> 0.79903553E+04</totfact>
</mgrwt>
</event>
<event>
 5    1  0.1310593E+001  0.9224758E+02  0.7546771E-02  0.1297498E+00
         -1   -1    0    0    0  501 -0.00000000000E+00  0.00000000000E+00  0.29984600311E+02  0.29984600311E+02  0.00000000000E+00 0.  1.
          1   -1    0    0  501    0  0.00000000000E+00 -0.00000000000E+00 -0.70949891351E+02  0.70949891351E+02  0.00000000000E+00 0. -1.
         23    2    1    2    0    0  0.00000000000E+00  0.00000000000E+00 -0.40965291040E+02  0.10093449166E+03  0.92247582825E+02 0.  0.
        -13    1    3    3    0    0  0.13678923829E+02  0.42321850308E+01  0.27491163368E+02  0.30996587080E+02  0.00000000000E+00 0.  1.
         13    1    3    3    0    0 -0.13678923829E+02 -0.42321850308E+01 -0.68456454408E+02  0.69937904583E+02  0.00000000000E+00 0. -1.
<mgrwt>
<rscale>  0 0.92247583E+02</rscale>
<asrwt>0</asrwt>
<pdfrwt beam="2">  1        1 0.10915368E-01 0.92247583E+02</pdfrwt>
<pdfrwt beam="1">  1       -1 0.46130155E-02 0.92247583E+02</pdfrwt>
<totfact> 0.95735721E+04</totfact>
</mgrwt>
</event>
<event>
 5    1  0.1310593E+001  0.8862133E+02  0.7546771E-02  0.1306225E+00
         -1   -1    0    0    0  501 -0.00000000000E+00  0.00000000000E+00  0.19134925871E+02  0.19134925871E+02  0.00000000000E+00 0.  1.
          1   -1    0    0  501    0  0.00000000000E+00 -0.00000000000E+00 -0.10261001347E+03  0.10261001347E+03  0.00000000000E+00 0. -1.
         23    2    1    2    0    0  0.00000000000E+00  0.00000000000E+00 -0.83475087596E+02  0.12174493934E+03  0.88621329289E+02 0.  0.
        -13    1    3    3    0    0  0.32880537932E+02  0.19964096430E+02 -0.11522815464E+02  0.40155574920E+02  0.00000000000E+00 0.  1.
         13    1    3    3    0    0 -0.32880537932E+02 -0.19964096430E+02 -0.71952272131E+02  0.81589364416E+02  0.00000000000E+00 0. -1.
<mgrwt>
<rscale>  0 0.88621329E+02</rscale>
<asrwt>0</asrwt>
<pdfrwt beam="2">  1        1 0.15786156E-01 0.88621329E+02</pdfrwt>
<pdfrwt beam="1">  1       -1 0.29438347E-02 0.88621329E+02</pdfrwt>
<totfact> 0.11332496E+05</totfact>
</mgrwt>
</event>
<event>
 5    1  0.1310593E+001  0.1083388E+03  0.7546771E-02  0.1263678E+00
          2   -1    0    0  501    0  0.00000000000E+00  0.00000000000E+00  0.23311795925E+03  0.23311795925E+03  0.00000000000E+00 0. -1.
         -2   -1    0    0    0  501 -0.00000000000E+00 -0.00000000000E+00 -0.12587282244E+02  0.12587282244E+02  0.00000000000E+00 0.  1.
         23    2    1    2    0    0  0.00000000000E+00  0.00000000000E+00  0.22053067700E+03  0.24570524149E+03  0.10833875667E+03 0.  0.
        -11    1    3    3    0    0 -0.13913027960E+02 -0.31841140783E+02  0.16019315809E+02  0.38262894198E+02  0.00000000000E+00 0.  1.
         11    1    3    3    0    0  0.13913027960E+02  0.31841140783E+02  0.20451136119E+03  0.20744234729E+03  0.00000000000E+00 0. -1.
<mgrwt>
<rscale>  0 0.10833876E+03</rscale>
<asrwt>0</asrwt>
<pdfrwt beam="1">  1        2 0.35864298E-01 0.10833876E+03</pdfrwt>
<pdfrwt beam="2">  1       -2 0.19365051E-02 0.10833876E+03</pdfrwt>
<totfact> 0.10249703E+05</totfact>
</mgrwt>
</event>
<event>
 5    1  0.1310593E+001  0.9105104E+02  0.7546771E-02  0.1300326E+00
          1   -1    0    0  501    0  0.00000000000E+00  0.00000000000E+00  0.70914258405E+02  0.70914258405E+02  0.00000000000E+00 0. -1.
         -1   -1    0    0    0  501 -0.00000000000E+00 -0.00000000000E+00 -0.29226464584E+02  0.29226464584E+02  0.00000000000E+00 0.  1.
         23    2    1    2    0    0  0.00000000000E+00  0.00000000000E+00  0.41687793821E+02  0.10014072299E+03  0.91051041988E+02 0.  0.
        -13    1    3    3    0    0  0.15001396276E+02 -0.42594574668E+02  0.14503549403E+02  0.47430924792E+02  0.00000000000E+00 0. -1.
         13    1    3    3    0    0 -0.15001396276E+02  0.42594574668E+02  0.27184244419E+02  0.52709798197E+02  0.00000000000E+00 0.  1.
<mgrwt>
<rscale>  0 0.91051042E+02</rscale>
<asrwt>0</asrwt>
<pdfrwt beam="1">  1        1 0.10909886E-01 0.91051042E+02</pdfrwt>
<pdfrwt beam="2">  1       -1 0.44963792E-02 0.91051042E+02</pdfrwt>
<totfact> 0.99242316E+04</totfact>
</mgrwt>
</event>
<event>
 5    1  0.1310593E+001  0.9124926E+02  0.7546771E-02  0.1299854E+00
          1   -1    0    0  501    0  0.00000000000E+00  0.00000000000E+00  0.63770743805E+02  0.63770743805E+02  0.00000000000E+00 0. -1.
         -1   -1    0    0    0  501 -0.00000000000E+00 -0.00000000000E+00 -0.32642036162E+02  0.32642036162E+02  0.00000000000E+00 0.  1.
         23    2    1    2    0    0  0.00000000000E+00  0.00000000000E+00  0.31128707643E+02  0.96412779967E+02  0.91249261375E+02 0.  0.
        -11    1    3    3    0    0  0.16152406297E+02 -0.55539928399E+01  0.60265098893E+02  0.62638879382E+02  0.00000000000E+00 0. -1.
         11    1    3    3    0    0 -0.16152406297E+02  0.55539928399E+01 -0.29136391250E+02  0.33773900585E+02  0.00000000000E+00 0.  1.
<mgrwt>
<rscale>  0 0.91249261E+02</rscale>
<asrwt>0</asrwt>
<pdfrwt beam="1">  1        1 0.98108836E-02 0.91249261E+02</pdfrwt>
<pdfrwt beam="2">  1       -1 0.50218517E-02 0.91249261E+02</pdfrwt>
<totfact> 0.97053507E+04</totfact>
</mgrwt>
</event>
<event>
 5    1  0.1310593E+001  0.9287592E+02  0.7546771E-02  0.1296033E+00
         -1   -1    0    0    0  501 -0.00000000000E+00  0.00000000000E+00  0.96461009214E+01  0.96461009214E+01  0.00000000000E+00 0.  1.
          1   -1    0    0  501    0  0.00000000000E+00 -0.00000000000E+00 -0.22356019691E+03  0.22356019691E+03  0.00000000000E+00 0. -1.
         23    2    1    2    0    0  0.00000000000E+00  0.00000000000E+00 -0.21391409598E+03  0.23320629783E+03  0.92875921990E+02 0.  0.
        -11    1    3    3    0    0  0.48556569658E+01  0.45025167900E+02 -0.81149096302E+02  0.92930183362E+02  0.00000000000E+00 0.  1.
         11    1    3    3    0    0 -0.48556569658E+01 -0.45025167900E+02 -0.13276499968E+03  0.14027611447E+03  0.00000000000E+00 0. -1.
<mgrwt>
<rscale>  0 0.92875922E+02</rscale>
<asrwt>0</asrwt>
<pdfrwt beam="2">  1        1 0.34393871E-01 0.92875922E+02</pdfrwt>
<pdfrwt beam="1">  1       -1 0.14840158E-02 0.92875922E+02</pdfrwt>
<totfact> 0.11515760E+05</totfact>
</mgrwt>
</event>
<event>
 5    1  0.1310593E+001  0.9010934E+02  0.7546771E-02  0.1302587E+00
         -1   -1    0    0    0  501 -0.00000000000E+00  0.00000000000E+00  0.16056247957E+02  0.16056247957E+02  0.00000000000E+00 0.  1.
          1   -1    0    0  501    0  0.00000000000E+00 -0.00000000000E+00 -0.12642574746E+03  0.12642574746E+03  0.00000000000E+00 0. -1.
         23    2    1    2    0    0  0.00000000000E+00  0.00000000000E+00 -0.11036949950E+03  0.14248199542E+03  0.90109336906E+02 0.  0.
        -13    1    3    3    0    0 -0.43204404267E+01 -0.44213254846E+02 -0.67064384465E+02  0.80443208373E+02  0.00000000000E+00 0.  1.
         13    1    3    3    0    0  0.43204404267E+01  0.44213254846E+02 -0.43305115037E+02  0.62038787045E+02  0.00000000000E+00 0. -1.
<mgrwt>
<rscale>  0 0.90109337E+02</rscale>
<asrwt>0</asrwt>
<pdfrwt beam="2">  1        1 0.19450115E-01 0.90109337E+02</pdfrwt>
<pdfrwt beam="1">  1       -1 0.24701920E-02 0.90109337E+02</pdfrwt>
<totfact> 0.11224786E+05</totfact>
</mgrwt>
</event>
<event>
 5    1  0.1310593E+001  0.9068544E+02  0.7546771E-02  0.1301200E+00
          1   -1    0    0  501    0  0.00000000000E+00  0.00000000000E+00  0.11053714639E+03  0.11053714639E+03  0.00000000000E+00 0. -1.
         -1   -1    0    0    0  501 -0.00000000000E+00 -0.00000000000E+00 -0.18599741442E+02  0.18599741442E+02  0.00000000000E+00 0.  1.
         23    2    1    2    0    0  0.00000000000E+00  0.00000000000E+00  0.91937404943E+02  0.12913688783E+03  0.90685441886E+02 0.  0.
        -13    1    3    3    0    0 -0.28783202983E+02 -0.33195207097E+02  0.61925725621E+02  0.75928848548E+02  0.00000000000E+00 0.  1.
         13    1    3    3    0    0  0.28783202983E+02  0.33195207097E+02  0.30011679322E+02  0.53208039279E+02  0.00000000000E+00 0. -1.
<mgrwt>
<rscale>  0 0.90685442E+02</rscale>
<asrwt>0</asrwt>
<pdfrwt beam="1">  1        1 0.17005714E-01 0.90685442E+02</pdfrwt>
<pdfrwt beam="2">  1       -1 0.28614988E-02 0.90685442E+02</pdfrwt>
<totfact> 0.10779839E+05</totfact>
</mgrwt>
</event>
<event>
 5    1  0.1310593E+001  0.8201793E+02  0.7546771E-02  0.1323420E+00
         -1   -1    0    0    0  501 -0.00000000000E+00  0.00000000000E+00  0.50540401687E+02  0.50540401687E+02  0.00000000000E+00 0.  1.
          1   -1    0    0  501    0  0.00000000000E+00 -0.00000000000E+00 -0.33275063173E+02  0.33275063173E+02  0.00000000000E+00 0. -1.
         23    2    1    2    0    0  0.00000000000E+00  0.00000000000E+00  0.17265338514E+02  0.83815464859E+02  0.82017926306E+02 0.  0.
        -13    1    3    3    0    0 -0.22301629202E+02  0.25293425472E+02 -0.15215782036E+02  0.36995135628E+02  0.00000000000E+00 0. -1.
         13    1    3    3    0    0  0.22301629202E+02 -0.25293425472E+02  0.32481120550E+02  0.46820329231E+02  0.00000000000E+00 0.  1.
<mgrwt>
<rscale>  0 0.82017926E+02</rscale>
<asrwt>0</asrwt>
<pdfrwt beam="2">  1        1 0.51192405E-02 0.82017926E+02</pdfrwt>
<pdfrwt beam="1">  1       -1 0.77754464E-02 0.82017926E+02</pdfrwt>
<totfact> 0.11883253E+05</totfact>
</mgrwt>
</event>
<event>
 5    1  0.1310593E+001  0.8989492E+02  0.7546771E-02  0.1303106E+00
          2   -1    0    0  501    0  0.00000000000E+00  0.00000000000E+00  0.87646440088E+02  0.87646440088E+02  0.00000000000E+00 0. -1.
         -2   -1    0    0    0  501 -0.00000000000E+00 -0.00000000000E+00 -0.23050269708E+02  0.23050269708E+02  0.00000000000E+00 0.  1.
         23    2    1    2    0    0  0.00000000000E+00  0.00000000000E+00  0.64596170380E+02  0.11069670980E+03  0.89894918276E+02 0.  0.
        -11    1    3    3    0    0  0.12833039092E+02 -0.17838283564E+02  0.80580677998E+02  0.83523271724E+02  0.00000000000E+00 0. -1.
         11    1    3    3    0    0 -0.12833039092E+02  0.17838283564E+02 -0.15984507618E+02  0.27173438072E+02  0.00000000000E+00 0.  1.
<mgrwt>
<rscale>  0 0.89894918E+02</rscale>
<asrwt>0</asrwt>
<pdfrwt beam="1">  1        2 0.13484068E-01 0.89894918E+02</pdfrwt>
<pdfrwt beam="2">  1       -2 0.35461954E-02 0.89894918E+02</pdfrwt>
<totfact> 0.12263926E+05</totfact>
</mgrwt>
</event>
<event>
 5    1  0.1310593E+001  0.6899506E+02  0.7546771E-02  0.1363544E+00
          2   -1    0    0  501    0  0.00000000000E+00  0.00000000000E+00  0.57754585458E+01  0.57754585458E+01  0.00000000000E+00 0. -1.
         -2   -1    0    0    0  501 -0.00000000000E+00 -0.00000000000E+00 -0.20605802609E+03  0.20605802609E+03  0.00000000000E+00 0.  1.
         23    2    1    2    0    0  0.00000000000E+00  0.00000000000E+00 -0.20028256755E+03  0.21183348464E+03  0.68995060337E+02 0.  0.
        -11    1    3    3    0    0  0.27000133293E+02 -0.67321399071E+01 -0.37538579092E+02  0.46727655899E+02  0.00000000000E+00 0. -1.
         11    1    3    3    0    0 -0.27000133293E+02  0.67321399071E+01 -0.16274398846E+03  0.16510582874E+03  0.00000000000E+00 0.  1.
<mgrwt>
<rscale>  0 0.68995060E+02</rscale>
<asrwt>0</asrwt>
<pdfrwt beam="1">  1        2 0.88853222E-03 0.68995060E+02</pdfrwt>
<pdfrwt beam="2">  1       -2 0.31701230E-01 0.68995060E+02</pdfrwt>
<totfact> 0.12485705E+05</totfact>
</mgrwt>
</event>
<event>
 5    1  0.1310593E+001  0.9208012E+02  0.7546771E-02  0.1297891E+00
         -4   -1    0    0    0  501 -0.00000000000E+00  0.00000000000E+00  0.26506724559E+03  0.26506724559E+03  0.00000000000E+00 0.  1.
          4   -1    0    0  501    0  0.00000000000E+00 -0.00000000000E+00 -0.79967902165E+01  0.79967902165E+01  0.00000000000E+00 0. -1.
         23    2    1    2    0    0  0.00000000000E+00  0.00000000000E+00  0.25707045537E+03  0.27306403581E+03  0.92080120683E+02 0.  0.
        -13    1    3    3    0    0  0.36516328528E+02 -0.72300633338E+00  0.21166050904E+03  0.21478858460E+03  0.00000000000E+00 0.  1.
         13    1    3    3    0    0 -0.36516328528E+02  0.72300633338E+00  0.45409946333E+02  0.58275451206E+02  0.00000000000E+00 0. -1.
<mgrwt>
<rscale>  0 0.92080121E+02</rscale>
<asrwt>0</asrwt>
<pdfrwt beam="2">  1        4 0.12302756E-02 0.92080121E+02</pdfrwt>
<pdfrwt beam="1">  1       -4 0.40779569E-01 0.92080121E+02</pdfrwt>
<totfact> 0.18190073E+04</totfact>
</mgrwt>
</event>
<event>
 5    1  0.1310593E+001  0.9158255E+02  0.7546771E-02  0.1299064E+00
          1   -1    0    0  501    0  0.00000000000E+00  0.00000000000E+00  0.88317202670E+02  0.88317202670E+02  0.00000000000E+00 0. -1.
         -1   -1    0    0    0  501 -0.00000000000E+00 -0.00000000000E+00 -0.23742155862E+02  0.23742155862E+02  0.00000000000E+00 0.  1.
         23    2    1    2    0    0  0.00000000000E+00  0.00000000000E+00  0.64575046808E+02  0.11205935853E+03  0.91582548362E+02 0.  0.
        -11    1    3    3    0    0 -0.13841140869E+02  0.26817019101E+02 -0.98528221636E+01  0.31745988701E+02  0.00000000000E+00 0.  1.
         11    1    3    3    0    0  0.13841140869E+02 -0.26817019101E+02  0.74427868972E+02  0.80313369831E+02  0.00000000000E+00 0. -1.
<mgrwt>
<rscale>  0 0.91582548E+02</rscale>
<asrwt>0</asrwt>
<pdfrwt beam="1">  1        1 0.13587262E-01 0.91582548E+02</pdfrwt>
<pdfrwt beam="2">  1       -1 0.36526394E-02 0.91582548E+02</pdfrwt>
<totfact> 0.10110995E+05</totfact>
</mgrwt>
</event>
<event>
 5    1  0.1310593E+001  0.9050898E+02  0.7546771E-02  0.1301624E+00
         -3   -1    0    0    0  501 -0.00000000000E+00  0.00000000000E+00  0.10213974718E+02  0.10213974718E+02  0.00000000000E+00 0.  1.
          3   -1    0    0  501    0  0.00000000000E+00 -0.00000000000E+00 -0.20050654708E+03  0.20050654708E+03  0.00000000000E+00 0. -1.
         23    2    1    2    0    0  0.00000000000E+00  0.00000000000E+00 -0.19029257236E+03  0.21072052180E+03  0.90508978620E+02 0.  0.
        -11    1    3    3    0    0  0.41266254678E+02  0.12176797030E+02 -0.62486195218E+02  0.75866347967E+02  0.00000000000E+00 0.  1.
         11    1    3    3    0    0 -0.41266254678E+02 -0.12176797030E+02 -0.12780637714E+03  0.13485417383E+03  0.00000000000E+00 0. -1.
<mgrwt>
<rscale>  0 0.90508979E+02</rscale>
<asrwt>0</asrwt>
<pdfrwt beam="2">  1        3 0.30847159E-01 0.90508979E+02</pdfrwt>
<pdfrwt beam="1">  1       -3 0.15713808E-02 0.90508979E+02</pdfrwt>
<totfact> 0.28512499E+04</totfact>
</mgrwt>
</event>
<event>
 5    1  0.1310593E+001  0.9115368E+02  0.7546771E-02  0.1300082E+00
          1   -1    0    0  501    0  0.00000000000E+00  0.00000000000E+00  0.18728292888E+02  0.18728292888E+02  0.00000000000E+00 0. -1.
         -1   -1    0    0    0  501 -0.00000000000E+00 -0.00000000000E+00 -0.11091498244E+03  0.11091498244E+03  0.00000000000E+00 0.  1.
         23    2    1    2    0    0  0.00000000000E+00  0.00000000000E+00 -0.92186689551E+02  0.12964327533E+03  0.91153678516E+02 0.  0.
        -11    1    3    3    0    0 -0.40213351874E+02 -0.19129245211E+02 -0.59897709544E+02  0.74637639968E+02  0.00000000000E+00 0.  1.
         11    1    3    3    0    0  0.40213351874E+02  0.19129245211E+02 -0.32288980007E+02  0.55005635358E+02  0.00000000000E+00 0. -1.
<mgrwt>
<rscale>  0 0.91153679E+02</rscale>
<asrwt>0</asrwt>
<pdfrwt beam="1">  1        1 0.28812758E-02 0.91153679E+02</pdfrwt>
<pdfrwt beam="2">  1       -1 0.17063843E-01 0.91153679E+02</pdfrwt>
<totfact> 0.79830416E+04</totfact>
</mgrwt>
</event>
<event>
 5    1  0.1310593E+001  0.8988632E+02  0.7546771E-02  0.1303127E+00
         -1   -1    0    0    0  501 -0.00000000000E+00  0.00000000000E+00  0.96092955524E+01  0.96092955524E+01  0.00000000000E+00 0. -1.
          1   -1    0    0  501    0  0.00000000000E+00 -0.00000000000E+00 -0.21020142512E+03  0.21020142512E+03  0.00000000000E+00 0.  1.
         23    2    1    2    0    0  0.00000000000E+00  0.00000000000E+00 -0.20059212957E+03  0.21981072067E+03  0.89886319749E+02 0.  0.
        -13    1    3    3    0    0 -0.40944056524E+01  0.32030540917E+02 -0.23852686953E+02  0.40145614754E+02  0.00000000000E+00 0. -1.
         13    1    3    3    0    0  0.40944056524E+01 -0.32030540917E+02 -0.17673944262E+03  0.17966510592E+03  0.00000000000E+00 0.  1.
<mgrwt>
<rscale>  0 0.89886320E+02</rscale>
<asrwt>0</asrwt>
<pdfrwt beam="2">  1        1 0.32338679E-01 0.89886320E+02</pdfrwt>
<pdfrwt beam="1">  1       -1 0.14783532E-02 0.89886320E+02</pdfrwt>
<totfact> 0.12420491E+05</totfact>
</mgrwt>
</event>
<event>
 5    1  0.1310593E+001  0.9346461E+02  0.7546771E-02  0.1294672E+00
         -3   -1    0    0    0  501 -0.00000000000E+00  0.00000000000E+00  0.58904116500E+02  0.58904116500E+02  0.00000000000E+00 0.  1.
          3   -1    0    0  501    0  0.00000000000E+00 -0.00000000000E+00 -0.37075649337E+02  0.37075649337E+02  0.00000000000E+00 0. -1.
         23    2    1    2    0    0  0.00000000000E+00  0.00000000000E+00  0.21828467163E+02  0.95979765837E+02  0.93464610797E+02 0.  0.
        -13    1    3    3    0    0  0.23895263287E+02 -0.12720791870E+02  0.50032723837E+02  0.56886515168E+02  0.00000000000E+00 0.  1.
         13    1    3    3    0    0 -0.23895263287E+02  0.12720791870E+02 -0.28204256674E+02  0.39093250669E+02  0.00000000000E+00 0. -1.
<mgrwt>
<rscale>  0 0.93464611E+02</rscale>
<asrwt>0</asrwt>
<pdfrwt beam="2">  1        3 0.57039461E-02 0.93464611E+02</pdfrwt>
<pdfrwt beam="1">  1       -3 0.90621718E-02 0.93464611E+02</pdfrwt>
<totfact> 0.32684671E+04</totfact>
</mgrwt>
</event>
<event>
 5    1  0.1310593E+001  0.9555634E+02  0.7546771E-02  0.1289928E+00
         -2   -1    0    0    0  501 -0.00000000000E+00  0.00000000000E+00  0.54435187310E+01  0.54435187310E+01  0.00000000000E+00 0.  1.
          2   -1    0    0  501    0  0.00000000000E+00 -0.00000000000E+00 -0.41935253755E+03  0.41935253755E+03  0.00000000000E+00 0. -1.
         23    2    1    2    0    0  0.00000000000E+00  0.00000000000E+00 -0.41390901882E+03  0.42479605628E+03  0.95556337163E+02 0.  0.
        -11    1    3    3    0    0 -0.25776585853E+02 -0.37669830183E+02 -0.14419493648E+03  0.15124691134E+03  0.00000000000E+00 0.  1.
         11    1    3    3    0    0  0.25776585853E+02  0.37669830183E+02 -0.26971408234E+03  0.27354914494E+03  0.00000000000E+00 0. -1.
<mgrwt>
<rscale>  0 0.95556337E+02</rscale>
<asrwt>0</asrwt>
<pdfrwt beam="2">  1        2 0.64515789E-01 0.95556337E+02</pdfrwt>
<pdfrwt beam="1">  1       -2 0.83746424E-03 0.95556337E+02</pdfrwt>
<totfact> 0.17917819E+05</totfact>
</mgrwt>
</event>
<event>
 5    1  0.1310593E+001  0.9091214E+02  0.7546771E-02  0.1300658E+00
         -2   -1    0    0    0  501 -0.00000000000E+00  0.00000000000E+00  0.52302682814E+01  0.52302682814E+01  0.00000000000E+00 0.  1.
          2   -1    0    0  501    0  0.00000000000E+00 -0.00000000000E+00 -0.39505702889E+03  0.39505702889E+03  0.00000000000E+00 0. -1.
         23    2    1    2    0    0  0.00000000000E+00  0.00000000000E+00 -0.38982676061E+03  0.40028729717E+03  0.90912138849E+02 0.  0.
        -13    1    3    3    0    0  0.35631227723E+02  0.27029743090E+02 -0.23070065079E+03  0.23499570565E+03  0.00000000000E+00 0.  1.
         13    1    3    3    0    0 -0.35631227723E+02 -0.27029743090E+02 -0.15912610982E+03  0.16529159152E+03  0.00000000000E+00 0. -1.
<mgrwt>
<rscale>  0 0.90912139E+02</rscale>
<asrwt>0</asrwt>
<pdfrwt beam="2">  1        2 0.60777999E-01 0.90912139E+02</pdfrwt>
<pdfrwt beam="1">  1       -2 0.80465673E-03 0.90912139E+02</pdfrwt>
<totfact> 0.20027802E+05</totfact>
</mgrwt>
</event>
<event>
 5    1  0.1310593E+001  0.9091566E+02  0.7546771E-02  0.1300649E+00
         -3   -1    0    0    0  501 -0.00000000000E+00  0.00000000000E+00  0.10954228615E+02  0.10954228615E+02  0.00000000000E+00 0.  1.
          3   -1    0    0  501    0  0.00000000000E+00 -0.00000000000E+00 -0.18864078856E+03  0.18864078856E+03  0.00000000000E+00 0. -1.
         23    2    1    2    0    0  0.00000000000E+00  0.00000000000E+00 -0.17768655995E+03  0.19959501718E+03  0.90915660346E+02 0.  0.
        -13    1    3    3    0    0  0.25601056784E+02 -0.32939866885E+02 -0.12847991153E+03  0.13508344312E+03  0.00000000000E+00 0. -1.
         13    1    3    3    0    0 -0.25601056784E+02  0.32939866885E+02 -0.49206648424E+02  0.64511574062E+02  0.00000000000E+00 0.  1.
<mgrwt>
<rscale>  0 0.90915660E+02</rscale>
<asrwt>0</asrwt>
<pdfrwt beam="2">  1        3 0.29021657E-01 0.90915660E+02</pdfrwt>
<pdfrwt beam="1">  1       -3 0.16852661E-02 0.90915660E+02</pdfrwt>
<totfact> 0.28741068E+04</totfact>
</mgrwt>
</event>
<event>
 5    1  0.1310593E+001  0.9200567E+02  0.7546771E-02  0.1298066E+00
          2   -1    0    0  501    0  0.00000000000E+00  0.00000000000E+00  0.92241232649E+02  0.92241232649E+02  0.00000000000E+00 0. -1.
         -2   -1    0    0    0  501 -0.00000000000E+00 -0.00000000000E+00 -0.22942678599E+02  0.22942678599E+02  0.00000000000E+00 0.  1.
         23    2    1    2    0    0  0.00000000000E+00  0.00000000000E+00  0.69298554050E+02  0.11518391125E+03  0.92005672742E+02 0.  0.
        -11    1    3    3    0    0 -0.11282812211E+02  0.28205601706E+02 -0.85991985057E+01  0.31572203501E+02  0.00000000000E+00 0.  1.
         11    1    3    3    0    0  0.11282812211E+02 -0.28205601706E+02  0.77897752556E+02  0.83611707746E+02  0.00000000000E+00 0. -1.
<mgrwt>
<rscale>  0 0.92005673E+02</rscale>
<asrwt>0</asrwt>
<pdfrwt beam="1">  1        2 0.14190959E-01 0.92005673E+02</pdfrwt>
<pdfrwt beam="2">  1       -2 0.35296429E-02 0.92005673E+02</pdfrwt>
<totfact> 0.11676882E+05</totfact>
</mgrwt>
</event>
<event>
 5    1  0.1310593E+001  0.9199122E+02  0.7546771E-02  0.1298100E+00
          1   -1    0    0  501    0  0.00000000000E+00  0.00000000000E+00  0.34097769405E+02  0.34097769405E+02  0.00000000000E+00 0. -1.
         -1   -1    0    0    0  501 -0.00000000000E+00 -0.00000000000E+00 -0.62045003132E+02  0.62045003132E+02  0.00000000000E+00 0.  1.
         23    2    1    2    0    0  0.00000000000E+00  0.00000000000E+00 -0.27947233727E+02  0.96142772537E+02  0.91991221527E+02 0.  0.
        -11    1    3    3    0    0  0.81694133362E+01  0.18847072789E+02  0.29037568875E+02  0.35568692317E+02  0.00000000000E+00 0. -1.
         11    1    3    3    0    0 -0.81694133362E+01 -0.18847072789E+02 -0.56984802601E+02  0.60574080220E+02  0.00000000000E+00 0.  1.
<mgrwt>
<rscale>  0 0.91991222E+02</rscale>
<asrwt>0</asrwt>
<pdfrwt beam="1">  1        1 0.52458108E-02 0.91991222E+02</pdfrwt>
<pdfrwt beam="2">  1       -1 0.95453850E-02 0.91991222E+02</pdfrwt>
<totfact> 0.86246003E+04</totfact>
</mgrwt>
</event>
<event>
 5    1  0.1310593E+001  0.8727853E+02  0.7546771E-02  0.1309579E+00
          3   -1    0    0  501    0  0.00000000000E+00  0.00000000000E+00  0.11607770749E+02  0.11607770749E+02  0.00000000000E+00 0. -1.
         -3   -1    0    0    0  501 -0.00000000000E+00 -0.00000000000E+00 -0.16406125904E+03  0.16406125904E+03  0.00000000000E+00 0.  1.
         23    2    1    2    0    0  0.00000000000E+00  0.00000000000E+00 -0.15245348829E+03  0.17566902978E+03  0.87278530776E+02 0.  0.
        -13    1    3    3    0    0 -0.15189396434E+02  0.40842244602E+02 -0.71472765592E+02  0.83708798399E+02  0.00000000000E+00 0.  1.
         13    1    3    3    0    0  0.15189396434E+02 -0.40842244602E+02 -0.80980722695E+02  0.91960231385E+02  0.00000000000E+00 0. -1.
<mgrwt>
<rscale>  0 0.87278531E+02</rscale>
<asrwt>0</asrwt>
<pdfrwt beam="1">  1        3 0.17858109E-02 0.87278531E+02</pdfrwt>
<pdfrwt beam="2">  1       -3 0.25240194E-01 0.87278531E+02</pdfrwt>
<totfact> 0.33526840E+04</totfact>
</mgrwt>
</event>
<event>
 5    1  0.1310593E+001  0.9068794E+02  0.7546771E-02  0.1301194E+00
         -3   -1    0    0    0  501 -0.00000000000E+00  0.00000000000E+00  0.96236757104E+01  0.96236757104E+01  0.00000000000E+00 0.  1.
          3   -1    0    0  501    0  0.00000000000E+00 -0.00000000000E+00 -0.21364764414E+03  0.21364764414E+03  0.00000000000E+00 0. -1.
         23    2    1    2    0    0  0.00000000000E+00  0.00000000000E+00 -0.20402396843E+03  0.22327131985E+03  0.90687940619E+02 0.  0.
        -11    1    3    3    0    0 -0.40386590962E+02 -0.20164530862E+02 -0.11256997930E+03  0.12128349135E+03  0.00000000000E+00 0. -1.
         11    1    3    3    0    0  0.40386590962E+02  0.20164530862E+02 -0.91453989127E+02  0.10198782850E+03  0.00000000000E+00 0.  1.
<mgrwt>
<rscale>  0 0.90687941E+02</rscale>
<asrwt>0</asrwt>
<pdfrwt beam="2">  1        3 0.32868874E-01 0.90687941E+02</pdfrwt>
<pdfrwt beam="1">  1       -3 0.14805652E-02 0.90687941E+02</pdfrwt>
<totfact> 0.27737074E+04</totfact>
</mgrwt>
</event>
<event>
 5    1  0.1310593E+001  0.8842207E+02  0.7546771E-02  0.1306718E+00
         -1   -1    0    0    0  501 -0.00000000000E+00  0.00000000000E+00  0.72912840566E+02  0.72912840566E+02  0.00000000000E+00 0.  1.
          1   -1    0    0  501    0  0.00000000000E+00 -0.00000000000E+00 -0.26807563908E+02  0.26807563908E+02  0.00000000000E+00 0. -1.
         23    2    1    2    0    0  0.00000000000E+00  0.00000000000E+00  0.46105276658E+02  0.99720404474E+02  0.88422070394E+02 0.  0.
        -13    1    3    3    0    0  0.22242548865E+02 -0.84341232564E+00  0.66132747004E+02  0.69778095064E+02  0.00000000000E+00 0.  1.
         13    1    3    3    0    0 -0.22242548865E+02  0.84341232564E+00 -0.20027470346E+02  0.29942309411E+02  0.00000000000E+00 0. -1.
<mgrwt>
<rscale>  0 0.88422070E+02</rscale>
<asrwt>0</asrwt>
<pdfrwt beam="2">  1        1 0.41242406E-02 0.88422070E+02</pdfrwt>
<pdfrwt beam="1">  1       -1 0.11217360E-01 0.88422070E+02</pdfrwt>
<totfact> 0.92961414E+04</totfact>
</mgrwt>
</event>
<event>
 5    1  0.1310593E+001  0.9133217E+02  0.7546771E-02  0.1299657E+00
          1   -1    0    0  501    0  0.00000000000E+00  0.00000000000E+00  0.12199504627E+03  0.12199504627E+03  0.00000000000E+00 0. -1.
         -1   -1    0    0    0  501 -0.00000000000E+00 -0.00000000000E+00 -0.17094064333E+02  0.17094064333E+02  0.00000000000E+00 0.  1.
         23    2    1    2    0    0  0.00000000000E+00  0.00000000000E+00  0.10490098193E+03  0.13908911060E+03  0.91332166715E+02 0.  0.
        -11    1    3    3    0    0 -0.12984979325E+02 -0.17220797501E+02 -0.88490350136E+01  0.23312463948E+02  0.00000000000E+00 0.  1.
         11    1    3    3    0    0  0.12984979325E+02  0.17220797501E+02  0.11375001695E+03  0.11577664665E+03  0.00000000000E+00 0. -1.
<mgrwt>
<rscale>  0 0.91332167E+02</rscale>
<asrwt>0</asrwt>
<pdfrwt beam="1">  1        1 0.18768468E-01 0.91332167E+02</pdfrwt>
<pdfrwt beam="2">  1       -1 0.26298561E-02 0.91332167E+02</pdfrwt>
<totfact> 0.10755066E+05</totfact>
</mgrwt>
</event>
<event>
 5    1  0.1310593E+001  0.8174491E+02  0.7546771E-02  0.1324171E+00
         -1   -1    0    0    0  501 -0.00000000000E+00  0.00000000000E+00  0.58774455211E+02  0.58774455211E+02  0.00000000000E+00 0.  1.
          1   -1    0    0  501    0  0.00000000000E+00 -0.00000000000E+00 -0.28423191149E+02  0.28423191149E+02  0.00000000000E+00 0. -1.
         23    2    1    2    0    0  0.00000000000E+00  0.00000000000E+00  0.30351264062E+02  0.87197646360E+02  0.81744909937E+02 0.  0.
        -11    1    3    3    0    0  0.34727322333E+02 -0.40973891137E+01 -0.73967498193E+01  0.35741956044E+02  0.00000000000E+00 0. -1.
         11    1    3    3    0    0 -0.34727322333E+02  0.40973891137E+01  0.37748013882E+02  0.51455690316E+02  0.00000000000E+00 0.  1.
<mgrwt>
<rscale>  0 0.81744910E+02</rscale>
<asrwt>0</asrwt>
<pdfrwt beam="2">  1        1 0.43727986E-02 0.81744910E+02</pdfrwt>
<pdfrwt beam="1">  1       -1 0.90422239E-02 0.81744910E+02</pdfrwt>
<totfact> 0.11728044E+05</totfact>
</mgrwt>
</event>
<event>
 5    1  0.1310593E+001  0.9111231E+02  0.7546771E-02  0.1300180E+00
         -2   -1    0    0    0  501 -0.00000000000E+00  0.00000000000E+00  0.20269090340E+02  0.20269090340E+02  0.00000000000E+00 0.  1.
          2   -1    0    0  501    0  0.00000000000E+00 -0.00000000000E+00 -0.10239055166E+03  0.10239055166E+03  0.00000000000E+00 0. -1.
         23    2    1    2    0    0  0.00000000000E+00  0.00000000000E+00 -0.82121461316E+02  0.12265964200E+03  0.91112311825E+02 0.  0.
        -13    1    3    3    0    0  0.34851853485E+02  0.28785543841E+02 -0.48688630543E+02  0.66436751649E+02  0.00000000000E+00 0.  1.
         13    1    3    3    0    0 -0.34851853485E+02 -0.28785543841E+02 -0.33432830774E+02  0.56222890348E+02  0.00000000000E+00 0. -1.
<mgrwt>
<rscale>  0 0.91112312E+02</rscale>
<asrwt>0</asrwt>
<pdfrwt beam="2">  1        2 0.15752392E-01 0.91112312E+02</pdfrwt>
<pdfrwt beam="1">  1       -2 0.31183216E-02 0.91112312E+02</pdfrwt>
<totfact> 0.12380587E+05</totfact>
</mgrwt>
</event>
<event>
 5    1  0.1310593E+001  0.9246329E+02  0.7546771E-02  0.1296994E+00
         -1   -1    0    0    0  501 -0.00000000000E+00  0.00000000000E+00  0.56103792160E+02  0.56103792160E+02  0.00000000000E+00 0.  1.
          1   -1    0    0  501    0  0.00000000000E+00 -0.00000000000E+00 -0.38096623067E+02  0.38096623067E+02  0.00000000000E+00 0. -1.
         23    2    1    2    0    0  0.00000000000E+00  0.00000000000E+00  0.18007169093E+02  0.94200415228E+02  0.92463290501E+02 0.  0.
        -13    1    3    3    0    0  0.19708364784E+01 -0.33028791795E+02  0.41899207322E+02  0.53388471209E+02  0.00000000000E+00 0.  1.
         13    1    3    3    0    0 -0.19708364784E+01  0.33028791795E+02 -0.23892038229E+02  0.40811944018E+02  0.00000000000E+00 0. -1.
<mgrwt>
<rscale>  0 0.92463291E+02</rscale>
<asrwt>0</asrwt>
<pdfrwt beam="2">  1        1 0.58610190E-02 0.92463291E+02</pdfrwt>
<pdfrwt beam="1">  1       -1 0.86313526E-02 0.92463291E+02</pdfrwt>
<totfact> 0.86483968E+04</totfact>
</mgrwt>
</event>
<event>
 5    1  0.1310593E+001  0.9211931E+02  0.7546771E-02  0.1297799E+00
         -3   -1    0    0    0  501 -0.00000000000E+00  0.00000000000E+00  0.22898512506E+02  0.22898512506E+02  0.00000000000E+00 0.  1.
          3   -1    0    0  501    0  0.00000000000E+00 -0.00000000000E+00 -0.92647578816E+02  0.92647578816E+02  0.00000000000E+00 0. -1.
         23    2    1    2    0    0  0.00000000000E+00  0.00000000000E+00 -0.69749066310E+02  0.11554609132E+03  0.92119308337E+02 0.  0.
        -11    1    3    3    0    0  0.44369090657E+02 -0.21613964117E+01 -0.19604695869E+02  0.48555452220E+02  0.00000000000E+00 0.  1.
         11    1    3    3    0    0 -0.44369090657E+02  0.21613964117E+01 -0.50144370442E+02  0.66990639101E+02  0.00000000000E+00 0. -1.
<mgrwt>
<rscale>  0 0.92119308E+02</rscale>
<asrwt>0</asrwt>
<pdfrwt beam="2">  1        3 0.14253474E-01 0.92119308E+02</pdfrwt>
<pdfrwt beam="1">  1       -3 0.35228480E-02 0.92119308E+02</pdfrwt>
<totfact> 0.32627177E+04</totfact>
</mgrwt>
</event>
<event>
 5    1  0.1310593E+001  0.9178304E+02  0.7546771E-02  0.1298590E+00
          2   -1    0    0  501    0  0.00000000000E+00  0.00000000000E+00  0.14331477565E+02  0.14331477565E+02  0.00000000000E+00 0. -1.
         -2   -1    0    0    0  501 -0.00000000000E+00 -0.00000000000E+00 -0.14695145428E+03  0.14695145428E+03  0.00000000000E+00 0.  1.
         23    2    1    2    0    0  0.00000000000E+00  0.00000000000E+00 -0.13261997672E+03  0.16128293184E+03  0.91783036997E+02 0.  0.
        -13    1    3    3    0    0 -0.25456541471E+02  0.84249442511E+01 -0.86645111050E+00  0.26828453679E+02  0.00000000000E+00 0. -1.
         13    1    3    3    0    0  0.25456541471E+02 -0.84249442511E+01 -0.13175352560E+03  0.13445447816E+03  0.00000000000E+00 0.  1.
<mgrwt>
<rscale>  0 0.91783037E+02</rscale>
<asrwt>0</asrwt>
<pdfrwt beam="1">  1        2 0.22048428E-02 0.91783037E+02</pdfrwt>
<pdfrwt beam="2">  1       -2 0.22607915E-01 0.91783037E+02</pdfrwt>
<totfact> 0.69206588E+04</totfact>
</mgrwt>
</event>
<event>
 5    1  0.1310593E+001  0.9118528E+02  0.7546771E-02  0.1300006E+00
          1   -1    0    0  501    0  0.00000000000E+00  0.00000000000E+00  0.45641353129E+02  0.45641353129E+02  0.00000000000E+00 0. -1.
         -1   -1    0    0    0  501 -0.00000000000E+00 -0.00000000000E+00 -0.45543981785E+02  0.45543981785E+02  0.00000000000E+00 0.  1.
         23    2    1    2    0    0  0.00000000000E+00  0.00000000000E+00  0.97371344078E-01  0.91185334913E+02  0.91185282925E+02 0.  0.
        -11    1    3    3    0    0  0.11350976262E+01 -0.13291770661E+02  0.43646065283E+02  0.45639222481E+02  0.00000000000E+00 0. -1.
         11    1    3    3    0    0 -0.11350976262E+01  0.13291770661E+02 -0.43548693939E+02  0.45546112433E+02  0.00000000000E+00 0.  1.
<mgrwt>
<rscale>  0 0.91185283E+02</rscale>
<asrwt>0</asrwt>
<pdfrwt beam="1">  1        1 0.70217467E-02 0.91185283E+02</pdfrwt>
<pdfrwt beam="2">  1       -1 0.70067664E-02 0.91185283E+02</pdfrwt>
<totfact> 0.92464364E+04</totfact>
</mgrwt>
</event>
<event>
 5    1  0.1310593E+001  0.6965136E+02  0.7546771E-02  0.1361283E+00
         -1   -1    0    0    0  501 -0.00000000000E+00  0.00000000000E+00  0.77394414945E+01  0.77394414945E+01  0.00000000000E+00 0.  1.
          1   -1    0    0  501    0  0.00000000000E+00 -0.00000000000E+00 -0.15670741350E+03  0.15670741350E+03  0.00000000000E+00 0. -1.
         23    2    1    2    0    0  0.00000000000E+00  0.00000000000E+00 -0.14896797201E+03  0.16444685499E+03  0.69651356298E+02 0.  0.
        -13    1    3    3    0    0  0.15194616621E+02  0.28693468357E+02 -0.10422100016E+03  0.10916138683E+03  0.00000000000E+00 0. -1.
         13    1    3    3    0    0 -0.15194616621E+02 -0.28693468357E+02 -0.44746971844E+02  0.55285468161E+02  0.00000000000E+00 0.  1.
<mgrwt>
<rscale>  0 0.69651356E+02</rscale>
<asrwt>0</asrwt>
<pdfrwt beam="2">  1        1 0.24108832E-01 0.69651356E+02</pdfrwt>
<pdfrwt beam="1">  1       -1 0.11906833E-02 0.69651356E+02</pdfrwt>
<totfact> 0.23089492E+05</totfact>
</mgrwt>
</event>
<event>
 5    1  0.1310593E+001  0.1047724E+03  0.7546771E-02  0.1270569E+00
          2   -1    0    0  501    0  0.00000000000E+00  0.00000000000E+00  0.27198962161E+03  0.27198962161E+03  0.00000000000E+00 0. -1.
         -2   -1    0    0    0  501 -0.00000000000E+00 -0.00000000000E+00 -0.10089779227E+02  0.10089779227E+02  0.00000000000E+00 0.  1.
         23    2    1    2    0    0  0.00000000000E+00  0.00000000000E+00  0.26189984239E+03  0.28207940084E+03  0.10477242450E+03 0.  0.
        -13    1    3    3    0    0  0.42719697033E+02 -0.23170823564E+02  0.18360192717E+03  0.18992505690E+03  0.00000000000E+00 0. -1.
         13    1    3    3    0    0 -0.42719697033E+02  0.23170823564E+02  0.78297915215E+02  0.92154343936E+02  0.00000000000E+00 0.  1.
<mgrwt>
<rscale>  0 0.10477242E+03</rscale>
<asrwt>0</asrwt>
<pdfrwt beam="1">  1        2 0.41844551E-01 0.10477242E+03</pdfrwt>
<pdfrwt beam="2">  1       -2 0.15522739E-02 0.10477242E+03</pdfrwt>
<totfact> 0.11908674E+05</totfact>
</mgrwt>
</event>
<event>
 5    1  0.1310593E+001  0.8944051E+02  0.7546771E-02  0.1304212E+00
         -1   -1    0    0    0  501 -0.00000000000E+00  0.00000000000E+00  0.24244002378E+03  0.24244002378E+03  0.00000000000E+00 0.  1.
          1   -1    0    0  501    0  0.00000000000E+00 -0.00000000000E+00 -0.82490547770E+01  0.82490547770E+01  0.00000000000E+00 0. -1.
         23    2    1    2    0    0  0.00000000000E+00  0.00000000000E+00  0.23419096900E+03  0.25068907856E+03  0.89440506177E+02 0.  0.
        -11    1    3    3    0    0  0.36202490461E+02  0.14195189311E+02  0.55192445864E+02  0.67515404136E+02  0.00000000000E+00 0. -1.
         11    1    3    3    0    0 -0.36202490461E+02 -0.14195189311E+02  0.17899852314E+03  0.18317367442E+03  0.00000000000E+00 0.  1.
<mgrwt>
<rscale>  0 0.89440506E+02</rscale>
<asrwt>0</asrwt>
<pdfrwt beam="2">  1        1 0.12690855E-02 0.89440506E+02</pdfrwt>
<pdfrwt beam="1">  1       -1 0.37298460E-01 0.89440506E+02</pdfrwt>
<totfact> 0.68798010E+04</totfact>
</mgrwt>
</event>
<event>
 5    1  0.1310593E+001  0.9109737E+02  0.7546771E-02  0.1300216E+00
          2   -1    0    0  501    0  0.00000000000E+00  0.00000000000E+00  0.24676805665E+03  0.24676805665E+03  0.00000000000E+00 0. -1.
         -2   -1    0    0    0  501 -0.00000000000E+00 -0.00000000000E+00 -0.84074201233E+01  0.84074201233E+01  0.00000000000E+00 0.  1.
         23    2    1    2    0    0  0.00000000000E+00  0.00000000000E+00  0.23836063653E+03  0.25517547678E+03  0.91097370440E+02 0.  0.
        -13    1    3    3    0    0  0.13804924840E+02  0.42285599159E+02  0.14663064961E+03  0.15322922454E+03  0.00000000000E+00 0. -1.
         13    1    3    3    0    0 -0.13804924840E+02 -0.42285599159E+02  0.91729986915E+02  0.10194625224E+03  0.00000000000E+00 0.  1.
<mgrwt>
<rscale>  0 0.91097370E+02</rscale>
<asrwt>0</asrwt>
<pdfrwt beam="1">  1        2 0.37964311E-01 0.91097370E+02</pdfrwt>
<pdfrwt beam="2">  1       -2 0.12934494E-02 0.91097370E+02</pdfrwt>
<totfact> 0.16744530E+05</totfact>
</mgrwt>
</event>
<event>
 5    1  0.1310593E+001  0.8574065E+02  0.7546771E-02  0.1313507E+00
         -2   -1    0    0    0  501 -0.00000000000E+00  0.00000000000E+00  0.87534365243E+02  0.87534365243E+02  0.00000000000E+00 0.  1.
          2   -1    0    0  501    0  0.00000000000E+00 -0.00000000000E+00 -0.20995924859E+02  0.20995924859E+02  0.00000000000E+00 0. -1.
         23    2    1    2    0    0  0.00000000000E+00  0.00000000000E+00  0.66538440384E+02  0.10853029010E+03  0.85740654423E+02 0.  0.
        -13    1    3    3    0    0 -0.32124705125E+02  0.25382208536E+02  0.17177567244E+02  0.44399572137E+02  0.00000000000E+00 0. -1.
         13    1    3    3    0    0  0.32124705125E+02 -0.25382208536E+02  0.49360873139E+02  0.64130717964E+02  0.00000000000E+00 0.  1.
<mgrwt>
<rscale>  0 0.85740654E+02</rscale>
<asrwt>0</asrwt>
<pdfrwt beam="2">  1        2 0.32301423E-02 0.85740654E+02</pdfrwt>
<pdfrwt beam="1">  1       -2 0.13466825E-01 0.85740654E+02</pdfrwt>
<totfact> 0.96565967E+04</totfact>
</mgrwt>
</event>
<event>
 5    1  0.1310593E+001  0.9211338E+02  0.7546771E-02  0.1297813E+00
         -3   -1    0    0    0  501 -0.00000000000E+00  0.00000000000E+00  0.41157640965E+02  0.41157640965E+02  0.00000000000E+00 0.  1.
          3   -1    0    0  501    0  0.00000000000E+00 -0.00000000000E+00 -0.51538873895E+02  0.51538873895E+02  0.00000000000E+00 0. -1.
         23    2    1    2    0    0  0.00000000000E+00  0.00000000000E+00 -0.10381232930E+02  0.92696514860E+02  0.92113375088E+02 0.  0.
        -13    1    3    3    0    0  0.10472138092E+02 -0.12994067209E+02  0.38007902205E+02  0.41510385313E+02  0.00000000000E+00 0.  1.
         13    1    3    3    0    0 -0.10472138092E+02  0.12994067209E+02 -0.48389135135E+02  0.51186129547E+02  0.00000000000E+00 0. -1.
<mgrwt>
<rscale>  0 0.92113375E+02</rscale>
<asrwt>0</asrwt>
<pdfrwt beam="2">  1        3 0.79290576E-02 0.92113375E+02</pdfrwt>
<pdfrwt beam="1">  1       -3 0.63319447E-02 0.92113375E+02</pdfrwt>
<totfact> 0.34253029E+04</totfact>
</mgrwt>
</event>
<event>
 5    1  0.1310593E+001  0.9056463E+02  0.7546771E-02  0.1301490E+00
         -1   -1    0    0    0  501 -0.00000000000E+00  0.00000000000E+00  0.68239487784E+01  0.68239487784E+01  0.00000000000E+00 0.  1.
          1   -1    0    0  501    0  0.00000000000E+00 -0.00000000000E+00 -0.30048410071E+03  0.30048410071E+03  0.00000000000E+00 0. -1.
         23    2    1    2    0    0  0.00000000000E+00  0.00000000000E+00 -0.29366015193E+03  0.30730804949E+03  0.90564631330E+02 0.  0.
        -11    1    3    3    0    0 -0.61760844772E+01  0.39702112712E+02 -0.75970009810E+02  0.85940934157E+02  0.00000000000E+00 0.  1.
         11    1    3    3    0    0  0.61760844772E+01 -0.39702112712E+02 -0.21769014212E+03  0.22136711533E+03  0.00000000000E+00 0. -1.
<mgrwt>
<rscale>  0 0.90564631E+02</rscale>
<asrwt>0</asrwt>
<pdfrwt beam="2">  1        1 0.46228333E-01 0.90564631E+02</pdfrwt>
<pdfrwt beam="1">  1       -1 0.10498380E-02 0.90564631E+02</pdfrwt>
<totfact> 0.13048106E+05</totfact>
</mgrwt>
</event>
<event>
 5    1  0.1310593E+001  0.9274748E+02  0.7546771E-02  0.1296331E+00
          2   -1    0    0  501    0  0.00000000000E+00  0.00000000000E+00  0.10441582400E+03  0.10441582400E+03  0.00000000000E+00 0. -1.
         -2   -1    0    0    0  501 -0.00000000000E+00 -0.00000000000E+00 -0.20595765929E+02  0.20595765929E+02  0.00000000000E+00 0.  1.
         23    2    1    2    0    0  0.00000000000E+00  0.00000000000E+00  0.83820058070E+02  0.12501158993E+03  0.92747482346E+02 0.  0.
        -13    1    3    3    0    0 -0.37954629941E+02 -0.21857540544E+02  0.62449817020E+02  0.76277687815E+02  0.00000000000E+00 0.  1.
         13    1    3    3    0    0  0.37954629941E+02  0.21857540544E+02  0.21370241050E+02  0.48733902113E+02  0.00000000000E+00 0. -1.
<mgrwt>
<rscale>  0 0.92747482E+02</rscale>
<asrwt>0</asrwt>
<pdfrwt beam="1">  1        2 0.16063973E-01 0.92747482E+02</pdfrwt>
<pdfrwt beam="2">  1       -2 0.31685794E-02 0.92747482E+02</pdfrwt>
<totfact> 0.11859865E+05</totfact>
</mgrwt>
</event>
<event>
 5    1  0.1310593E+001  0.9312052E+02  0.7546771E-02  0.1295466E+00
          1   -1    0    0  501    0  0.00000000000E+00  0.00000000000E+00  0.12340137860E+03  0.12340137860E+03  0.00000000000E+00 0. -1.
         -1   -1    0    0    0  501 -0.00000000000E+00 -0.00000000000E+00 -0.17567535040E+02  0.17567535040E+02  0.00000000000E+00 0.  1.
         23    2    1    2    0    0  0.00000000000E+00  0.00000000000E+00  0.10583384356E+03  0.14096891364E+03  0.93120524968E+02 0.  0.
        -13    1    3    3    0    0  0.32259740126E+02 -0.20511959060E+02  0.93152616455E+02  0.10069181322E+03  0.00000000000E+00 0. -1.
         13    1    3    3    0    0 -0.32259740126E+02  0.20511959060E+02  0.12681227109E+02  0.40277100422E+02  0.00000000000E+00 0.  1.
<mgrwt>
<rscale>  0 0.93120525E+02</rscale>
<asrwt>0</asrwt>
<pdfrwt beam="1">  1        1 0.18984827E-01 0.93120525E+02</pdfrwt>
<pdfrwt beam="2">  1       -1 0.27026978E-02 0.93120525E+02</pdfrwt>
<totfact> 0.10223753E+05</totfact>
</mgrwt>
</event>
<event>
 5    1  0.1310593E+001  0.9133761E+02  0.7546771E-02  0.1299644E+00
          1   -1    0    0  501    0  0.00000000000E+00  0.00000000000E+00  0.35569957439E+02  0.35569957439E+02  0.00000000000E+00 0. -1.
         -1   -1    0    0    0  501 -0.00000000000E+00 -0.00000000000E+00 -0.58634873396E+02  0.58634873396E+02  0.00000000000E+00 0.  1.
         23    2    1    2    0    0  0.00000000000E+00  0.00000000000E+00 -0.23064915958E+02  0.94204830835E+02  0.91337614401E+02 0.  0.
        -11    1    3    3    0    0 -0.29136921152E+02  0.15399026674E+02 -0.44140574792E+02  0.55086119302E+02  0.00000000000E+00 0.  1.
         11    1    3    3    0    0  0.29136921152E+02 -0.15399026674E+02  0.21075658834E+02  0.39118711533E+02  0.00000000000E+00 0. -1.
<mgrwt>
<rscale>  0 0.91337614E+02</rscale>
<asrwt>0</asrwt>
<pdfrwt beam="1">  1        1 0.54723011E-02 0.91337614E+02</pdfrwt>
<pdfrwt beam="2">  1       -1 0.90207498E-02 0.91337614E+02</pdfrwt>
<totfact> 0.88601548E+04</totfact>
</mgrwt>
</event>
<event>
 5    1  0.1310593E+001  0.9154309E+02  0.7546771E-02  0.1299157E+00
          2   -1    0    0  501    0  0.00000000000E+00  0.00000000000E+00  0.13985850125E+02  0.13985850125E+02  0.00000000000E+00 0. -1.
         -2   -1    0    0    0  501 -0.00000000000E+00 -0.00000000000E+00 -0.14979670121E+03  0.14979670121E+03  0.00000000000E+00 0.  1.
         23    2    1    2    0    0  0.00000000000E+00  0.00000000000E+00 -0.13581085108E+03  0.16378255133E+03  0.91543087391E+02 0.  0.
        -13    1    3    3    0    0  0.42564632310E+02 -0.13657210675E+02 -0.85505133346E+02  0.96485206926E+02  0.00000000000E+00 0.  1.
         13    1    3    3    0    0 -0.42564632310E+02  0.13657210675E+02 -0.50305717735E+02  0.67297344405E+02  0.00000000000E+00 0. -1.
<mgrwt>
<rscale>  0 0.91543087E+02</rscale>
<asrwt>0</asrwt>
<pdfrwt beam="1">  1        2 0.21516694E-02 0.91543087E+02</pdfrwt>
<pdfrwt beam="2">  1       -2 0.23045645E-01 0.91543087E+02</pdfrwt>
<totfact> 0.69184653E+04</totfact>
</mgrwt>
</event>
<event>
 5    1  0.1310593E+001  0.9019260E+02  0.7546771E-02  0.1302386E+00
         -1   -1    0    0    0  501 -0.00000000000E+00  0.00000000000E+00  0.11024433979E+02  0.11024433979E+02  0.00000000000E+00 0.  1.
          1   -1    0    0  501    0  0.00000000000E+00 -0.00000000000E+00 -0.18446989592E+03  0.18446989592E+03  0.00000000000E+00 0. -1.
         23    2    1    2    0    0  0.00000000000E+00  0.00000000000E+00 -0.17344546195E+03  0.19549432990E+03  0.90192598117E+02 0.  0.
        -11    1    3    3    0    0  0.93147737510E+01  0.35605916095E+02 -0.14320858503E+03  0.14786225041E+03  0.00000000000E+00 0. -1.
         11    1    3    3    0    0 -0.93147737510E+01 -0.35605916095E+02 -0.30236876916E+02  0.47632079491E+02  0.00000000000E+00 0.  1.
<mgrwt>
<rscale>  0 0.90192598E+02</rscale>
<asrwt>0</asrwt>
<pdfrwt beam="2">  1        1 0.28379984E-01 0.90192598E+02</pdfrwt>
<pdfrwt beam="1">  1       -1 0.16960668E-02 0.90192598E+02</pdfrwt>
<totfact> 0.12001702E+05</totfact>
</mgrwt>
</event>
<event>
 5    1  0.1310593E+001  0.9400005E+02  0.7546771E-02  0.1293444E+00
          3   -1    0    0  501    0  0.00000000000E+00  0.00000000000E+00  0.66243304841E+02  0.66243304841E+02  0.00000000000E+00 0. -1.
         -3   -1    0    0    0  501 -0.00000000000E+00 -0.00000000000E+00 -0.33346798739E+02  0.33346798739E+02  0.00000000000E+00 0.  1.
         23    2    1    2    0    0  0.00000000000E+00  0.00000000000E+00  0.32896506102E+02  0.99590103580E+02  0.94000045837E+02 0.  0.
        -13    1    3    3    0    0 -0.26012906927E+02 -0.24964863322E+02 -0.15495850534E+02  0.39243306579E+02  0.00000000000E+00 0.  1.
         13    1    3    3    0    0  0.26012906927E+02  0.24964863322E+02  0.48392356637E+02  0.60346797001E+02  0.00000000000E+00 0. -1.
<mgrwt>
<rscale>  0 0.94000046E+02</rscale>
<asrwt>0</asrwt>
<pdfrwt beam="1">  1        3 0.10191278E-01 0.94000046E+02</pdfrwt>
<pdfrwt beam="2">  1       -3 0.51302768E-02 0.94000046E+02</pdfrwt>
<totfact> 0.31928576E+04</totfact>
</mgrwt>
</event>
<event>
 5    1  0.1310593E+001  0.9291267E+02  0.7546771E-02  0.1295948E+00
         -1   -1    0    0    0  501 -0.00000000000E+00  0.00000000000E+00  0.11750738078E+02  0.11750738078E+02  0.00000000000E+00 0.  1.
          1   -1    0    0  501    0  0.00000000000E+00 -0.00000000000E+00 -0.18366428373E+03  0.18366428373E+03  0.00000000000E+00 0. -1.
         23    2    1    2    0    0  0.00000000000E+00  0.00000000000E+00 -0.17191354565E+03  0.19541502181E+03  0.92912666357E+02 0.  0.
        -11    1    3    3    0    0 -0.74053816564E+01 -0.44519183251E+02 -0.62783850503E+02  0.77321466869E+02  0.00000000000E+00 0.  1.
         11    1    3    3    0    0  0.74053816564E+01  0.44519183251E+02 -0.10912969515E+03  0.11809355494E+03  0.00000000000E+00 0. -1.
<mgrwt>
<rscale>  0 0.92912666E+02</rscale>
<asrwt>0</asrwt>
<pdfrwt beam="2">  1        1 0.28256041E-01 0.92912666E+02</pdfrwt>
<pdfrwt beam="1">  1       -1 0.18078060E-02 0.92912666E+02</pdfrwt>
<totfact> 0.11071130E+05</totfact>
</mgrwt>
</event>
<event>
 5    1  0.1310593E+001  0.9239079E+02  0.7546771E-02  0.1297163E+00
          1   -1    0    0  501    0  0.00000000000E+00  0.00000000000E+00  0.97778064344E+02  0.97778064344E+02  0.00000000000E+00 0. -1.
         -1   -1    0    0    0  501 -0.00000000000E+00 -0.00000000000E+00 -0.21825084558E+02  0.21825084558E+02  0.00000000000E+00 0.  1.
         23    2    1    2    0    0  0.00000000000E+00  0.00000000000E+00  0.75952979786E+02  0.11960314890E+03  0.92390790065E+02 0.  0.
        -11    1    3    3    0    0 -0.15246263394E+02  0.18824975697E+02  0.88896119228E+02  0.92137659354E+02  0.00000000000E+00 0. -1.
         11    1    3    3    0    0  0.15246263394E+02 -0.18824975697E+02 -0.12943139441E+02  0.27465489548E+02  0.00000000000E+00 0.  1.
<mgrwt>
<rscale>  0 0.92390790E+02</rscale>
<asrwt>0</asrwt>
<pdfrwt beam="1">  1        1 0.15042779E-01 0.92390790E+02</pdfrwt>
<pdfrwt beam="2">  1       -1 0.33577054E-02 0.92390790E+02</pdfrwt>
<totfact> 0.10036920E+05</totfact>
</mgrwt>
</event>
<event>
 5    1  0.1310593E+001  0.1010105E+03  0.7546771E-02  0.1278185E+00
         -1   -1    0    0    0  501 -0.00000000000E+00  0.00000000000E+00  0.88087142758E+01  0.88087142758E+01  0.00000000000E+00 0.  1.
          1   -1    0    0  501    0  0.00000000000E+00 -0.00000000000E+00 -0.28957451699E+03  0.28957451699E+03  0.00000000000E+00 0. -1.
         23    2    1    2    0    0  0.00000000000E+00  0.00000000000E+00 -0.28076580271E+03  0.29838323127E+03  0.10101047830E+03 0.  0.
        -11    1    3    3    0    0 -0.10766323184E+02  0.45708136732E+02 -0.85464894000E+02  0.97516129871E+02  0.00000000000E+00 0.  1.
         11    1    3    3    0    0  0.10766323184E+02 -0.45708136732E+02 -0.19530090871E+03  0.20086710139E+03  0.00000000000E+00 0. -1.
<mgrwt>
<rscale>  0 0.10101048E+03</rscale>
<asrwt>0</asrwt>
<pdfrwt beam="2">  1        1 0.44549926E-01 0.10101048E+03</pdfrwt>
<pdfrwt beam="1">  1       -1 0.13551868E-02 0.10101048E+03</pdfrwt>
<totfact> 0.96698240E+04</totfact>
</mgrwt>
</event>
<event>
 5    1  0.1310593E+001  0.9202757E+02  0.7546771E-02  0.1298015E+00
         -2   -1    0    0    0  501 -0.00000000000E+00  0.00000000000E+00  0.86574081742E+01  0.86574081742E+01  0.00000000000E+00 0.  1.
          2   -1    0    0  501    0  0.00000000000E+00 -0.00000000000E+00 -0.24456143733E+03  0.24456143733E+03  0.00000000000E+00 0. -1.
         23    2    1    2    0    0  0.00000000000E+00  0.00000000000E+00 -0.23590402915E+03  0.25321884550E+03  0.92027565145E+02 0.  0.
        -13    1    3    3    0    0  0.35224518092E+02  0.23056545474E+02 -0.66851774411E+02  0.79003358827E+02  0.00000000000E+00 0.  1.
         13    1    3    3    0    0 -0.35224518092E+02 -0.23056545474E+02 -0.16905225474E+03  0.17421548667E+03  0.00000000000E+00 0. -1.
<mgrwt>
<rscale>  0 0.92027565E+02</rscale>
<asrwt>0</asrwt>
<pdfrwt beam="2">  1        2 0.37624829E-01 0.92027565E+02</pdfrwt>
<pdfrwt beam="1">  1       -2 0.13319092E-02 0.92027565E+02</pdfrwt>
<totfact> 0.16240352E+05</totfact>
</mgrwt>
</event>
<event>
 5    1  0.1310593E+001  0.9248654E+02  0.7546771E-02  0.1296939E+00
         -2   -1    0    0    0  501 -0.00000000000E+00  0.00000000000E+00  0.23081509582E+02  0.23081509582E+02  0.00000000000E+00 0.  1.
          2   -1    0    0  501    0  0.00000000000E+00 -0.00000000000E+00 -0.92647323283E+02  0.92647323283E+02  0.00000000000E+00 0. -1.
         23    2    1    2    0    0  0.00000000000E+00  0.00000000000E+00 -0.69565813701E+02  0.11572883287E+03  0.92486541294E+02 0.  0.
        -13    1    3    3    0    0 -0.52593116637E+01  0.13918379868E+02  0.20004495411E+02  0.24931135032E+02  0.00000000000E+00 0.  1.
         13    1    3    3    0    0  0.52593116637E+01 -0.13918379868E+02 -0.89570309112E+02  0.90797697833E+02  0.00000000000E+00 0. -1.
<mgrwt>
<rscale>  0 0.92486541E+02</rscale>
<asrwt>0</asrwt>
<pdfrwt beam="2">  1        2 0.14253434E-01 0.92486541E+02</pdfrwt>
<pdfrwt beam="1">  1       -2 0.35510015E-02 0.92486541E+02</pdfrwt>
<totfact> 0.11524676E+05</totfact>
</mgrwt>
</event>
<event>
 5    1  0.1310593E+001  0.8871822E+02  0.7546771E-02  0.1305986E+00
         -4   -1    0    0    0  501 -0.00000000000E+00  0.00000000000E+00  0.10012063614E+03  0.10012063614E+03  0.00000000000E+00 0.  1.
          4   -1    0    0  501    0  0.00000000000E+00 -0.00000000000E+00 -0.19653598615E+02  0.19653598615E+02  0.00000000000E+00 0. -1.
         23    2    1    2    0    0  0.00000000000E+00  0.00000000000E+00  0.80467037526E+02  0.11977423475E+03  0.88718223511E+02 0.  0.
        -11    1    3    3    0    0 -0.37714036834E+02 -0.15066518657E+02  0.64322863277E+02  0.76070883385E+02  0.00000000000E+00 0.  1.
         11    1    3    3    0    0  0.37714036834E+02  0.15066518657E+02  0.16144174248E+02  0.43703351370E+02  0.00000000000E+00 0. -1.
<mgrwt>
<rscale>  0 0.88718224E+02</rscale>
<asrwt>0</asrwt>
<pdfrwt beam="2">  1        4 0.30236306E-02 0.88718224E+02</pdfrwt>
<pdfrwt beam="1">  1       -4 0.15403175E-01 0.88718224E+02</pdfrwt>
<totfact> 0.27216377E+04</totfact>
</mgrwt>
</event>
<event>
 5    1  0.1310593E+001  0.8520054E+02  0.7546771E-02  0.1314909E+00
         -2   -1    0    0    0  501 -0.00000000000E+00  0.00000000000E+00  0.11567152831E+02  0.11567152831E+02  0.00000000000E+00 0. -1.
          2   -1    0    0  501    0  0.00000000000E+00 -0.00000000000E+00 -0.15689107665E+03  0.15689107665E+03  0.00000000000E+00 0.  1.
         23    2    1    2    0    0  0.00000000000E+00  0.00000000000E+00 -0.14532392382E+03  0.16845822948E+03  0.85200541345E+02 0.  0.
        -11    1    3    3    0    0  0.36427941588E+02 -0.20913577246E+02 -0.86700116954E+02  0.96339415202E+02  0.00000000000E+00 0.  1.
         11    1    3    3    0    0 -0.36427941588E+02  0.20913577246E+02 -0.58623806865E+02  0.72118814278E+02  0.00000000000E+00 0. -1.
<mgrwt>
<rscale>  0 0.85200541E+02</rscale>
<asrwt>0</asrwt>
<pdfrwt beam="2">  1        2 0.24137088E-01 0.85200541E+02</pdfrwt>
<pdfrwt beam="1">  1       -2 0.17795620E-02 0.85200541E+02</pdfrwt>
<totfact> 0.17045441E+05</totfact>
</mgrwt>
</event>
<event>
 5    1  0.1310593E+001  0.9093943E+02  0.7546771E-02  0.1300593E+00
         -2   -1    0    0    0  501 -0.00000000000E+00  0.00000000000E+00  0.63217823507E+01  0.63217823507E+01  0.00000000000E+00 0. -1.
          2   -1    0    0  501    0  0.00000000000E+00 -0.00000000000E+00 -0.32704308296E+03  0.32704308296E+03  0.00000000000E+00 0.  1.
         23    2    1    2    0    0  0.00000000000E+00  0.00000000000E+00 -0.32072130061E+03  0.33336486531E+03  0.90939434566E+02 0.  0.
        -13    1    3    3    0    0  0.45281145789E+01  0.43717054184E+02 -0.11764034804E+03  0.12558238784E+03  0.00000000000E+00 0.  1.
         13    1    3    3    0    0 -0.45281145789E+01 -0.43717054184E+02 -0.20308095257E+03  0.20778247747E+03  0.00000000000E+00 0. -1.
<mgrwt>
<rscale>  0 0.90939435E+02</rscale>
<asrwt>0</asrwt>
<pdfrwt beam="2">  1        2 0.50314307E-01 0.90939435E+02</pdfrwt>
<pdfrwt beam="1">  1       -2 0.97258215E-03 0.90939435E+02</pdfrwt>
<totfact> 0.18680155E+05</totfact>
</mgrwt>
</event>
<event>
 5    1  0.1310593E+001  0.9048116E+02  0.7546771E-02  0.1301691E+00
          2   -1    0    0  501    0  0.00000000000E+00  0.00000000000E+00  0.93943644918E+02  0.93943644918E+02  0.00000000000E+00 0. -1.
         -2   -1    0    0    0  501 -0.00000000000E+00 -0.00000000000E+00 -0.21786575003E+02  0.21786575003E+02  0.00000000000E+00 0.  1.
         23    2    1    2    0    0  0.00000000000E+00  0.00000000000E+00  0.72157069914E+02  0.11573021992E+03  0.90481164141E+02 0.  0.
        -11    1    3    3    0    0  0.95097774228E+01  0.43426443235E+02  0.25345272238E+02  0.51172987635E+02  0.00000000000E+00 0. -1.
         11    1    3    3    0    0 -0.95097774228E+01 -0.43426443235E+02  0.46811797677E+02  0.64557232286E+02  0.00000000000E+00 0.  1.
<mgrwt>
<rscale>  0 0.90481164E+02</rscale>
<asrwt>0</asrwt>
<pdfrwt beam="1">  1        2 0.14452868E-01 0.90481164E+02</pdfrwt>
<pdfrwt beam="2">  1       -2 0.33517808E-02 0.90481164E+02</pdfrwt>
<totfact> 0.12295325E+05</totfact>
</mgrwt>
</event>
<event>
 5    1  0.1310593E+001  0.9074778E+02  0.7546771E-02  0.1301051E+00
          3   -1    0    0  501    0  0.00000000000E+00  0.00000000000E+00  0.38605115148E+02  0.38605115148E+02  0.00000000000E+00 0. -1.
         -3   -1    0    0    0  501 -0.00000000000E+00 -0.00000000000E+00 -0.53329457962E+02  0.53329457962E+02  0.00000000000E+00 0.  1.
         23    2    1    2    0    0  0.00000000000E+00  0.00000000000E+00 -0.14724342814E+02  0.91934573111E+02  0.90747779376E+02 0.  0.
        -13    1    3    3    0    0  0.30050877221E+02  0.11443264258E+02  0.25068767539E+02  0.40773111539E+02  0.00000000000E+00 0. -1.
         13    1    3    3    0    0 -0.30050877221E+02 -0.11443264258E+02 -0.39793110353E+02  0.51161461572E+02  0.00000000000E+00 0.  1.
<mgrwt>
<rscale>  0 0.90747779E+02</rscale>
<asrwt>0</asrwt>
<pdfrwt beam="1">  1        3 0.59392485E-02 0.90747779E+02</pdfrwt>
<pdfrwt beam="2">  1       -3 0.82045320E-02 0.90747779E+02</pdfrwt>
<totfact> 0.35737083E+04</totfact>
</mgrwt>
</event>
<event>
 5    1  0.1310593E+001  0.9129240E+02  0.7546771E-02  0.1299752E+00
          1   -1    0    0  501    0  0.00000000000E+00  0.00000000000E+00  0.37873803275E+03  0.37873803275E+03  0.00000000000E+00 0. -1.
         -1   -1    0    0    0  501 -0.00000000000E+00 -0.00000000000E+00 -0.55013629009E+01  0.55013629009E+01  0.00000000000E+00 0.  1.
         23    2    1    2    0    0  0.00000000000E+00  0.00000000000E+00  0.37323666985E+03  0.38423939565E+03  0.91292395358E+02 0.  0.
        -11    1    3    3    0    0 -0.33360709085E+02  0.28760848022E+02  0.13620787006E+03  0.14315274065E+03  0.00000000000E+00 0. -1.
         11    1    3    3    0    0  0.33360709085E+02 -0.28760848022E+02  0.23702879979E+03  0.24108665500E+03  0.00000000000E+00 0.  1.
<mgrwt>
<rscale>  0 0.91292395E+02</rscale>
<asrwt>0</asrwt>
<pdfrwt beam="1">  1        1 0.58267369E-01 0.91292395E+02</pdfrwt>
<pdfrwt beam="2">  1       -1 0.84636382E-03 0.91292395E+02</pdfrwt>
<totfact> 0.13321270E+05</totfact>
</mgrwt>
</event>
<event>
 5    1  0.1310593E+001  0.9100526E+02  0.7546771E-02  0.1300435E+00
         -1   -1    0    0    0  501 -0.00000000000E+00  0.00000000000E+00  0.66259639786E+01  0.66259639786E+01  0.00000000000E+00 0.  1.
          1   -1    0    0  501    0  0.00000000000E+00 -0.00000000000E+00 -0.31248122990E+03  0.31248122990E+03  0.00000000000E+00 0. -1.
         23    2    1    2    0    0  0.00000000000E+00  0.00000000000E+00 -0.30585526592E+03  0.31910719388E+03  0.91005260799E+02 0.  0.
        -13    1    3    3    0    0  0.44471343195E+02 -0.96318882791E+01 -0.15336749414E+03  0.15997519151E+03  0.00000000000E+00 0.  1.
         13    1    3    3    0    0 -0.44471343195E+02  0.96318882791E+01 -0.15248777177E+03  0.15913200237E+03  0.00000000000E+00 0. -1.
<mgrwt>
<rscale>  0 0.91005261E+02</rscale>
<asrwt>0</asrwt>
<pdfrwt beam="2">  1        1 0.48074048E-01 0.91005261E+02</pdfrwt>
<pdfrwt beam="1">  1       -1 0.10193788E-02 0.91005261E+02</pdfrwt>
<totfact> 0.12976455E+05</totfact>
</mgrwt>
</event>
<event>
 5    1  0.1310593E+001  0.9766811E+02  0.7546771E-02  0.1285277E+00
         -2   -1    0    0    0  501 -0.00000000000E+00  0.00000000000E+00  0.20990828754E+03  0.20990828754E+03  0.00000000000E+00 0.  1.
          2   -1    0    0  501    0  0.00000000000E+00 -0.00000000000E+00 -0.11360984512E+02  0.11360984512E+02  0.00000000000E+00 0. -1.
         23    2    1    2    0    0  0.00000000000E+00  0.00000000000E+00  0.19854730303E+03  0.22126927206E+03  0.97668107462E+02 0.  0.
        -13    1    3    3    0    0 -0.40267554937E+02  0.24785945563E+02  0.71624465059E+02  0.85824722971E+02  0.00000000000E+00 0.  1.
         13    1    3    3    0    0  0.40267554937E+02 -0.24785945563E+02  0.12692283797E+03  0.13544454909E+03  0.00000000000E+00 0. -1.
<mgrwt>
<rscale>  0 0.97668107E+02</rscale>
<asrwt>0</asrwt>
<pdfrwt beam="2">  1        2 0.17478439E-02 0.97668107E+02</pdfrwt>
<pdfrwt beam="1">  1       -2 0.32293580E-01 0.97668107E+02</pdfrwt>
<totfact> 0.51156720E+04</totfact>
</mgrwt>
</event>
<event>
 5    1  0.1310593E+001  0.9139113E+02  0.7546771E-02  0.1299517E+00
         -3   -1    0    0    0  501 -0.00000000000E+00  0.00000000000E+00  0.27481554857E+02  0.27481554857E+02  0.00000000000E+00 0.  1.
          3   -1    0    0  501    0  0.00000000000E+00 -0.00000000000E+00 -0.75981307320E+02  0.75981307320E+02  0.00000000000E+00 0. -1.
         23    2    1    2    0    0  0.00000000000E+00  0.00000000000E+00 -0.48499752463E+02  0.10346286218E+03  0.91391125723E+02 0.  0.
        -13    1    3    3    0    0 -0.28844918863E+02  0.12742114420E+02 -0.61689226663E+02  0.69281682358E+02  0.00000000000E+00 0. -1.
         13    1    3    3    0    0  0.28844918863E+02 -0.12742114420E+02  0.13189474200E+02  0.34181179819E+02  0.00000000000E+00 0.  1.
<mgrwt>
<rscale>  0 0.91391126E+02</rscale>
<asrwt>0</asrwt>
<pdfrwt beam="2">  1        3 0.11689432E-01 0.91391126E+02</pdfrwt>
<pdfrwt beam="1">  1       -3 0.42279316E-02 0.91391126E+02</pdfrwt>
<totfact> 0.34196914E+04</totfact>
</mgrwt>
</event>
<event>
 5    1  0.1310593E+001  0.8992746E+02  0.7546771E-02  0.1303027E+00
         -4   -1    0    0    0  501 -0.00000000000E+00  0.00000000000E+00  0.27164247019E+03  0.27164247019E+03  0.00000000000E+00 0.  1.
          4   -1    0    0  501    0  0.00000000000E+00 -0.00000000000E+00 -0.74426396427E+01  0.74426396427E+01  0.00000000000E+00 0. -1.
         23    2    1    2    0    0  0.00000000000E+00  0.00000000000E+00  0.26419983055E+03  0.27908510983E+03  0.89927460039E+02 0.  0.
        -13    1    3    3    0    0 -0.24302589672E+01  0.44594303488E+02  0.14827925211E+03  0.15485895089E+03  0.00000000000E+00 0.  1.
         13    1    3    3    0    0  0.24302589672E+01 -0.44594303488E+02  0.11592057843E+03  0.12422615895E+03  0.00000000000E+00 0. -1.
<mgrwt>
<rscale>  0 0.89927460E+02</rscale>
<asrwt>0</asrwt>
<pdfrwt beam="2">  1        4 0.11450217E-02 0.89927460E+02</pdfrwt>
<pdfrwt beam="1">  1       -4 0.41791142E-01 0.89927460E+02</pdfrwt>
<totfact> 0.19167382E+04</totfact>
</mgrwt>
</event>
<event>
 5    1  0.1310593E+001  0.8604232E+02  0.7546771E-02  0.1312729E+00
          2   -1    0    0  501    0  0.00000000000E+00  0.00000000000E+00  0.34662357271E+02  0.34662357271E+02  0.00000000000E+00 0. -1.
         -2   -1    0    0    0  501 -0.00000000000E+00 -0.00000000000E+00 -0.53395687117E+02  0.53395687117E+02  0.00000000000E+00 0.  1.
         23    2    1    2    0    0  0.00000000000E+00  0.00000000000E+00 -0.18733329846E+02  0.88058044388E+02  0.86042324088E+02 0.  0.
        -13    1    3    3    0    0  0.13759408613E+02 -0.11923534271E+02  0.30525052140E+02  0.35542521057E+02  0.00000000000E+00 0. -1.
         13    1    3    3    0    0 -0.13759408613E+02  0.11923534271E+02 -0.49258381986E+02  0.52515523332E+02  0.00000000000E+00 0.  1.
<mgrwt>
<rscale>  0 0.86042324E+02</rscale>
<asrwt>0</asrwt>
<pdfrwt beam="1">  1        2 0.53326704E-02 0.86042324E+02</pdfrwt>
<pdfrwt beam="2">  1       -2 0.82147211E-02 0.86042324E+02</pdfrwt>
<totfact> 0.10877852E+05</totfact>
</mgrwt>
</event>
<event>
 5    1  0.1310593E+001  0.9270557E+02  0.7546771E-02  0.1296429E+00
         -2   -1    0    0    0  501 -0.00000000000E+00  0.00000000000E+00  0.41537009359E+01  0.41537009359E+01  0.00000000000E+00 0. -1.
          2   -1    0    0  501    0  0.00000000000E+00 -0.00000000000E+00 -0.51726894652E+03  0.51726894652E+03  0.00000000000E+00 0.  1.
         23    2    1    2    0    0  0.00000000000E+00  0.00000000000E+00 -0.51311524558E+03  0.52142264745E+03  0.92705566333E+02 0.  0.
        -11    1    3    3    0    0  0.27611294902E+02  0.37061076934E+02 -0.27658075336E+03  0.28041544208E+03  0.00000000000E+00 0. -1.
         11    1    3    3    0    0 -0.27611294902E+02 -0.37061076934E+02 -0.23653449222E+03  0.24100720537E+03  0.00000000000E+00 0.  1.
<mgrwt>
<rscale>  0 0.92705566E+02</rscale>
<asrwt>0</asrwt>
<pdfrwt beam="2">  1        2 0.79579839E-01 0.92705566E+02</pdfrwt>
<pdfrwt beam="1">  1       -2 0.63903090E-03 0.92705566E+02</pdfrwt>
<totfact> 0.20847608E+05</totfact>
</mgrwt>
</event>
<event>
 5    1  0.1310593E+001  0.9129187E+02  0.7546771E-02  0.1299753E+00
          3   -1    0    0  501    0  0.00000000000E+00  0.00000000000E+00  0.13467154078E+03  0.13467154078E+03  0.00000000000E+00 0. -1.
         -3   -1    0    0    0  501 -0.00000000000E+00 -0.00000000000E+00 -0.15471356202E+02  0.15471356202E+02  0.00000000000E+00 0.  1.
         23    2    1    2    0    0  0.00000000000E+00  0.00000000000E+00  0.11920018457E+03  0.15014289698E+03  0.91291869905E+02 0.  0.
        -11    1    3    3    0    0  0.16232611507E+02 -0.16600525429E+02 -0.50342459619E+01  0.23757498885E+02  0.00000000000E+00 0.  1.
         11    1    3    3    0    0 -0.16232611507E+02  0.16600525429E+02  0.12423443054E+03  0.12638539809E+03  0.00000000000E+00 0. -1.
<mgrwt>
<rscale>  0 0.91291870E+02</rscale>
<asrwt>0</asrwt>
<pdfrwt beam="1">  1        3 0.20718698E-01 0.91291870E+02</pdfrwt>
<pdfrwt beam="2">  1       -3 0.23802087E-02 0.91291870E+02</pdfrwt>
<totfact> 0.31191401E+04</totfact>
</mgrwt>
</event>
<event>
 5    1  0.1310593E+001  0.9445887E+02  0.7546771E-02  0.1292400E+00
          3   -1    0    0  501    0  0.00000000000E+00  0.00000000000E+00  0.45551134933E+03  0.45551134933E+03  0.00000000000E+00 0. -1.
         -3   -1    0    0    0  501 -0.00000000000E+00 -0.00000000000E+00 -0.48969566536E+01  0.48969566536E+01  0.00000000000E+00 0.  1.
         23    2    1    2    0    0  0.00000000000E+00  0.00000000000E+00  0.45061439268E+03  0.46040830599E+03  0.94458865818E+02 0.  0.
        -13    1    3    3    0    0  0.35837428860E+02 -0.30125540897E+02  0.19496582404E+03  0.20050820947E+03  0.00000000000E+00 0.  1.
         13    1    3    3    0    0 -0.35837428860E+02  0.30125540897E+02  0.25564856864E+03  0.25990009651E+03  0.00000000000E+00 0. -1.
<mgrwt>
<rscale>  0 0.94458866E+02</rscale>
<asrwt>0</asrwt>
<pdfrwt beam="1">  1        3 0.70078636E-01 0.94458866E+02</pdfrwt>
<pdfrwt beam="2">  1       -3 0.75337831E-03 0.94458866E+02</pdfrwt>
<totfact> 0.17202250E+04</totfact>
</mgrwt>
</event>
<event>
 5    1  0.1310593E+001  0.9057859E+02  0.7546771E-02  0.1301457E+00
          1   -1    0    0  501    0  0.00000000000E+00  0.00000000000E+00  0.45784535349E+02  0.45784535349E+02  0.00000000000E+00 0. -1.
         -1   -1    0    0    0  501 -0.00000000000E+00 -0.00000000000E+00 -0.44799416397E+02  0.44799416397E+02  0.00000000000E+00 0.  1.
         23    2    1    2    0    0  0.00000000000E+00  0.00000000000E+00  0.98511895202E+00  0.90583951745E+02  0.90578594902E+02 0.  0.
        -11    1    3    3    0    0 -0.39984779435E+02  0.12997527446E+02 -0.16342988610E+02  0.45108885853E+02  0.00000000000E+00 0.  1.
         11    1    3    3    0    0  0.39984779435E+02 -0.12997527446E+02  0.17328107562E+02  0.45475065892E+02  0.00000000000E+00 0. -1.
<mgrwt>
<rscale>  0 0.90578595E+02</rscale>
<asrwt>0</asrwt>
<pdfrwt beam="1">  1        1 0.70437747E-02 0.90578595E+02</pdfrwt>
<pdfrwt beam="2">  1       -1 0.68922179E-02 0.90578595E+02</pdfrwt>
<totfact> 0.94255466E+04</totfact>
</mgrwt>
</event>
<event>
 5    1  0.1310593E+001  0.9048787E+02  0.7546771E-02  0.1301675E+00
         -1   -1    0    0    0  501 -0.00000000000E+00  0.00000000000E+00  0.89574058619E+01  0.89574058619E+01  0.00000000000E+00 0.  1.
          1   -1    0    0  501    0  0.00000000000E+00 -0.00000000000E+00 -0.22852748700E+03  0.22852748700E+03  0.00000000000E+00 0. -1.
         23    2    1    2    0    0  0.00000000000E+00  0.00000000000E+00 -0.21957008113E+03  0.23748489286E+03  0.90487865521E+02 0.  0.
        -11    1    3    3    0    0  0.42310253678E+02 -0.15941355023E+02 -0.11412069041E+03  0.12275103399E+03  0.00000000000E+00 0.  1.
         11    1    3    3    0    0 -0.42310253678E+02  0.15941355023E+02 -0.10544939072E+03  0.11473385887E+03  0.00000000000E+00 0. -1.
<mgrwt>
<rscale>  0 0.90487866E+02</rscale>
<asrwt>0</asrwt>
<pdfrwt beam="2">  1        1 0.35158079E-01 0.90487866E+02</pdfrwt>
<pdfrwt beam="1">  1       -1 0.13780623E-02 0.90487866E+02</pdfrwt>
<totfact> 0.12401168E+05</totfact>
</mgrwt>
</event>
<event>
 5    1  0.1310593E+001  0.9800896E+02  0.7546771E-02  0.1284539E+00
          4   -1    0    0  501    0  0.00000000000E+00  0.00000000000E+00  0.16349646560E+03  0.16349646560E+03  0.00000000000E+00 0.  1.
         -4   -1    0    0    0  501 -0.00000000000E+00 -0.00000000000E+00 -0.14688016769E+02  0.14688016769E+02  0.00000000000E+00 0. -1.
         23    2    1    2    0    0  0.00000000000E+00  0.00000000000E+00  0.14880844883E+03  0.17818448237E+03  0.98008955273E+02 0.  0.
        -11    1    3    3    0    0  0.39277531877E+02  0.10997253288E+02  0.12378592140E+03  0.13033272201E+03  0.00000000000E+00 0. -1.
         11    1    3    3    0    0 -0.39277531877E+02 -0.10997253288E+02  0.25022527429E+02  0.47851760356E+02  0.00000000000E+00 0.  1.
<mgrwt>
<rscale>  0 0.98008955E+02</rscale>
<asrwt>0</asrwt>
<pdfrwt beam="1">  1        4 0.25153301E-01 0.98008955E+02</pdfrwt>
<pdfrwt beam="2">  1       -4 0.22596950E-02 0.98008955E+02</pdfrwt>
<totfact> 0.18374779E+04</totfact>
</mgrwt>
</event>
<event>
 5    1  0.1310593E+001  0.9015885E+02  0.7546771E-02  0.1302467E+00
         -1   -1    0    0    0  501 -0.00000000000E+00  0.00000000000E+00  0.68291239923E+01  0.68291239923E+01  0.00000000000E+00 0.  1.
          1   -1    0    0  501    0  0.00000000000E+00 -0.00000000000E+00 -0.29757178040E+03  0.29757178040E+03  0.00000000000E+00 0. -1.
         23    2    1    2    0    0  0.00000000000E+00  0.00000000000E+00 -0.29074265641E+03  0.30440090439E+03  0.90158850591E+02 0.  0.
        -11    1    3    3    0    0 -0.14258472487E+02  0.42758984894E+02 -0.14293722934E+03  0.14987556958E+03  0.00000000000E+00 0. -1.
         11    1    3    3    0    0  0.14258472487E+02 -0.42758984894E+02 -0.14780542707E+03  0.15452533481E+03  0.00000000000E+00 0.  1.
<mgrwt>
<rscale>  0 0.90158851E+02</rscale>
<asrwt>0</asrwt>
<pdfrwt beam="2">  1        1 0.45780273E-01 0.90158851E+02</pdfrwt>
<pdfrwt beam="1">  1       -1 0.10506345E-02 0.90158851E+02</pdfrwt>
<totfact> 0.13180453E+05</totfact>
</mgrwt>
</event>
<event>
 5    1  0.1310593E+001  0.8937988E+02  0.7546771E-02  0.1304360E+00
         -2   -1    0    0    0  501 -0.00000000000E+00  0.00000000000E+00  0.14458451291E+02  0.14458451291E+02  0.00000000000E+00 0.  1.
          2   -1    0    0  501    0  0.00000000000E+00 -0.00000000000E+00 -0.13813309598E+03  0.13813309598E+03  0.00000000000E+00 0. -1.
         23    2    1    2    0    0  0.00000000000E+00  0.00000000000E+00 -0.12367464469E+03  0.15259154727E+03  0.89379877823E+02 0.  0.
        -11    1    3    3    0    0  0.25316803725E+02 -0.36194416805E+02 -0.73443222271E+02  0.85702294347E+02  0.00000000000E+00 0. -1.
         11    1    3    3    0    0 -0.25316803725E+02  0.36194416805E+02 -0.50231422422E+02  0.66889252928E+02  0.00000000000E+00 0.  1.
<mgrwt>
<rscale>  0 0.89379878E+02</rscale>
<asrwt>0</asrwt>
<pdfrwt beam="2">  1        2 0.21251245E-01 0.89379878E+02</pdfrwt>
<pdfrwt beam="1">  1       -2 0.22243772E-02 0.89379878E+02</pdfrwt>
<totfact> 0.14353538E+05</totfact>
</mgrwt>
</event>
<event>
 5    1  0.1310593E+001  0.9031389E+02  0.7546771E-02  0.1302093E+00
         -1   -1    0    0    0  501 -0.00000000000E+00  0.00000000000E+00  0.70787084050E+02  0.70787084050E+02  0.00000000000E+00 0.  1.
          1   -1    0    0  501    0  0.00000000000E+00 -0.00000000000E+00 -0.28806807255E+02  0.28806807255E+02  0.00000000000E+00 0. -1.
         23    2    1    2    0    0  0.00000000000E+00  0.00000000000E+00  0.41980276795E+02  0.99593891305E+02  0.90313894531E+02 0.  0.
        -11    1    3    3    0    0  0.37256841510E+01 -0.38508334838E+02 -0.46918643510E+01  0.38971607171E+02  0.00000000000E+00 0. -1.
         11    1    3    3    0    0 -0.37256841510E+01  0.38508334838E+02  0.46672141146E+02  0.60622284134E+02  0.00000000000E+00 0.  1.
<mgrwt>
<rscale>  0 0.90313895E+02</rscale>
<asrwt>0</asrwt>
<pdfrwt beam="2">  1        1 0.44318165E-02 0.90313895E+02</pdfrwt>
<pdfrwt beam="1">  1       -1 0.10890321E-01 0.90313895E+02</pdfrwt>
<totfact> 0.88501497E+04</totfact>
</mgrwt>
</event>
<event>
 5    1  0.1310593E+001  0.9052772E+02  0.7546771E-02  0.1301579E+00
         -1   -1    0    0    0  501 -0.00000000000E+00  0.00000000000E+00  0.55079727944E+01  0.55079727944E+01  0.00000000000E+00 0.  1.
          1   -1    0    0  501    0  0.00000000000E+00 -0.00000000000E+00 -0.37197300807E+03  0.37197300807E+03  0.00000000000E+00 0. -1.
         23    2    1    2    0    0  0.00000000000E+00  0.00000000000E+00 -0.36646503528E+03  0.37748098087E+03  0.90527724123E+02 0.  0.
        -11    1    3    3    0    0  0.34060794781E+02 -0.25880954725E+02 -0.12154570168E+03  0.12885386745E+03  0.00000000000E+00 0.  1.
         11    1    3    3    0    0 -0.34060794781E+02  0.25880954725E+02 -0.24491933360E+03  0.24862711342E+03  0.00000000000E+00 0. -1.
<mgrwt>
<rscale>  0 0.90527724E+02</rscale>
<asrwt>0</asrwt>
<pdfrwt beam="2">  1        1 0.57226624E-01 0.90527724E+02</pdfrwt>
<pdfrwt beam="1">  1       -1 0.84738032E-03 0.90527724E+02</pdfrwt>
<totfact> 0.13579946E+05</totfact>
</mgrwt>
</event>
<event>
 5    1  0.1310593E+001  0.5698383E+02  0.7546771E-02  0.1410944E+00
          1   -1    0    0  501    0  0.00000000000E+00  0.00000000000E+00  0.23276406682E+02  0.23276406682E+02  0.00000000000E+00 0. -1.
         -1   -1    0    0    0  501 -0.00000000000E+00 -0.00000000000E+00 -0.34876049648E+02  0.34876049648E+02  0.00000000000E+00 0.  1.
         23    2    1    2    0    0  0.00000000000E+00  0.00000000000E+00 -0.11599642966E+02  0.58152456330E+02  0.56983826304E+02 0.  0.
        -11    1    3    3    0    0  0.18992709528E+02  0.29902890044E+01  0.15658148573E+02  0.24796017025E+02  0.00000000000E+00 0. -1.
         11    1    3    3    0    0 -0.18992709528E+02 -0.29902890044E+01 -0.27257791539E+02  0.33356439305E+02  0.00000000000E+00 0.  1.
<mgrwt>
<rscale>  0 0.56983826E+02</rscale>
<asrwt>0</asrwt>
<pdfrwt beam="1">  1        1 0.35809857E-02 0.56983826E+02</pdfrwt>
<pdfrwt beam="2">  1       -1 0.53655461E-02 0.56983826E+02</pdfrwt>
<totfact> 0.30778518E+05</totfact>
</mgrwt>
</event>
<event>
 5    1  0.1310593E+001  0.8912190E+02  0.7546771E-02  0.1304992E+00
          4   -1    0    0  501    0  0.00000000000E+00  0.00000000000E+00  0.42605772417E+02  0.42605772417E+02  0.00000000000E+00 0.  1.
         -4   -1    0    0    0  501 -0.00000000000E+00 -0.00000000000E+00 -0.46605849298E+02  0.46605849298E+02  0.00000000000E+00 0. -1.
         23    2    1    2    0    0  0.00000000000E+00  0.00000000000E+00 -0.40000768807E+01  0.89211621715E+02  0.89121898734E+02 0.  0.
        -11    1    3    3    0    0  0.29263081419E+02  0.30897947411E+02 -0.15229512638E+02  0.45198994939E+02  0.00000000000E+00 0.  1.
         11    1    3    3    0    0 -0.29263081419E+02 -0.30897947411E+02  0.11229435757E+02  0.44012626776E+02  0.00000000000E+00 0. -1.
<mgrwt>
<rscale>  0 0.89121899E+02</rscale>
<asrwt>0</asrwt>
<pdfrwt beam="1">  1        4 0.65547342E-02 0.89121899E+02</pdfrwt>
<pdfrwt beam="2">  1       -4 0.71701307E-02 0.89121899E+02</pdfrwt>
<totfact> 0.28871101E+04</totfact>
</mgrwt>
</event>
<event>
 5    1  0.1310593E+001  0.8825585E+02  0.7546771E-02  0.1307131E+00
          1   -1    0    0  501    0  0.00000000000E+00  0.00000000000E+00  0.11355457505E+03  0.11355457505E+03  0.00000000000E+00 0. -1.
         -1   -1    0    0    0  501 -0.00000000000E+00 -0.00000000000E+00 -0.17148351334E+02  0.17148351334E+02  0.00000000000E+00 0.  1.
         23    2    1    2    0    0  0.00000000000E+00  0.00000000000E+00  0.96406223715E+02  0.13070292638E+03  0.88255849632E+02 0.  0.
        -13    1    3    3    0    0  0.23649470918E+02  0.16491474971E+02  0.97676923701E+02  0.10184325037E+03  0.00000000000E+00 0. -1.
         13    1    3    3    0    0 -0.23649470918E+02 -0.16491474971E+02 -0.12706999851E+01  0.28859676019E+02  0.00000000000E+00 0.  1.
<mgrwt>
<rscale>  0 0.88255850E+02</rscale>
<asrwt>0</asrwt>
<pdfrwt beam="1">  1        1 0.17469934E-01 0.88255850E+02</pdfrwt>
<pdfrwt beam="2">  1       -1 0.26382080E-02 0.88255850E+02</pdfrwt>
<totfact> 0.11655593E+05</totfact>
</mgrwt>
</event>
<event>
 5    1  0.1310593E+001  0.9169582E+02  0.7546771E-02  0.1298796E+00
         -2   -1    0    0    0  501 -0.00000000000E+00  0.00000000000E+00  0.26450743341E+03  0.26450743341E+03  0.00000000000E+00 0.  1.
          2   -1    0    0  501    0  0.00000000000E+00 -0.00000000000E+00 -0.79469638110E+01  0.79469638110E+01  0.00000000000E+00 0. -1.
         23    2    1    2    0    0  0.00000000000E+00  0.00000000000E+00  0.25656046960E+03  0.27245439722E+03  0.91695823265E+02 0.  0.
        -13    1    3    3    0    0  0.29922165124E+02  0.34564749756E+02  0.11799894153E+03  0.12654567592E+03  0.00000000000E+00 0.  1.
         13    1    3    3    0    0 -0.29922165124E+02 -0.34564749756E+02  0.13856152807E+03  0.14590872131E+03  0.00000000000E+00 0. -1.
<mgrwt>
<rscale>  0 0.91695823E+02</rscale>
<asrwt>0</asrwt>
<pdfrwt beam="2">  1        2 0.12226100E-02 0.91695823E+02</pdfrwt>
<pdfrwt beam="1">  1       -2 0.40693445E-01 0.91695823E+02</pdfrwt>
<totfact> 0.53797557E+04</totfact>
</mgrwt>
</event>
<event>
 5    1  0.1310593E+001  0.8947329E+02  0.7546771E-02  0.1304132E+00
          3   -1    0    0  501    0  0.00000000000E+00  0.00000000000E+00  0.30566109632E+02  0.30566109632E+02  0.00000000000E+00 0. -1.
         -3   -1    0    0    0  501 -0.00000000000E+00 -0.00000000000E+00 -0.65476677202E+02  0.65476677202E+02  0.00000000000E+00 0.  1.
         23    2    1    2    0    0  0.00000000000E+00  0.00000000000E+00 -0.34910567570E+02  0.96042786834E+02  0.89473287493E+02 0.  0.
        -13    1    3    3    0    0 -0.40375447123E+02 -0.42158910042E+01  0.27244284947E+01  0.40686275057E+02  0.00000000000E+00 0. -1.
         13    1    3    3    0    0  0.40375447123E+02  0.42158910042E+01 -0.37634996064E+02  0.55356511777E+02  0.00000000000E+00 0.  1.
<mgrwt>
<rscale>  0 0.89473287E+02</rscale>
<asrwt>0</asrwt>
<pdfrwt beam="1">  1        3 0.47024784E-02 0.89473287E+02</pdfrwt>
<pdfrwt beam="2">  1       -3 0.10073335E-01 0.89473287E+02</pdfrwt>
<totfact> 0.36806263E+04</totfact>
</mgrwt>
</event>
<event>
 5    1  0.1310593E+001  0.9077802E+02  0.7546771E-02  0.1300978E+00
         -2   -1    0    0    0  501 -0.00000000000E+00  0.00000000000E+00  0.44807642556E+01  0.44807642556E+01  0.00000000000E+00 0.  1.
          2   -1    0    0  501    0  0.00000000000E+00 -0.00000000000E+00 -0.45977920303E+03  0.45977920303E+03  0.00000000000E+00 0. -1.
         23    2    1    2    0    0  0.00000000000E+00  0.00000000000E+00 -0.45529843877E+03  0.46425996728E+03  0.90778019771E+02 0.  0.
        -11    1    3    3    0    0  0.35098690711E+02  0.28444298245E+02 -0.25003883148E+03  0.25408741299E+03  0.00000000000E+00 0.  1.
         11    1    3    3    0    0 -0.35098690711E+02 -0.28444298245E+02 -0.20525960730E+03  0.21017255430E+03  0.00000000000E+00 0. -1.
<mgrwt>
<rscale>  0 0.90778020E+02</rscale>
<asrwt>0</asrwt>
<pdfrwt beam="2">  1        2 0.70735253E-01 0.90778020E+02</pdfrwt>
<pdfrwt beam="1">  1       -2 0.68934843E-03 0.90778020E+02</pdfrwt>
<totfact> 0.21201899E+05</totfact>
</mgrwt>
</event>
<event>
 5    1  0.1310593E+001  0.9175463E+02  0.7546771E-02  0.1298657E+00
          1   -1    0    0  501    0  0.00000000000E+00  0.00000000000E+00  0.90733183390E+02  0.90733183390E+02  0.00000000000E+00 0. -1.
         -1   -1    0    0    0  501 -0.00000000000E+00 -0.00000000000E+00 -0.23196893809E+02  0.23196893809E+02  0.00000000000E+00 0.  1.
         23    2    1    2    0    0  0.00000000000E+00  0.00000000000E+00  0.67536289581E+02  0.11393007720E+03  0.91754629747E+02 0.  0.
        -11    1    3    3    0    0 -0.69675315028E+01 -0.39869639726E+02  0.60589435807E+02  0.72864356160E+02  0.00000000000E+00 0. -1.
         11    1    3    3    0    0  0.69675315028E+01  0.39869639726E+02  0.69468537740E+01  0.41065721039E+02  0.00000000000E+00 0.  1.
<mgrwt>
<rscale>  0 0.91754630E+02</rscale>
<asrwt>0</asrwt>
<pdfrwt beam="1">  1        1 0.13958951E-01 0.91754630E+02</pdfrwt>
<pdfrwt beam="2">  1       -1 0.35687529E-02 0.91754630E+02</pdfrwt>
<totfact> 0.10103321E+05</totfact>
</mgrwt>
</event>
<event>
 5    1  0.1310593E+001  0.9155531E+02  0.7546771E-02  0.1299128E+00
         -1   -1    0    0    0  501 -0.00000000000E+00  0.00000000000E+00  0.62035583717E+01  0.62035583717E+01  0.00000000000E+00 0.  1.
          1   -1    0    0  501    0  0.00000000000E+00 -0.00000000000E+00 -0.33780511462E+03  0.33780511462E+03  0.00000000000E+00 0. -1.
         23    2    1    2    0    0  0.00000000000E+00  0.00000000000E+00 -0.33160155625E+03  0.34400867299E+03  0.91555311082E+02 0.  0.
        -13    1    3    3    0    0  0.86167350000E+01 -0.39932227035E+02 -0.24342176540E+03  0.24682582269E+03  0.00000000000E+00 0. -1.
         13    1    3    3    0    0 -0.86167350000E+01  0.39932227035E+02 -0.88179790855E+02  0.97182850304E+02  0.00000000000E+00 0.  1.
<mgrwt>
<rscale>  0 0.91555311E+02</rscale>
<asrwt>0</asrwt>
<pdfrwt beam="2">  1        1 0.51970021E-01 0.91555311E+02</pdfrwt>
<pdfrwt beam="1">  1       -1 0.95439353E-03 0.91555311E+02</pdfrwt>
<totfact> 0.12955555E+05</totfact>
</mgrwt>
</event>
<event>
 5    1  0.1310593E+001  0.9278939E+02  0.7546771E-02  0.1296234E+00
         -2   -1    0    0    0  501 -0.00000000000E+00  0.00000000000E+00  0.29927394106E+02  0.29927394106E+02  0.00000000000E+00 0. -1.
          2   -1    0    0  501    0  0.00000000000E+00 -0.00000000000E+00 -0.71922991874E+02  0.71922991874E+02  0.00000000000E+00 0.  1.
         23    2    1    2    0    0  0.00000000000E+00  0.00000000000E+00 -0.41995597768E+02  0.10185038598E+03  0.92789389978E+02 0.  0.
        -13    1    3    3    0    0  0.38788045440E+02  0.10309672970E+02 -0.46544222325E+02  0.61458656491E+02  0.00000000000E+00 0.  1.
         13    1    3    3    0    0 -0.38788045440E+02 -0.10309672970E+02  0.45486245576E+01  0.40391729489E+02  0.00000000000E+00 0. -1.
<mgrwt>
<rscale>  0 0.92789390E+02</rscale>
<asrwt>0</asrwt>
<pdfrwt beam="2">  1        2 0.11065076E-01 0.92789390E+02</pdfrwt>
<pdfrwt beam="1">  1       -2 0.46042145E-02 0.92789390E+02</pdfrwt>
<totfact> 0.10611569E+05</totfact>
</mgrwt>
</event>
<event>
 5    1  0.1310593E+001  0.9214979E+02  0.7546771E-02  0.1297728E+00
          1   -1    0    0  501    0  0.00000000000E+00  0.00000000000E+00  0.34996215580E+03  0.34996215580E+03  0.00000000000E+00 0. -1.
         -1   -1    0    0    0  501 -0.00000000000E+00 -0.00000000000E+00 -0.60660728604E+01  0.60660728604E+01  0.00000000000E+00 0.  1.
         23    2    1    2    0    0  0.00000000000E+00  0.00000000000E+00  0.34389608294E+03  0.35602822867E+03  0.92149789701E+02 0.  0.
        -13    1    3    3    0    0 -0.41848854263E+02  0.19009606880E+02  0.15960622421E+03  0.16609286126E+03  0.00000000000E+00 0. -1.
         13    1    3    3    0    0  0.41848854263E+02 -0.19009606880E+02  0.18428985874E+03  0.18993536740E+03  0.00000000000E+00 0.  1.
<mgrwt>
<rscale>  0 0.92149790E+02</rscale>
<asrwt>0</asrwt>
<pdfrwt beam="1">  1        1 0.53840316E-01 0.92149790E+02</pdfrwt>
<pdfrwt beam="2">  1       -1 0.93324225E-03 0.92149790E+02</pdfrwt>
<totfact> 0.12815701E+05</totfact>
</mgrwt>
</event>
<event>
 5    1  0.1310593E+001  0.9631246E+02  0.7546771E-02  0.1288247E+00
          1   -1    0    0  501    0  0.00000000000E+00  0.00000000000E+00  0.45489392828E+02  0.45489392828E+02  0.00000000000E+00 0. -1.
         -1   -1    0    0    0  501 -0.00000000000E+00 -0.00000000000E+00 -0.50979413765E+02  0.50979413765E+02  0.00000000000E+00 0.  1.
         23    2    1    2    0    0  0.00000000000E+00  0.00000000000E+00 -0.54900209371E+01  0.96468806593E+02  0.96312461892E+02 0.  0.
        -11    1    3    3    0    0 -0.19429748268E+02 -0.30990249307E+02  0.28628541868E+02  0.46448940562E+02  0.00000000000E+00 0. -1.
         11    1    3    3    0    0  0.19429748268E+02  0.30990249307E+02 -0.34118562805E+02  0.50019866031E+02  0.00000000000E+00 0.  1.
<mgrwt>
<rscale>  0 0.96312462E+02</rscale>
<asrwt>0</asrwt>
<pdfrwt beam="1">  1        1 0.69983682E-02 0.96312462E+02</pdfrwt>
<pdfrwt beam="2">  1       -1 0.78429867E-02 0.96312462E+02</pdfrwt>
<totfact> 0.79196194E+04</totfact>
</mgrwt>
</event>
<event>
 5    1  0.1310593E+001  0.8834708E+02  0.7546771E-02  0.1306905E+00
         -1   -1    0    0    0  501 -0.00000000000E+00  0.00000000000E+00  0.16684600505E+03  0.16684600505E+03  0.00000000000E+00 0.  1.
          1   -1    0    0  501    0  0.00000000000E+00 -0.00000000000E+00 -0.11695225026E+02  0.11695225026E+02  0.00000000000E+00 0. -1.
         23    2    1    2    0    0  0.00000000000E+00  0.00000000000E+00  0.15515078003E+03  0.17854123008E+03  0.88347078590E+02 0.  0.
        -11    1    3    3    0    0  0.77887143373E+01 -0.36177866926E+02  0.28830063731E+02  0.46911349384E+02  0.00000000000E+00 0. -1.
         11    1    3    3    0    0 -0.77887143373E+01  0.36177866926E+02  0.12632071630E+03  0.13162988069E+03  0.00000000000E+00 0.  1.
<mgrwt>
<rscale>  0 0.88347079E+02</rscale>
<asrwt>0</asrwt>
<pdfrwt beam="2">  1        1 0.17992655E-02 0.88347079E+02</pdfrwt>
<pdfrwt beam="1">  1       -1 0.25668615E-01 0.88347079E+02</pdfrwt>
<totfact> 0.79096674E+04</totfact>
</mgrwt>
</event>
<event>
 5    1  0.1310593E+001  0.9006174E+02  0.7546771E-02  0.1302702E+00
         -3   -1    0    0    0  501 -0.00000000000E+00  0.00000000000E+00  0.23559600832E+02  0.23559600832E+02  0.00000000000E+00 0.  1.
          3   -1    0    0  501    0  0.00000000000E+00 -0.00000000000E+00 -0.86070195401E+02  0.86070195401E+02  0.00000000000E+00 0. -1.
         23    2    1    2    0    0  0.00000000000E+00  0.00000000000E+00 -0.62510594569E+02  0.10962979623E+03  0.90061744314E+02 0.  0.
        -11    1    3    3    0    0 -0.21745056424E+02 -0.30302729421E+02 -0.61970096640E+02  0.72328388388E+02  0.00000000000E+00 0. -1.
         11    1    3    3    0    0  0.21745056424E+02  0.30302729421E+02 -0.54049792867E+00  0.37301407845E+02  0.00000000000E+00 0.  1.
<mgrwt>
<rscale>  0 0.90061744E+02</rscale>
<asrwt>0</asrwt>
<pdfrwt beam="2">  1        3 0.13241569E-01 0.90061744E+02</pdfrwt>
<pdfrwt beam="1">  1       -3 0.36245539E-02 0.90061744E+02</pdfrwt>
<totfact> 0.35124342E+04</totfact>
</mgrwt>
</event>
<event>
 5    1  0.1310593E+001  0.9720745E+02  0.7546771E-02  0.1286280E+00
          2   -1    0    0  501    0  0.00000000000E+00  0.00000000000E+00  0.17580787233E+02  0.17580787233E+02  0.00000000000E+00 0. -1.
         -2   -1    0    0    0  501 -0.00000000000E+00 -0.00000000000E+00 -0.13436953540E+03  0.13436953540E+03  0.00000000000E+00 0.  1.
         23    2    1    2    0    0  0.00000000000E+00  0.00000000000E+00 -0.11678874817E+03  0.15195032263E+03  0.97207452646E+02 0.  0.
        -11    1    3    3    0    0 -0.41880640043E+02  0.34278888469E+01 -0.96574537677E+02  0.10532036726E+03  0.00000000000E+00 0.  1.
         11    1    3    3    0    0  0.41880640043E+02 -0.34278888469E+01 -0.20214210491E+02  0.46629955374E+02  0.00000000000E+00 0. -1.
<mgrwt>
<rscale>  0 0.97207453E+02</rscale>
<asrwt>0</asrwt>
<pdfrwt beam="1">  1        2 0.27047365E-02 0.97207453E+02</pdfrwt>
<pdfrwt beam="2">  1       -2 0.20672236E-01 0.97207453E+02</pdfrwt>
<totfact> 0.61789240E+04</totfact>
</mgrwt>
</event>
<event>
 5    1  0.1310593E+001  0.9168338E+02  0.7546771E-02  0.1298826E+00
          2   -1    0    0  501    0  0.00000000000E+00  0.00000000000E+00  0.41132654999E+03  0.41132654999E+03  0.00000000000E+00 0. -1.
         -2   -1    0    0    0  501 -0.00000000000E+00 -0.00000000000E+00 -0.51089833359E+01  0.51089833359E+01  0.00000000000E+00 0.  1.
         23    2    1    2    0    0  0.00000000000E+00  0.00000000000E+00  0.40621756665E+03  0.41643553332E+03  0.91683378853E+02 0.  0.
        -13    1    3    3    0    0  0.36532327963E+02  0.25600003517E+02  0.25106819076E+03  0.25500040702E+03  0.00000000000E+00 0. -1.
         13    1    3    3    0    0 -0.36532327963E+02 -0.25600003517E+02  0.15514937589E+03  0.16143512630E+03  0.00000000000E+00 0.  1.
<mgrwt>
<rscale>  0 0.91683379E+02</rscale>
<asrwt>0</asrwt>
<pdfrwt beam="1">  1        2 0.63280982E-01 0.91683379E+02</pdfrwt>
<pdfrwt beam="2">  1       -2 0.78599776E-03 0.91683379E+02</pdfrwt>
<totfact> 0.19867425E+05</totfact>
</mgrwt>
</event>
<event>
 5    1  0.1310593E+001  0.9140010E+02  0.7546771E-02  0.1299496E+00
         -1   -1    0    0    0  501 -0.00000000000E+00  0.00000000000E+00  0.73255192786E+01  0.73255192786E+01  0.00000000000E+00 0.  1.
          1   -1    0    0  501    0  0.00000000000E+00 -0.00000000000E+00 -0.28509848677E+03  0.28509848677E+03  0.00000000000E+00 0. -1.
         23    2    1    2    0    0  0.00000000000E+00  0.00000000000E+00 -0.27777296749E+03  0.29242400605E+03  0.91400097618E+02 0.  0.
        -11    1    3    3    0    0  0.35367959053E+02 -0.18463395234E+02 -0.67582201007E+02  0.78480210143E+02  0.00000000000E+00 0.  1.
         11    1    3    3    0    0 -0.35367959053E+02  0.18463395234E+02 -0.21019076648E+03  0.21394379591E+03  0.00000000000E+00 0. -1.
<mgrwt>
<rscale>  0 0.91400098E+02</rscale>
<asrwt>0</asrwt>
<pdfrwt beam="2">  1        1 0.43861314E-01 0.91400098E+02</pdfrwt>
<pdfrwt beam="1">  1       -1 0.11270028E-02 0.91400098E+02</pdfrwt>
<totfact> 0.12604993E+05</totfact>
</mgrwt>
</event>
<event>
 5    1  0.1310593E+001  0.9153254E+02  0.7546771E-02  0.1299182E+00
         -4   -1    0    0    0  501 -0.00000000000E+00  0.00000000000E+00  0.12849082625E+02  0.12849082625E+02  0.00000000000E+00 0.  1.
          4   -1    0    0  501    0  0.00000000000E+00 -0.00000000000E+00 -0.16301174085E+03  0.16301174085E+03  0.00000000000E+00 0. -1.
         23    2    1    2    0    0  0.00000000000E+00  0.00000000000E+00 -0.15016265823E+03  0.17586082348E+03  0.91532536881E+02 0.  0.
        -13    1    3    3    0    0 -0.16774608455E+02  0.32185093050E+02 -0.12864660697E+03  0.13366831034E+03  0.00000000000E+00 0. -1.
         13    1    3    3    0    0  0.16774608455E+02 -0.32185093050E+02 -0.21516051260E+02  0.42192513142E+02  0.00000000000E+00 0.  1.
<mgrwt>
<rscale>  0 0.91532537E+02</rscale>
<asrwt>0</asrwt>
<pdfrwt beam="2">  1        4 0.25078729E-01 0.91532537E+02</pdfrwt>
<pdfrwt beam="1">  1       -4 0.19767820E-02 0.91532537E+02</pdfrwt>
<totfact> 0.22204487E+04</totfact>
</mgrwt>
</event>
<event>
 5    1  0.1310593E+001  0.9120833E+02  0.7546771E-02  0.1299952E+00
         -1   -1    0    0    0  501 -0.00000000000E+00  0.00000000000E+00  0.17966665946E+02  0.17966665946E+02  0.00000000000E+00 0.  1.
          1   -1    0    0  501    0  0.00000000000E+00 -0.00000000000E+00 -0.11575546971E+03  0.11575546971E+03  0.00000000000E+00 0. -1.
         23    2    1    2    0    0  0.00000000000E+00  0.00000000000E+00 -0.97788803766E+02  0.13372213566E+03  0.91208329789E+02 0.  0.
        -13    1    3    3    0    0  0.53257337415E+01 -0.31276668758E+02 -0.86598307533E+00  0.31738673179E+02  0.00000000000E+00 0.  1.
         13    1    3    3    0    0 -0.53257337415E+01  0.31276668758E+02 -0.96922820690E+02  0.10198346248E+03  0.00000000000E+00 0. -1.
<mgrwt>
<rscale>  0 0.91208330E+02</rscale>
<asrwt>0</asrwt>
<pdfrwt beam="2">  1        1 0.17808534E-01 0.91208330E+02</pdfrwt>
<pdfrwt beam="1">  1       -1 0.27641024E-02 0.91208330E+02</pdfrwt>
<totfact> 0.10696939E+05</totfact>
</mgrwt>
</event>
<event>
 5    1  0.1310593E+001  0.1018748E+03  0.7546771E-02  0.1276402E+00
          1   -1    0    0  501    0  0.00000000000E+00  0.00000000000E+00  0.11896366974E+03  0.11896366974E+03  0.00000000000E+00 0. -1.
         -1   -1    0    0    0  501 -0.00000000000E+00 -0.00000000000E+00 -0.21810185856E+02  0.21810185856E+02  0.00000000000E+00 0.  1.
         23    2    1    2    0    0  0.00000000000E+00  0.00000000000E+00  0.97153483888E+02  0.14077385560E+03  0.10187482019E+03 0.  0.
        -11    1    3    3    0    0 -0.16643828520E+02 -0.24777567403E+02  0.10561266958E+03  0.10974962802E+03  0.00000000000E+00 0. -1.
         11    1    3    3    0    0  0.16643828520E+02  0.24777567403E+02 -0.84591856963E+01  0.31024227579E+02  0.00000000000E+00 0.  1.
<mgrwt>
<rscale>  0 0.10187482E+03</rscale>
<asrwt>0</asrwt>
<pdfrwt beam="1">  1        1 0.18302103E-01 0.10187482E+03</pdfrwt>
<pdfrwt beam="2">  1       -1 0.33554133E-02 0.10187482E+03</pdfrwt>
<totfact> 0.79434593E+04</totfact>
</mgrwt>
</event>
<event>
 5    1  0.1310593E+001  0.9131787E+02  0.7546771E-02  0.1299691E+00
         -3   -1    0    0    0  501 -0.00000000000E+00  0.00000000000E+00  0.16002187900E+03  0.16002187900E+03  0.00000000000E+00 0.  1.
          3   -1    0    0  501    0  0.00000000000E+00 -0.00000000000E+00 -0.13027834216E+02  0.13027834216E+02  0.00000000000E+00 0. -1.
         23    2    1    2    0    0  0.00000000000E+00  0.00000000000E+00  0.14699404479E+03  0.17304971322E+03  0.91317873618E+02 0.  0.
        -13    1    3    3    0    0 -0.23108458545E+02 -0.12135834804E+02  0.25041113534E+01  0.26221173055E+02  0.00000000000E+00 0. -1.
         13    1    3    3    0    0  0.23108458545E+02  0.12135834804E+02  0.14448993343E+03  0.14682854016E+03  0.00000000000E+00 0.  1.
<mgrwt>
<rscale>  0 0.91317874E+02</rscale>
<asrwt>0</asrwt>
<pdfrwt beam="2">  1        3 0.20042823E-02 0.91317874E+02</pdfrwt>
<pdfrwt beam="1">  1       -3 0.24618749E-01 0.91317874E+02</pdfrwt>
<totfact> 0.29828737E+04</totfact>
</mgrwt>
</event>
<event>
 5    1  0.1310593E+001  0.9132997E+02  0.7546771E-02  0.1299663E+00
         -2   -1    0    0    0  501 -0.00000000000E+00  0.00000000000E+00  0.12424147011E+02  0.12424147011E+02  0.00000000000E+00 0.  1.
          2   -1    0    0  501    0  0.00000000000E+00 -0.00000000000E+00 -0.16784177639E+03  0.16784177639E+03  0.00000000000E+00 0. -1.
         23    2    1    2    0    0  0.00000000000E+00  0.00000000000E+00 -0.15541762938E+03  0.18026592340E+03  0.91329971082E+02 0.  0.
        -11    1    3    3    0    0  0.13424328758E+02  0.24185185884E+02 -0.14942427560E+03  0.15196298877E+03  0.00000000000E+00 0. -1.
         11    1    3    3    0    0 -0.13424328758E+02 -0.24185185884E+02 -0.59933537767E+01  0.28302934624E+02  0.00000000000E+00 0.  1.
<mgrwt>
<rscale>  0 0.91329971E+02</rscale>
<asrwt>0</asrwt>
<pdfrwt beam="2">  1        2 0.25821812E-01 0.91329971E+02</pdfrwt>
<pdfrwt beam="1">  1       -2 0.19114072E-02 0.91329971E+02</pdfrwt>
<totfact> 0.14466989E+05</totfact>
</mgrwt>
</event>
<event>
 5    1  0.1310593E+001  0.8774832E+02  0.7546771E-02  0.1308398E+00
          1   -1    0    0  501    0  0.00000000000E+00  0.00000000000E+00  0.57367786400E+02  0.57367786400E+02  0.00000000000E+00 0. -1.
         -1   -1    0    0    0  501 -0.00000000000E+00 -0.00000000000E+00 -0.33554405493E+02  0.33554405493E+02  0.00000000000E+00 0.  1.
         23    2    1    2    0    0  0.00000000000E+00  0.00000000000E+00  0.23813380907E+02  0.90922191892E+02  0.87748321171E+02 0.  0.
        -11    1    3    3    0    0  0.31898815185E+02 -0.28139676391E+02  0.23045696508E+02  0.48378506851E+02  0.00000000000E+00 0. -1.
         11    1    3    3    0    0 -0.31898815185E+02  0.28139676391E+02  0.76768439940E+00  0.42543685042E+02  0.00000000000E+00 0.  1.
<mgrwt>
<rscale>  0 0.87748321E+02</rscale>
<asrwt>0</asrwt>
<pdfrwt beam="1">  1        1 0.88258133E-02 0.87748321E+02</pdfrwt>
<pdfrwt beam="2">  1       -1 0.51622162E-02 0.87748321E+02</pdfrwt>
<totfact> 0.10643535E+05</totfact>
</mgrwt>
</event>
<event>
 5    1  0.1310593E+001  0.9398968E+02  0.7546771E-02  0.1293468E+00
          2   -1    0    0  501    0  0.00000000000E+00  0.00000000000E+00  0.10067946486E+03  0.10067946486E+03  0.00000000000E+00 0. -1.
         -2   -1    0    0    0  501 -0.00000000000E+00 -0.00000000000E+00 -0.21936099527E+02  0.21936099527E+02  0.00000000000E+00 0.  1.
         23    2    1    2    0    0  0.00000000000E+00  0.00000000000E+00  0.78743365338E+02  0.12261556439E+03  0.93989675211E+02 0.  0.
        -13    1    3    3    0    0  0.39000639567E+02  0.21095851551E+02  0.19059407850E+02  0.48263297307E+02  0.00000000000E+00 0.  1.
         13    1    3    3    0    0 -0.39000639567E+02 -0.21095851551E+02  0.59683957487E+02  0.74352267085E+02  0.00000000000E+00 0. -1.
<mgrwt>
<rscale>  0 0.93989675E+02</rscale>
<asrwt>0</asrwt>
<pdfrwt beam="1">  1        2 0.15489148E-01 0.93989675E+02</pdfrwt>
<pdfrwt beam="2">  1       -2 0.33747846E-02 0.93989675E+02</pdfrwt>
<totfact> 0.11303850E+05</totfact>
</mgrwt>
</event>
<event>
 5    1  0.1310593E+001  0.6931957E+02  0.7546771E-02  0.1362422E+00
         -2   -1    0    0    0  501 -0.00000000000E+00  0.00000000000E+00  0.34182888714E+02  0.34182888714E+02  0.00000000000E+00 0.  1.
          2   -1    0    0  501    0  0.00000000000E+00 -0.00000000000E+00 -0.35143336548E+02  0.35143336548E+02  0.00000000000E+00 0. -1.
         23    2    1    2    0    0  0.00000000000E+00  0.00000000000E+00 -0.96044783380E+00  0.69326225262E+02  0.69319571905E+02 0.  0.
        -13    1    3    3    0    0 -0.23466877237E+02  0.25440613210E+02  0.13588746939E+01  0.34637633698E+02  0.00000000000E+00 0. -1.
         13    1    3    3    0    0  0.23466877237E+02 -0.25440613210E+02 -0.23193225277E+01  0.34688591565E+02  0.00000000000E+00 0.  1.
<mgrwt>
<rscale>  0 0.69319572E+02</rscale>
<asrwt>0</asrwt>
<pdfrwt beam="2">  1        2 0.54066672E-02 0.69319572E+02</pdfrwt>
<pdfrwt beam="1">  1       -2 0.52589059E-02 0.69319572E+02</pdfrwt>
<totfact> 0.20083265E+05</totfact>
</mgrwt>
</event>
<event>
 5    1  0.1310593E+001  0.8438823E+02  0.7546771E-02  0.1317040E+00
         -1   -1    0    0    0  501 -0.00000000000E+00  0.00000000000E+00  0.63781552263E+02  0.63781552263E+02  0.00000000000E+00 0.  1.
          1   -1    0    0  501    0  0.00000000000E+00 -0.00000000000E+00 -0.27913138838E+02  0.27913138838E+02  0.00000000000E+00 0. -1.
         23    2    1    2    0    0  0.00000000000E+00  0.00000000000E+00  0.35868413425E+02  0.91694691101E+02  0.84388229596E+02 0.  0.
        -11    1    3    3    0    0 -0.20350708816E+02 -0.31665361230E+02  0.38650528832E+02  0.53950994709E+02  0.00000000000E+00 0.  1.
         11    1    3    3    0    0  0.20350708816E+02  0.31665361230E+02 -0.27821154069E+01  0.37743696391E+02  0.00000000000E+00 0. -1.
<mgrwt>
<rscale>  0 0.84388230E+02</rscale>
<asrwt>0</asrwt>
<pdfrwt beam="2">  1        1 0.42943291E-02 0.84388230E+02</pdfrwt>
<pdfrwt beam="1">  1       -1 0.98125465E-02 0.84388230E+02</pdfrwt>
<totfact> 0.10689266E+05</totfact>
</mgrwt>
</event>
<event>
 5    1  0.1310593E+001  0.9221896E+02  0.7546771E-02  0.1297565E+00
         -2   -1    0    0    0  501 -0.00000000000E+00  0.00000000000E+00  0.23114099386E+02  0.23114099386E+02  0.00000000000E+00 0.  1.
          2   -1    0    0  501    0  0.00000000000E+00 -0.00000000000E+00 -0.91982139839E+02  0.91982139839E+02  0.00000000000E+00 0. -1.
         23    2    1    2    0    0  0.00000000000E+00  0.00000000000E+00 -0.68868040453E+02  0.11509623922E+03  0.92218963818E+02 0.  0.
        -11    1    3    3    0    0  0.18422494597E+02  0.69827256259E+01  0.17596477385E+02  0.26415578371E+02  0.00000000000E+00 0.  1.
         11    1    3    3    0    0 -0.18422494597E+02 -0.69827256259E+01 -0.86464517838E+02  0.88680660853E+02  0.00000000000E+00 0. -1.
<mgrwt>
<rscale>  0 0.92218964E+02</rscale>
<asrwt>0</asrwt>
<pdfrwt beam="2">  1        2 0.14151098E-01 0.92218964E+02</pdfrwt>
<pdfrwt beam="1">  1       -2 0.35560153E-02 0.92218964E+02</pdfrwt>
<totfact> 0.11592506E+05</totfact>
</mgrwt>
</event>
<event>
 5    1  0.1310593E+001  0.9249827E+02  0.7546771E-02  0.1296912E+00
         -3   -1    0    0    0  501 -0.00000000000E+00  0.00000000000E+00  0.97913356976E+01  0.97913356976E+01  0.00000000000E+00 0.  1.
          3   -1    0    0  501    0  0.00000000000E+00 -0.00000000000E+00 -0.21845665543E+03  0.21845665543E+03  0.00000000000E+00 0. -1.
         23    2    1    2    0    0  0.00000000000E+00  0.00000000000E+00 -0.20866531973E+03  0.22824799112E+03  0.92498269144E+02 0.  0.
        -11    1    3    3    0    0 -0.38520595189E+02 -0.13030587326E+02 -0.49969978481E+02  0.64425392581E+02  0.00000000000E+00 0.  1.
         11    1    3    3    0    0  0.38520595189E+02  0.13030587326E+02 -0.15869534125E+03  0.16382259854E+03  0.00000000000E+00 0. -1.
<mgrwt>
<rscale>  0 0.92498269E+02</rscale>
<asrwt>0</asrwt>
<pdfrwt beam="2">  1        3 0.33608717E-01 0.92498269E+02</pdfrwt>
<pdfrwt beam="1">  1       -3 0.15063593E-02 0.92498269E+02</pdfrwt>
<totfact> 0.26068650E+04</totfact>
</mgrwt>
</event>
<event>
 5    1  0.1310593E+001  0.9124897E+02  0.7546771E-02  0.1299855E+00
          2   -1    0    0  501    0  0.00000000000E+00  0.00000000000E+00  0.18525624306E+03  0.18525624306E+03  0.00000000000E+00 0. -1.
         -2   -1    0    0    0  501 -0.00000000000E+00 -0.00000000000E+00 -0.11236294412E+02  0.11236294412E+02  0.00000000000E+00 0.  1.
         23    2    1    2    0    0  0.00000000000E+00  0.00000000000E+00  0.17401994865E+03  0.19649253747E+03  0.91248971252E+02 0.  0.
        -13    1    3    3    0    0 -0.55224647532E+01  0.29132681012E+02  0.16167882940E+03  0.16437534668E+03  0.00000000000E+00 0. -1.
         13    1    3    3    0    0  0.55224647532E+01 -0.29132681012E+02  0.12341119243E+02  0.32117190787E+02  0.00000000000E+00 0.  1.
<mgrwt>
<rscale>  0 0.91248971E+02</rscale>
<asrwt>0</asrwt>
<pdfrwt beam="1">  1        2 0.28500958E-01 0.91248971E+02</pdfrwt>
<pdfrwt beam="2">  1       -2 0.17286608E-02 0.91248971E+02</pdfrwt>
<totfact> 0.15015987E+05</totfact>
</mgrwt>
</event>
<event>
 5    1  0.1310593E+001  0.9406622E+02  0.7546771E-02  0.1293293E+00
          3   -1    0    0  501    0  0.00000000000E+00  0.00000000000E+00  0.26473590561E+03  0.26473590561E+03  0.00000000000E+00 0. -1.
         -3   -1    0    0    0  501 -0.00000000000E+00 -0.00000000000E+00 -0.83559258940E+01  0.83559258940E+01  0.00000000000E+00 0.  1.
         23    2    1    2    0    0  0.00000000000E+00  0.00000000000E+00  0.25637997972E+03  0.27309183150E+03  0.94066223667E+02 0.  0.
        -11    1    3    3    0    0 -0.31928891919E+02 -0.27644123131E+02  0.18828399066E+03  0.19296246480E+03  0.00000000000E+00 0.  1.
         11    1    3    3    0    0  0.31928891919E+02  0.27644123131E+02  0.68095989053E+02  0.80129366701E+02  0.00000000000E+00 0. -1.
<mgrwt>
<rscale>  0 0.94066224E+02</rscale>
<asrwt>0</asrwt>
<pdfrwt beam="1">  1        3 0.40728594E-01 0.94066224E+02</pdfrwt>
<pdfrwt beam="2">  1       -3 0.12855273E-02 0.94066224E+02</pdfrwt>
<totfact> 0.23085842E+04</totfact>
</mgrwt>
</event>
<event>
 5    1  0.1310593E+001  0.6782565E+02  0.7546771E-02  0.1367647E+00
         -1   -1    0    0    0  501 -0.00000000000E+00  0.00000000000E+00  0.86205957019E+02  0.86205957019E+02  0.00000000000E+00 0.  1.
          1   -1    0    0  501    0  0.00000000000E+00 -0.00000000000E+00 -0.13341070810E+02  0.13341070810E+02  0.00000000000E+00 0. -1.
         23    2    1    2    0    0  0.00000000000E+00  0.00000000000E+00  0.72864886209E+02  0.99547027828E+02  0.67825652280E+02 0.  0.
        -11    1    3    3    0    0  0.16605002308E+02 -0.57547185385E+01 -0.61365593559E+01  0.18614517126E+02  0.00000000000E+00 0. -1.
         11    1    3    3    0    0 -0.16605002308E+02  0.57547185385E+01  0.79001445565E+02  0.80932510702E+02  0.00000000000E+00 0.  1.
<mgrwt>
<rscale>  0 0.67825652E+02</rscale>
<asrwt>0</asrwt>
<pdfrwt beam="2">  1        1 0.20524725E-02 0.67825652E+02</pdfrwt>
<pdfrwt beam="1">  1       -1 0.13262455E-01 0.67825652E+02</pdfrwt>
<totfact> 0.17767727E+05</totfact>
</mgrwt>
</event>
<event>
 5    1  0.1310593E+001  0.9297940E+02  0.7546771E-02  0.1295793E+00
         -1   -1    0    0    0  501 -0.00000000000E+00  0.00000000000E+00  0.97151784080E+01  0.97151784080E+01  0.00000000000E+00 0.  1.
          1   -1    0    0  501    0  0.00000000000E+00 -0.00000000000E+00 -0.22246550986E+03  0.22246550986E+03  0.00000000000E+00 0. -1.
         23    2    1    2    0    0  0.00000000000E+00  0.00000000000E+00 -0.21275033146E+03  0.23218068827E+03  0.92979398104E+02 0.  0.
        -13    1    3    3    0    0 -0.27672649228E+02  0.25580211544E+02 -0.17435781709E+03  0.17838377481E+03  0.00000000000E+00 0. -1.
         13    1    3    3    0    0  0.27672649228E+02 -0.25580211544E+02 -0.38392514369E+02  0.53796913457E+02  0.00000000000E+00 0.  1.
<mgrwt>
<rscale>  0 0.92979398E+02</rscale>
<asrwt>0</asrwt>
<pdfrwt beam="2">  1        1 0.34225463E-01 0.92979398E+02</pdfrwt>
<pdfrwt beam="1">  1       -1 0.14946428E-02 0.92979398E+02</pdfrwt>
<totfact> 0.11470345E+05</totfact>
</mgrwt>
</event>
<event>
 5    1  0.1310593E+001  0.9006572E+02  0.7546771E-02  0.1302693E+00
          1   -1    0    0  501    0  0.00000000000E+00  0.00000000000E+00  0.18479378446E+03  0.18479378446E+03  0.00000000000E+00 0. -1.
         -1   -1    0    0    0  501 -0.00000000000E+00 -0.00000000000E+00 -0.10974170857E+02  0.10974170857E+02  0.00000000000E+00 0.  1.
         23    2    1    2    0    0  0.00000000000E+00  0.00000000000E+00  0.17381961361E+03  0.19576795532E+03  0.90065721872E+02 0.  0.
        -13    1    3    3    0    0  0.16259070477E+02 -0.30888752740E+02  0.14875227021E+03  0.15279303096E+03  0.00000000000E+00 0. -1.
         13    1    3    3    0    0 -0.16259070477E+02  0.30888752740E+02  0.25067343399E+02  0.42974924360E+02  0.00000000000E+00 0.  1.
<mgrwt>
<rscale>  0 0.90065722E+02</rscale>
<asrwt>0</asrwt>
<pdfrwt beam="1">  1        1 0.28429811E-01 0.90065722E+02</pdfrwt>
<pdfrwt beam="2">  1       -1 0.16883341E-02 0.90065722E+02</pdfrwt>
<totfact> 0.12051117E+05</totfact>
</mgrwt>
</event>
<event>
 5    1  0.1310593E+001  0.9202479E+02  0.7546771E-02  0.1298021E+00
          3   -1    0    0  501    0  0.00000000000E+00  0.00000000000E+00  0.56351407626E+02  0.56351407626E+02  0.00000000000E+00 0. -1.
         -3   -1    0    0    0  501 -0.00000000000E+00 -0.00000000000E+00 -0.37570320458E+02  0.37570320458E+02  0.00000000000E+00 0.  1.
         23    2    1    2    0    0  0.00000000000E+00  0.00000000000E+00  0.18781087167E+02  0.93921728084E+02  0.92024788895E+02 0.  0.
        -13    1    3    3    0    0 -0.12444354324E+02 -0.42143656771E+02  0.23316986918E+02  0.49745669555E+02  0.00000000000E+00 0. -1.
         13    1    3    3    0    0  0.12444354324E+02  0.42143656771E+02 -0.45358997502E+01  0.44176058529E+02  0.00000000000E+00 0.  1.
<mgrwt>
<rscale>  0 0.92024789E+02</rscale>
<asrwt>0</asrwt>
<pdfrwt beam="1">  1        3 0.86694473E-02 0.92024789E+02</pdfrwt>
<pdfrwt beam="2">  1       -3 0.57800493E-02 0.92024789E+02</pdfrwt>
<totfact> 0.34252301E+04</totfact>
</mgrwt>
</event>
<event>
 5    1  0.1310593E+001  0.8530844E+02  0.7546771E-02  0.1314628E+00
          1   -1    0    0  501    0  0.00000000000E+00  0.00000000000E+00  0.20628791050E+03  0.20628791050E+03  0.00000000000E+00 0. -1.
         -1   -1    0    0    0  501 -0.00000000000E+00 -0.00000000000E+00 -0.88196274534E+01  0.88196274534E+01  0.00000000000E+00 0.  1.
         23    2    1    2    0    0  0.00000000000E+00  0.00000000000E+00  0.19746828304E+03  0.21510753795E+03  0.85308440818E+02 0.  0.
        -13    1    3    3    0    0 -0.40523895409E+02 -0.11837037076E+02  0.11408876549E+03  0.12164928260E+03  0.00000000000E+00 0. -1.
         13    1    3    3    0    0  0.40523895409E+02  0.11837037076E+02  0.83379517549E+02  0.93458255347E+02  0.00000000000E+00 0.  1.
<mgrwt>
<rscale>  0 0.85308441E+02</rscale>
<asrwt>0</asrwt>
<pdfrwt beam="1">  1        1 0.31736598E-01 0.85308441E+02</pdfrwt>
<pdfrwt beam="2">  1       -1 0.13568659E-02 0.85308441E+02</pdfrwt>
<totfact> 0.14226534E+05</totfact>
</mgrwt>
</event>
<event>
 5    1  0.1310593E+001  0.9116975E+02  0.7546771E-02  0.1300043E+00
          1   -1    0    0  501    0  0.00000000000E+00  0.00000000000E+00  0.32572011234E+02  0.32572011234E+02  0.00000000000E+00 0. -1.
         -1   -1    0    0    0  501 -0.00000000000E+00 -0.00000000000E+00 -0.63796522282E+02  0.63796522282E+02  0.00000000000E+00 0.  1.
         23    2    1    2    0    0  0.00000000000E+00  0.00000000000E+00 -0.31224511048E+02  0.96368533515E+02  0.91169754643E+02 0.  0.
        -13    1    3    3    0    0 -0.21526536523E+02  0.94775771061E+00 -0.58073689368E+02  0.61942258727E+02  0.00000000000E+00 0.  1.
         13    1    3    3    0    0  0.21526536523E+02 -0.94775771061E+00  0.26849178320E+02  0.34426274789E+02  0.00000000000E+00 0. -1.
<mgrwt>
<rscale>  0 0.91169755E+02</rscale>
<asrwt>0</asrwt>
<pdfrwt beam="1">  1        1 0.50110787E-02 0.91169755E+02</pdfrwt>
<pdfrwt beam="2">  1       -1 0.98148495E-02 0.91169755E+02</pdfrwt>
<totfact> 0.87848989E+04</totfact>
</mgrwt>
</event>
<event>
 5    1  0.1310593E+001  0.9560744E+02  0.7546771E-02  0.1289814E+00
          2   -1    0    0  501    0  0.00000000000E+00  0.00000000000E+00  0.13810789492E+03  0.13810789492E+03  0.00000000000E+00 0. -1.
         -2   -1    0    0    0  501 -0.00000000000E+00 -0.00000000000E+00 -0.16546453153E+02  0.16546453153E+02  0.00000000000E+00 0.  1.
         23    2    1    2    0    0  0.00000000000E+00  0.00000000000E+00  0.12156144177E+03  0.15465434807E+03  0.95607443504E+02 0.  0.
        -11    1    3    3    0    0 -0.53754234859E+01 -0.46886975696E+02  0.73090641644E+02  0.87003020427E+02  0.00000000000E+00 0. -1.
         11    1    3    3    0    0  0.53754234859E+01  0.46886975696E+02  0.48470800122E+02  0.67651327644E+02  0.00000000000E+00 0.  1.
<mgrwt>
<rscale>  0 0.95607444E+02</rscale>
<asrwt>0</asrwt>
<pdfrwt beam="1">  1        2 0.21247368E-01 0.95607444E+02</pdfrwt>
<pdfrwt beam="2">  1       -2 0.25456083E-02 0.95607444E+02</pdfrwt>
<totfact> 0.11944320E+05</totfact>
</mgrwt>
</event>
<event>
 5    1  0.1310593E+001  0.8981243E+02  0.7546771E-02  0.1303307E+00
          2   -1    0    0  501    0  0.00000000000E+00  0.00000000000E+00  0.14763883042E+03  0.14763883042E+03  0.00000000000E+00 0. -1.
         -2   -1    0    0    0  501 -0.00000000000E+00 -0.00000000000E+00 -0.13658791856E+02  0.13658791856E+02  0.00000000000E+00 0.  1.
         23    2    1    2    0    0  0.00000000000E+00  0.00000000000E+00  0.13398003856E+03  0.16129762227E+03  0.89812427971E+02 0.  0.
        -13    1    3    3    0    0 -0.36932628658E+02  0.10136557932E+02  0.24879211200E+02  0.45669946532E+02  0.00000000000E+00 0.  1.
         13    1    3    3    0    0  0.36932628658E+02 -0.10136557932E+02  0.10910082736E+03  0.11562767574E+03  0.00000000000E+00 0. -1.
<mgrwt>
<rscale>  0 0.89812428E+02</rscale>
<asrwt>0</asrwt>
<pdfrwt beam="1">  1        2 0.22713665E-01 0.89812428E+02</pdfrwt>
<pdfrwt beam="2">  1       -2 0.21013527E-02 0.89812428E+02</pdfrwt>
<totfact> 0.14486038E+05</totfact>
</mgrwt>
</event>
<event>
 5    1  0.1310593E+001  0.8661175E+02  0.7546771E-02  0.1311271E+00
          1   -1    0    0  501    0  0.00000000000E+00  0.00000000000E+00  0.36125701101E+02  0.36125701101E+02  0.00000000000E+00 0. -1.
         -1   -1    0    0    0  501 -0.00000000000E+00 -0.00000000000E+00 -0.51913142782E+02  0.51913142782E+02  0.00000000000E+00 0.  1.
         23    2    1    2    0    0  0.00000000000E+00  0.00000000000E+00 -0.15787441681E+02  0.88038843883E+02  0.86611746994E+02 0.  0.
        -13    1    3    3    0    0  0.10615556949E+02  0.32195225206E+02 -0.35285390723E+02  0.48931394563E+02  0.00000000000E+00 0.  1.
         13    1    3    3    0    0 -0.10615556949E+02 -0.32195225206E+02  0.19497949042E+02  0.39107449319E+02  0.00000000000E+00 0. -1.
<mgrwt>
<rscale>  0 0.86611747E+02</rscale>
<asrwt>0</asrwt>
<pdfrwt beam="1">  1        1 0.55578002E-02 0.86611747E+02</pdfrwt>
<pdfrwt beam="2">  1       -1 0.79866374E-02 0.86611747E+02</pdfrwt>
<totfact> 0.10319812E+05</totfact>
</mgrwt>
</event>
<event>
 5    1  0.1310593E+001  0.9212701E+02  0.7546771E-02  0.1297781E+00
         -4   -1    0    0    0  501 -0.00000000000E+00  0.00000000000E+00  0.21822112710E+02  0.21822112710E+02  0.00000000000E+00 0.  1.
          4   -1    0    0  501    0  0.00000000000E+00 -0.00000000000E+00 -0.97233777531E+02  0.97233777531E+02  0.00000000000E+00 0. -1.
         23    2    1    2    0    0  0.00000000000E+00  0.00000000000E+00 -0.75411664821E+02  0.11905589024E+03  0.92127009123E+02 0.  0.
        -11    1    3    3    0    0  0.43623377909E+02  0.11134418335E+02 -0.50293148181E+02  0.67500926852E+02  0.00000000000E+00 0.  1.
         11    1    3    3    0    0 -0.43623377909E+02 -0.11134418335E+02 -0.25118516640E+02  0.51554963389E+02  0.00000000000E+00 0. -1.
<mgrwt>
<rscale>  0 0.92127009E+02</rscale>
<asrwt>0</asrwt>
<pdfrwt beam="2">  1        4 0.14959042E-01 0.92127009E+02</pdfrwt>
<pdfrwt beam="1">  1       -4 0.33572482E-02 0.92127009E+02</pdfrwt>
<totfact> 0.24624905E+04</totfact>
</mgrwt>
</event>
<event>
 5    1  0.1310593E+001  0.8993323E+02  0.7546771E-02  0.1303013E+00
          1   -1    0    0  501    0  0.00000000000E+00  0.00000000000E+00  0.44055285962E+02  0.44055285962E+02  0.00000000000E+00 0. -1.
         -1   -1    0    0    0  501 -0.00000000000E+00 -0.00000000000E+00 -0.45896797336E+02  0.45896797336E+02  0.00000000000E+00 0.  1.
         23    2    1    2    0    0  0.00000000000E+00  0.00000000000E+00 -0.18415113738E+01  0.89952083298E+02  0.89933231486E+02 0.  0.
        -13    1    3    3    0    0 -0.23070023857E+02  0.29874447204E+02 -0.25365353623E+02  0.45476474807E+02  0.00000000000E+00 0.  1.
         13    1    3    3    0    0  0.23070023857E+02 -0.29874447204E+02  0.23523842249E+02  0.44475608491E+02  0.00000000000E+00 0. -1.
<mgrwt>
<rscale>  0 0.89933231E+02</rscale>
<asrwt>0</asrwt>
<pdfrwt beam="1">  1        1 0.67777363E-02 0.89933231E+02</pdfrwt>
<pdfrwt beam="2">  1       -1 0.70610457E-02 0.89933231E+02</pdfrwt>
<totfact> 0.95611932E+04</totfact>
</mgrwt>
</event>
<event>
 5    1  0.1310593E+001  0.8061915E+02  0.7546771E-02  0.1327304E+00
         -3   -1    0    0    0  501 -0.00000000000E+00  0.00000000000E+00  0.86054727958E+01  0.86054727958E+01  0.00000000000E+00 0.  1.
          3   -1    0    0  501    0  0.00000000000E+00 -0.00000000000E+00 -0.18881726274E+03  0.18881726274E+03  0.00000000000E+00 0. -1.
         23    2    1    2    0    0  0.00000000000E+00  0.00000000000E+00 -0.18021178994E+03  0.19742273553E+03  0.80619149533E+02 0.  0.
        -11    1    3    3    0    0 -0.33056146234E+02  0.28236611727E+01 -0.14617184119E+03  0.14988958944E+03  0.00000000000E+00 0. -1.
         11    1    3    3    0    0  0.33056146234E+02 -0.28236611727E+01 -0.34039948751E+02  0.47533146091E+02  0.00000000000E+00 0.  1.
<mgrwt>
<rscale>  0 0.80619150E+02</rscale>
<asrwt>0</asrwt>
<pdfrwt beam="2">  1        3 0.29048809E-01 0.80619150E+02</pdfrwt>
<pdfrwt beam="1">  1       -3 0.13239189E-02 0.80619150E+02</pdfrwt>
<totfact> 0.39800448E+04</totfact>
</mgrwt>
</event>
<event>
 5    1  0.1310593E+001  0.9067678E+02  0.7546771E-02  0.1301221E+00
          1   -1    0    0  501    0  0.00000000000E+00  0.00000000000E+00  0.34866190512E+02  0.34866190512E+02  0.00000000000E+00 0. -1.
         -1   -1    0    0    0  501 -0.00000000000E+00 -0.00000000000E+00 -0.58955959059E+02  0.58955959059E+02  0.00000000000E+00 0.  1.
         23    2    1    2    0    0  0.00000000000E+00  0.00000000000E+00 -0.24089768547E+02  0.93822149571E+02  0.90676782042E+02 0.  0.
        -13    1    3    3    0    0  0.36629774270E+01 -0.28693861244E+02 -0.48167409887E+02  0.56185891930E+02  0.00000000000E+00 0.  1.
         13    1    3    3    0    0 -0.36629774270E+01  0.28693861244E+02  0.24077641340E+02  0.37636257641E+02  0.00000000000E+00 0. -1.
<mgrwt>
<rscale>  0 0.90676782E+02</rscale>
<asrwt>0</asrwt>
<pdfrwt beam="1">  1        1 0.53640293E-02 0.90676782E+02</pdfrwt>
<pdfrwt beam="2">  1       -1 0.90701475E-02 0.90676782E+02</pdfrwt>
<totfact> 0.90170031E+04</totfact>
</mgrwt>
</event>
<event>
 5    1  0.1310593E+001  0.9093437E+02  0.7546771E-02  0.1300605E+00
         -2   -1    0    0    0  501 -0.00000000000E+00  0.00000000000E+00  0.81885721933E+01  0.81885721933E+01  0.00000000000E+00 0.  1.
          2   -1    0    0  501    0  0.00000000000E+00 -0.00000000000E+00 -0.25245733346E+03  0.25245733346E+03  0.00000000000E+00 0. -1.
         23    2    1    2    0    0  0.00000000000E+00  0.00000000000E+00 -0.24426876127E+03  0.26064590565E+03  0.90934374155E+02 0.  0.
        -13    1    3    3    0    0 -0.28425760964E+02  0.22006789851E+02 -0.42342713173E+02  0.55544829146E+02  0.00000000000E+00 0. -1.
         13    1    3    3    0    0  0.28425760964E+02 -0.22006789851E+02 -0.20192604809E+03  0.20510107651E+03  0.00000000000E+00 0.  1.
<mgrwt>
<rscale>  0 0.90934374E+02</rscale>
<asrwt>0</asrwt>
<pdfrwt beam="2">  1        2 0.38839583E-01 0.90934374E+02</pdfrwt>
<pdfrwt beam="1">  1       -2 0.12597805E-02 0.90934374E+02</pdfrwt>
<totfact> 0.16967472E+05</totfact>
</mgrwt>
</event>
<event>
 5    1  0.1310593E+001  0.9484225E+02  0.7546771E-02  0.1291532E+00
         -1   -1    0    0    0  501 -0.00000000000E+00  0.00000000000E+00  0.10098066854E+02  0.10098066854E+02  0.00000000000E+00 0.  1.
          1   -1    0    0  501    0  0.00000000000E+00 -0.00000000000E+00 -0.22269244593E+03  0.22269244593E+03  0.00000000000E+00 0. -1.
         23    2    1    2    0    0  0.00000000000E+00  0.00000000000E+00 -0.21259437907E+03  0.23279051278E+03  0.94842252333E+02 0.  0.
        -13    1    3    3    0    0 -0.26279737101E+02 -0.35919674458E+02 -0.66121584272E+02  0.79705153547E+02  0.00000000000E+00 0.  1.
         13    1    3    3    0    0  0.26279737101E+02  0.35919674458E+02 -0.14647279480E+03  0.15308535923E+03  0.00000000000E+00 0. -1.
<mgrwt>
<rscale>  0 0.94842252E+02</rscale>
<asrwt>0</asrwt>
<pdfrwt beam="2">  1        1 0.34260373E-01 0.94842252E+02</pdfrwt>
<pdfrwt beam="1">  1       -1 0.15535489E-02 0.94842252E+02</pdfrwt>
<totfact> 0.10877131E+05</totfact>
</mgrwt>
</event>
<event>
 5    1  0.1310593E+001  0.9089477E+02  0.7546771E-02  0.1300699E+00
          1   -1    0    0  501    0  0.00000000000E+00  0.00000000000E+00  0.15051435124E+02  0.15051435124E+02  0.00000000000E+00 0.  1.
         -1   -1    0    0    0  501 -0.00000000000E+00 -0.00000000000E+00 -0.13722710699E+03  0.13722710699E+03  0.00000000000E+00 0. -1.
         23    2    1    2    0    0  0.00000000000E+00  0.00000000000E+00 -0.12217567186E+03  0.15227854211E+03  0.90894772086E+02 0.  0.
        -11    1    3    3    0    0  0.27940974079E+02 -0.34146797121E+02 -0.79345305684E+02  0.90787550470E+02  0.00000000000E+00 0.  1.
         11    1    3    3    0    0 -0.27940974079E+02  0.34146797121E+02 -0.42830366180E+02  0.61490991643E+02  0.00000000000E+00 0. -1.
<mgrwt>
<rscale>  0 0.90894772E+02</rscale>
<asrwt>0</asrwt>
<pdfrwt beam="1">  1        1 0.23156056E-02 0.90894772E+02</pdfrwt>
<pdfrwt beam="2">  1       -1 0.21111861E-01 0.90894772E+02</pdfrwt>
<totfact> 0.76934886E+04</totfact>
</mgrwt>
</event>
<event>
 5    1  0.1310593E+001  0.9213758E+02  0.7546771E-02  0.1297756E+00
          3   -1    0    0  501    0  0.00000000000E+00  0.00000000000E+00  0.31191454480E+02  0.31191454480E+02  0.00000000000E+00 0. -1.
         -3   -1    0    0    0  501 -0.00000000000E+00 -0.00000000000E+00 -0.68042138602E+02  0.68042138602E+02  0.00000000000E+00 0.  1.
         23    2    1    2    0    0  0.00000000000E+00  0.00000000000E+00 -0.36850684122E+02  0.99233593082E+02  0.92137576893E+02 0.  0.
        -11    1    3    3    0    0  0.31694432912E+02  0.17601134017E+02 -0.49039802435E+02  0.60985565662E+02  0.00000000000E+00 0.  1.
         11    1    3    3    0    0 -0.31694432912E+02 -0.17601134017E+02  0.12189118313E+02  0.38248027420E+02  0.00000000000E+00 0. -1.
<mgrwt>
<rscale>  0 0.92137577E+02</rscale>
<asrwt>0</asrwt>
<pdfrwt beam="1">  1        3 0.47986853E-02 0.92137577E+02</pdfrwt>
<pdfrwt beam="2">  1       -3 0.10468021E-01 0.92137577E+02</pdfrwt>
<totfact> 0.33750023E+04</totfact>
</mgrwt>
</event>
<event>
 5    1  0.1310593E+001  0.8609318E+02  0.7546771E-02  0.1312598E+00
          1   -1    0    0  501    0  0.00000000000E+00  0.00000000000E+00  0.21625574433E+03  0.21625574433E+03  0.00000000000E+00 0. -1.
         -1   -1    0    0    0  501 -0.00000000000E+00 -0.00000000000E+00 -0.85686001521E+01  0.85686001521E+01  0.00000000000E+00 0.  1.
         23    2    1    2    0    0  0.00000000000E+00  0.00000000000E+00  0.20768714418E+03  0.22482434448E+03  0.86093182164E+02 0.  0.
        -11    1    3    3    0    0  0.36436565627E+02  0.30946426709E+01  0.44534793410E+02  0.57624195890E+02  0.00000000000E+00 0.  1.
         11    1    3    3    0    0 -0.36436565627E+02 -0.30946426709E+01  0.16315235077E+03  0.16720014859E+03  0.00000000000E+00 0. -1.
<mgrwt>
<rscale>  0 0.86093182E+02</rscale>
<asrwt>0</asrwt>
<pdfrwt beam="1">  1        1 0.33270110E-01 0.86093182E+02</pdfrwt>
<pdfrwt beam="2">  1       -1 0.13182463E-02 0.86093182E+02</pdfrwt>
<totfact> 0.14010521E+05</totfact>
</mgrwt>
</event>
<event>
 5    1  0.1310593E+001  0.9010491E+02  0.7546771E-02  0.1302598E+00
         -2   -1    0    0    0  501 -0.00000000000E+00  0.00000000000E+00  0.53656134024E+01  0.53656134024E+01  0.00000000000E+00 0.  1.
          2   -1    0    0  501    0  0.00000000000E+00 -0.00000000000E+00 -0.37828360545E+03  0.37828360545E+03  0.00000000000E+00 0. -1.
         23    2    1    2    0    0  0.00000000000E+00  0.00000000000E+00 -0.37291799205E+03  0.38364921885E+03  0.90104907376E+02 0.  0.
        -11    1    3    3    0    0  0.37575856155E+02  0.23810451946E+02 -0.15609961608E+03  0.16231442551E+03  0.00000000000E+00 0.  1.
         11    1    3    3    0    0 -0.37575856155E+02 -0.23810451946E+02 -0.21681837597E+03  0.22133479335E+03  0.00000000000E+00 0. -1.
<mgrwt>
<rscale>  0 0.90104907E+02</rscale>
<asrwt>0</asrwt>
<pdfrwt beam="2">  1        2 0.58197481E-01 0.90104907E+02</pdfrwt>
<pdfrwt beam="1">  1       -2 0.82547894E-03 0.90104907E+02</pdfrwt>
<totfact> 0.20189059E+05</totfact>
</mgrwt>
</event>
<event>
 5    1  0.1310593E+001  0.8873992E+02  0.7546771E-02  0.1305932E+00
          2   -1    0    0  501    0  0.00000000000E+00  0.00000000000E+00  0.31723653417E+02  0.31723653417E+02  0.00000000000E+00 0. -1.
         -2   -1    0    0    0  501 -0.00000000000E+00 -0.00000000000E+00 -0.62057579834E+02  0.62057579834E+02  0.00000000000E+00 0.  1.
         23    2    1    2    0    0  0.00000000000E+00  0.00000000000E+00 -0.30333926417E+02  0.93781233252E+02  0.88739915587E+02 0.  0.
        -13    1    3    3    0    0 -0.15394768897E+02 -0.31973982814E+02 -0.43313817723E+02  0.55994832726E+02  0.00000000000E+00 0.  1.
         13    1    3    3    0    0  0.15394768897E+02  0.31973982814E+02  0.12979891306E+02  0.37786400525E+02  0.00000000000E+00 0. -1.
<mgrwt>
<rscale>  0 0.88739916E+02</rscale>
<asrwt>0</asrwt>
<pdfrwt beam="1">  1        2 0.48805621E-02 0.88739916E+02</pdfrwt>
<pdfrwt beam="2">  1       -2 0.95473199E-02 0.88739916E+02</pdfrwt>
<totfact> 0.97235228E+04</totfact>
</mgrwt>
</event>
<event>
 5    1  0.1310593E+001  0.9102237E+02  0.7546771E-02  0.1300395E+00
          1   -1    0    0  501    0  0.00000000000E+00  0.00000000000E+00  0.99632486596E+01  0.99632486596E+01  0.00000000000E+00 0. -1.
         -1   -1    0    0    0  501 -0.00000000000E+00 -0.00000000000E+00 -0.20789082540E+03  0.20789082540E+03  0.00000000000E+00 0.  1.
         23    2    1    2    0    0  0.00000000000E+00  0.00000000000E+00 -0.19792757674E+03  0.21785407406E+03  0.91022370603E+02 0.  0.
        -13    1    3    3    0    0 -0.45095370414E+02  0.60836401997E+01 -0.97012200515E+02  0.10715395541E+03  0.00000000000E+00 0. -1.
         13    1    3    3    0    0  0.45095370414E+02 -0.60836401997E+01 -0.10091537623E+03  0.11070011866E+03  0.00000000000E+00 0.  1.
<mgrwt>
<rscale>  0 0.91022371E+02</rscale>
<asrwt>0</asrwt>
<pdfrwt beam="1">  1        1 0.15328077E-02 0.91022371E+02</pdfrwt>
<pdfrwt beam="2">  1       -1 0.31983199E-01 0.91022371E+02</pdfrwt>
<totfact> 0.68953790E+04</totfact>
</mgrwt>
</event>
<event>
 5    1  0.1310593E+001  0.8801742E+02  0.7546771E-02  0.1307725E+00
          1   -1    0    0  501    0  0.00000000000E+00  0.00000000000E+00  0.92798786813E+02  0.92798786813E+02  0.00000000000E+00 0. -1.
         -1   -1    0    0    0  501 -0.00000000000E+00 -0.00000000000E+00 -0.20870603326E+02  0.20870603326E+02  0.00000000000E+00 0.  1.
         23    2    1    2    0    0  0.00000000000E+00  0.00000000000E+00  0.71928183487E+02  0.11366939014E+03  0.88017422565E+02 0.  0.
        -13    1    3    3    0    0  0.21401951112E+02  0.35850723487E+02  0.18001959737E+02  0.45468543416E+02  0.00000000000E+00 0.  1.
         13    1    3    3    0    0 -0.21401951112E+02 -0.35850723487E+02  0.53926223750E+02  0.68200846724E+02  0.00000000000E+00 0. -1.
<mgrwt>
<rscale>  0 0.88017423E+02</rscale>
<asrwt>0</asrwt>
<pdfrwt beam="1">  1        1 0.14276736E-01 0.88017423E+02</pdfrwt>
<pdfrwt beam="2">  1       -1 0.32108621E-02 0.88017423E+02</pdfrwt>
<totfact> 0.11357429E+05</totfact>
</mgrwt>
</event>
<event>
 5    1  0.1310593E+001  0.9514853E+02  0.7546771E-02  0.1290842E+00
         -1   -1    0    0    0  501 -0.00000000000E+00  0.00000000000E+00  0.58802726080E+02  0.58802726080E+02  0.00000000000E+00 0.  1.
          1   -1    0    0  501    0  0.00000000000E+00 -0.00000000000E+00 -0.38489895793E+02  0.38489895793E+02  0.00000000000E+00 0. -1.
         23    2    1    2    0    0  0.00000000000E+00  0.00000000000E+00  0.20312830287E+02  0.97292621873E+02  0.95148532289E+02 0.  0.
        -13    1    3    3    0    0 -0.93166234628E+01 -0.14734387127E+02 -0.35106276938E+02  0.39196330405E+02  0.00000000000E+00 0. -1.
         13    1    3    3    0    0  0.93166234628E+01  0.14734387127E+02  0.55419107225E+02  0.58096291468E+02  0.00000000000E+00 0.  1.
<mgrwt>
<rscale>  0 0.95148532E+02</rscale>
<asrwt>0</asrwt>
<pdfrwt beam="2">  1        1 0.59215224E-02 0.95148532E+02</pdfrwt>
<pdfrwt beam="1">  1       -1 0.90465733E-02 0.95148532E+02</pdfrwt>
<totfact> 0.79842048E+04</totfact>
</mgrwt>
</event>
<event>
 5    1  0.1310593E+001  0.8816361E+02  0.7546771E-02  0.1307361E+00
          1   -1    0    0  501    0  0.00000000000E+00  0.00000000000E+00  0.14222065680E+03  0.14222065680E+03  0.00000000000E+00 0. -1.
         -1   -1    0    0    0  501 -0.00000000000E+00 -0.00000000000E+00 -0.13663314996E+02  0.13663314996E+02  0.00000000000E+00 0.  1.
         23    2    1    2    0    0  0.00000000000E+00  0.00000000000E+00  0.12855734180E+03  0.15588397179E+03  0.88163612285E+02 0.  0.
        -13    1    3    3    0    0 -0.41903704578E+02  0.13674065828E+02  0.65255306537E+02  0.78747416242E+02  0.00000000000E+00 0. -1.
         13    1    3    3    0    0  0.41903704578E+02 -0.13674065828E+02  0.63302035263E+02  0.77136555550E+02  0.00000000000E+00 0.  1.
<mgrwt>
<rscale>  0 0.88163612E+02</rscale>
<asrwt>0</asrwt>
<pdfrwt beam="1">  1        1 0.21880100E-01 0.88163612E+02</pdfrwt>
<pdfrwt beam="2">  1       -1 0.21020486E-02 0.88163612E+02</pdfrwt>
<totfact> 0.12156803E+05</totfact>
</mgrwt>
</event>
<event>
 5    1  0.1310593E+001  0.8478015E+02  0.7546771E-02  0.1316008E+00
         -2   -1    0    0    0  501 -0.00000000000E+00  0.00000000000E+00  0.44405227686E+02  0.44405227686E+02  0.00000000000E+00 0.  1.
          2   -1    0    0  501    0  0.00000000000E+00 -0.00000000000E+00 -0.40466371530E+02  0.40466371530E+02  0.00000000000E+00 0. -1.
         23    2    1    2    0    0  0.00000000000E+00  0.00000000000E+00  0.39388561563E+01  0.84871599217E+02  0.84780149597E+02 0.  0.
        -13    1    3    3    0    0 -0.42226926306E+01 -0.35010339830E+02  0.25518480031E+02  0.43528701464E+02  0.00000000000E+00 0.  1.
         13    1    3    3    0    0  0.42226926306E+01  0.35010339830E+02 -0.21579623874E+02  0.41342897753E+02  0.00000000000E+00 0. -1.
<mgrwt>
<rscale>  0 0.84780150E+02</rscale>
<asrwt>0</asrwt>
<pdfrwt beam="2">  1        2 0.62255956E-02 0.84780150E+02</pdfrwt>
<pdfrwt beam="1">  1       -2 0.68315735E-02 0.84780150E+02</pdfrwt>
<totfact> 0.11788466E+05</totfact>
</mgrwt>
</event>
<event>
 5    1  0.1310593E+001  0.9064497E+02  0.7546771E-02  0.1301297E+00
          1   -1    0    0  501    0  0.00000000000E+00  0.00000000000E+00  0.20723200392E+02  0.20723200392E+02  0.00000000000E+00 0. -1.
         -1   -1    0    0    0  501 -0.00000000000E+00 -0.00000000000E+00 -0.99122123030E+02  0.99122123030E+02  0.00000000000E+00 0.  1.
         23    2    1    2    0    0  0.00000000000E+00  0.00000000000E+00 -0.78398922638E+02  0.11984532342E+03  0.90644969388E+02 0.  0.
        -13    1    3    3    0    0 -0.13938734560E+02  0.19260191094E+02 -0.90215633022E+02  0.93295786205E+02  0.00000000000E+00 0.  1.
         13    1    3    3    0    0  0.13938734560E+02 -0.19260191094E+02  0.11816710384E+02  0.26549537217E+02  0.00000000000E+00 0. -1.
<mgrwt>
<rscale>  0 0.90644969E+02</rscale>
<asrwt>0</asrwt>
<pdfrwt beam="1">  1        1 0.31881847E-02 0.90644969E+02</pdfrwt>
<pdfrwt beam="2">  1       -1 0.15249557E-01 0.90644969E+02</pdfrwt>
<totfact> 0.82740087E+04</totfact>
</mgrwt>
</event>
<event>
 5    1  0.1310593E+001  0.9153734E+02  0.7546771E-02  0.1299171E+00
         -3   -1    0    0    0  501 -0.00000000000E+00  0.00000000000E+00  0.17972094923E+03  0.17972094923E+03  0.00000000000E+00 0.  1.
          3   -1    0    0  501    0  0.00000000000E+00 -0.00000000000E+00 -0.11655687196E+02  0.11655687196E+02  0.00000000000E+00 0. -1.
         23    2    1    2    0    0  0.00000000000E+00  0.00000000000E+00  0.16806526203E+03  0.19137663643E+03  0.91537340290E+02 0.  0.
        -13    1    3    3    0    0  0.57193860845E+01 -0.38559954858E+02  0.13417399770E+03  0.13972202101E+03  0.00000000000E+00 0.  1.
         13    1    3    3    0    0 -0.57193860845E+01  0.38559954858E+02  0.33891264334E+02  0.51654615418E+02  0.00000000000E+00 0. -1.
<mgrwt>
<rscale>  0 0.91537340E+02</rscale>
<asrwt>0</asrwt>
<pdfrwt beam="2">  1        3 0.17931828E-02 0.91537340E+02</pdfrwt>
<pdfrwt beam="1">  1       -3 0.27649375E-01 0.91537340E+02</pdfrwt>
<totfact> 0.28642591E+04</totfact>
</mgrwt>
</event>
<event>
 5    1  0.1310593E+001  0.9099676E+02  0.7546771E-02  0.1300456E+00
          1   -1    0    0  501    0  0.00000000000E+00  0.00000000000E+00  0.52133194306E+02  0.52133194306E+02  0.00000000000E+00 0. -1.
         -1   -1    0    0    0  501 -0.00000000000E+00 -0.00000000000E+00 -0.39707953839E+02  0.39707953839E+02  0.00000000000E+00 0.  1.
         23    2    1    2    0    0  0.00000000000E+00  0.00000000000E+00  0.12425240468E+02  0.91841148145E+02  0.90996757590E+02 0.  0.
        -11    1    3    3    0    0 -0.86296910412E+01 -0.40645367336E+02 -0.12495428680E+02  0.43389551637E+02  0.00000000000E+00 0.  1.
         11    1    3    3    0    0  0.86296910412E+01  0.40645367336E+02  0.24920669148E+02  0.48451596508E+02  0.00000000000E+00 0. -1.
<mgrwt>
<rscale>  0 0.90996758E+02</rscale>
<asrwt>0</asrwt>
<pdfrwt beam="1">  1        1 0.80204915E-02 0.90996758E+02</pdfrwt>
<pdfrwt beam="2">  1       -1 0.61089160E-02 0.90996758E+02</pdfrwt>
<totfact> 0.94875920E+04</totfact>
</mgrwt>
</event>
<event>
 5    1  0.1310593E+001  0.9461605E+02  0.7546771E-02  0.1292043E+00
          2   -1    0    0  501    0  0.00000000000E+00  0.00000000000E+00  0.19268110188E+03  0.19268110188E+03  0.00000000000E+00 0. -1.
         -2   -1    0    0    0  501 -0.00000000000E+00 -0.00000000000E+00 -0.11615303287E+02  0.11615303287E+02  0.00000000000E+00 0.  1.
         23    2    1    2    0    0  0.00000000000E+00  0.00000000000E+00  0.18106579859E+03  0.20429640517E+03  0.94616054368E+02 0.  0.
        -11    1    3    3    0    0 -0.16141831541E+01 -0.33387866108E+02  0.18249351151E+02  0.38084038756E+02  0.00000000000E+00 0.  1.
         11    1    3    3    0    0  0.16141831541E+01  0.33387866108E+02  0.16281644744E+03  0.16621236641E+03  0.00000000000E+00 0. -1.
<mgrwt>
<rscale>  0 0.94616054E+02</rscale>
<asrwt>0</asrwt>
<pdfrwt beam="1">  1        2 0.29643244E-01 0.94616054E+02</pdfrwt>
<pdfrwt beam="2">  1       -2 0.17869699E-02 0.94616054E+02</pdfrwt>
<totfact> 0.13808043E+05</totfact>
</mgrwt>
</event>
<event>
 5    1  0.1310593E+001  0.9125737E+02  0.7546771E-02  0.1299835E+00
         -1   -1    0    0    0  501 -0.00000000000E+00  0.00000000000E+00  0.19888811308E+03  0.19888811308E+03  0.00000000000E+00 0.  1.
          1   -1    0    0  501    0  0.00000000000E+00 -0.00000000000E+00 -0.10468081809E+02  0.10468081809E+02  0.00000000000E+00 0. -1.
         23    2    1    2    0    0  0.00000000000E+00  0.00000000000E+00  0.18842003127E+03  0.20935619489E+03  0.91257373149E+02 0.  0.
        -13    1    3    3    0    0 -0.23605687652E+02  0.39042929129E+02  0.92762287469E+02  0.10337514586E+03  0.00000000000E+00 0. -1.
         13    1    3    3    0    0  0.23605687652E+02 -0.39042929129E+02  0.95657743798E+02  0.10598104903E+03  0.00000000000E+00 0.  1.
<mgrwt>
<rscale>  0 0.91257373E+02</rscale>
<asrwt>0</asrwt>
<pdfrwt beam="2">  1        1 0.16104743E-02 0.91257373E+02</pdfrwt>
<pdfrwt beam="1">  1       -1 0.30598168E-01 0.91257373E+02</pdfrwt>
<totfact> 0.69375269E+04</totfact>
</mgrwt>
</event>
<event>
 5    1  0.1310593E+001  0.9220106E+02  0.7546771E-02  0.1297607E+00
         -1   -1    0    0    0  501 -0.00000000000E+00  0.00000000000E+00  0.12835849612E+02  0.12835849612E+02  0.00000000000E+00 0.  1.
          1   -1    0    0  501    0  0.00000000000E+00 -0.00000000000E+00 -0.16557212360E+03  0.16557212360E+03  0.00000000000E+00 0. -1.
         23    2    1    2    0    0  0.00000000000E+00  0.00000000000E+00 -0.15273627399E+03  0.17840797321E+03  0.92201060263E+02 0.  0.
        -11    1    3    3    0    0 -0.38049476551E+02  0.74460387742E+01 -0.28107623259E+02  0.47887833993E+02  0.00000000000E+00 0.  1.
         11    1    3    3    0    0  0.38049476551E+02 -0.74460387742E+01 -0.12462865073E+03  0.13052013922E+03  0.00000000000E+00 0. -1.
<mgrwt>
<rscale>  0 0.92201060E+02</rscale>
<asrwt>0</asrwt>
<pdfrwt beam="2">  1        1 0.25472633E-01 0.92201060E+02</pdfrwt>
<pdfrwt beam="1">  1       -1 0.19747462E-02 0.92201060E+02</pdfrwt>
<totfact> 0.11082016E+05</totfact>
</mgrwt>
</event>
<event>
 5    1  0.1310593E+001  0.8883381E+02  0.7546771E-02  0.1305701E+00
          2   -1    0    0  501    0  0.00000000000E+00  0.00000000000E+00  0.53198394126E+02  0.53198394126E+02  0.00000000000E+00 0. -1.
         -2   -1    0    0    0  501 -0.00000000000E+00 -0.00000000000E+00 -0.37084979646E+02  0.37084979646E+02  0.00000000000E+00 0.  1.
         23    2    1    2    0    0  0.00000000000E+00  0.00000000000E+00  0.16113414480E+02  0.90283373771E+02  0.88833808054E+02 0.  0.
        -13    1    3    3    0    0  0.41747919606E+00 -0.27413609924E+02 -0.27458923438E+02  0.38802999553E+02  0.00000000000E+00 0.  1.
         13    1    3    3    0    0 -0.41747919606E+00  0.27413609924E+02  0.43572337918E+02  0.51480374218E+02  0.00000000000E+00 0. -1.
<mgrwt>
<rscale>  0 0.88833808E+02</rscale>
<asrwt>0</asrwt>
<pdfrwt beam="1">  1        2 0.81843683E-02 0.88833808E+02</pdfrwt>
<pdfrwt beam="2">  1       -2 0.57053815E-02 0.88833808E+02</pdfrwt>
<totfact> 0.11059284E+05</totfact>
</mgrwt>
</event>
<event>
 5    1  0.1310593E+001  0.6332732E+02  0.7546771E-02  0.1384376E+00
          1   -1    0    0  501    0  0.00000000000E+00  0.00000000000E+00  0.45860665698E+02  0.45860665698E+02  0.00000000000E+00 0.  1.
         -1   -1    0    0    0  501 -0.00000000000E+00 -0.00000000000E+00 -0.21861597651E+02  0.21861597651E+02  0.00000000000E+00 0. -1.
         23    2    1    2    0    0  0.00000000000E+00  0.00000000000E+00  0.23999068047E+02  0.67722263350E+02  0.63327321798E+02 0.  0.
        -13    1    3    3    0    0 -0.44027529494E+01 -0.29488857890E+02  0.23398080638E+02  0.37900490112E+02  0.00000000000E+00 0.  1.
         13    1    3    3    0    0  0.44027529494E+01  0.29488857890E+02  0.60098740933E+00  0.29821773238E+02  0.00000000000E+00 0. -1.
<mgrwt>
<rscale>  0 0.63327322E+02</rscale>
<asrwt>0</asrwt>
<pdfrwt beam="1">  1        1 0.70554870E-02 0.63327322E+02</pdfrwt>
<pdfrwt beam="2">  1       -1 0.33633227E-02 0.63327322E+02</pdfrwt>
<totfact> 0.24991445E+05</totfact>
</mgrwt>
</event>
<event>
 5    1  0.1310593E+001  0.9386984E+02  0.7546771E-02  0.1293742E+00
         -2   -1    0    0    0  501 -0.00000000000E+00  0.00000000000E+00  0.23916785983E+02  0.23916785983E+02  0.00000000000E+00 0.  1.
          2   -1    0    0  501    0  0.00000000000E+00 -0.00000000000E+00 -0.92106310070E+02  0.92106310070E+02  0.00000000000E+00 0. -1.
         23    2    1    2    0    0  0.00000000000E+00  0.00000000000E+00 -0.68189524087E+02  0.11602309605E+03  0.93869844052E+02 0.  0.
        -13    1    3    3    0    0  0.45962794369E+02 -0.84932810380E+01 -0.28825775544E+02  0.54914839750E+02  0.00000000000E+00 0.  1.
         13    1    3    3    0    0 -0.45962794369E+02  0.84932810380E+01 -0.39363748543E+02  0.61108256303E+02  0.00000000000E+00 0. -1.
<mgrwt>
<rscale>  0 0.93869844E+02</rscale>
<asrwt>0</asrwt>
<pdfrwt beam="2">  1        2 0.14170201E-01 0.93869844E+02</pdfrwt>
<pdfrwt beam="1">  1       -2 0.36795056E-02 0.93869844E+02</pdfrwt>
<totfact> 0.11040381E+05</totfact>
</mgrwt>
</event>
<event>
 5    1  0.1310593E+001  0.9170536E+02  0.7546771E-02  0.1298774E+00
          2   -1    0    0  501    0  0.00000000000E+00  0.00000000000E+00  0.21658611745E+02  0.21658611745E+02  0.00000000000E+00 0. -1.
         -2   -1    0    0    0  501 -0.00000000000E+00 -0.00000000000E+00 -0.97073082773E+02  0.97073082773E+02  0.00000000000E+00 0.  1.
         23    2    1    2    0    0  0.00000000000E+00  0.00000000000E+00 -0.75414471028E+02  0.11873169452E+03  0.91705358856E+02 0.  0.
        -13    1    3    3    0    0 -0.18818959070E+02  0.12667575470E+02 -0.89298520995E+02  0.92134936591E+02  0.00000000000E+00 0.  1.
         13    1    3    3    0    0  0.18818959070E+02 -0.12667575470E+02  0.13884049967E+02  0.26596757927E+02  0.00000000000E+00 0. -1.
<mgrwt>
<rscale>  0 0.91705359E+02</rscale>
<asrwt>0</asrwt>
<pdfrwt beam="1">  1        2 0.33320941E-02 0.91705359E+02</pdfrwt>
<pdfrwt beam="2">  1       -2 0.14934321E-01 0.91705359E+02</pdfrwt>
<totfact> 0.79363638E+04</totfact>
</mgrwt>
</event>
<event>
 5    1  0.1310593E+001  0.9127668E+02  0.7546771E-02  0.1299789E+00
          2   -1    0    0  501    0  0.00000000000E+00  0.00000000000E+00  0.11703695565E+03  0.11703695565E+03  0.00000000000E+00 0. -1.
         -2   -1    0    0    0  501 -0.00000000000E+00 -0.00000000000E+00 -0.17796583737E+02  0.17796583737E+02  0.00000000000E+00 0.  1.
         23    2    1    2    0    0  0.00000000000E+00  0.00000000000E+00  0.99240371908E+02  0.13483353938E+03  0.91276677887E+02 0.  0.
        -13    1    3    3    0    0  0.41562108861E+02  0.11366291084E+02  0.71839909801E+02  0.83770962190E+02  0.00000000000E+00 0. -1.
         13    1    3    3    0    0 -0.41562108861E+02 -0.11366291084E+02  0.27400462107E+02  0.51062577193E+02  0.00000000000E+00 0.  1.
<mgrwt>
<rscale>  0 0.91276678E+02</rscale>
<asrwt>0</asrwt>
<pdfrwt beam="1">  1        2 0.18005685E-01 0.91276678E+02</pdfrwt>
<pdfrwt beam="2">  1       -2 0.27379360E-02 0.91276678E+02</pdfrwt>
<totfact> 0.12844653E+05</totfact>
</mgrwt>
</event>
<event>
 5    1  0.1310593E+001  0.9080164E+02  0.7546771E-02  0.1300922E+00
         -3   -1    0    0    0  501 -0.00000000000E+00  0.00000000000E+00  0.16490885845E+03  0.16490885845E+03  0.00000000000E+00 0.  1.
          3   -1    0    0  501    0  0.00000000000E+00 -0.00000000000E+00 -0.12499233264E+02  0.12499233264E+02  0.00000000000E+00 0. -1.
         23    2    1    2    0    0  0.00000000000E+00  0.00000000000E+00  0.15240962519E+03  0.17740809172E+03  0.90801636308E+02 0.  0.
        -11    1    3    3    0    0 -0.16108949316E+02 -0.36993419511E+02  0.11687118928E+03  0.12364014809E+03  0.00000000000E+00 0.  1.
         11    1    3    3    0    0  0.16108949316E+02  0.36993419511E+02  0.35538435904E+02  0.53767943625E+02  0.00000000000E+00 0. -1.
<mgrwt>
<rscale>  0 0.90801636E+02</rscale>
<asrwt>0</asrwt>
<pdfrwt beam="2">  1        3 0.19229591E-02 0.90801636E+02</pdfrwt>
<pdfrwt beam="1">  1       -3 0.25370592E-01 0.90801636E+02</pdfrwt>
<totfact> 0.30042164E+04</totfact>
</mgrwt>
</event>
<event>
 5    1  0.1310593E+001  0.9078542E+02  0.7546771E-02  0.1300961E+00
          4   -1    0    0  501    0  0.00000000000E+00  0.00000000000E+00  0.14231096347E+03  0.14231096347E+03  0.00000000000E+00 0. -1.
         -4   -1    0    0    0  501 -0.00000000000E+00 -0.00000000000E+00 -0.14478843064E+02  0.14478843064E+02  0.00000000000E+00 0.  1.
         23    2    1    2    0    0  0.00000000000E+00  0.00000000000E+00  0.12783212041E+03  0.15678980653E+03  0.90785419673E+02 0.  0.
        -11    1    3    3    0    0 -0.40756582808E+02 -0.19259780892E+01  0.29561920583E+02  0.50385668422E+02  0.00000000000E+00 0.  1.
         11    1    3    3    0    0  0.40756582808E+02  0.19259780892E+01  0.98270199824E+02  0.10640413811E+03  0.00000000000E+00 0. -1.
<mgrwt>
<rscale>  0 0.90785420E+02</rscale>
<asrwt>0</asrwt>
<pdfrwt beam="1">  1        4 0.21893993E-01 0.90785420E+02</pdfrwt>
<pdfrwt beam="2">  1       -4 0.22275144E-02 0.90785420E+02</pdfrwt>
<totfact> 0.23608171E+04</totfact>
</mgrwt>
</event>
<event>
 5    1  0.1310593E+001  0.9625949E+02  0.7546771E-02  0.1288364E+00
         -4   -1    0    0    0  501 -0.00000000000E+00  0.00000000000E+00  0.23295237222E+02  0.23295237222E+02  0.00000000000E+00 0. -1.
          4   -1    0    0  501    0  0.00000000000E+00 -0.00000000000E+00 -0.99439748561E+02  0.99439748561E+02  0.00000000000E+00 0.  1.
         23    2    1    2    0    0  0.00000000000E+00  0.00000000000E+00 -0.76144511339E+02  0.12273498578E+03  0.96259493703E+02 0.  0.
        -13    1    3    3    0    0  0.42759314285E+02 -0.94191731512E+01 -0.63553749975E+02  0.77176155105E+02  0.00000000000E+00 0.  1.
         13    1    3    3    0    0 -0.42759314285E+02  0.94191731512E+01 -0.12590761364E+02  0.45558830677E+02  0.00000000000E+00 0. -1.
<mgrwt>
<rscale>  0 0.96259494E+02</rscale>
<asrwt>0</asrwt>
<pdfrwt beam="2">  1        4 0.15298423E-01 0.96259494E+02</pdfrwt>
<pdfrwt beam="1">  1       -4 0.35838827E-02 0.96259494E+02</pdfrwt>
<totfact> 0.21678461E+04</totfact>
</mgrwt>
</event>
<event>
 5    1  0.1310593E+001  0.9330621E+02  0.7546771E-02  0.1295037E+00
          1   -1    0    0  501    0  0.00000000000E+00  0.00000000000E+00  0.34873748829E+03  0.34873748829E+03  0.00000000000E+00 0. -1.
         -1   -1    0    0    0  501 -0.00000000000E+00 -0.00000000000E+00 -0.62411197803E+01  0.62411197803E+01  0.00000000000E+00 0.  1.
         23    2    1    2    0    0  0.00000000000E+00  0.00000000000E+00  0.34249636851E+03  0.35497860807E+03  0.93306214932E+02 0.  0.
        -11    1    3    3    0    0 -0.45712540728E+02  0.77414737607E+01  0.19099676387E+03  0.19654345729E+03  0.00000000000E+00 0.  1.
         11    1    3    3    0    0  0.45712540728E+02 -0.77414737607E+01  0.15149960464E+03  0.15843515077E+03  0.00000000000E+00 0. -1.
<mgrwt>
<rscale>  0 0.93306215E+02</rscale>
<asrwt>0</asrwt>
<pdfrwt beam="1">  1        1 0.53651906E-01 0.93306215E+02</pdfrwt>
<pdfrwt beam="2">  1       -1 0.96017255E-03 0.93306215E+02</pdfrwt>
<totfact> 0.12388941E+05</totfact>
</mgrwt>
</event>
<event>
 5    1  0.1310593E+001  0.9249749E+02  0.7546771E-02  0.1296914E+00
         -3   -1    0    0    0  501 -0.00000000000E+00  0.00000000000E+00  0.41521167681E+02  0.41521167681E+02  0.00000000000E+00 0.  1.
          3   -1    0    0  501    0  0.00000000000E+00 -0.00000000000E+00 -0.51514601830E+02  0.51514601830E+02  0.00000000000E+00 0. -1.
         23    2    1    2    0    0  0.00000000000E+00  0.00000000000E+00 -0.99934341486E+01  0.93035769511E+02  0.92497490141E+02 0.  0.
        -11    1    3    3    0    0 -0.20078883471E+02  0.29957495839E+02  0.24125763535E+02  0.43389694451E+02  0.00000000000E+00 0.  1.
         11    1    3    3    0    0  0.20078883471E+02 -0.29957495839E+02 -0.34119197683E+02  0.49646075061E+02  0.00000000000E+00 0. -1.
<mgrwt>
<rscale>  0 0.92497490E+02</rscale>
<asrwt>0</asrwt>
<pdfrwt beam="2">  1        3 0.79253233E-02 0.92497490E+02</pdfrwt>
<pdfrwt beam="1">  1       -3 0.63878720E-02 0.92497490E+02</pdfrwt>
<totfact> 0.33840829E+04</totfact>
</mgrwt>
</event>
<event>
 5    1  0.1310593E+001  0.9248160E+02  0.7546771E-02  0.1296951E+00
         -3   -1    0    0    0  501 -0.00000000000E+00  0.00000000000E+00  0.18114528241E+03  0.18114528241E+03  0.00000000000E+00 0.  1.
          3   -1    0    0  501    0  0.00000000000E+00 -0.00000000000E+00 -0.11803848623E+02  0.11803848623E+02  0.00000000000E+00 0. -1.
         23    2    1    2    0    0  0.00000000000E+00  0.00000000000E+00  0.16934143379E+03  0.19294913103E+03  0.92481598002E+02 0.  0.
        -11    1    3    3    0    0  0.31022791982E+02  0.34280410434E+02  0.82986926057E+02  0.94996789727E+02  0.00000000000E+00 0. -1.
         11    1    3    3    0    0 -0.31022791982E+02 -0.34280410434E+02  0.86354507728E+02  0.97952341303E+02  0.00000000000E+00 0.  1.
<mgrwt>
<rscale>  0 0.92481598E+02</rscale>
<asrwt>0</asrwt>
<pdfrwt beam="2">  1        3 0.18159768E-02 0.92481598E+02</pdfrwt>
<pdfrwt beam="1">  1       -3 0.27868503E-01 0.92481598E+02</pdfrwt>
<totfact> 0.27777839E+04</totfact>
</mgrwt>
</event>
<event>
 5    1  0.1310593E+001  0.9141690E+02  0.7546771E-02  0.1299456E+00
         -4   -1    0    0    0  501 -0.00000000000E+00  0.00000000000E+00  0.43909991435E+02  0.43909991435E+02  0.00000000000E+00 0.  1.
          4   -1    0    0  501    0  0.00000000000E+00 -0.00000000000E+00 -0.47580571147E+02  0.47580571147E+02  0.00000000000E+00 0. -1.
         23    2    1    2    0    0  0.00000000000E+00  0.00000000000E+00 -0.36705797123E+01  0.91490562582E+02  0.91416901534E+02 0.  0.
        -11    1    3    3    0    0 -0.12155751946E+02  0.62364141297E+01  0.41818743980E+02  0.43993891788E+02  0.00000000000E+00 0.  1.
         11    1    3    3    0    0  0.12155751946E+02 -0.62364141297E+01 -0.45489323692E+02  0.47496670794E+02  0.00000000000E+00 0. -1.
<mgrwt>
<rscale>  0 0.91416902E+02</rscale>
<asrwt>0</asrwt>
<pdfrwt beam="2">  1        4 0.73200879E-02 0.91416902E+02</pdfrwt>
<pdfrwt beam="1">  1       -4 0.67553833E-02 0.91416902E+02</pdfrwt>
<totfact> 0.26803577E+04</totfact>
</mgrwt>
</event>
<event>
 5    1  0.1310593E+001  0.9374720E+02  0.7546771E-02  0.1294023E+00
         -1   -1    0    0    0  501 -0.00000000000E+00  0.00000000000E+00  0.21805620728E+02  0.21805620728E+02  0.00000000000E+00 0.  1.
          1   -1    0    0  501    0  0.00000000000E+00 -0.00000000000E+00 -0.10075999952E+03  0.10075999952E+03  0.00000000000E+00 0. -1.
         23    2    1    2    0    0  0.00000000000E+00  0.00000000000E+00 -0.78954378787E+02  0.12256562024E+03  0.93747199083E+02 0.  0.
        -13    1    3    3    0    0 -0.18329443339E+01  0.17946775093E+02  0.17085113631E+02  0.24846479206E+02  0.00000000000E+00 0.  1.
         13    1    3    3    0    0  0.18329443339E+01 -0.17946775093E+02 -0.96039492417E+02  0.97719141037E+02  0.00000000000E+00 0. -1.
<mgrwt>
<rscale>  0 0.93747199E+02</rscale>
<asrwt>0</asrwt>
<pdfrwt beam="2">  1        1 0.15501538E-01 0.93747199E+02</pdfrwt>
<pdfrwt beam="1">  1       -1 0.33547109E-02 0.93747199E+02</pdfrwt>
<totfact> 0.96932174E+04</totfact>
</mgrwt>
</event>
<event>
 5    1  0.1310593E+001  0.9228386E+02  0.7546771E-02  0.1297413E+00
         -1   -1    0    0    0  501 -0.00000000000E+00  0.00000000000E+00  0.11029710951E+02  0.11029710951E+02  0.00000000000E+00 0.  1.
          1   -1    0    0  501    0  0.00000000000E+00 -0.00000000000E+00 -0.19303113380E+03  0.19303113380E+03  0.00000000000E+00 0. -1.
         23    2    1    2    0    0  0.00000000000E+00  0.00000000000E+00 -0.18200142285E+03  0.20406084475E+03  0.92283857968E+02 0.  0.
        -11    1    3    3    0    0 -0.12119439406E+02 -0.27124998574E+02 -0.12933601352E+02  0.32402536986E+02  0.00000000000E+00 0.  1.
         11    1    3    3    0    0  0.12119439406E+02  0.27124998574E+02 -0.16906782150E+03  0.17165830777E+03  0.00000000000E+00 0. -1.
<mgrwt>
<rscale>  0 0.92283858E+02</rscale>
<asrwt>0</asrwt>
<pdfrwt beam="2">  1        1 0.29697096E-01 0.92283858E+02</pdfrwt>
<pdfrwt beam="1">  1       -1 0.16968787E-02 0.92283858E+02</pdfrwt>
<totfact> 0.11384307E+05</totfact>
</mgrwt>
</event>
<event>
 5    1  0.1310593E+001  0.9430553E+02  0.7546771E-02  0.1292748E+00
         -1   -1    0    0    0  501 -0.00000000000E+00  0.00000000000E+00  0.22991670136E+03  0.22991670136E+03  0.00000000000E+00 0.  1.
          1   -1    0    0  501    0  0.00000000000E+00 -0.00000000000E+00 -0.96703857867E+01  0.96703857867E+01  0.00000000000E+00 0. -1.
         23    2    1    2    0    0  0.00000000000E+00  0.00000000000E+00  0.22024631557E+03  0.23958708714E+03  0.94305529020E+02 0.  0.
        -11    1    3    3    0    0 -0.22354952486E+02 -0.25339688246E+02  0.19367334829E+03  0.19659910870E+03  0.00000000000E+00 0.  1.
         11    1    3    3    0    0  0.22354952486E+02  0.25339688246E+02  0.26572967276E+02  0.42987978446E+02  0.00000000000E+00 0. -1.
<mgrwt>
<rscale>  0 0.94305529E+02</rscale>
<asrwt>0</asrwt>
<pdfrwt beam="2">  1        1 0.14877518E-02 0.94305529E+02</pdfrwt>
<pdfrwt beam="1">  1       -1 0.35371796E-01 0.94305529E+02</pdfrwt>
<totfact> 0.60949356E+04</totfact>
</mgrwt>
</event>
<event>
 5    1  0.1310593E+001  0.9014338E+02  0.7546771E-02  0.1302505E+00
         -2   -1    0    0    0  501 -0.00000000000E+00  0.00000000000E+00  0.11634700778E+03  0.11634700778E+03  0.00000000000E+00 0.  1.
          2   -1    0    0  501    0  0.00000000000E+00 -0.00000000000E+00 -0.17460329875E+02  0.17460329875E+02  0.00000000000E+00 0. -1.
         23    2    1    2    0    0  0.00000000000E+00  0.00000000000E+00  0.98886677903E+02  0.13380733765E+03  0.90143377700E+02 0.  0.
        -13    1    3    3    0    0  0.28258664712E+02 -0.35053613199E+02  0.46419709183E+02  0.64669137386E+02  0.00000000000E+00 0.  1.
         13    1    3    3    0    0 -0.28258664712E+02  0.35053613199E+02  0.52466968720E+02  0.69138200267E+02  0.00000000000E+00 0. -1.
<mgrwt>
<rscale>  0 0.90143378E+02</rscale>
<asrwt>0</asrwt>
<pdfrwt beam="2">  1        2 0.26862047E-02 0.90143378E+02</pdfrwt>
<pdfrwt beam="1">  1       -2 0.17899539E-01 0.90143378E+02</pdfrwt>
<totfact> 0.78374593E+04</totfact>
</mgrwt>
</event>
<event>
 5    1  0.1310593E+001  0.9323980E+02  0.7546771E-02  0.1295190E+00
          3   -1    0    0  501    0  0.00000000000E+00  0.00000000000E+00  0.15169803905E+02  0.15169803905E+02  0.00000000000E+00 0. -1.
         -3   -1    0    0    0  501 -0.00000000000E+00 -0.00000000000E+00 -0.14327245658E+03  0.14327245658E+03  0.00000000000E+00 0.  1.
         23    2    1    2    0    0  0.00000000000E+00  0.00000000000E+00 -0.12810265268E+03  0.15844226049E+03  0.93239799899E+02 0.  0.
        -11    1    3    3    0    0  0.38604385852E+02  0.22064228923E+02 -0.87858873540E+02  0.98469845459E+02  0.00000000000E+00 0.  1.
         11    1    3    3    0    0 -0.38604385852E+02 -0.22064228923E+02 -0.40243779138E+02  0.59972415029E+02  0.00000000000E+00 0. -1.
<mgrwt>
<rscale>  0 0.93239800E+02</rscale>
<asrwt>0</asrwt>
<pdfrwt beam="1">  1        3 0.23338160E-02 0.93239800E+02</pdfrwt>
<pdfrwt beam="2">  1       -3 0.22041916E-01 0.93239800E+02</pdfrwt>
<totfact> 0.28984708E+04</totfact>
</mgrwt>
</event>
<event>
 5    1  0.1310593E+001  0.9181097E+02  0.7546771E-02  0.1298525E+00
         -2   -1    0    0    0  501 -0.00000000000E+00  0.00000000000E+00  0.11166167124E+02  0.11166167124E+02  0.00000000000E+00 0.  1.
          2   -1    0    0  501    0  0.00000000000E+00 -0.00000000000E+00 -0.18872308465E+03  0.18872308465E+03  0.00000000000E+00 0. -1.
         23    2    1    2    0    0  0.00000000000E+00  0.00000000000E+00 -0.17755691752E+03  0.19988925177E+03  0.91810968917E+02 0.  0.
        -13    1    3    3    0    0  0.45085733409E+02  0.82161177859E+01 -0.94573837237E+02  0.10509252418E+03  0.00000000000E+00 0.  1.
         13    1    3    3    0    0 -0.45085733409E+02 -0.82161177859E+01 -0.82983080285E+02  0.94796727592E+02  0.00000000000E+00 0. -1.
<mgrwt>
<rscale>  0 0.91810969E+02</rscale>
<asrwt>0</asrwt>
<pdfrwt beam="2">  1        2 0.29034323E-01 0.91810969E+02</pdfrwt>
<pdfrwt beam="1">  1       -2 0.17178717E-02 0.91810969E+02</pdfrwt>
<totfact> 0.14867390E+05</totfact>
</mgrwt>
</event>
<event>
 5    1  0.1310593E+001  0.1024086E+03  0.7546771E-02  0.1275311E+00
          3   -1    0    0  501    0  0.00000000000E+00  0.00000000000E+00  0.21728529644E+02  0.21728529644E+02  0.00000000000E+00 0. -1.
         -3   -1    0    0    0  501 -0.00000000000E+00 -0.00000000000E+00 -0.12066535655E+03  0.12066535655E+03  0.00000000000E+00 0.  1.
         23    2    1    2    0    0  0.00000000000E+00  0.00000000000E+00 -0.98936826903E+02  0.14239388619E+03  0.10240860856E+03 0.  0.
        -11    1    3    3    0    0  0.28709979474E+02 -0.32734620831E+02 -0.12002021926E+02  0.45164885173E+02  0.00000000000E+00 0. -1.
         11    1    3    3    0    0 -0.28709979474E+02  0.32734620831E+02 -0.86934804978E+02  0.97229001017E+02  0.00000000000E+00 0.  1.
<mgrwt>
<rscale>  0 0.10240861E+03</rscale>
<asrwt>0</asrwt>
<pdfrwt beam="1">  1        3 0.33428507E-02 0.10240861E+03</pdfrwt>
<pdfrwt beam="2">  1       -3 0.18563901E-01 0.10240861E+03</pdfrwt>
<totfact> 0.23139570E+04</totfact>
</mgrwt>
</event>
<event>
 5    1  0.1310593E+001  0.9289771E+02  0.7546771E-02  0.1295982E+00
          1   -1    0    0  501    0  0.00000000000E+00  0.00000000000E+00  0.86150592079E+02  0.86150592079E+02  0.00000000000E+00 0. -1.
         -1   -1    0    0    0  501 -0.00000000000E+00 -0.00000000000E+00 -0.25043309546E+02  0.25043309546E+02  0.00000000000E+00 0.  1.
         23    2    1    2    0    0  0.00000000000E+00  0.00000000000E+00  0.61107282533E+02  0.11119390162E+03  0.92897705999E+02 0.  0.
        -13    1    3    3    0    0  0.25090387956E+02  0.12981756469E+02  0.74685922926E+02  0.79850113664E+02  0.00000000000E+00 0. -1.
         13    1    3    3    0    0 -0.25090387956E+02 -0.12981756469E+02 -0.13578640393E+02  0.31343787961E+02  0.00000000000E+00 0.  1.
<mgrwt>
<rscale>  0 0.92897706E+02</rscale>
<asrwt>0</asrwt>
<pdfrwt beam="1">  1        1 0.13253937E-01 0.92897706E+02</pdfrwt>
<pdfrwt beam="2">  1       -1 0.38528169E-02 0.92897706E+02</pdfrwt>
<totfact> 0.96840016E+04</totfact>
</mgrwt>
</event>
<event>
 5    1  0.1310593E+001  0.9253705E+02  0.7546771E-02  0.1296822E+00
          4   -1    0    0  501    0  0.00000000000E+00  0.00000000000E+00  0.20512669232E+02  0.20512669232E+02  0.00000000000E+00 0. -1.
         -4   -1    0    0    0  501 -0.00000000000E+00 -0.00000000000E+00 -0.10436362320E+03  0.10436362320E+03  0.00000000000E+00 0.  1.
         23    2    1    2    0    0  0.00000000000E+00  0.00000000000E+00 -0.83850953972E+02  0.12487629243E+03  0.92537051662E+02 0.  0.
        -13    1    3    3    0    0  0.45872300241E+02  0.42872347736E+01 -0.36179798315E+02  0.58580082942E+02  0.00000000000E+00 0. -1.
         13    1    3    3    0    0 -0.45872300241E+02 -0.42872347736E+01 -0.47671155657E+02  0.66296209493E+02  0.00000000000E+00 0.  1.
<mgrwt>
<rscale>  0 0.92537052E+02</rscale>
<asrwt>0</asrwt>
<pdfrwt beam="1">  1        4 0.31557952E-02 0.92537052E+02</pdfrwt>
<pdfrwt beam="2">  1       -4 0.16055943E-01 0.92537052E+02</pdfrwt>
<totfact> 0.24016591E+04</totfact>
</mgrwt>
</event>
<event>
 5    1  0.1310593E+001  0.9259130E+02  0.7546771E-02  0.1296695E+00
          3   -1    0    0  501    0  0.00000000000E+00  0.00000000000E+00  0.11284752110E+03  0.11284752110E+03  0.00000000000E+00 0. -1.
         -3   -1    0    0    0  501 -0.00000000000E+00 -0.00000000000E+00 -0.18992773357E+02  0.18992773357E+02  0.00000000000E+00 0.  1.
         23    2    1    2    0    0  0.00000000000E+00  0.00000000000E+00  0.93854747742E+02  0.13184029446E+03  0.92591303956E+02 0.  0.
        -11    1    3    3    0    0 -0.34984194912E+02 -0.21016795767E+02  0.15806625202E+02  0.43765842825E+02  0.00000000000E+00 0. -1.
         11    1    3    3    0    0  0.34984194912E+02  0.21016795767E+02  0.78048122541E+02  0.88074451631E+02  0.00000000000E+00 0.  1.
<mgrwt>
<rscale>  0 0.92591304E+02</rscale>
<asrwt>0</asrwt>
<pdfrwt beam="1">  1        3 0.17361157E-01 0.92591304E+02</pdfrwt>
<pdfrwt beam="2">  1       -3 0.29219652E-02 0.92591304E+02</pdfrwt>
<totfact> 0.31124729E+04</totfact>
</mgrwt>
</event>
<event>
 5    1  0.1310593E+001  0.9200629E+02  0.7546771E-02  0.1298065E+00
         -1   -1    0    0    0  501 -0.00000000000E+00  0.00000000000E+00  0.23985656316E+02  0.23985656316E+02  0.00000000000E+00 0.  1.
          1   -1    0    0  501    0  0.00000000000E+00 -0.00000000000E+00 -0.88231461185E+02  0.88231461185E+02  0.00000000000E+00 0. -1.
         23    2    1    2    0    0  0.00000000000E+00  0.00000000000E+00 -0.64245804869E+02  0.11221711750E+03  0.92006293355E+02 0.  0.
        -11    1    3    3    0    0 -0.43589993583E+02  0.10238460832E+02 -0.44994639366E+02  0.63477800785E+02  0.00000000000E+00 0. -1.
         11    1    3    3    0    0  0.43589993583E+02 -0.10238460832E+02 -0.19251165503E+02  0.48739316716E+02  0.00000000000E+00 0.  1.
<mgrwt>
<rscale>  0 0.92006293E+02</rscale>
<asrwt>0</asrwt>
<pdfrwt beam="2">  1        1 0.13574071E-01 0.92006293E+02</pdfrwt>
<pdfrwt beam="1">  1       -1 0.36901010E-02 0.92006293E+02</pdfrwt>
<totfact> 0.99822834E+04</totfact>
</mgrwt>
</event>
<event>
 5    1  0.1310593E+001  0.9126017E+02  0.7546771E-02  0.1299828E+00
         -4   -1    0    0    0  501 -0.00000000000E+00  0.00000000000E+00  0.35950252037E+02  0.35950252037E+02  0.00000000000E+00 0.  1.
          4   -1    0    0  501    0  0.00000000000E+00 -0.00000000000E+00 -0.57916275586E+02  0.57916275586E+02  0.00000000000E+00 0. -1.
         23    2    1    2    0    0  0.00000000000E+00  0.00000000000E+00 -0.21966023549E+02  0.93866527623E+02  0.91260171036E+02 0.  0.
        -11    1    3    3    0    0 -0.18562899859E+02  0.34343123728E+02 -0.35281267520E+02  0.52619380806E+02  0.00000000000E+00 0.  1.
         11    1    3    3    0    0  0.18562899859E+02 -0.34343123728E+02  0.13315243971E+02  0.41247146818E+02  0.00000000000E+00 0. -1.
<mgrwt>
<rscale>  0 0.91260171E+02</rscale>
<asrwt>0</asrwt>
<pdfrwt beam="2">  1        4 0.89101963E-02 0.91260171E+02</pdfrwt>
<pdfrwt beam="1">  1       -4 0.55308080E-02 0.91260171E+02</pdfrwt>
<totfact> 0.26777602E+04</totfact>
</mgrwt>
</event>
<event>
 5    1  0.1310593E+001  0.8740594E+02  0.7546771E-02  0.1309258E+00
          2   -1    0    0  501    0  0.00000000000E+00  0.00000000000E+00  0.19682945962E+02  0.19682945962E+02  0.00000000000E+00 0. -1.
         -2   -1    0    0    0  501 -0.00000000000E+00 -0.00000000000E+00 -0.97035753306E+02  0.97035753306E+02  0.00000000000E+00 0.  1.
         23    2    1    2    0    0  0.00000000000E+00  0.00000000000E+00 -0.77352807344E+02  0.11671869927E+03  0.87405937756E+02 0.  0.
        -13    1    3    3    0    0  0.10368187800E+02  0.14081893685E+02 -0.92160178280E+02  0.93804570830E+02  0.00000000000E+00 0.  1.
         13    1    3    3    0    0 -0.10368187800E+02 -0.14081893685E+02  0.14807370937E+02  0.22914128438E+02  0.00000000000E+00 0. -1.
<mgrwt>
<rscale>  0 0.87405938E+02</rscale>
<asrwt>0</asrwt>
<pdfrwt beam="1">  1        2 0.30281455E-02 0.87405938E+02</pdfrwt>
<pdfrwt beam="2">  1       -2 0.14928578E-01 0.87405938E+02</pdfrwt>
<totfact> 0.89426550E+04</totfact>
</mgrwt>
</event>
<event>
 5    1  0.1310593E+001  0.8946821E+02  0.7546771E-02  0.1304145E+00
          3   -1    0    0  501    0  0.00000000000E+00  0.00000000000E+00  0.55748955615E+02  0.55748955615E+02  0.00000000000E+00 0. -1.
         -3   -1    0    0    0  501 -0.00000000000E+00 -0.00000000000E+00 -0.35895566530E+02  0.35895566530E+02  0.00000000000E+00 0.  1.
         23    2    1    2    0    0  0.00000000000E+00  0.00000000000E+00  0.19853389085E+02  0.91644522145E+02  0.89468214362E+02 0.  0.
        -11    1    3    3    0    0 -0.36205778476E+02  0.24615606038E+02  0.51884641910E+00  0.43784194150E+02  0.00000000000E+00 0. -1.
         11    1    3    3    0    0  0.36205778476E+02 -0.24615606038E+02  0.19334542666E+02  0.47860327995E+02  0.00000000000E+00 0.  1.
<mgrwt>
<rscale>  0 0.89468214E+02</rscale>
<asrwt>0</asrwt>
<pdfrwt beam="1">  1        3 0.85767624E-02 0.89468214E+02</pdfrwt>
<pdfrwt beam="2">  1       -3 0.55223948E-02 0.89468214E+02</pdfrwt>
<totfact> 0.37164967E+04</totfact>
</mgrwt>
</event>
<event>
 5    1  0.1310593E+001  0.9114999E+02  0.7546771E-02  0.1300090E+00
         -2   -1    0    0    0  501 -0.00000000000E+00  0.00000000000E+00  0.25485458696E+02  0.25485458696E+02  0.00000000000E+00 0.  1.
          2   -1    0    0  501    0  0.00000000000E+00 -0.00000000000E+00 -0.81500600048E+02  0.81500600048E+02  0.00000000000E+00 0. -1.
         23    2    1    2    0    0  0.00000000000E+00  0.00000000000E+00 -0.56015141353E+02  0.10698605874E+03  0.91149990152E+02 0.  0.
        -13    1    3    3    0    0  0.31509026405E+02  0.19616094429E+02  0.30348223382E+01  0.37240032925E+02  0.00000000000E+00 0.  1.
         13    1    3    3    0    0 -0.31509026405E+02 -0.19616094429E+02 -0.59049963691E+02  0.69746025819E+02  0.00000000000E+00 0. -1.
<mgrwt>
<rscale>  0 0.91149990E+02</rscale>
<asrwt>0</asrwt>
<pdfrwt beam="2">  1        2 0.12538554E-01 0.91149990E+02</pdfrwt>
<pdfrwt beam="1">  1       -2 0.39208398E-02 0.91149990E+02</pdfrwt>
<totfact> 0.11556393E+05</totfact>
</mgrwt>
</event>
<event>
 5    1  0.1310593E+001  0.8983461E+02  0.7546771E-02  0.1303253E+00
          1   -1    0    0  501    0  0.00000000000E+00  0.00000000000E+00  0.42858886626E+02  0.42858886626E+02  0.00000000000E+00 0. -1.
         -1   -1    0    0    0  501 -0.00000000000E+00 -0.00000000000E+00 -0.47074587001E+02  0.47074587001E+02  0.00000000000E+00 0.  1.
         23    2    1    2    0    0  0.00000000000E+00  0.00000000000E+00 -0.42157003744E+01  0.89933473627E+02  0.89834612199E+02 0.  0.
        -11    1    3    3    0    0 -0.40534203325E+02 -0.13401563980E+02 -0.16085336550E+02  0.45621942179E+02  0.00000000000E+00 0.  1.
         11    1    3    3    0    0  0.40534203325E+02  0.13401563980E+02  0.11869636176E+02  0.44311531448E+02  0.00000000000E+00 0. -1.
<mgrwt>
<rscale>  0 0.89834612E+02</rscale>
<asrwt>0</asrwt>
<pdfrwt beam="1">  1        1 0.65936749E-02 0.89834612E+02</pdfrwt>
<pdfrwt beam="2">  1       -1 0.72422442E-02 0.89834612E+02</pdfrwt>
<totfact> 0.95514223E+04</totfact>
</mgrwt>
</event>
<event>
 5    1  0.1310593E+001  0.9087339E+02  0.7546771E-02  0.1300750E+00
          3   -1    0    0  501    0  0.00000000000E+00  0.00000000000E+00  0.12168382414E+03  0.12168382414E+03  0.00000000000E+00 0. -1.
         -3   -1    0    0    0  501 -0.00000000000E+00 -0.00000000000E+00 -0.16966046455E+02  0.16966046455E+02  0.00000000000E+00 0.  1.
         23    2    1    2    0    0  0.00000000000E+00  0.00000000000E+00  0.10471777769E+03  0.13864987060E+03  0.90873393538E+02 0.  0.
        -11    1    3    3    0    0 -0.22383711590E+02 -0.28856751870E+02  0.11114264338E+02  0.38174199989E+02  0.00000000000E+00 0.  1.
         11    1    3    3    0    0  0.22383711590E+02  0.28856751870E+02  0.93603513350E+02  0.10047567061E+03  0.00000000000E+00 0. -1.
<mgrwt>
<rscale>  0 0.90873394E+02</rscale>
<asrwt>0</asrwt>
<pdfrwt beam="1">  1        3 0.18720588E-01 0.90873394E+02</pdfrwt>
<pdfrwt beam="2">  1       -3 0.26101611E-02 0.90873394E+02</pdfrwt>
<totfact> 0.32306624E+04</totfact>
</mgrwt>
</event>
<event>
 5    1  0.1310593E+001  0.9196876E+02  0.7546771E-02  0.1298153E+00
         -2   -1    0    0    0  501 -0.00000000000E+00  0.00000000000E+00  0.73582371795E+02  0.73582371795E+02  0.00000000000E+00 0.  1.
          2   -1    0    0  501    0  0.00000000000E+00 -0.00000000000E+00 -0.28737359938E+02  0.28737359938E+02  0.00000000000E+00 0. -1.
         23    2    1    2    0    0  0.00000000000E+00  0.00000000000E+00  0.44845011857E+02  0.10231973173E+03  0.91968757811E+02 0.  0.
        -13    1    3    3    0    0 -0.89147133919E+01  0.32351704227E+02  0.57400768317E+02  0.66490248042E+02  0.00000000000E+00 0.  1.
         13    1    3    3    0    0  0.89147133919E+01 -0.32351704227E+02 -0.12555756460E+02  0.35829483691E+02  0.00000000000E+00 0. -1.
<mgrwt>
<rscale>  0 0.91968758E+02</rscale>
<asrwt>0</asrwt>
<pdfrwt beam="2">  1        2 0.44211323E-02 0.91968758E+02</pdfrwt>
<pdfrwt beam="1">  1       -2 0.11320365E-01 0.91968758E+02</pdfrwt>
<totfact> 0.85222743E+04</totfact>
</mgrwt>
</event>
<event>
 5    1  0.1310593E+001  0.9448067E+02  0.7546771E-02  0.1292350E+00
          2   -1    0    0  501    0  0.00000000000E+00  0.00000000000E+00  0.99084248902E+01  0.99084248902E+01  0.00000000000E+00 0. -1.
         -2   -1    0    0    0  501 -0.00000000000E+00 -0.00000000000E+00 -0.22522744355E+03  0.22522744355E+03  0.00000000000E+00 0.  1.
         23    2    1    2    0    0  0.00000000000E+00  0.00000000000E+00 -0.21531901866E+03  0.23513586844E+03  0.94480669083E+02 0.  0.
        -13    1    3    3    0    0  0.44065608479E+02  0.15483569150E+02 -0.90038665760E+02  0.10143214528E+03  0.00000000000E+00 0.  1.
         13    1    3    3    0    0 -0.44065608479E+02 -0.15483569150E+02 -0.12528035290E+03  0.13370372316E+03  0.00000000000E+00 0. -1.
<mgrwt>
<rscale>  0 0.94480669E+02</rscale>
<asrwt>0</asrwt>
<pdfrwt beam="1">  1        2 0.15243731E-02 0.94480669E+02</pdfrwt>
<pdfrwt beam="2">  1       -2 0.34650375E-01 0.94480669E+02</pdfrwt>
<totfact> 0.53924742E+04</totfact>
</mgrwt>
</event>
<event>
 5    1  0.1310593E+001  0.9103207E+02  0.7546771E-02  0.1300371E+00
         -1   -1    0    0    0  501 -0.00000000000E+00  0.00000000000E+00  0.25158123178E+02  0.25158123178E+02  0.00000000000E+00 0.  1.
          1   -1    0    0  501    0  0.00000000000E+00 -0.00000000000E+00 -0.82347531773E+02  0.82347531773E+02  0.00000000000E+00 0. -1.
         23    2    1    2    0    0  0.00000000000E+00  0.00000000000E+00 -0.57189408595E+02  0.10750565495E+03  0.91032067926E+02 0.  0.
        -11    1    3    3    0    0 -0.35201168202E+02 -0.18573465181E+02 -0.54672733038E+02  0.67625465539E+02  0.00000000000E+00 0. -1.
         11    1    3    3    0    0  0.35201168202E+02  0.18573465181E+02 -0.25166755571E+01  0.39880189411E+02  0.00000000000E+00 0.  1.
<mgrwt>
<rscale>  0 0.91032068E+02</rscale>
<asrwt>0</asrwt>
<pdfrwt beam="2">  1        1 0.12668851E-01 0.91032068E+02</pdfrwt>
<pdfrwt beam="1">  1       -1 0.38704804E-02 0.91032068E+02</pdfrwt>
<totfact> 0.10164886E+05</totfact>
</mgrwt>
</event>
<event>
 5    1  0.1310593E+001  0.9141136E+02  0.7546771E-02  0.1299469E+00
          1   -1    0    0  501    0  0.00000000000E+00  0.00000000000E+00  0.19608849538E+02  0.19608849538E+02  0.00000000000E+00 0. -1.
         -1   -1    0    0    0  501 -0.00000000000E+00 -0.00000000000E+00 -0.10653399350E+03  0.10653399350E+03  0.00000000000E+00 0.  1.
         23    2    1    2    0    0  0.00000000000E+00  0.00000000000E+00 -0.86925143961E+02  0.12614284304E+03  0.91411357044E+02 0.  0.
        -11    1    3    3    0    0 -0.26649475174E+02  0.15557164669E+02 -0.89989289993E+02  0.95133023778E+02  0.00000000000E+00 0.  1.
         11    1    3    3    0    0  0.26649475174E+02 -0.15557164669E+02  0.30641460319E+01  0.31009819259E+02  0.00000000000E+00 0. -1.
<mgrwt>
<rscale>  0 0.91411357E+02</rscale>
<asrwt>0</asrwt>
<pdfrwt beam="1">  1        1 0.30167461E-02 0.91411357E+02</pdfrwt>
<pdfrwt beam="2">  1       -1 0.16389845E-01 0.91411357E+02</pdfrwt>
<totfact> 0.79872257E+04</totfact>
</mgrwt>
</event>
<event>
 5    1  0.1310593E+001  0.9309212E+02  0.7546771E-02  0.1295532E+00
          4   -1    0    0  501    0  0.00000000000E+00  0.00000000000E+00  0.11021172333E+02  0.11021172333E+02  0.00000000000E+00 0. -1.
         -4   -1    0    0    0  501 -0.00000000000E+00 -0.00000000000E+00 -0.19657943696E+03  0.19657943696E+03  0.00000000000E+00 0.  1.
         23    2    1    2    0    0  0.00000000000E+00  0.00000000000E+00 -0.18555826463E+03  0.20760060929E+03  0.93092123231E+02 0.  0.
        -11    1    3    3    0    0  0.38435849104E+02 -0.17974001900E+02 -0.13545173460E+03  0.14194207145E+03  0.00000000000E+00 0.  1.
         11    1    3    3    0    0 -0.38435849104E+02  0.17974001900E+02 -0.50106530026E+02  0.65658537845E+02  0.00000000000E+00 0. -1.
<mgrwt>
<rscale>  0 0.93092123E+02</rscale>
<asrwt>0</asrwt>
<pdfrwt beam="1">  1        4 0.16955650E-02 0.93092123E+02</pdfrwt>
<pdfrwt beam="2">  1       -4 0.30242989E-01 0.93092123E+02</pdfrwt>
<totfact> 0.19929387E+04</totfact>
</mgrwt>
</event>
<event>
 5    1  0.1310593E+001  0.9208577E+02  0.7546771E-02  0.1297878E+00
         -2   -1    0    0    0  501 -0.00000000000E+00  0.00000000000E+00  0.80648585800E+01  0.80648585800E+01  0.00000000000E+00 0.  1.
          2   -1    0    0  501    0  0.00000000000E+00 -0.00000000000E+00 -0.26286227236E+03  0.26286227236E+03  0.00000000000E+00 0. -1.
         23    2    1    2    0    0  0.00000000000E+00  0.00000000000E+00 -0.25479741378E+03  0.27092713094E+03  0.92085765515E+02 0.  0.
        -11    1    3    3    0    0 -0.31356624552E+02  0.32895137629E+02 -0.10565507212E+03  0.11501444365E+03  0.00000000000E+00 0.  1.
         11    1    3    3    0    0  0.31356624552E+02 -0.32895137629E+02 -0.14914234166E+03  0.15591268730E+03  0.00000000000E+00 0. -1.
<mgrwt>
<rscale>  0 0.92085766E+02</rscale>
<asrwt>0</asrwt>
<pdfrwt beam="2">  1        2 0.40440342E-01 0.92085766E+02</pdfrwt>
<pdfrwt beam="1">  1       -2 0.12407477E-02 0.92085766E+02</pdfrwt>
<totfact> 0.16653452E+05</totfact>
</mgrwt>
</event>
<event>
 5    1  0.1310593E+001  0.9489291E+02  0.7546771E-02  0.1291417E+00
         -4   -1    0    0    0  501 -0.00000000000E+00  0.00000000000E+00  0.18291247950E+02  0.18291247950E+02  0.00000000000E+00 0.  1.
          4   -1    0    0  501    0  0.00000000000E+00 -0.00000000000E+00 -0.12307340319E+03  0.12307340319E+03  0.00000000000E+00 0. -1.
         23    2    1    2    0    0  0.00000000000E+00  0.00000000000E+00 -0.10478215524E+03  0.14136465114E+03  0.94892910880E+02 0.  0.
        -13    1    3    3    0    0  0.43181241069E+02  0.30897849081E+01 -0.81316359957E+02  0.92122292350E+02  0.00000000000E+00 0. -1.
         13    1    3    3    0    0 -0.43181241069E+02 -0.30897849081E+01 -0.23465795285E+02  0.49242358792E+02  0.00000000000E+00 0.  1.
<mgrwt>
<rscale>  0 0.94892911E+02</rscale>
<asrwt>0</asrwt>
<pdfrwt beam="2">  1        4 0.18934370E-01 0.94892911E+02</pdfrwt>
<pdfrwt beam="1">  1       -4 0.28140380E-02 0.94892911E+02</pdfrwt>
<totfact> 0.21643897E+04</totfact>
</mgrwt>
</event>
<event>
 5    1  0.1310593E+001  0.9162473E+02  0.7546771E-02  0.1298964E+00
          4   -1    0    0  501    0  0.00000000000E+00  0.00000000000E+00  0.20659780656E+02  0.20659780656E+02  0.00000000000E+00 0. -1.
         -4   -1    0    0    0  501 -0.00000000000E+00 -0.00000000000E+00 -0.10158738083E+03  0.10158738083E+03  0.00000000000E+00 0.  1.
         23    2    1    2    0    0  0.00000000000E+00  0.00000000000E+00 -0.80927600176E+02  0.12224716149E+03  0.91624734768E+02 0.  0.
        -11    1    3    3    0    0 -0.18503322377E+02  0.40232843230E+02 -0.56121285830E+02  0.71488833650E+02  0.00000000000E+00 0.  1.
         11    1    3    3    0    0  0.18503322377E+02 -0.40232843230E+02 -0.24806314346E+02  0.50758327837E+02  0.00000000000E+00 0. -1.
<mgrwt>
<rscale>  0 0.91624735E+02</rscale>
<asrwt>0</asrwt>
<pdfrwt beam="1">  1        4 0.31784279E-02 0.91624735E+02</pdfrwt>
<pdfrwt beam="2">  1       -4 0.15628827E-01 0.91624735E+02</pdfrwt>
<totfact> 0.24814546E+04</totfact>
</mgrwt>
</event>
<event>
 5    1  0.1310593E+001  0.9158490E+02  0.7546771E-02  0.1299058E+00
         -2   -1    0    0    0  501 -0.00000000000E+00  0.00000000000E+00  0.78505866479E+01  0.78505866479E+01  0.00000000000E+00 0.  1.
          2   -1    0    0  501    0  0.00000000000E+00 -0.00000000000E+00 -0.26710722679E+03  0.26710722679E+03  0.00000000000E+00 0. -1.
         23    2    1    2    0    0  0.00000000000E+00  0.00000000000E+00 -0.25925664014E+03  0.27495781344E+03  0.91584898935E+02 0.  0.
        -13    1    3    3    0    0  0.37081492579E+02  0.26868404165E+02 -0.12958651510E+03  0.13743948898E+03  0.00000000000E+00 0.  1.
         13    1    3    3    0    0 -0.37081492579E+02 -0.26868404165E+02 -0.12967012504E+03  0.13751832446E+03  0.00000000000E+00 0. -1.
<mgrwt>
<rscale>  0 0.91584899E+02</rscale>
<asrwt>0</asrwt>
<pdfrwt beam="2">  1        2 0.41093410E-01 0.91584899E+02</pdfrwt>
<pdfrwt beam="1">  1       -2 0.12077828E-02 0.91584899E+02</pdfrwt>
<totfact> 0.16999935E+05</totfact>
</mgrwt>
</event>
<event>
 5    1  0.1310593E+001  0.9218802E+02  0.7546771E-02  0.1297638E+00
         -2   -1    0    0    0  501 -0.00000000000E+00  0.00000000000E+00  0.81956538018E+02  0.81956538018E+02  0.00000000000E+00 0.  1.
          2   -1    0    0  501    0  0.00000000000E+00 -0.00000000000E+00 -0.25924199173E+02  0.25924199173E+02  0.00000000000E+00 0. -1.
         23    2    1    2    0    0  0.00000000000E+00  0.00000000000E+00  0.56032338845E+02  0.10788073719E+03  0.92188016903E+02 0.  0.
        -11    1    3    3    0    0 -0.39251522886E+02  0.70826536312E+01  0.55053476255E+02  0.67983316181E+02  0.00000000000E+00 0.  1.
         11    1    3    3    0    0  0.39251522886E+02 -0.70826536312E+01  0.97886259026E+00  0.39897421010E+02  0.00000000000E+00 0. -1.
<mgrwt>
<rscale>  0 0.92188017E+02</rscale>
<asrwt>0</asrwt>
<pdfrwt beam="2">  1        2 0.39883384E-02 0.92188017E+02</pdfrwt>
<pdfrwt beam="1">  1       -2 0.12608698E-01 0.92188017E+02</pdfrwt>
<totfact> 0.82246405E+04</totfact>
</mgrwt>
</event>
<event>
 5    1  0.1310593E+001  0.9241175E+02  0.7546771E-02  0.1297114E+00
          1   -1    0    0  501    0  0.00000000000E+00  0.00000000000E+00  0.18586361176E+03  0.18586361176E+03  0.00000000000E+00 0. -1.
         -1   -1    0    0    0  501 -0.00000000000E+00 -0.00000000000E+00 -0.11486826681E+02  0.11486826681E+02  0.00000000000E+00 0.  1.
         23    2    1    2    0    0  0.00000000000E+00  0.00000000000E+00  0.17437678508E+03  0.19735043844E+03  0.92411754545E+02 0.  0.
        -13    1    3    3    0    0  0.30969592900E+02 -0.11505237693E+02  0.18203107267E+02  0.37720542055E+02  0.00000000000E+00 0. -1.
         13    1    3    3    0    0 -0.30969592900E+02  0.11505237693E+02  0.15617367781E+03  0.15962989638E+03  0.00000000000E+00 0.  1.
<mgrwt>
<rscale>  0 0.92411755E+02</rscale>
<asrwt>0</asrwt>
<pdfrwt beam="1">  1        1 0.28594400E-01 0.92411755E+02</pdfrwt>
<pdfrwt beam="2">  1       -1 0.17672042E-02 0.92411755E+02</pdfrwt>
<totfact> 0.11259283E+05</totfact>
</mgrwt>
</event>
<event>
 5    1  0.1310593E+001  0.8949657E+02  0.7546771E-02  0.1304075E+00
          2   -1    0    0  501    0  0.00000000000E+00  0.00000000000E+00  0.17166215988E+03  0.17166215988E+03  0.00000000000E+00 0. -1.
         -2   -1    0    0    0  501 -0.00000000000E+00 -0.00000000000E+00 -0.11664823901E+02  0.11664823901E+02  0.00000000000E+00 0.  1.
         23    2    1    2    0    0  0.00000000000E+00  0.00000000000E+00  0.15999733598E+03  0.18332698378E+03  0.89496566761E+02 0.  0.
        -13    1    3    3    0    0 -0.10347101197E+02 -0.30044262379E+02  0.15459026549E+02  0.35336973653E+02  0.00000000000E+00 0. -1.
         13    1    3    3    0    0  0.10347101197E+02  0.30044262379E+02  0.14453830943E+03  0.14799001013E+03  0.00000000000E+00 0.  1.
<mgrwt>
<rscale>  0 0.89496567E+02</rscale>
<asrwt>0</asrwt>
<pdfrwt beam="1">  1        2 0.26409561E-01 0.89496567E+02</pdfrwt>
<pdfrwt beam="2">  1       -2 0.17945884E-02 0.89496567E+02</pdfrwt>
<totfact> 0.15401567E+05</totfact>
</mgrwt>
</event>
<event>
 5    1  0.1310593E+001  0.9199246E+02  0.7546771E-02  0.1298097E+00
          1   -1    0    0  501    0  0.00000000000E+00  0.00000000000E+00  0.11447876214E+02  0.11447876214E+02  0.00000000000E+00 0. -1.
         -1   -1    0    0    0  501 -0.00000000000E+00 -0.00000000000E+00 -0.18480747534E+03  0.18480747534E+03  0.00000000000E+00 0.  1.
         23    2    1    2    0    0  0.00000000000E+00  0.00000000000E+00 -0.17335959913E+03  0.19625535156E+03  0.91992458412E+02 0.  0.
        -13    1    3    3    0    0 -0.22297340148E+02 -0.34178266075E+02 -0.41407381977E+02  0.58136877554E+02  0.00000000000E+00 0. -1.
         13    1    3    3    0    0  0.22297340148E+02  0.34178266075E+02 -0.13195221715E+03  0.13811847400E+03  0.00000000000E+00 0.  1.
<mgrwt>
<rscale>  0 0.91992458E+02</rscale>
<asrwt>0</asrwt>
<pdfrwt beam="1">  1        1 0.17612117E-02 0.91992458E+02</pdfrwt>
<pdfrwt beam="2">  1       -1 0.28431919E-01 0.91992458E+02</pdfrwt>
<totfact> 0.69338690E+04</totfact>
</mgrwt>
</event>
<event>
 5    1  0.1310593E+001  0.9101163E+02  0.7546771E-02  0.1300420E+00
          1   -1    0    0  501    0  0.00000000000E+00  0.00000000000E+00  0.11934713866E+03  0.11934713866E+03  0.00000000000E+00 0. -1.
         -1   -1    0    0    0  501 -0.00000000000E+00 -0.00000000000E+00 -0.17350891271E+02  0.17350891271E+02  0.00000000000E+00 0.  1.
         23    2    1    2    0    0  0.00000000000E+00  0.00000000000E+00  0.10199624739E+03  0.13669802993E+03  0.91011630605E+02 0.  0.
        -11    1    3    3    0    0  0.43014335705E+02 -0.36985360213E+01  0.29395278728E+02  0.52230208274E+02  0.00000000000E+00 0.  1.
         11    1    3    3    0    0 -0.43014335705E+02  0.36985360213E+01  0.72600968661E+02  0.84467821656E+02  0.00000000000E+00 0. -1.
<mgrwt>
<rscale>  0 0.91011631E+02</rscale>
<asrwt>0</asrwt>
<pdfrwt beam="1">  1        1 0.18361098E-01 0.91011631E+02</pdfrwt>
<pdfrwt beam="2">  1       -1 0.26693680E-02 0.91011631E+02</pdfrwt>
<totfact> 0.10816790E+05</totfact>
</mgrwt>
</event>
<event>
 5    1  0.1310593E+001  0.9171853E+02  0.7546771E-02  0.1298743E+00
          1   -1    0    0  501    0  0.00000000000E+00  0.00000000000E+00  0.17014909773E+03  0.17014909773E+03  0.00000000000E+00 0. -1.
         -1   -1    0    0    0  501 -0.00000000000E+00 -0.00000000000E+00 -0.12360173047E+02  0.12360173047E+02  0.00000000000E+00 0.  1.
         23    2    1    2    0    0  0.00000000000E+00  0.00000000000E+00  0.15778892468E+03  0.18250927077E+03  0.91718532296E+02 0.  0.
        -13    1    3    3    0    0  0.30372254835E+02  0.20983924132E+02  0.24753759091E+02  0.44447131796E+02  0.00000000000E+00 0.  1.
         13    1    3    3    0    0 -0.30372254835E+02 -0.20983924132E+02  0.13303516559E+03  0.13806213898E+03  0.00000000000E+00 0. -1.
<mgrwt>
<rscale>  0 0.91718532E+02</rscale>
<asrwt>0</asrwt>
<pdfrwt beam="1">  1        1 0.26176783E-01 0.91718532E+02</pdfrwt>
<pdfrwt beam="2">  1       -1 0.19015652E-02 0.91718532E+02</pdfrwt>
<totfact> 0.11297756E+05</totfact>
</mgrwt>
</event>
<event>
 5    1  0.1310593E+001  0.9186309E+02  0.7546771E-02  0.1298402E+00
          1   -1    0    0  501    0  0.00000000000E+00  0.00000000000E+00  0.15740177420E+02  0.15740177420E+02  0.00000000000E+00 0. -1.
         -1   -1    0    0    0  501 -0.00000000000E+00 -0.00000000000E+00 -0.13403322004E+03  0.13403322004E+03  0.00000000000E+00 0.  1.
         23    2    1    2    0    0  0.00000000000E+00  0.00000000000E+00 -0.11829304262E+03  0.14977339746E+03  0.91863086461E+02 0.  0.
        -13    1    3    3    0    0  0.38503641726E+02  0.22482658102E+01 -0.99812503584E+02  0.10700523818E+03  0.00000000000E+00 0.  1.
         13    1    3    3    0    0 -0.38503641726E+02 -0.22482658102E+01 -0.18480539034E+02  0.42768159281E+02  0.00000000000E+00 0. -1.
<mgrwt>
<rscale>  0 0.91863086E+02</rscale>
<asrwt>0</asrwt>
<pdfrwt beam="1">  1        1 0.24215657E-02 0.91863086E+02</pdfrwt>
<pdfrwt beam="2">  1       -1 0.20620496E-01 0.91863086E+02</pdfrwt>
<totfact> 0.75238392E+04</totfact>
</mgrwt>
</event>
<event>
 5    1  0.1310593E+001  0.9356570E+02  0.7546771E-02  0.1294440E+00
          2   -1    0    0  501    0  0.00000000000E+00  0.00000000000E+00  0.81184730873E+02  0.81184730873E+02  0.00000000000E+00 0.  1.
         -2   -1    0    0    0  501 -0.00000000000E+00 -0.00000000000E+00 -0.26958701619E+02  0.26958701619E+02  0.00000000000E+00 0. -1.
         23    2    1    2    0    0  0.00000000000E+00  0.00000000000E+00  0.54226029254E+02  0.10814343249E+03  0.93565697467E+02 0.  0.
        -13    1    3    3    0    0  0.23782977049E+02 -0.37625904743E+02  0.10472023337E+02  0.45727475087E+02  0.00000000000E+00 0. -1.
         13    1    3    3    0    0 -0.23782977049E+02  0.37625904743E+02  0.43754005917E+02  0.62415957405E+02  0.00000000000E+00 0.  1.
<mgrwt>
<rscale>  0 0.93565697E+02</rscale>
<asrwt>0</asrwt>
<pdfrwt beam="1">  1        2 0.12489958E-01 0.93565697E+02</pdfrwt>
<pdfrwt beam="2">  1       -2 0.41474926E-02 0.93565697E+02</pdfrwt>
<totfact> 0.10732332E+05</totfact>
</mgrwt>
</event>
<event>
 5    1  0.1310593E+001  0.9172054E+02  0.7546771E-02  0.1298738E+00
          2   -1    0    0  501    0  0.00000000000E+00  0.00000000000E+00  0.16899049008E+03  0.16899049008E+03  0.00000000000E+00 0. -1.
         -2   -1    0    0    0  501 -0.00000000000E+00 -0.00000000000E+00 -0.12445458825E+02  0.12445458825E+02  0.00000000000E+00 0.  1.
         23    2    1    2    0    0  0.00000000000E+00  0.00000000000E+00  0.15654503125E+03  0.18143594890E+03  0.91720536108E+02 0.  0.
        -13    1    3    3    0    0  0.20990067242E+02  0.17145231693E+02  0.50914783681E+01  0.27576530685E+02  0.00000000000E+00 0.  1.
         13    1    3    3    0    0 -0.20990067242E+02 -0.17145231693E+02  0.15145355288E+03  0.15385941822E+03  0.00000000000E+00 0. -1.
<mgrwt>
<rscale>  0 0.91720536E+02</rscale>
<asrwt>0</asrwt>
<pdfrwt beam="1">  1        2 0.25998535E-01 0.91720536E+02</pdfrwt>
<pdfrwt beam="2">  1       -2 0.19146861E-02 0.91720536E+02</pdfrwt>
<totfact> 0.14334868E+05</totfact>
</mgrwt>
</event>
<event>
 5    1  0.1310593E+001  0.8961787E+02  0.7546771E-02  0.1303780E+00
          1   -1    0    0  501    0  0.00000000000E+00  0.00000000000E+00  0.37069849003E+02  0.37069849003E+02  0.00000000000E+00 0. -1.
         -1   -1    0    0    0  501 -0.00000000000E+00 -0.00000000000E+00 -0.54163709742E+02  0.54163709742E+02  0.00000000000E+00 0.  1.
         23    2    1    2    0    0  0.00000000000E+00  0.00000000000E+00 -0.17093860739E+02  0.91233558745E+02  0.89617867450E+02 0.  0.
        -11    1    3    3    0    0  0.20056615728E+02  0.11084318066E+02 -0.47747123500E+02  0.52961474149E+02  0.00000000000E+00 0.  1.
         11    1    3    3    0    0 -0.20056615728E+02 -0.11084318066E+02  0.30653262761E+02  0.38272084596E+02  0.00000000000E+00 0. -1.
<mgrwt>
<rscale>  0 0.89617867E+02</rscale>
<asrwt>0</asrwt>
<pdfrwt beam="1">  1        1 0.57030537E-02 0.89617867E+02</pdfrwt>
<pdfrwt beam="2">  1       -1 0.83328784E-02 0.89617867E+02</pdfrwt>
<totfact> 0.94097275E+04</totfact>
</mgrwt>
</event>
<event>
 5    1  0.1310593E+001  0.9168947E+02  0.7546771E-02  0.1298811E+00
          3   -1    0    0  501    0  0.00000000000E+00  0.00000000000E+00  0.56144445987E+02  0.56144445987E+02  0.00000000000E+00 0. -1.
         -3   -1    0    0    0  501 -0.00000000000E+00 -0.00000000000E+00 -0.37434508856E+02  0.37434508856E+02  0.00000000000E+00 0.  1.
         23    2    1    2    0    0  0.00000000000E+00  0.00000000000E+00  0.18709937131E+02  0.93578954844E+02  0.91689470727E+02 0.  0.
        -13    1    3    3    0    0 -0.36220348171E+02  0.14130560879E+02 -0.15438722014E+02  0.41832290277E+02  0.00000000000E+00 0.  1.
         13    1    3    3    0    0  0.36220348171E+02 -0.14130560879E+02  0.34148659144E+02  0.51746664567E+02  0.00000000000E+00 0. -1.
<mgrwt>
<rscale>  0 0.91689471E+02</rscale>
<asrwt>0</asrwt>
<pdfrwt beam="1">  1        3 0.86376071E-02 0.91689471E+02</pdfrwt>
<pdfrwt beam="2">  1       -3 0.57591552E-02 0.91689471E+02</pdfrwt>
<totfact> 0.34621070E+04</totfact>
</mgrwt>
</event>
<event>
 5    1  0.1310593E+001  0.8979494E+02  0.7546771E-02  0.1303349E+00
         -2   -1    0    0    0  501 -0.00000000000E+00  0.00000000000E+00  0.16523890255E+03  0.16523890255E+03  0.00000000000E+00 0.  1.
          2   -1    0    0  501    0  0.00000000000E+00 -0.00000000000E+00 -0.12199201554E+02  0.12199201554E+02  0.00000000000E+00 0. -1.
         23    2    1    2    0    0  0.00000000000E+00  0.00000000000E+00  0.15303970100E+03  0.17743810410E+03  0.89794936980E+02 0.  0.
        -11    1    3    3    0    0 -0.34317457245E+02 -0.72048826569E+01  0.13192591064E+03  0.13650657165E+03  0.00000000000E+00 0.  1.
         11    1    3    3    0    0  0.34317457245E+02  0.72048826569E+01  0.21113790359E+02  0.40931532456E+02  0.00000000000E+00 0. -1.
<mgrwt>
<rscale>  0 0.89794937E+02</rscale>
<asrwt>0</asrwt>
<pdfrwt beam="2">  1        2 0.18768004E-02 0.89794937E+02</pdfrwt>
<pdfrwt beam="1">  1       -2 0.25421368E-01 0.89794937E+02</pdfrwt>
<totfact> 0.70034105E+04</totfact>
</mgrwt>
</event>
<event>
 5    1  0.1310593E+001  0.8838501E+02  0.7546771E-02  0.1306810E+00
         -4   -1    0    0    0  501 -0.00000000000E+00  0.00000000000E+00  0.77067400643E+01  0.77067400643E+01  0.00000000000E+00 0.  1.
          4   -1    0    0  501    0  0.00000000000E+00 -0.00000000000E+00 -0.25341163563E+03  0.25341163563E+03  0.00000000000E+00 0. -1.
         23    2    1    2    0    0  0.00000000000E+00  0.00000000000E+00 -0.24570489556E+03  0.26111837569E+03  0.88385012418E+02 0.  0.
        -11    1    3    3    0    0 -0.38169181110E+02 -0.20002877674E+02 -0.93909659702E+02  0.10332485513E+03  0.00000000000E+00 0. -1.
         11    1    3    3    0    0  0.38169181110E+02  0.20002877674E+02 -0.15179523586E+03  0.15779352056E+03  0.00000000000E+00 0.  1.
<mgrwt>
<rscale>  0 0.88385012E+02</rscale>
<asrwt>0</asrwt>
<pdfrwt beam="2">  1        4 0.38986400E-01 0.88385012E+02</pdfrwt>
<pdfrwt beam="1">  1       -4 0.11856525E-02 0.88385012E+02</pdfrwt>
<totfact> 0.20718111E+04</totfact>
</mgrwt>
</event>
<event>
 5    1  0.1310593E+001  0.9355395E+02  0.7546771E-02  0.1294467E+00
         -2   -1    0    0    0  501 -0.00000000000E+00  0.00000000000E+00  0.41196431034E+02  0.41196431034E+02  0.00000000000E+00 0.  1.
          2   -1    0    0  501    0  0.00000000000E+00 -0.00000000000E+00 -0.53113473411E+02  0.53113473411E+02  0.00000000000E+00 0. -1.
         23    2    1    2    0    0  0.00000000000E+00  0.00000000000E+00 -0.11917042377E+02  0.94309904445E+02  0.93553953297E+02 0.  0.
        -11    1    3    3    0    0  0.40961055714E+02 -0.15710610684E+02  0.10403904987E+02  0.45087388617E+02  0.00000000000E+00 0. -1.
         11    1    3    3    0    0 -0.40961055714E+02  0.15710610684E+02 -0.22320947364E+02  0.49222515829E+02  0.00000000000E+00 0.  1.
<mgrwt>
<rscale>  0 0.93553953E+02</rscale>
<asrwt>0</asrwt>
<pdfrwt beam="2">  1        2 0.81713036E-02 0.93553953E+02</pdfrwt>
<pdfrwt beam="1">  1       -2 0.63379125E-02 0.93553953E+02</pdfrwt>
<totfact> 0.95426188E+04</totfact>
</mgrwt>
</event>
<event>
 5    1  0.1310593E+001  0.8976019E+02  0.7546771E-02  0.1303433E+00
         -1   -1    0    0    0  501 -0.00000000000E+00  0.00000000000E+00  0.18242843778E+03  0.18242843778E+03  0.00000000000E+00 0.  1.
          1   -1    0    0  501    0  0.00000000000E+00 -0.00000000000E+00 -0.11041167476E+02  0.11041167476E+02  0.00000000000E+00 0. -1.
         23    2    1    2    0    0  0.00000000000E+00  0.00000000000E+00  0.17138727031E+03  0.19346960526E+03  0.89760190148E+02 0.  0.
        -11    1    3    3    0    0 -0.25363124151E+02  0.26807617740E+02  0.14074247570E+03  0.14550044983E+03  0.00000000000E+00 0.  1.
         11    1    3    3    0    0  0.25363124151E+02 -0.26807617740E+02  0.30644794605E+02  0.47969155423E+02  0.00000000000E+00 0. -1.
<mgrwt>
<rscale>  0 0.89760190E+02</rscale>
<asrwt>0</asrwt>
<pdfrwt beam="2">  1        1 0.16986413E-02 0.89760190E+02</pdfrwt>
<pdfrwt beam="1">  1       -1 0.28065911E-01 0.89760190E+02</pdfrwt>
<totfact> 0.74173209E+04</totfact>
</mgrwt>
</event>
<event>
 5    1  0.1310593E+001  0.9220206E+02  0.7546771E-02  0.1297605E+00
         -2   -1    0    0    0  501 -0.00000000000E+00  0.00000000000E+00  0.87883478816E+02  0.87883478816E+02  0.00000000000E+00 0.  1.
          2   -1    0    0  501    0  0.00000000000E+00 -0.00000000000E+00 -0.24183211548E+02  0.24183211548E+02  0.00000000000E+00 0. -1.
         23    2    1    2    0    0  0.00000000000E+00  0.00000000000E+00  0.63700267268E+02  0.11206669036E+03  0.92202055505E+02 0.  0.
        -11    1    3    3    0    0  0.43025938447E+02  0.13789100537E+02  0.42985515844E+02  0.62362851484E+02  0.00000000000E+00 0.  1.
         11    1    3    3    0    0 -0.43025938447E+02 -0.13789100537E+02  0.20714751424E+02  0.49703838880E+02  0.00000000000E+00 0. -1.
<mgrwt>
<rscale>  0 0.92202056E+02</rscale>
<asrwt>0</asrwt>
<pdfrwt beam="2">  1        2 0.37204941E-02 0.92202056E+02</pdfrwt>
<pdfrwt beam="1">  1       -2 0.13520535E-01 0.92202056E+02</pdfrwt>
<totfact> 0.80606358E+04</totfact>
</mgrwt>
</event>
<event>
 5    1  0.1310593E+001  0.9693111E+02  0.7546771E-02  0.1286885E+00
          1   -1    0    0  501    0  0.00000000000E+00  0.00000000000E+00  0.29694201112E+02  0.29694201112E+02  0.00000000000E+00 0. -1.
         -1   -1    0    0    0  501 -0.00000000000E+00 -0.00000000000E+00 -0.79103325245E+02  0.79103325245E+02  0.00000000000E+00 0.  1.
         23    2    1    2    0    0  0.00000000000E+00  0.00000000000E+00 -0.49409124133E+02  0.10879752636E+03  0.96931110557E+02 0.  0.
        -11    1    3    3    0    0  0.34800622455E+02 -0.32022175306E+02 -0.36604714873E+02  0.59803078395E+02  0.00000000000E+00 0.  1.
         11    1    3    3    0    0 -0.34800622455E+02  0.32022175306E+02 -0.12804409259E+02  0.48994447962E+02  0.00000000000E+00 0. -1.
<mgrwt>
<rscale>  0 0.96931111E+02</rscale>
<asrwt>0</asrwt>
<pdfrwt beam="1">  1        1 0.45683387E-02 0.96931111E+02</pdfrwt>
<pdfrwt beam="2">  1       -1 0.12169742E-01 0.96931111E+02</pdfrwt>
<totfact> 0.72501144E+04</totfact>
</mgrwt>
</event>
<event>
 5    1  0.1310593E+001  0.7531236E+02  0.7546771E-02  0.1342906E+00
         -3   -1    0    0    0  501 -0.00000000000E+00  0.00000000000E+00  0.10329432957E+03  0.10329432957E+03  0.00000000000E+00 0.  1.
          3   -1    0    0  501    0  0.00000000000E+00 -0.00000000000E+00 -0.13727643564E+02  0.13727643564E+02  0.00000000000E+00 0. -1.
         23    2    1    2    0    0  0.00000000000E+00  0.00000000000E+00  0.89566686010E+02  0.11702197314E+03  0.75312355921E+02 0.  0.
        -13    1    3    3    0    0  0.33595727516E+02  0.13247950494E+02  0.28207142858E+02  0.45823836678E+02  0.00000000000E+00 0. -1.
         13    1    3    3    0    0 -0.33595727516E+02 -0.13247950494E+02  0.61359543152E+02  0.71198136461E+02  0.00000000000E+00 0.  1.
<mgrwt>
<rscale>  0 0.75312356E+02</rscale>
<asrwt>0</asrwt>
<pdfrwt beam="2">  1        3 0.21119452E-02 0.75312356E+02</pdfrwt>
<pdfrwt beam="1">  1       -3 0.15891435E-01 0.75312356E+02</pdfrwt>
<totfact> 0.55875689E+04</totfact>
</mgrwt>
</event>
<event>
 5    1  0.1310593E+001  0.9227743E+02  0.7546771E-02  0.1297428E+00
         -2   -1    0    0    0  501 -0.00000000000E+00  0.00000000000E+00  0.20407203868E+02  0.20407203868E+02  0.00000000000E+00 0. -1.
          2   -1    0    0  501    0  0.00000000000E+00 -0.00000000000E+00 -0.10431518495E+03  0.10431518495E+03  0.00000000000E+00 0.  1.
         23    2    1    2    0    0  0.00000000000E+00  0.00000000000E+00 -0.83907981084E+02  0.12472238882E+03  0.92277434855E+02 0.  0.
        -13    1    3    3    0    0  0.25224049738E+02  0.30184268918E+01  0.10103188405E+02  0.27339312391E+02  0.00000000000E+00 0. -1.
         13    1    3    3    0    0 -0.25224049738E+02 -0.30184268918E+01 -0.94011169489E+02  0.97383076429E+02  0.00000000000E+00 0.  1.
<mgrwt>
<rscale>  0 0.92277435E+02</rscale>
<asrwt>0</asrwt>
<pdfrwt beam="2">  1        2 0.16048490E-01 0.92277435E+02</pdfrwt>
<pdfrwt beam="1">  1       -2 0.31395698E-02 0.92277435E+02</pdfrwt>
<totfact> 0.12023551E+05</totfact>
</mgrwt>
</event>
<event>
 5    1  0.1310593E+001  0.9140960E+02  0.7546771E-02  0.1299474E+00
         -1   -1    0    0    0  501 -0.00000000000E+00  0.00000000000E+00  0.52181879764E+01  0.52181879764E+01  0.00000000000E+00 0.  1.
          1   -1    0    0  501    0  0.00000000000E+00 -0.00000000000E+00 -0.40031686164E+03  0.40031686164E+03  0.00000000000E+00 0. -1.
         23    2    1    2    0    0  0.00000000000E+00  0.00000000000E+00 -0.39509867366E+03  0.40553504962E+03  0.91409597618E+02 0.  0.
        -11    1    3    3    0    0  0.69403613806E+01 -0.45027556514E+02 -0.18138260989E+03  0.18701684585E+03  0.00000000000E+00 0.  1.
         11    1    3    3    0    0 -0.69403613806E+01  0.45027556514E+02 -0.21371606377E+03  0.21851820376E+03  0.00000000000E+00 0. -1.
<mgrwt>
<rscale>  0 0.91409598E+02</rscale>
<asrwt>0</asrwt>
<pdfrwt beam="2">  1        1 0.61587197E-01 0.91409598E+02</pdfrwt>
<pdfrwt beam="1">  1       -1 0.80279831E-03 0.91409598E+02</pdfrwt>
<totfact> 0.13399821E+05</totfact>
</mgrwt>
</event>
<event>
 5    1  0.1310593E+001  0.9049781E+02  0.7546771E-02  0.1301651E+00
          1   -1    0    0  501    0  0.00000000000E+00  0.00000000000E+00  0.20782241781E+03  0.20782241781E+03  0.00000000000E+00 0. -1.
         -1   -1    0    0    0  501 -0.00000000000E+00 -0.00000000000E+00 -0.98519842715E+01  0.98519842715E+01  0.00000000000E+00 0.  1.
         23    2    1    2    0    0  0.00000000000E+00  0.00000000000E+00  0.19797043354E+03  0.21767440208E+03  0.90497805312E+02 0.  0.
        -13    1    3    3    0    0 -0.17261613117E+02 -0.31697678632E+02  0.33343998701E+02  0.49137850659E+02  0.00000000000E+00 0.  1.
         13    1    3    3    0    0  0.17261613117E+02  0.31697678632E+02  0.16462643484E+03  0.16853655143E+03  0.00000000000E+00 0. -1.
<mgrwt>
<rscale>  0 0.90497805E+02</rscale>
<asrwt>0</asrwt>
<pdfrwt beam="1">  1        1 0.31972676E-01 0.90497805E+02</pdfrwt>
<pdfrwt beam="2">  1       -1 0.15156900E-02 0.90497805E+02</pdfrwt>
<totfact> 0.12170375E+05</totfact>
</mgrwt>
</event>
<event>
 5    1  0.1310593E+001  0.8854350E+02  0.7546771E-02  0.1306418E+00
          1   -1    0    0  501    0  0.00000000000E+00  0.00000000000E+00  0.20509745192E+03  0.20509745192E+03  0.00000000000E+00 0. -1.
         -1   -1    0    0    0  501 -0.00000000000E+00 -0.00000000000E+00 -0.95563745366E+01  0.95563745366E+01  0.00000000000E+00 0.  1.
         23    2    1    2    0    0  0.00000000000E+00  0.00000000000E+00  0.19554107738E+03  0.21465382646E+03  0.88543504946E+02 0.  0.
        -11    1    3    3    0    0  0.18094787243E+02  0.33906030798E+02  0.15104659008E+03  0.15585927186E+03  0.00000000000E+00 0. -1.
         11    1    3    3    0    0 -0.18094787243E+02 -0.33906030798E+02  0.44494487301E+02  0.58794554595E+02  0.00000000000E+00 0.  1.
<mgrwt>
<rscale>  0 0.88543505E+02</rscale>
<asrwt>0</asrwt>
<pdfrwt beam="1">  1        1 0.31553451E-01 0.88543505E+02</pdfrwt>
<pdfrwt beam="2">  1       -1 0.14702116E-02 0.88543505E+02</pdfrwt>
<totfact> 0.12868794E+05</totfact>
</mgrwt>
</event>
<event>
 5    1  0.1310593E+001  0.8020381E+02  0.7546771E-02  0.1328474E+00
          1   -1    0    0  501    0  0.00000000000E+00  0.00000000000E+00  0.20090962485E+03  0.20090962485E+03  0.00000000000E+00 0. -1.
         -1   -1    0    0    0  501 -0.00000000000E+00 -0.00000000000E+00 -0.80044089823E+01  0.80044089823E+01  0.00000000000E+00 0.  1.
         23    2    1    2    0    0  0.00000000000E+00  0.00000000000E+00  0.19290521586E+03  0.20891403383E+03  0.80203810526E+02 0.  0.
        -13    1    3    3    0    0  0.14163953343E+02  0.31134999461E+02  0.41928633004E+02  0.54111145167E+02  0.00000000000E+00 0.  1.
         13    1    3    3    0    0 -0.14163953343E+02 -0.31134999461E+02  0.15097658286E+03  0.15480288866E+03  0.00000000000E+00 0. -1.
<mgrwt>
<rscale>  0 0.80203811E+02</rscale>
<asrwt>0</asrwt>
<pdfrwt beam="1">  1        1 0.30909169E-01 0.80203811E+02</pdfrwt>
<pdfrwt beam="2">  1       -1 0.12314477E-02 0.80203811E+02</pdfrwt>
<totfact> 0.16671588E+05</totfact>
</mgrwt>
</event>
<event>
 5    1  0.1310593E+001  0.8351244E+02  0.7546771E-02  0.1319369E+00
          1   -1    0    0  501    0  0.00000000000E+00  0.00000000000E+00  0.12599646208E+02  0.12599646208E+02  0.00000000000E+00 0. -1.
         -1   -1    0    0    0  501 -0.00000000000E+00 -0.00000000000E+00 -0.13838339144E+03  0.13838339144E+03  0.00000000000E+00 0.  1.
         23    2    1    2    0    0  0.00000000000E+00  0.00000000000E+00 -0.12578374523E+03  0.15098303765E+03  0.83512436757E+02 0.  0.
        -13    1    3    3    0    0  0.34300492744E+02 -0.56464262393E+01 -0.10471584250E+03  0.11033500624E+03  0.00000000000E+00 0. -1.
         13    1    3    3    0    0 -0.34300492744E+02  0.56464262393E+01 -0.21067902730E+02  0.40648031406E+02  0.00000000000E+00 0.  1.
<mgrwt>
<rscale>  0 0.83512437E+02</rscale>
<asrwt>0</asrwt>
<pdfrwt beam="1">  1        1 0.19384072E-02 0.83512437E+02</pdfrwt>
<pdfrwt beam="2">  1       -1 0.21289751E-01 0.83512437E+02</pdfrwt>
<totfact> 0.95585208E+04</totfact>
</mgrwt>
</event>
<event>
 5    1  0.1310593E+001  0.9242597E+02  0.7546771E-02  0.1297081E+00
         -3   -1    0    0    0  501 -0.00000000000E+00  0.00000000000E+00  0.17515522940E+02  0.17515522940E+02  0.00000000000E+00 0.  1.
          3   -1    0    0  501    0  0.00000000000E+00 -0.00000000000E+00 -0.12192841894E+03  0.12192841894E+03  0.00000000000E+00 0. -1.
         23    2    1    2    0    0  0.00000000000E+00  0.00000000000E+00 -0.10441289600E+03  0.13944394188E+03  0.92425970786E+02 0.  0.
        -13    1    3    3    0    0  0.21507400078E+01  0.41234934970E+02 -0.83516967996E+02  0.93166675844E+02  0.00000000000E+00 0.  1.
         13    1    3    3    0    0 -0.21507400078E+01 -0.41234934970E+02 -0.20895928002E+02  0.46277266034E+02  0.00000000000E+00 0. -1.
<mgrwt>
<rscale>  0 0.92425971E+02</rscale>
<asrwt>0</asrwt>
<pdfrwt beam="2">  1        3 0.18758218E-01 0.92425971E+02</pdfrwt>
<pdfrwt beam="1">  1       -3 0.26946959E-02 0.92425971E+02</pdfrwt>
<totfact> 0.30805439E+04</totfact>
</mgrwt>
</event>
<event>
 5    1  0.1310593E+001  0.8759324E+02  0.7546771E-02  0.1308787E+00
          1   -1    0    0  501    0  0.00000000000E+00  0.00000000000E+00  0.17672574295E+03  0.17672574295E+03  0.00000000000E+00 0. -1.
         -1   -1    0    0    0  501 -0.00000000000E+00 -0.00000000000E+00 -0.10853787782E+02  0.10853787782E+02  0.00000000000E+00 0.  1.
         23    2    1    2    0    0  0.00000000000E+00  0.00000000000E+00  0.16587195517E+03  0.18757953073E+03  0.87593235117E+02 0.  0.
        -13    1    3    3    0    0  0.41452834970E+02 -0.28180189800E+01  0.53273139399E+02  0.67559648752E+02  0.00000000000E+00 0.  1.
         13    1    3    3    0    0 -0.41452834970E+02  0.28180189800E+01  0.11259881577E+03  0.12001988198E+03  0.00000000000E+00 0. -1.
<mgrwt>
<rscale>  0 0.87593235E+02</rscale>
<asrwt>0</asrwt>
<pdfrwt beam="1">  1        1 0.27188574E-01 0.87593235E+02</pdfrwt>
<pdfrwt beam="2">  1       -1 0.16698136E-02 0.87593235E+02</pdfrwt>
<totfact> 0.12873802E+05</totfact>
</mgrwt>
</event>
<event>
 5    1  0.1310593E+001  0.9102985E+02  0.7546771E-02  0.1300377E+00
         -3   -1    0    0    0  501 -0.00000000000E+00  0.00000000000E+00  0.32282594076E+03  0.32282594076E+03  0.00000000000E+00 0. -1.
          3   -1    0    0  501    0  0.00000000000E+00 -0.00000000000E+00 -0.64171062942E+01  0.64171062942E+01  0.00000000000E+00 0.  1.
         23    2    1    2    0    0  0.00000000000E+00  0.00000000000E+00  0.31640883446E+03  0.32924304705E+03  0.91029849530E+02 0.  0.
        -13    1    3    3    0    0 -0.26269235368E+02 -0.32775028926E+02  0.94797377791E+02  0.10368615184E+03  0.00000000000E+00 0.  1.
         13    1    3    3    0    0  0.26269235368E+02  0.32775028926E+02  0.22161145667E+03  0.22555689521E+03  0.00000000000E+00 0. -1.
<mgrwt>
<rscale>  0 0.91029850E+02</rscale>
<asrwt>0</asrwt>
<pdfrwt beam="2">  1        3 0.98724737E-03 0.91029850E+02</pdfrwt>
<pdfrwt beam="1">  1       -3 0.49665517E-01 0.91029850E+02</pdfrwt>
<totfact> 0.23032064E+04</totfact>
</mgrwt>
</event>
<event>
 5    1  0.1310593E+001  0.9049673E+02  0.7546771E-02  0.1301653E+00
          1   -1    0    0  501    0  0.00000000000E+00  0.00000000000E+00  0.20867889976E+02  0.20867889976E+02  0.00000000000E+00 0. -1.
         -1   -1    0    0    0  501 -0.00000000000E+00 -0.00000000000E+00 -0.98113163999E+02  0.98113163999E+02  0.00000000000E+00 0.  1.
         23    2    1    2    0    0  0.00000000000E+00  0.00000000000E+00 -0.77245274023E+02  0.11898105397E+03  0.90496733897E+02 0.  0.
        -11    1    3    3    0    0 -0.14345391420E+02 -0.37747949190E+02 -0.65461579827E+02  0.76914994355E+02  0.00000000000E+00 0.  1.
         11    1    3    3    0    0  0.14345391420E+02  0.37747949190E+02 -0.11783694196E+02  0.42066059620E+02  0.00000000000E+00 0. -1.
<mgrwt>
<rscale>  0 0.90496734E+02</rscale>
<asrwt>0</asrwt>
<pdfrwt beam="1">  1        1 0.32104446E-02 0.90496734E+02</pdfrwt>
<pdfrwt beam="2">  1       -1 0.15094333E-01 0.90496734E+02</pdfrwt>
<totfact> 0.83245839E+04</totfact>
</mgrwt>
</event>
<event>
 5    1  0.1310593E+001  0.8972634E+02  0.7546771E-02  0.1303516E+00
          2   -1    0    0  501    0  0.00000000000E+00  0.00000000000E+00  0.68695516717E+02  0.68695516717E+02  0.00000000000E+00 0. -1.
         -2   -1    0    0    0  501 -0.00000000000E+00 -0.00000000000E+00 -0.29298910577E+02  0.29298910577E+02  0.00000000000E+00 0.  1.
         23    2    1    2    0    0  0.00000000000E+00  0.00000000000E+00  0.39396606140E+02  0.97994427294E+02  0.89726335072E+02 0.  0.
        -11    1    3    3    0    0  0.34587034763E+02 -0.15368052989E+02  0.46006687513E+02  0.59573948352E+02  0.00000000000E+00 0. -1.
         11    1    3    3    0    0 -0.34587034763E+02  0.15368052989E+02 -0.66100813723E+01  0.38420478942E+02  0.00000000000E+00 0.  1.
<mgrwt>
<rscale>  0 0.89726335E+02</rscale>
<asrwt>0</asrwt>
<pdfrwt beam="1">  1        2 0.10568541E-01 0.89726335E+02</pdfrwt>
<pdfrwt beam="2">  1       -2 0.45075247E-02 0.89726335E+02</pdfrwt>
<totfact> 0.11508929E+05</totfact>
</mgrwt>
</event>
<event>
 5    1  0.1310593E+001  0.9083151E+02  0.7546771E-02  0.1300850E+00
         -2   -1    0    0    0  501 -0.00000000000E+00  0.00000000000E+00  0.28184274322E+02  0.28184274322E+02  0.00000000000E+00 0.  1.
          2   -1    0    0  501    0  0.00000000000E+00 -0.00000000000E+00 -0.73182330726E+02  0.73182330726E+02  0.00000000000E+00 0. -1.
         23    2    1    2    0    0  0.00000000000E+00  0.00000000000E+00 -0.44998056404E+02  0.10136660505E+03  0.90831511817E+02 0.  0.
        -13    1    3    3    0    0  0.17690906462E+02 -0.64490348806E+01  0.23622792632E+02  0.30209179964E+02  0.00000000000E+00 0.  1.
         13    1    3    3    0    0 -0.17690906462E+02  0.64490348806E+01 -0.68620849035E+02  0.71157425085E+02  0.00000000000E+00 0. -1.
<mgrwt>
<rscale>  0 0.90831512E+02</rscale>
<asrwt>0</asrwt>
<pdfrwt beam="2">  1        2 0.11258820E-01 0.90831512E+02</pdfrwt>
<pdfrwt beam="1">  1       -2 0.43360422E-02 0.90831512E+02</pdfrwt>
<totfact> 0.11318968E+05</totfact>
</mgrwt>
</event>
<event>
 5    1  0.1310593E+001  0.9003599E+02  0.7546771E-02  0.1302765E+00
         -1   -1    0    0    0  501 -0.00000000000E+00  0.00000000000E+00  0.36796492267E+02  0.36796492267E+02  0.00000000000E+00 0.  1.
          1   -1    0    0  501    0  0.00000000000E+00 -0.00000000000E+00 -0.55076438077E+02  0.55076438077E+02  0.00000000000E+00 0. -1.
         23    2    1    2    0    0  0.00000000000E+00  0.00000000000E+00 -0.18279945810E+02  0.91872930344E+02  0.90035986756E+02 0.  0.
        -11    1    3    3    0    0 -0.23169312477E+02 -0.38565005927E+02 -0.10767188308E+02  0.46260232023E+02  0.00000000000E+00 0.  1.
         11    1    3    3    0    0  0.23169312477E+02  0.38565005927E+02 -0.75127575013E+01  0.45612698320E+02  0.00000000000E+00 0. -1.
<mgrwt>
<rscale>  0 0.90035987E+02</rscale>
<asrwt>0</asrwt>
<pdfrwt beam="2">  1        1 0.84732981E-02 0.90035987E+02</pdfrwt>
<pdfrwt beam="1">  1       -1 0.56609988E-02 0.90035987E+02</pdfrwt>
<totfact> 0.98522327E+04</totfact>
</mgrwt>
</event>
<event>
 5    1  0.1310593E+001  0.9119429E+02  0.7546771E-02  0.1299985E+00
          3   -1    0    0  501    0  0.00000000000E+00  0.00000000000E+00  0.10192078833E+03  0.10192078833E+03  0.00000000000E+00 0. -1.
         -3   -1    0    0    0  501 -0.00000000000E+00 -0.00000000000E+00 -0.20399173634E+02  0.20399173634E+02  0.00000000000E+00 0.  1.
         23    2    1    2    0    0  0.00000000000E+00  0.00000000000E+00  0.81521614693E+02  0.12231996196E+03  0.91194294953E+02 0.  0.
        -11    1    3    3    0    0 -0.22279270328E+02 -0.31939071992E+02  0.72576470191E+02  0.82363913405E+02  0.00000000000E+00 0. -1.
         11    1    3    3    0    0  0.22279270328E+02  0.31939071992E+02  0.89451445014E+01  0.39956048556E+02  0.00000000000E+00 0.  1.
<mgrwt>
<rscale>  0 0.91194295E+02</rscale>
<asrwt>0</asrwt>
<pdfrwt beam="1">  1        3 0.15680121E-01 0.91194295E+02</pdfrwt>
<pdfrwt beam="2">  1       -3 0.31383344E-02 0.91194295E+02</pdfrwt>
<totfact> 0.33071133E+04</totfact>
</mgrwt>
</event>
<event>
 5    1  0.1310593E+001  0.8979752E+02  0.7546771E-02  0.1303343E+00
         -1   -1    0    0    0  501 -0.00000000000E+00  0.00000000000E+00  0.12091196620E+02  0.12091196620E+02  0.00000000000E+00 0.  1.
          1   -1    0    0  501    0  0.00000000000E+00 -0.00000000000E+00 -0.16672451300E+03  0.16672451300E+03  0.00000000000E+00 0. -1.
         23    2    1    2    0    0  0.00000000000E+00  0.00000000000E+00 -0.15463331638E+03  0.17881570962E+03  0.89797524865E+02 0.  0.
        -11    1    3    3    0    0  0.20257717602E+02 -0.23580959213E+02 -0.12807008187E+02  0.33622257785E+02  0.00000000000E+00 0.  1.
         11    1    3    3    0    0 -0.20257717602E+02  0.23580959213E+02 -0.14182630819E+03  0.14519345183E+03  0.00000000000E+00 0. -1.
<mgrwt>
<rscale>  0 0.89797525E+02</rscale>
<asrwt>0</asrwt>
<pdfrwt beam="2">  1        1 0.25649926E-01 0.89797525E+02</pdfrwt>
<pdfrwt beam="1">  1       -1 0.18601840E-02 0.89797525E+02</pdfrwt>
<totfact> 0.11913811E+05</totfact>
</mgrwt>
</event>
<event>
 5    1  0.1310593E+001  0.8915047E+02  0.7546771E-02  0.1304922E+00
         -3   -1    0    0    0  501 -0.00000000000E+00  0.00000000000E+00  0.15563665772E+02  0.15563665772E+02  0.00000000000E+00 0.  1.
          3   -1    0    0  501    0  0.00000000000E+00 -0.00000000000E+00 -0.12766604683E+03  0.12766604683E+03  0.00000000000E+00 0. -1.
         23    2    1    2    0    0  0.00000000000E+00  0.00000000000E+00 -0.11210238106E+03  0.14322971260E+03  0.89150472422E+02 0.  0.
        -11    1    3    3    0    0  0.18129347903E+02 -0.38006976701E+02 -0.79539980996E+02  0.89998956162E+02  0.00000000000E+00 0.  1.
         11    1    3    3    0    0 -0.18129347903E+02  0.38006976701E+02 -0.32562400060E+02  0.53230756438E+02  0.00000000000E+00 0. -1.
<mgrwt>
<rscale>  0 0.89150472E+02</rscale>
<asrwt>0</asrwt>
<pdfrwt beam="2">  1        3 0.19640930E-01 0.89150472E+02</pdfrwt>
<pdfrwt beam="1">  1       -3 0.23944102E-02 0.89150472E+02</pdfrwt>
<totfact> 0.33712833E+04</totfact>
</mgrwt>
</event>
<event>
 5    1  0.1310593E+001  0.9190880E+02  0.7546771E-02  0.1298294E+00
         -2   -1    0    0    0  501 -0.00000000000E+00  0.00000000000E+00  0.23747895003E+02  0.23747895003E+02  0.00000000000E+00 0.  1.
          2   -1    0    0  501    0  0.00000000000E+00 -0.00000000000E+00 -0.88926059971E+02  0.88926059971E+02  0.00000000000E+00 0. -1.
         23    2    1    2    0    0  0.00000000000E+00  0.00000000000E+00 -0.65178164969E+02  0.11267395497E+03  0.91908796863E+02 0.  0.
        -13    1    3    3    0    0 -0.10605410921E+02 -0.44646517442E+02 -0.35597110136E+02  0.58077022226E+02  0.00000000000E+00 0.  1.
         13    1    3    3    0    0  0.10605410921E+02  0.44646517442E+02 -0.29581054832E+02  0.54596932748E+02  0.00000000000E+00 0. -1.
<mgrwt>
<rscale>  0 0.91908797E+02</rscale>
<asrwt>0</asrwt>
<pdfrwt beam="2">  1        2 0.13680932E-01 0.91908797E+02</pdfrwt>
<pdfrwt beam="1">  1       -2 0.36535223E-02 0.91908797E+02</pdfrwt>
<totfact> 0.11584298E+05</totfact>
</mgrwt>
</event>
<event>
 5    1  0.1310593E+001  0.9208167E+02  0.7546771E-02  0.1297888E+00
         -1   -1    0    0    0  501 -0.00000000000E+00  0.00000000000E+00  0.10483963843E+02  0.10483963843E+02  0.00000000000E+00 0.  1.
          1   -1    0    0  501    0  0.00000000000E+00 -0.00000000000E+00 -0.20219056328E+03  0.20219056328E+03  0.00000000000E+00 0. -1.
         23    2    1    2    0    0  0.00000000000E+00  0.00000000000E+00 -0.19170659943E+03  0.21267452712E+03  0.92081671462E+02 0.  0.
        -13    1    3    3    0    0 -0.42592013066E+02  0.17482699018E+02 -0.96280505142E+02  0.10672235011E+03  0.00000000000E+00 0.  1.
         13    1    3    3    0    0  0.42592013066E+02 -0.17482699018E+02 -0.95426094292E+02  0.10595217701E+03  0.00000000000E+00 0. -1.
<mgrwt>
<rscale>  0 0.92081671E+02</rscale>
<asrwt>0</asrwt>
<pdfrwt beam="2">  1        1 0.31106243E-01 0.92081671E+02</pdfrwt>
<pdfrwt beam="1">  1       -1 0.16129174E-02 0.92081671E+02</pdfrwt>
<totfact> 0.11555197E+05</totfact>
</mgrwt>
</event>
<event>
 5    1  0.1310593E+001  0.9217992E+02  0.7546771E-02  0.1297657E+00
          1   -1    0    0  501    0  0.00000000000E+00  0.00000000000E+00  0.19972942539E+02  0.19972942539E+02  0.00000000000E+00 0.  1.
         -1   -1    0    0    0  501 -0.00000000000E+00 -0.00000000000E+00 -0.10635810462E+03  0.10635810462E+03  0.00000000000E+00 0. -1.
         23    2    1    2    0    0  0.00000000000E+00  0.00000000000E+00 -0.86385162083E+02  0.12633104716E+03  0.92179917817E+02 0.  0.
        -11    1    3    3    0    0 -0.29707784576E+02 -0.11199927338E+02 -0.88981772263E+02  0.94476169650E+02  0.00000000000E+00 0. -1.
         11    1    3    3    0    0  0.29707784576E+02  0.11199927338E+02  0.25966101795E+01  0.31854877511E+02  0.00000000000E+00 0.  1.
<mgrwt>
<rscale>  0 0.92179918E+02</rscale>
<asrwt>0</asrwt>
<pdfrwt beam="1">  1        1 0.30727604E-02 0.92179918E+02</pdfrwt>
<pdfrwt beam="2">  1       -1 0.16362786E-01 0.92179918E+02</pdfrwt>
<totfact> 0.78188889E+04</totfact>
</mgrwt>
</event>
<event>
 5    1  0.1310593E+001  0.9162380E+02  0.7546771E-02  0.1298966E+00
         -2   -1    0    0    0  501 -0.00000000000E+00  0.00000000000E+00  0.11560882100E+03  0.11560882100E+03  0.00000000000E+00 0.  1.
          2   -1    0    0  501    0  0.00000000000E+00 -0.00000000000E+00 -0.18153722090E+02  0.18153722090E+02  0.00000000000E+00 0. -1.
         23    2    1    2    0    0  0.00000000000E+00  0.00000000000E+00  0.97455098913E+02  0.13376254309E+03  0.91623804933E+02 0.  0.
        -11    1    3    3    0    0 -0.18124651108E+02  0.29029974980E+01  0.11000553800E+03  0.11152644871E+03  0.00000000000E+00 0.  1.
         11    1    3    3    0    0  0.18124651108E+02 -0.29029974980E+01 -0.12550439082E+02  0.22236094383E+02  0.00000000000E+00 0. -1.
<mgrwt>
<rscale>  0 0.91623805E+02</rscale>
<asrwt>0</asrwt>
<pdfrwt beam="2">  1        2 0.27928804E-02 0.91623805E+02</pdfrwt>
<pdfrwt beam="1">  1       -2 0.17785972E-01 0.91623805E+02</pdfrwt>
<totfact> 0.75392895E+04</totfact>
</mgrwt>
</event>
<event>
 5    1  0.1310593E+001  0.8903136E+02  0.7546771E-02  0.1305215E+00
          2   -1    0    0  501    0  0.00000000000E+00  0.00000000000E+00  0.55297197919E+02  0.55297197919E+02  0.00000000000E+00 0. -1.
         -2   -1    0    0    0  501 -0.00000000000E+00 -0.00000000000E+00 -0.35836274841E+02  0.35836274841E+02  0.00000000000E+00 0.  1.
         23    2    1    2    0    0  0.00000000000E+00  0.00000000000E+00  0.19460923078E+02  0.91133472759E+02  0.89031355882E+02 0.  0.
        -13    1    3    3    0    0 -0.44272740879E+02  0.36327040920E+01  0.12692477337E+02  0.46199254376E+02  0.00000000000E+00 0.  1.
         13    1    3    3    0    0  0.44272740879E+02 -0.36327040920E+01  0.67684457411E+01  0.44934218383E+02  0.00000000000E+00 0. -1.
<mgrwt>
<rscale>  0 0.89031356E+02</rscale>
<asrwt>0</asrwt>
<pdfrwt beam="1">  1        2 0.85072612E-02 0.89031356E+02</pdfrwt>
<pdfrwt beam="2">  1       -2 0.55132731E-02 0.89031356E+02</pdfrwt>
<totfact> 0.11101138E+05</totfact>
</mgrwt>
</event>
<event>
 5    1  0.1310593E+001  0.8611103E+02  0.7546771E-02  0.1312552E+00
         -2   -1    0    0    0  501 -0.00000000000E+00  0.00000000000E+00  0.17713377189E+02  0.17713377189E+02  0.00000000000E+00 0.  1.
          2   -1    0    0  501    0  0.00000000000E+00 -0.00000000000E+00 -0.10465408858E+03  0.10465408858E+03  0.00000000000E+00 0. -1.
         23    2    1    2    0    0  0.00000000000E+00  0.00000000000E+00 -0.86940711395E+02  0.12236746577E+03  0.86111029385E+02 0.  0.
        -11    1    3    3    0    0 -0.20397418086E+02 -0.32608896582E+02 -0.15974643022E+02  0.41648337549E+02  0.00000000000E+00 0.  1.
         11    1    3    3    0    0  0.20397418086E+02  0.32608896582E+02 -0.70966068373E+02  0.80719128224E+02  0.00000000000E+00 0. -1.
<mgrwt>
<rscale>  0 0.86111029E+02</rscale>
<asrwt>0</asrwt>
<pdfrwt beam="2">  1        2 0.16100629E-01 0.86111029E+02</pdfrwt>
<pdfrwt beam="1">  1       -2 0.27251349E-02 0.86111029E+02</pdfrwt>
<totfact> 0.14544615E+05</totfact>
</mgrwt>
</event>
<event>
 5    1  0.1310593E+001  0.8862272E+02  0.7546771E-02  0.1306222E+00
         -3   -1    0    0    0  501 -0.00000000000E+00  0.00000000000E+00  0.40287286292E+03  0.40287286292E+03  0.00000000000E+00 0.  1.
          3   -1    0    0  501    0  0.00000000000E+00 -0.00000000000E+00 -0.48737375966E+01  0.48737375966E+01  0.00000000000E+00 0. -1.
         23    2    1    2    0    0  0.00000000000E+00  0.00000000000E+00  0.39799912533E+03  0.40774660052E+03  0.88622719856E+02 0.  0.
        -11    1    3    3    0    0 -0.25161979202E+00 -0.44199468421E+02  0.18456680277E+03  0.18978556585E+03  0.00000000000E+00 0. -1.
         11    1    3    3    0    0  0.25161979202E+00  0.44199468421E+02  0.21343232256E+03  0.21796103467E+03  0.00000000000E+00 0.  1.
<mgrwt>
<rscale>  0 0.88622720E+02</rscale>
<asrwt>0</asrwt>
<pdfrwt beam="2">  1        3 0.74980611E-03 0.88622720E+02</pdfrwt>
<pdfrwt beam="1">  1       -3 0.61980414E-01 0.88622720E+02</pdfrwt>
<totfact> 0.21971142E+04</totfact>
</mgrwt>
</event>
<event>
 5    1  0.1310593E+001  0.9014448E+02  0.7546771E-02  0.1302502E+00
         -2   -1    0    0    0  501 -0.00000000000E+00  0.00000000000E+00  0.50615012336E+02  0.50615012336E+02  0.00000000000E+00 0. -1.
          2   -1    0    0  501    0  0.00000000000E+00 -0.00000000000E+00 -0.40136450923E+02  0.40136450923E+02  0.00000000000E+00 0.  1.
         23    2    1    2    0    0  0.00000000000E+00  0.00000000000E+00  0.10478561412E+02  0.90751463259E+02  0.90144483105E+02 0.  0.
        -13    1    3    3    0    0 -0.12255297860E+02  0.20579345738E+02  0.43677585423E+02  0.49813986640E+02  0.00000000000E+00 0. -1.
         13    1    3    3    0    0  0.12255297860E+02 -0.20579345738E+02 -0.33199024011E+02  0.40937476618E+02  0.00000000000E+00 0.  1.
<mgrwt>
<rscale>  0 0.90144483E+02</rscale>
<asrwt>0</asrwt>
<pdfrwt beam="2">  1        2 0.61748386E-02 0.90144483E+02</pdfrwt>
<pdfrwt beam="1">  1       -2 0.77869250E-02 0.90144483E+02</pdfrwt>
<totfact> 0.98667084E+04</totfact>
</mgrwt>
</event>
<event>
 5    1  0.1310593E+001  0.8974562E+02  0.7546771E-02  0.1303469E+00
         -3   -1    0    0    0  501 -0.00000000000E+00  0.00000000000E+00  0.14331510977E+03  0.14331510977E+03  0.00000000000E+00 0.  1.
          3   -1    0    0  501    0  0.00000000000E+00 -0.00000000000E+00 -0.14049943663E+02  0.14049943663E+02  0.00000000000E+00 0. -1.
         23    2    1    2    0    0  0.00000000000E+00  0.00000000000E+00  0.12926516611E+03  0.15736505343E+03  0.89745623144E+02 0.  0.
        -13    1    3    3    0    0 -0.36857468029E+02  0.15177138669E+02  0.10077041413E+03  0.10836740678E+03  0.00000000000E+00 0.  1.
         13    1    3    3    0    0  0.36857468029E+02 -0.15177138669E+02  0.28494751978E+02  0.48997646658E+02  0.00000000000E+00 0. -1.
<mgrwt>
<rscale>  0 0.89745623E+02</rscale>
<asrwt>0</asrwt>
<pdfrwt beam="2">  1        3 0.21615299E-02 0.89745623E+02</pdfrwt>
<pdfrwt beam="1">  1       -3 0.22048477E-01 0.89745623E+02</pdfrwt>
<totfact> 0.32210514E+04</totfact>
</mgrwt>
</event>
<event>
 5    1  0.1310593E+001  0.9345127E+02  0.7546771E-02  0.1294703E+00
          4   -1    0    0  501    0  0.00000000000E+00  0.00000000000E+00  0.32729837521E+02  0.32729837521E+02  0.00000000000E+00 0. -1.
         -4   -1    0    0    0  501 -0.00000000000E+00 -0.00000000000E+00 -0.66706259660E+02  0.66706259660E+02  0.00000000000E+00 0.  1.
         23    2    1    2    0    0  0.00000000000E+00  0.00000000000E+00 -0.33976422139E+02  0.99436097181E+02  0.93451271587E+02 0.  0.
        -13    1    3    3    0    0  0.10528737858E+02  0.41480820173E+02  0.29685317223E+01  0.42899008656E+02  0.00000000000E+00 0. -1.
         13    1    3    3    0    0 -0.10528737858E+02 -0.41480820173E+02 -0.36944953861E+02  0.56537088525E+02  0.00000000000E+00 0.  1.
<mgrwt>
<rscale>  0 0.93451272E+02</rscale>
<asrwt>0</asrwt>
<pdfrwt beam="1">  1        4 0.50353597E-02 0.93451272E+02</pdfrwt>
<pdfrwt beam="2">  1       -4 0.10262501E-01 0.93451272E+02</pdfrwt>
<totfact> 0.24775639E+04</totfact>
</mgrwt>
</event>
<event>
 5    1  0.1310593E+001  0.8090028E+02  0.7546771E-02  0.1326516E+00
         -1   -1    0    0    0  501 -0.00000000000E+00  0.00000000000E+00  0.27506698560E+02  0.27506698560E+02  0.00000000000E+00 0.  1.
          1   -1    0    0  501    0  0.00000000000E+00 -0.00000000000E+00 -0.59484192699E+02  0.59484192699E+02  0.00000000000E+00 0. -1.
         23    2    1    2    0    0  0.00000000000E+00  0.00000000000E+00 -0.31977494139E+02  0.86990891259E+02  0.80900278310E+02 0.  0.
        -13    1    3    3    0    0  0.14464398079E+02 -0.37192721676E+02 -0.88807605586E+01  0.40882578998E+02  0.00000000000E+00 0.  1.
         13    1    3    3    0    0 -0.14464398079E+02  0.37192721676E+02 -0.23096733580E+02  0.46108312261E+02  0.00000000000E+00 0. -1.
<mgrwt>
<rscale>  0 0.80900278E+02</rscale>
<asrwt>0</asrwt>
<pdfrwt beam="2">  1        1 0.91514143E-02 0.80900278E+02</pdfrwt>
<pdfrwt beam="1">  1       -1 0.42317998E-02 0.80900278E+02</pdfrwt>
<totfact> 0.13369884E+05</totfact>
</mgrwt>
</event>
<event>
 5    1  0.1310593E+001  0.9293618E+02  0.7546771E-02  0.1295893E+00
          1   -1    0    0  501    0  0.00000000000E+00  0.00000000000E+00  0.34073118277E+02  0.34073118277E+02  0.00000000000E+00 0.  1.
         -1   -1    0    0    0  501 -0.00000000000E+00 -0.00000000000E+00 -0.63372044497E+02  0.63372044497E+02  0.00000000000E+00 0. -1.
         23    2    1    2    0    0  0.00000000000E+00  0.00000000000E+00 -0.29298926220E+02  0.97445162775E+02  0.92936175253E+02 0.  0.
        -11    1    3    3    0    0  0.45481503674E+02 -0.65650160625E-01 -0.24635820354E+02  0.51725188554E+02  0.00000000000E+00 0. -1.
         11    1    3    3    0    0 -0.45481503674E+02  0.65650160625E-01 -0.46631058661E+01  0.45719974221E+02  0.00000000000E+00 0.  1.
<mgrwt>
<rscale>  0 0.92936175E+02</rscale>
<asrwt>0</asrwt>
<pdfrwt beam="1">  1        1 0.52420183E-02 0.92936175E+02</pdfrwt>
<pdfrwt beam="2">  1       -1 0.97495452E-02 0.92936175E+02</pdfrwt>
<totfact> 0.83752544E+04</totfact>
</mgrwt>
</event>
<event>
 5    1  0.1310593E+001  0.9236935E+02  0.7546771E-02  0.1297213E+00
         -3   -1    0    0    0  501 -0.00000000000E+00  0.00000000000E+00  0.53810763076E+02  0.53810763076E+02  0.00000000000E+00 0.  1.
          3   -1    0    0  501    0  0.00000000000E+00 -0.00000000000E+00 -0.39639362658E+02  0.39639362658E+02  0.00000000000E+00 0. -1.
         23    2    1    2    0    0  0.00000000000E+00  0.00000000000E+00  0.14171400419E+02  0.93450125734E+02  0.92369353196E+02 0.  0.
        -13    1    3    3    0    0  0.11225867438E+02  0.42742843639E+02  0.20661107129E+02  0.48783728126E+02  0.00000000000E+00 0.  1.
         13    1    3    3    0    0 -0.11225867438E+02 -0.42742843639E+02 -0.64897067101E+01  0.44666397608E+02  0.00000000000E+00 0. -1.
<mgrwt>
<rscale>  0 0.92369353E+02</rscale>
<asrwt>0</asrwt>
<pdfrwt beam="2">  1        3 0.60983635E-02 0.92369353E+02</pdfrwt>
<pdfrwt beam="1">  1       -3 0.82785790E-02 0.92369353E+02</pdfrwt>
<totfact> 0.33939616E+04</totfact>
</mgrwt>
</event>
<event>
 5    1  0.1310593E+001  0.9168739E+02  0.7546771E-02  0.1298816E+00
          1   -1    0    0  501    0  0.00000000000E+00  0.00000000000E+00  0.69657419995E+01  0.69657419995E+01  0.00000000000E+00 0. -1.
         -1   -1    0    0    0  501 -0.00000000000E+00 -0.00000000000E+00 -0.30171148353E+03  0.30171148353E+03  0.00000000000E+00 0.  1.
         23    2    1    2    0    0  0.00000000000E+00  0.00000000000E+00 -0.29474574153E+03  0.30867722553E+03  0.91687389591E+02 0.  0.
        -13    1    3    3    0    0 -0.26343057219E+02 -0.29525828795E+02 -0.22530959997E+03  0.22875783499E+03  0.00000000000E+00 0.  1.
         13    1    3    3    0    0  0.26343057219E+02  0.29525828795E+02 -0.69436141556E+02  0.79919390537E+02  0.00000000000E+00 0. -1.
<mgrwt>
<rscale>  0 0.91687390E+02</rscale>
<asrwt>0</asrwt>
<pdfrwt beam="1">  1        1 0.10716525E-02 0.91687390E+02</pdfrwt>
<pdfrwt beam="2">  1       -1 0.46417156E-01 0.91687390E+02</pdfrwt>
<totfact> 0.59573336E+04</totfact>
</mgrwt>
</event>
<event>
 5    1  0.1310593E+001  0.9545881E+02  0.7546771E-02  0.1290146E+00
         -2   -1    0    0    0  501 -0.00000000000E+00  0.00000000000E+00  0.56949551141E+01  0.56949551141E+01  0.00000000000E+00 0.  1.
          2   -1    0    0  501    0  0.00000000000E+00 -0.00000000000E+00 -0.40002003435E+03  0.40002003435E+03  0.00000000000E+00 0. -1.
         23    2    1    2    0    0  0.00000000000E+00  0.00000000000E+00 -0.39432507924E+03  0.40571498947E+03  0.95458810811E+02 0.  0.
        -13    1    3    3    0    0  0.91776494485E+01  0.44353377224E+02 -0.26114750395E+03  0.26504616605E+03  0.00000000000E+00 0. -1.
         13    1    3    3    0    0 -0.91776494485E+01 -0.44353377224E+02 -0.13317757529E+03  0.14066882342E+03  0.00000000000E+00 0.  1.
<mgrwt>
<rscale>  0 0.95458811E+02</rscale>
<asrwt>0</asrwt>
<pdfrwt beam="2">  1        2 0.61541547E-01 0.95458811E+02</pdfrwt>
<pdfrwt beam="1">  1       -2 0.87614689E-03 0.95458811E+02</pdfrwt>
<totfact> 0.17666645E+05</totfact>
</mgrwt>
</event>
<event>
 5    1  0.1310593E+001  0.9252760E+02  0.7546771E-02  0.1296844E+00
         -1   -1    0    0    0  501 -0.00000000000E+00  0.00000000000E+00  0.63066884425E+02  0.63066884425E+02  0.00000000000E+00 0.  1.
          1   -1    0    0  501    0  0.00000000000E+00 -0.00000000000E+00 -0.33937608360E+02  0.33937608360E+02  0.00000000000E+00 0. -1.
         23    2    1    2    0    0  0.00000000000E+00  0.00000000000E+00  0.29129276064E+02  0.97004492785E+02  0.92527600728E+02 0.  0.
        -13    1    3    3    0    0 -0.45262352400E+02 -0.90446375692E+01  0.17855498208E+02  0.49490451905E+02  0.00000000000E+00 0.  1.
         13    1    3    3    0    0  0.45262352400E+02  0.90446375692E+01  0.11273777856E+02  0.47514040880E+02  0.00000000000E+00 0. -1.
<mgrwt>
<rscale>  0 0.92527601E+02</rscale>
<asrwt>0</asrwt>
<pdfrwt beam="2">  1        1 0.52211705E-02 0.92527601E+02</pdfrwt>
<pdfrwt beam="1">  1       -1 0.97025976E-02 0.92527601E+02</pdfrwt>
<totfact> 0.84761309E+04</totfact>
</mgrwt>
</event>
<event>
 5    1  0.1310593E+001  0.8888253E+02  0.7546771E-02  0.1305581E+00
         -3   -1    0    0    0  501 -0.00000000000E+00  0.00000000000E+00  0.44962332768E+02  0.44962332768E+02  0.00000000000E+00 0.  1.
          3   -1    0    0  501    0  0.00000000000E+00 -0.00000000000E+00 -0.43926231320E+02  0.43926231320E+02  0.00000000000E+00 0. -1.
         23    2    1    2    0    0  0.00000000000E+00  0.00000000000E+00  0.10361014478E+01  0.88888564088E+02  0.88882525388E+02 0.  0.
        -11    1    3    3    0    0 -0.42707601181E+02  0.47123180318E+01  0.11871385166E+02  0.44576618598E+02  0.00000000000E+00 0.  1.
         11    1    3    3    0    0  0.42707601181E+02 -0.47123180318E+01 -0.10835283718E+02  0.44311945490E+02  0.00000000000E+00 0. -1.
<mgrwt>
<rscale>  0 0.88882525E+02</rscale>
<asrwt>0</asrwt>
<pdfrwt beam="2">  1        3 0.67578818E-02 0.88882525E+02</pdfrwt>
<pdfrwt beam="1">  1       -3 0.69172820E-02 0.88882525E+02</pdfrwt>
<totfact> 0.38062408E+04</totfact>
</mgrwt>
</event>
<event>
 5    1  0.1310593E+001  0.9370992E+02  0.7546771E-02  0.1294108E+00
         -3   -1    0    0    0  501 -0.00000000000E+00  0.00000000000E+00  0.21247310347E+02  0.21247310347E+02  0.00000000000E+00 0. -1.
          3   -1    0    0  501    0  0.00000000000E+00 -0.00000000000E+00 -0.10332542328E+03  0.10332542328E+03  0.00000000000E+00 0.  1.
         23    2    1    2    0    0  0.00000000000E+00  0.00000000000E+00 -0.82078112931E+02  0.12457273363E+03  0.93709921249E+02 0.  0.
        -13    1    3    3    0    0  0.40923684245E+02  0.77083538981E+01 -0.12489996739E+02  0.43476047090E+02  0.00000000000E+00 0. -1.
         13    1    3    3    0    0 -0.40923684245E+02 -0.77083538981E+01 -0.69588116191E+02  0.81096686536E+02  0.00000000000E+00 0.  1.
<mgrwt>
<rscale>  0 0.93709921E+02</rscale>
<asrwt>0</asrwt>
<pdfrwt beam="2">  1        3 0.15896219E-01 0.93709921E+02</pdfrwt>
<pdfrwt beam="1">  1       -3 0.32688169E-02 0.93709921E+02</pdfrwt>
<totfact> 0.30568029E+04</totfact>
</mgrwt>
</event>
<event>
 5    1  0.1310593E+001  0.9056448E+02  0.7546771E-02  0.1301490E+00
         -3   -1    0    0    0  501 -0.00000000000E+00  0.00000000000E+00  0.14037153587E+03  0.14037153587E+03  0.00000000000E+00 0.  1.
          3   -1    0    0  501    0  0.00000000000E+00 -0.00000000000E+00 -0.14607529112E+02  0.14607529112E+02  0.00000000000E+00 0. -1.
         23    2    1    2    0    0  0.00000000000E+00  0.00000000000E+00  0.12576400676E+03  0.15497906498E+03  0.90564480823E+02 0.  0.
        -13    1    3    3    0    0 -0.10520978650E+02 -0.34624234402E+02  0.10946317160E+03  0.11528969831E+03  0.00000000000E+00 0.  1.
         13    1    3    3    0    0  0.10520978650E+02  0.34624234402E+02  0.16300835151E+02  0.39689366666E+02  0.00000000000E+00 0. -1.
<mgrwt>
<rscale>  0 0.90564481E+02</rscale>
<asrwt>0</asrwt>
<pdfrwt beam="2">  1        3 0.22473123E-02 0.90564481E+02</pdfrwt>
<pdfrwt beam="1">  1       -3 0.21595620E-01 0.90564481E+02</pdfrwt>
<totfact> 0.31576154E+04</totfact>
</mgrwt>
</event>
<event>
 5    1  0.1310593E+001  0.9341691E+02  0.7546771E-02  0.1294782E+00
         -3   -1    0    0    0  501 -0.00000000000E+00  0.00000000000E+00  0.49818976065E+02  0.49818976065E+02  0.00000000000E+00 0. -1.
          3   -1    0    0  501    0  0.00000000000E+00 -0.00000000000E+00 -0.43792147555E+02  0.43792147555E+02  0.00000000000E+00 0.  1.
         23    2    1    2    0    0  0.00000000000E+00  0.00000000000E+00  0.60268285106E+01  0.93611123620E+02  0.93416913905E+02 0.  0.
        -11    1    3    3    0    0  0.10411738232E+01  0.26372558179E+02  0.41630319265E+02  0.49291777712E+02  0.00000000000E+00 0. -1.
         11    1    3    3    0    0 -0.10411738232E+01 -0.26372558179E+02 -0.35603490755E+02  0.44319345909E+02  0.00000000000E+00 0.  1.
<mgrwt>
<rscale>  0 0.93416914E+02</rscale>
<asrwt>0</asrwt>
<pdfrwt beam="2">  1        3 0.67372535E-02 0.93416914E+02</pdfrwt>
<pdfrwt beam="1">  1       -3 0.76644579E-02 0.93416914E+02</pdfrwt>
<totfact> 0.32896853E+04</totfact>
</mgrwt>
</event>
<event>
 5    1  0.1310593E+001  0.9340460E+02  0.7546771E-02  0.1294810E+00
          4   -1    0    0  501    0  0.00000000000E+00  0.00000000000E+00  0.32785377503E+02  0.32785377503E+02  0.00000000000E+00 0. -1.
         -4   -1    0    0    0  501 -0.00000000000E+00 -0.00000000000E+00 -0.66526763444E+02  0.66526763444E+02  0.00000000000E+00 0.  1.
         23    2    1    2    0    0  0.00000000000E+00  0.00000000000E+00 -0.33741385941E+02  0.99312140946E+02  0.93404604887E+02 0.  0.
        -11    1    3    3    0    0 -0.25957438364E+02  0.89245019986E+01 -0.57044957016E+02  0.63305311494E+02  0.00000000000E+00 0.  1.
         11    1    3    3    0    0  0.25957438364E+02 -0.89245019986E+01  0.23303571075E+02  0.36006829452E+02  0.00000000000E+00 0. -1.
<mgrwt>
<rscale>  0 0.93404605E+02</rscale>
<asrwt>0</asrwt>
<pdfrwt beam="1">  1        4 0.50439042E-02 0.93404605E+02</pdfrwt>
<pdfrwt beam="2">  1       -4 0.10234887E-01 0.93404605E+02</pdfrwt>
<totfact> 0.24816557E+04</totfact>
</mgrwt>
</event>
<event>
 5    1  0.1310593E+001  0.7977333E+02  0.7546771E-02  0.1329696E+00
         -1   -1    0    0    0  501 -0.00000000000E+00  0.00000000000E+00  0.61409847112E+01  0.61409847112E+01  0.00000000000E+00 0.  1.
          1   -1    0    0  501    0  0.00000000000E+00 -0.00000000000E+00 -0.25907019291E+03  0.25907019291E+03  0.00000000000E+00 0. -1.
         23    2    1    2    0    0  0.00000000000E+00  0.00000000000E+00 -0.25292920820E+03  0.26521117762E+03  0.79773331227E+02 0.  0.
        -11    1    3    3    0    0  0.15210916861E+01 -0.39466968292E+02 -0.14497221682E+03  0.15025611121E+03  0.00000000000E+00 0. -1.
         11    1    3    3    0    0 -0.15210916861E+01  0.39466968292E+02 -0.10795699138E+03  0.11495506641E+03  0.00000000000E+00 0.  1.
<mgrwt>
<rscale>  0 0.79773331E+02</rscale>
<asrwt>0</asrwt>
<pdfrwt beam="2">  1        1 0.39856948E-01 0.79773331E+02</pdfrwt>
<pdfrwt beam="1">  1       -1 0.94476700E-03 0.79773331E+02</pdfrwt>
<totfact> 0.17744989E+05</totfact>
</mgrwt>
</event>
<event>
 5    1  0.1310593E+001  0.8847366E+02  0.7546771E-02  0.1306591E+00
          1   -1    0    0  501    0  0.00000000000E+00  0.00000000000E+00  0.90145643789E+02  0.90145643789E+02  0.00000000000E+00 0. -1.
         -1   -1    0    0    0  501 -0.00000000000E+00 -0.00000000000E+00 -0.21708173266E+02  0.21708173266E+02  0.00000000000E+00 0.  1.
         23    2    1    2    0    0  0.00000000000E+00  0.00000000000E+00  0.68437470523E+02  0.11185381705E+03  0.88473662849E+02 0.  0.
        -11    1    3    3    0    0  0.30314741772E+02 -0.16199134034E+02  0.69425667992E+02  0.77468179844E+02  0.00000000000E+00 0. -1.
         11    1    3    3    0    0 -0.30314741772E+02  0.16199134034E+02 -0.98819746912E+00  0.34385637210E+02  0.00000000000E+00 0.  1.
<mgrwt>
<rscale>  0 0.88473663E+02</rscale>
<asrwt>0</asrwt>
<pdfrwt beam="1">  1        1 0.13868560E-01 0.88473663E+02</pdfrwt>
<pdfrwt beam="2">  1       -1 0.33397190E-02 0.88473663E+02</pdfrwt>
<totfact> 0.11146970E+05</totfact>
</mgrwt>
</event>
<event>
 5    1  0.1310593E+001  0.9122935E+02  0.7546771E-02  0.1299902E+00
         -2   -1    0    0    0  501 -0.00000000000E+00  0.00000000000E+00  0.65890324949E+02  0.65890324949E+02  0.00000000000E+00 0. -1.
          2   -1    0    0  501    0  0.00000000000E+00 -0.00000000000E+00 -0.31578213218E+02  0.31578213218E+02  0.00000000000E+00 0.  1.
         23    2    1    2    0    0  0.00000000000E+00  0.00000000000E+00  0.34312111731E+02  0.97468538168E+02  0.91229353396E+02 0.  0.
        -11    1    3    3    0    0  0.20582818089E+01  0.22998337253E+02 -0.24873094785E+02  0.33938634100E+02  0.00000000000E+00 0.  1.
         11    1    3    3    0    0 -0.20582818089E+01 -0.22998337253E+02  0.59185206517E+02  0.63529904067E+02  0.00000000000E+00 0. -1.
<mgrwt>
<rscale>  0 0.91229353E+02</rscale>
<asrwt>0</asrwt>
<pdfrwt beam="2">  1        2 0.48581866E-02 0.91229353E+02</pdfrwt>
<pdfrwt beam="1">  1       -2 0.10136973E-01 0.91229353E+02</pdfrwt>
<totfact> 0.89527297E+04</totfact>
</mgrwt>
</event>
<event>
 5    1  0.1310593E+001  0.8775586E+02  0.7546771E-02  0.1308379E+00
         -2   -1    0    0    0  501 -0.00000000000E+00  0.00000000000E+00  0.36299315785E+02  0.36299315785E+02  0.00000000000E+00 0.  1.
          2   -1    0    0  501    0  0.00000000000E+00 -0.00000000000E+00 -0.53038820333E+02  0.53038820333E+02  0.00000000000E+00 0. -1.
         23    2    1    2    0    0  0.00000000000E+00  0.00000000000E+00 -0.16739504548E+02  0.89338136118E+02  0.87755863351E+02 0.  0.
        -11    1    3    3    0    0 -0.21718247853E+02 -0.38125743243E+00  0.30441716764E+02  0.37396868406E+02  0.00000000000E+00 0.  1.
         11    1    3    3    0    0  0.21718247853E+02  0.38125743243E+00 -0.47181221312E+02  0.51941267712E+02  0.00000000000E+00 0. -1.
<mgrwt>
<rscale>  0 0.87755863E+02</rscale>
<asrwt>0</asrwt>
<pdfrwt beam="2">  1        2 0.81598184E-02 0.87755863E+02</pdfrwt>
<pdfrwt beam="1">  1       -2 0.55845102E-02 0.87755863E+02</pdfrwt>
<totfact> 0.11438005E+05</totfact>
</mgrwt>
</event>
<event>
 5    1  0.1310593E+001  0.1078286E+03  0.7546771E-02  0.1264645E+00
          1   -1    0    0  501    0  0.00000000000E+00  0.00000000000E+00  0.26386120609E+03  0.26386120609E+03  0.00000000000E+00 0. -1.
         -1   -1    0    0    0  501 -0.00000000000E+00 -0.00000000000E+00 -0.11016209683E+02  0.11016209683E+02  0.00000000000E+00 0.  1.
         23    2    1    2    0    0  0.00000000000E+00  0.00000000000E+00  0.25284499641E+03  0.27487741578E+03  0.10782857457E+03 0.  0.
        -13    1    3    3    0    0  0.36620790910E+02 -0.34263828896E+02  0.17687221565E+03  0.18384469795E+03  0.00000000000E+00 0.  1.
         13    1    3    3    0    0 -0.36620790910E+02  0.34263828896E+02  0.75972780762E+02  0.91032717823E+02  0.00000000000E+00 0. -1.
<mgrwt>
<rscale>  0 0.10782857E+03</rscale>
<asrwt>0</asrwt>
<pdfrwt beam="1">  1        1 0.40594027E-01 0.10782857E+03</pdfrwt>
<pdfrwt beam="2">  1       -1 0.16948017E-02 0.10782857E+03</pdfrwt>
<totfact> 0.79539157E+04</totfact>
</mgrwt>
</event>
<event>
 5    1  0.1310593E+001  0.9184543E+02  0.7546771E-02  0.1298443E+00
          2   -1    0    0  501    0  0.00000000000E+00  0.00000000000E+00  0.28624452256E+03  0.28624452256E+03  0.00000000000E+00 0.  1.
         -2   -1    0    0    0  501 -0.00000000000E+00 -0.00000000000E+00 -0.73674629857E+01  0.73674629857E+01  0.00000000000E+00 0. -1.
         23    2    1    2    0    0  0.00000000000E+00  0.00000000000E+00  0.27887705958E+03  0.29361198555E+03  0.91845433742E+02 0.  0.
        -11    1    3    3    0    0 -0.32839239621E+01 -0.44322021606E+02  0.17639865715E+03  0.18191127507E+03  0.00000000000E+00 0.  1.
         11    1    3    3    0    0  0.32839239621E+01  0.44322021606E+02  0.10247840243E+03  0.11170071047E+03  0.00000000000E+00 0. -1.
<mgrwt>
<rscale>  0 0.91845434E+02</rscale>
<asrwt>0</asrwt>
<pdfrwt beam="1">  1        2 0.44037610E-01 0.91845434E+02</pdfrwt>
<pdfrwt beam="2">  1       -2 0.11334561E-02 0.91845434E+02</pdfrwt>
<totfact> 0.17312915E+05</totfact>
</mgrwt>
</event>
<event>
 5    1  0.1310593E+001  0.9298076E+02  0.7546771E-02  0.1295790E+00
         -1   -1    0    0    0  501 -0.00000000000E+00  0.00000000000E+00  0.13276060877E+02  0.13276060877E+02  0.00000000000E+00 0.  1.
          1   -1    0    0  501    0  0.00000000000E+00 -0.00000000000E+00 -0.16280094355E+03  0.16280094355E+03  0.00000000000E+00 0. -1.
         23    2    1    2    0    0  0.00000000000E+00  0.00000000000E+00 -0.14952488267E+03  0.17607700443E+03  0.92980755802E+02 0.  0.
        -13    1    3    3    0    0 -0.70479123309E+01  0.45952988304E+02 -0.74896814596E+02  0.88152612207E+02  0.00000000000E+00 0.  1.
         13    1    3    3    0    0  0.70479123309E+01 -0.45952988304E+02 -0.74628068076E+02  0.87924392219E+02  0.00000000000E+00 0. -1.
<mgrwt>
<rscale>  0 0.92980756E+02</rscale>
<asrwt>0</asrwt>
<pdfrwt beam="2">  1        1 0.25046299E-01 0.92980756E+02</pdfrwt>
<pdfrwt beam="1">  1       -1 0.20424709E-02 0.92980756E+02</pdfrwt>
<totfact> 0.10798639E+05</totfact>
</mgrwt>
</event>
<event>
 5    1  0.1310593E+001  0.9182051E+02  0.7546771E-02  0.1298502E+00
          3   -1    0    0  501    0  0.00000000000E+00  0.00000000000E+00  0.22258657909E+02  0.22258657909E+02  0.00000000000E+00 0. -1.
         -3   -1    0    0    0  501 -0.00000000000E+00 -0.00000000000E+00 -0.94693568284E+02  0.94693568284E+02  0.00000000000E+00 0.  1.
         23    2    1    2    0    0  0.00000000000E+00  0.00000000000E+00 -0.72434910375E+02  0.11695222619E+03  0.91820514975E+02 0.  0.
        -13    1    3    3    0    0  0.19420014280E+02 -0.22715789221E+02 -0.80607622843E+02  0.85969371843E+02  0.00000000000E+00 0.  1.
         13    1    3    3    0    0 -0.19420014280E+02  0.22715789221E+02  0.81727124678E+01  0.30982854350E+02  0.00000000000E+00 0. -1.
<mgrwt>
<rscale>  0 0.91820515E+02</rscale>
<asrwt>0</asrwt>
<pdfrwt beam="1">  1        3 0.34244089E-02 0.91820515E+02</pdfrwt>
<pdfrwt beam="2">  1       -3 0.14568241E-01 0.91820515E+02</pdfrwt>
<totfact> 0.32823120E+04</totfact>
</mgrwt>
</event>
<event>
 5    1  0.1310593E+001  0.9649476E+02  0.7546771E-02  0.1287845E+00
          3   -1    0    0  501    0  0.00000000000E+00  0.00000000000E+00  0.45063101220E+03  0.45063101220E+03  0.00000000000E+00 0. -1.
         -3   -1    0    0    0  501 -0.00000000000E+00 -0.00000000000E+00 -0.51656668458E+01  0.51656668458E+01  0.00000000000E+00 0.  1.
         23    2    1    2    0    0  0.00000000000E+00  0.00000000000E+00  0.44546534535E+03  0.45579667905E+03  0.96494760053E+02 0.  0.
        -13    1    3    3    0    0 -0.33506188235E+02 -0.32642891969E+02  0.27853975817E+03  0.28244047148E+03  0.00000000000E+00 0.  1.
         13    1    3    3    0    0  0.33506188235E+02  0.32642891969E+02  0.16692558718E+03  0.17335620757E+03  0.00000000000E+00 0. -1.
<mgrwt>
<rscale>  0 0.96494760E+02</rscale>
<asrwt>0</asrwt>
<pdfrwt beam="1">  1        3 0.69327817E-01 0.96494760E+02</pdfrwt>
<pdfrwt beam="2">  1       -3 0.79471833E-03 0.96494760E+02</pdfrwt>
<totfact> 0.16349004E+04</totfact>
</mgrwt>
</event>
<event>
 5    1  0.1310593E+001  0.9089364E+02  0.7546771E-02  0.1300702E+00
         -2   -1    0    0    0  501 -0.00000000000E+00  0.00000000000E+00  0.20268062312E+02  0.20268062312E+02  0.00000000000E+00 0.  1.
          2   -1    0    0  501    0  0.00000000000E+00 -0.00000000000E+00 -0.10190482647E+03  0.10190482647E+03  0.00000000000E+00 0. -1.
         23    2    1    2    0    0  0.00000000000E+00  0.00000000000E+00 -0.81636764155E+02  0.12217288878E+03  0.90893638342E+02 0.  0.
        -13    1    3    3    0    0 -0.30482720758E+02 -0.31090636295E+02 -0.23314242750E+02  0.49390058160E+02  0.00000000000E+00 0.  1.
         13    1    3    3    0    0  0.30482720758E+02  0.31090636295E+02 -0.58322521405E+02  0.72782830620E+02  0.00000000000E+00 0. -1.
<mgrwt>
<rscale>  0 0.90893638E+02</rscale>
<asrwt>0</asrwt>
<pdfrwt beam="2">  1        2 0.15677665E-01 0.90893638E+02</pdfrwt>
<pdfrwt beam="1">  1       -2 0.31181635E-02 0.90893638E+02</pdfrwt>
<totfact> 0.12444519E+05</totfact>
</mgrwt>
</event>
<event>
 5    1  0.1310593E+001  0.8805238E+02  0.7546771E-02  0.1307638E+00
         -2   -1    0    0    0  501 -0.00000000000E+00  0.00000000000E+00  0.17488635429E+03  0.17488635429E+03  0.00000000000E+00 0.  1.
          2   -1    0    0  501    0  0.00000000000E+00 -0.00000000000E+00 -0.11083229361E+02  0.11083229361E+02  0.00000000000E+00 0. -1.
         23    2    1    2    0    0  0.00000000000E+00  0.00000000000E+00  0.16380312493E+03  0.18596958365E+03  0.88052383879E+02 0.  0.
        -11    1    3    3    0    0 -0.32530456470E+02 -0.17007469928E+02  0.13323835630E+03  0.13820254781E+03  0.00000000000E+00 0.  1.
         11    1    3    3    0    0  0.32530456470E+02  0.17007469928E+02  0.30564768622E+02  0.47767035835E+02  0.00000000000E+00 0. -1.
<mgrwt>
<rscale>  0 0.88052384E+02</rscale>
<asrwt>0</asrwt>
<pdfrwt beam="2">  1        2 0.17051123E-02 0.88052384E+02</pdfrwt>
<pdfrwt beam="1">  1       -2 0.26905591E-01 0.88052384E+02</pdfrwt>
<totfact> 0.71997384E+04</totfact>
</mgrwt>
</event>
<event>
 5    1  0.1310593E+001  0.9007749E+02  0.7546771E-02  0.1302664E+00
         -2   -1    0    0    0  501 -0.00000000000E+00  0.00000000000E+00  0.24922019264E+02  0.24922019264E+02  0.00000000000E+00 0.  1.
          2   -1    0    0  501    0  0.00000000000E+00 -0.00000000000E+00 -0.81393424595E+02  0.81393424595E+02  0.00000000000E+00 0. -1.
         23    2    1    2    0    0  0.00000000000E+00  0.00000000000E+00 -0.56471405331E+02  0.10631544386E+03  0.90077488769E+02 0.  0.
        -13    1    3    3    0    0  0.55941857215E+01  0.34162272440E+02  0.57701644565E+01  0.35094879541E+02  0.00000000000E+00 0.  1.
         13    1    3    3    0    0 -0.55941857215E+01 -0.34162272440E+02 -0.62241569788E+02  0.71220564318E+02  0.00000000000E+00 0. -1.
<mgrwt>
<rscale>  0 0.90077489E+02</rscale>
<asrwt>0</asrwt>
<pdfrwt beam="2">  1        2 0.12522065E-01 0.90077489E+02</pdfrwt>
<pdfrwt beam="1">  1       -2 0.38341568E-02 0.90077489E+02</pdfrwt>
<totfact> 0.11937361E+05</totfact>
</mgrwt>
</event>
<event>
 5    1  0.1310593E+001  0.9196423E+02  0.7546771E-02  0.1298164E+00
          1   -1    0    0  501    0  0.00000000000E+00  0.00000000000E+00  0.70979609324E+02  0.70979609324E+02  0.00000000000E+00 0. -1.
         -1   -1    0    0    0  501 -0.00000000000E+00 -0.00000000000E+00 -0.29788199251E+02  0.29788199251E+02  0.00000000000E+00 0.  1.
         23    2    1    2    0    0  0.00000000000E+00  0.00000000000E+00  0.41191410073E+02  0.10076780857E+03  0.91964226638E+02 0.  0.
        -11    1    3    3    0    0 -0.15088990910E+02  0.38630654065E+02  0.42354940360E+02  0.59278546314E+02  0.00000000000E+00 0.  1.
         11    1    3    3    0    0  0.15088990910E+02 -0.38630654065E+02 -0.11635302873E+01  0.41489262260E+02  0.00000000000E+00 0. -1.
<mgrwt>
<rscale>  0 0.91964227E+02</rscale>
<asrwt>0</asrwt>
<pdfrwt beam="1">  1        1 0.10919940E-01 0.91964227E+02</pdfrwt>
<pdfrwt beam="2">  1       -1 0.45827999E-02 0.91964227E+02</pdfrwt>
<totfact> 0.96559287E+04</totfact>
</mgrwt>
</event>
<event>
 5    1  0.1310593E+001  0.9173615E+02  0.7546771E-02  0.1298701E+00
         -1   -1    0    0    0  501 -0.00000000000E+00  0.00000000000E+00  0.19716199124E+03  0.19716199124E+03  0.00000000000E+00 0.  1.
          1   -1    0    0  501    0  0.00000000000E+00 -0.00000000000E+00 -0.10670821938E+02  0.10670821938E+02  0.00000000000E+00 0. -1.
         23    2    1    2    0    0  0.00000000000E+00  0.00000000000E+00  0.18649116930E+03  0.20783281318E+03  0.91736154303E+02 0.  0.
        -13    1    3    3    0    0  0.26101636316E+02  0.22525120088E+02  0.16178376223E+03  0.16541663210E+03  0.00000000000E+00 0.  1.
         13    1    3    3    0    0 -0.26101636316E+02 -0.22525120088E+02  0.24707407075E+02  0.42416181083E+02  0.00000000000E+00 0. -1.
<mgrwt>
<rscale>  0 0.91736154E+02</rscale>
<asrwt>0</asrwt>
<pdfrwt beam="2">  1        1 0.16416651E-02 0.91736154E+02</pdfrwt>
<pdfrwt beam="1">  1       -1 0.30332611E-01 0.91736154E+02</pdfrwt>
<totfact> 0.68604664E+04</totfact>
</mgrwt>
</event>
<event>
 5    1  0.1310593E+001  0.7624375E+02  0.7546771E-02  0.1340062E+00
         -3   -1    0    0    0  501 -0.00000000000E+00  0.00000000000E+00  0.31402247871E+02  0.31402247871E+02  0.00000000000E+00 0.  1.
          3   -1    0    0  501    0  0.00000000000E+00 -0.00000000000E+00 -0.46279410103E+02  0.46279410103E+02  0.00000000000E+00 0. -1.
         23    2    1    2    0    0  0.00000000000E+00  0.00000000000E+00 -0.14877162232E+02  0.77681657975E+02  0.76243754037E+02 0.  0.
        -13    1    3    3    0    0  0.59608004747E+01  0.15220831325E+02 -0.42527489858E+02  0.45560863053E+02  0.00000000000E+00 0. -1.
         13    1    3    3    0    0 -0.59608004747E+01 -0.15220831325E+02  0.27650327627E+02  0.32120794921E+02  0.00000000000E+00 0.  1.
<mgrwt>
<rscale>  0 0.76243754E+02</rscale>
<asrwt>0</asrwt>
<pdfrwt beam="2">  1        3 0.71199092E-02 0.76243754E+02</pdfrwt>
<pdfrwt beam="1">  1       -3 0.48311151E-02 0.76243754E+02</pdfrwt>
<totfact> 0.58991630E+04</totfact>
</mgrwt>
</event>
<event>
 5    1  0.1310593E+001  0.9142109E+02  0.7546771E-02  0.1299446E+00
          2   -1    0    0  501    0  0.00000000000E+00  0.00000000000E+00  0.72159758561E+02  0.72159758561E+02  0.00000000000E+00 0. -1.
         -2   -1    0    0    0  501 -0.00000000000E+00 -0.00000000000E+00 -0.28955942475E+02  0.28955942475E+02  0.00000000000E+00 0.  1.
         23    2    1    2    0    0  0.00000000000E+00  0.00000000000E+00  0.43203816086E+02  0.10111570104E+03  0.91421087674E+02 0.  0.
        -13    1    3    3    0    0 -0.36206035973E+02 -0.34117305726E+01 -0.90284463762E+01  0.37470385511E+02  0.00000000000E+00 0.  1.
         13    1    3    3    0    0  0.36206035973E+02  0.34117305726E+01  0.52232262462E+02  0.63645315525E+02  0.00000000000E+00 0. -1.
<mgrwt>
<rscale>  0 0.91421088E+02</rscale>
<asrwt>0</asrwt>
<pdfrwt beam="1">  1        2 0.11101501E-01 0.91421088E+02</pdfrwt>
<pdfrwt beam="2">  1       -2 0.44547604E-02 0.91421088E+02</pdfrwt>
<totfact> 0.11072642E+05</totfact>
</mgrwt>
</event>
<event>
 5    1  0.1310593E+001  0.9178663E+02  0.7546771E-02  0.1298582E+00
         -1   -1    0    0    0  501 -0.00000000000E+00  0.00000000000E+00  0.14095470958E+03  0.14095470958E+03  0.00000000000E+00 0.  1.
          1   -1    0    0  501    0  0.00000000000E+00 -0.00000000000E+00 -0.14942361792E+02  0.14942361792E+02  0.00000000000E+00 0. -1.
         23    2    1    2    0    0  0.00000000000E+00  0.00000000000E+00  0.12601234779E+03  0.15589707137E+03  0.91786627933E+02 0.  0.
        -13    1    3    3    0    0 -0.13240749984E+02  0.34389457308E+02  0.10946627738E+03  0.11550245935E+03  0.00000000000E+00 0.  1.
         13    1    3    3    0    0  0.13240749984E+02 -0.34389457308E+02  0.16546070412E+02  0.40394612019E+02  0.00000000000E+00 0. -1.
<mgrwt>
<rscale>  0 0.91786628E+02</rscale>
<asrwt>0</asrwt>
<pdfrwt beam="2">  1        1 0.22988250E-02 0.91786628E+02</pdfrwt>
<pdfrwt beam="1">  1       -1 0.21685339E-01 0.91786628E+02</pdfrwt>
<totfact> 0.74562799E+04</totfact>
</mgrwt>
</event>
<event>
 5    1  0.1310593E+001  0.9121534E+02  0.7546771E-02  0.1299935E+00
          2   -1    0    0  501    0  0.00000000000E+00  0.00000000000E+00  0.50847050156E+02  0.50847050156E+02  0.00000000000E+00 0. -1.
         -2   -1    0    0    0  501 -0.00000000000E+00 -0.00000000000E+00 -0.40908168173E+02  0.40908168173E+02  0.00000000000E+00 0.  1.
         23    2    1    2    0    0  0.00000000000E+00  0.00000000000E+00  0.99388819835E+01  0.91755218329E+02  0.91215342544E+02 0.  0.
        -13    1    3    3    0    0  0.39080714888E+01  0.19005518675E+02 -0.36549259590E+02  0.41380323095E+02  0.00000000000E+00 0.  1.
         13    1    3    3    0    0 -0.39080714888E+01 -0.19005518675E+02  0.46488141574E+02  0.50374895234E+02  0.00000000000E+00 0. -1.
<mgrwt>
<rscale>  0 0.91215343E+02</rscale>
<asrwt>0</asrwt>
<pdfrwt beam="1">  1        2 0.78226231E-02 0.91215343E+02</pdfrwt>
<pdfrwt beam="2">  1       -2 0.62935643E-02 0.91215343E+02</pdfrwt>
<totfact> 0.10140033E+05</totfact>
</mgrwt>
</event>
<event>
 5    1  0.1310593E+001  0.9069420E+02  0.7546771E-02  0.1301179E+00
          2   -1    0    0  501    0  0.00000000000E+00  0.00000000000E+00  0.22299057710E+03  0.22299057710E+03  0.00000000000E+00 0.  1.
         -2   -1    0    0    0  501 -0.00000000000E+00 -0.00000000000E+00 -0.92217332858E+01  0.92217332858E+01  0.00000000000E+00 0. -1.
         23    2    1    2    0    0  0.00000000000E+00  0.00000000000E+00  0.21376884381E+03  0.23221231038E+03  0.90694203282E+02 0.  0.
        -11    1    3    3    0    0 -0.37072827797E+02  0.21123673483E+02  0.67571383356E+02  0.79915555376E+02  0.00000000000E+00 0. -1.
         11    1    3    3    0    0  0.37072827797E+02 -0.21123673483E+02  0.14619746046E+03  0.15229675501E+03  0.00000000000E+00 0.  1.
<mgrwt>
<rscale>  0 0.90694203E+02</rscale>
<asrwt>0</asrwt>
<pdfrwt beam="1">  1        2 0.34306239E-01 0.90694203E+02</pdfrwt>
<pdfrwt beam="2">  1       -2 0.14187284E-02 0.90694203E+02</pdfrwt>
<totfact> 0.16324317E+05</totfact>
</mgrwt>
</event>
<event>
 5    1  0.1310593E+001  0.9114840E+02  0.7546771E-02  0.1300094E+00
          2   -1    0    0  501    0  0.00000000000E+00  0.00000000000E+00  0.19263163496E+03  0.19263163496E+03  0.00000000000E+00 0. -1.
         -2   -1    0    0    0  501 -0.00000000000E+00 -0.00000000000E+00 -0.10782278352E+02  0.10782278352E+02  0.00000000000E+00 0.  1.
         23    2    1    2    0    0  0.00000000000E+00  0.00000000000E+00  0.18184935661E+03  0.20341391331E+03  0.91148404431E+02 0.  0.
        -13    1    3    3    0    0 -0.38159990104E+02  0.24330576129E+02  0.78938648649E+02  0.90991604174E+02  0.00000000000E+00 0.  1.
         13    1    3    3    0    0  0.38159990104E+02 -0.24330576129E+02  0.10291070796E+03  0.11242230914E+03  0.00000000000E+00 0. -1.
<mgrwt>
<rscale>  0 0.91148404E+02</rscale>
<asrwt>0</asrwt>
<pdfrwt beam="1">  1        2 0.29635634E-01 0.91148404E+02</pdfrwt>
<pdfrwt beam="2">  1       -2 0.16588122E-02 0.91148404E+02</pdfrwt>
<totfact> 0.15272869E+05</totfact>
</mgrwt>
</event>
<event>
 5    1  0.1310593E+001  0.8923270E+02  0.7546771E-02  0.1304721E+00
         -1   -1    0    0    0  501 -0.00000000000E+00  0.00000000000E+00  0.64732229794E+02  0.64732229794E+02  0.00000000000E+00 0.  1.
          1   -1    0    0  501    0  0.00000000000E+00 -0.00000000000E+00 -0.30751585057E+02  0.30751585057E+02  0.00000000000E+00 0. -1.
         23    2    1    2    0    0  0.00000000000E+00  0.00000000000E+00  0.33980644736E+02  0.95483814851E+02  0.89232699622E+02 0.  0.
        -11    1    3    3    0    0  0.41982064948E+02  0.11813900567E+02  0.69206274962E+01  0.44158318682E+02  0.00000000000E+00 0. -1.
         11    1    3    3    0    0 -0.41982064948E+02 -0.11813900567E+02  0.27060017240E+02  0.51325496169E+02  0.00000000000E+00 0.  1.
<mgrwt>
<rscale>  0 0.89232700E+02</rscale>
<asrwt>0</asrwt>
<pdfrwt beam="2">  1        1 0.47310131E-02 0.89232700E+02</pdfrwt>
<pdfrwt beam="1">  1       -1 0.99588045E-02 0.89232700E+02</pdfrwt>
<totfact> 0.92560438E+04</totfact>
</mgrwt>
</event>
<event>
 5    1  0.1310593E+001  0.8971096E+02  0.7546771E-02  0.1303553E+00
          4   -1    0    0  501    0  0.00000000000E+00  0.00000000000E+00  0.28585851184E+02  0.28585851184E+02  0.00000000000E+00 0. -1.
         -4   -1    0    0    0  501 -0.00000000000E+00 -0.00000000000E+00 -0.70384956894E+02  0.70384956894E+02  0.00000000000E+00 0.  1.
         23    2    1    2    0    0  0.00000000000E+00  0.00000000000E+00 -0.41799105710E+02  0.98970808078E+02  0.89710955928E+02 0.  0.
        -11    1    3    3    0    0 -0.43802703224E+02 -0.77635172857E+01 -0.27243290192E+02  0.52164603620E+02  0.00000000000E+00 0. -1.
         11    1    3    3    0    0  0.43802703224E+02  0.77635172857E+01 -0.14555815518E+02  0.46806204458E+02  0.00000000000E+00 0.  1.
<mgrwt>
<rscale>  0 0.89710956E+02</rscale>
<asrwt>0</asrwt>
<pdfrwt beam="1">  1        4 0.43978233E-02 0.89710956E+02</pdfrwt>
<pdfrwt beam="2">  1       -4 0.10828455E-01 0.89710956E+02</pdfrwt>
<totfact> 0.27710014E+04</totfact>
</mgrwt>
</event>
<event>
 5    1  0.1310593E+001  0.9777452E+02  0.7546771E-02  0.1285047E+00
          2   -1    0    0  501    0  0.00000000000E+00  0.00000000000E+00  0.19788918300E+02  0.19788918300E+02  0.00000000000E+00 0. -1.
         -2   -1    0    0    0  501 -0.00000000000E+00 -0.00000000000E+00 -0.12077285010E+03  0.12077285010E+03  0.00000000000E+00 0.  1.
         23    2    1    2    0    0  0.00000000000E+00  0.00000000000E+00 -0.10098393180E+03  0.14056176840E+03  0.97774517406E+02 0.  0.
        -11    1    3    3    0    0  0.93188808147E+00 -0.48757992587E+02 -0.55420648012E+02  0.73821802218E+02  0.00000000000E+00 0. -1.
         11    1    3    3    0    0 -0.93188808147E+00  0.48757992587E+02 -0.45563283790E+02  0.66739966184E+02  0.00000000000E+00 0.  1.
<mgrwt>
<rscale>  0 0.97774517E+02</rscale>
<asrwt>0</asrwt>
<pdfrwt beam="1">  1        2 0.30444490E-02 0.97774517E+02</pdfrwt>
<pdfrwt beam="2">  1       -2 0.18580438E-01 0.97774517E+02</pdfrwt>
<totfact> 0.63148825E+04</totfact>
</mgrwt>
</event>
<event>
 5    1  0.1310593E+001  0.9326773E+02  0.7546771E-02  0.1295126E+00
         -1   -1    0    0    0  501 -0.00000000000E+00  0.00000000000E+00  0.96490210157E+01  0.96490210157E+01  0.00000000000E+00 0.  1.
          1   -1    0    0  501    0  0.00000000000E+00 -0.00000000000E+00 -0.22538215935E+03  0.22538215935E+03  0.00000000000E+00 0. -1.
         23    2    1    2    0    0  0.00000000000E+00  0.00000000000E+00 -0.21573313834E+03  0.23503118037E+03  0.93267726297E+02 0.  0.
        -13    1    3    3    0    0  0.27709652269E+02  0.29015366634E+02 -0.16776544166E+03  0.17249626009E+03  0.00000000000E+00 0. -1.
         13    1    3    3    0    0 -0.27709652269E+02 -0.29015366634E+02 -0.47967696680E+02  0.62534920281E+02  0.00000000000E+00 0.  1.
<mgrwt>
<rscale>  0 0.93267726E+02</rscale>
<asrwt>0</asrwt>
<pdfrwt beam="2">  1        1 0.34674177E-01 0.93267726E+02</pdfrwt>
<pdfrwt beam="1">  1       -1 0.14844648E-02 0.93267726E+02</pdfrwt>
<totfact> 0.11404521E+05</totfact>
</mgrwt>
</event>
<event>
 5    1  0.1310593E+001  0.9111129E+02  0.7546771E-02  0.1300183E+00
          4   -1    0    0  501    0  0.00000000000E+00  0.00000000000E+00  0.15392771863E+03  0.15392771863E+03  0.00000000000E+00 0. -1.
         -4   -1    0    0    0  501 -0.00000000000E+00 -0.00000000000E+00 -0.13482410533E+02  0.13482410533E+02  0.00000000000E+00 0.  1.
         23    2    1    2    0    0  0.00000000000E+00  0.00000000000E+00  0.14044530810E+03  0.16741012917E+03  0.91111287886E+02 0.  0.
        -11    1    3    3    0    0  0.40526206560E+02 -0.20742663183E+02  0.73233565247E+02  0.86231007027E+02  0.00000000000E+00 0.  1.
         11    1    3    3    0    0 -0.40526206560E+02  0.20742663183E+02  0.67211742852E+02  0.81179122139E+02  0.00000000000E+00 0. -1.
<mgrwt>
<rscale>  0 0.91111288E+02</rscale>
<asrwt>0</asrwt>
<pdfrwt beam="1">  1        4 0.23681186E-01 0.91111288E+02</pdfrwt>
<pdfrwt beam="2">  1       -4 0.20742171E-02 0.91111288E+02</pdfrwt>
<totfact> 0.22872691E+04</totfact>
</mgrwt>
</event>
<event>
 5    1  0.1310593E+001  0.9447797E+02  0.7546771E-02  0.1292356E+00
          1   -1    0    0  501    0  0.00000000000E+00  0.00000000000E+00  0.16768797461E+03  0.16768797461E+03  0.00000000000E+00 0. -1.
         -1   -1    0    0    0  501 -0.00000000000E+00 -0.00000000000E+00 -0.13307584319E+02  0.13307584319E+02  0.00000000000E+00 0.  1.
         23    2    1    2    0    0  0.00000000000E+00  0.00000000000E+00  0.15438039029E+03  0.18099555893E+03  0.94477973334E+02 0.  0.
        -11    1    3    3    0    0 -0.40193540854E+02 -0.44700508475E+01  0.30420161027E+02  0.50605219868E+02  0.00000000000E+00 0.  1.
         11    1    3    3    0    0  0.40193540854E+02  0.44700508475E+01  0.12396022926E+03  0.13039033906E+03  0.00000000000E+00 0. -1.
<mgrwt>
<rscale>  0 0.94477973E+02</rscale>
<asrwt>0</asrwt>
<pdfrwt beam="1">  1        1 0.25798149E-01 0.94477973E+02</pdfrwt>
<pdfrwt beam="2">  1       -1 0.20473208E-02 0.94477973E+02</pdfrwt>
<totfact> 0.10400359E+05</totfact>
</mgrwt>
</event>
<event>
 5    1  0.1310593E+001  0.9402365E+02  0.7546771E-02  0.1293390E+00
         -2   -1    0    0    0  501 -0.00000000000E+00  0.00000000000E+00  0.13139267157E+02  0.13139267157E+02  0.00000000000E+00 0.  1.
          2   -1    0    0  501    0  0.00000000000E+00 -0.00000000000E+00 -0.16820662246E+03  0.16820662246E+03  0.00000000000E+00 0. -1.
         23    2    1    2    0    0  0.00000000000E+00  0.00000000000E+00 -0.15506735530E+03  0.18134588962E+03  0.94023651282E+02 0.  0.
        -13    1    3    3    0    0  0.87952218335E+01  0.46166051835E+02 -0.75209997870E+02  0.88685985639E+02  0.00000000000E+00 0. -1.
         13    1    3    3    0    0 -0.87952218335E+01 -0.46166051835E+02 -0.79857357431E+02  0.92659903977E+02  0.00000000000E+00 0.  1.
<mgrwt>
<rscale>  0 0.94023651E+02</rscale>
<asrwt>0</asrwt>
<pdfrwt beam="2">  1        2 0.25877941E-01 0.94023651E+02</pdfrwt>
<pdfrwt beam="1">  1       -2 0.20214258E-02 0.94023651E+02</pdfrwt>
<totfact> 0.13380335E+05</totfact>
</mgrwt>
</event>
<event>
 5    1  0.1310593E+001  0.1117457E+03  0.7546771E-02  0.1257371E+00
         -2   -1    0    0    0  501 -0.00000000000E+00  0.00000000000E+00  0.84010904891E+01  0.84010904891E+01  0.00000000000E+00 0.  1.
          2   -1    0    0  501    0  0.00000000000E+00 -0.00000000000E+00 -0.37159143829E+03  0.37159143829E+03  0.00000000000E+00 0. -1.
         23    2    1    2    0    0  0.00000000000E+00  0.00000000000E+00 -0.36319034780E+03  0.37999252878E+03  0.11174566297E+03 0.  0.
        -11    1    3    3    0    0  0.35363870011E+02  0.43120529014E+02 -0.19327135422E+03  0.20115615747E+03  0.00000000000E+00 0.  1.
         11    1    3    3    0    0 -0.35363870011E+02 -0.43120529014E+02 -0.16991899358E+03  0.17883637131E+03  0.00000000000E+00 0. -1.
<mgrwt>
<rscale>  0 0.11174566E+03</rscale>
<asrwt>0</asrwt>
<pdfrwt beam="2">  1        2 0.57167922E-01 0.11174566E+03</pdfrwt>
<pdfrwt beam="1">  1       -2 0.12924753E-02 0.11174566E+03</pdfrwt>
<totfact> 0.11251118E+05</totfact>
</mgrwt>
</event>
<event>
 5    1  0.1310593E+001  0.8909505E+02  0.7546771E-02  0.1305058E+00
          1   -1    0    0  501    0  0.00000000000E+00  0.00000000000E+00  0.60123975437E+02  0.60123975437E+02  0.00000000000E+00 0. -1.
         -1   -1    0    0    0  501 -0.00000000000E+00 -0.00000000000E+00 -0.33006500463E+02  0.33006500463E+02  0.00000000000E+00 0.  1.
         23    2    1    2    0    0  0.00000000000E+00  0.00000000000E+00  0.27117474974E+02  0.93130475900E+02  0.89095050886E+02 0.  0.
        -11    1    3    3    0    0 -0.42978493447E+01  0.37214693098E+02 -0.11638627920E+02  0.39228338624E+02  0.00000000000E+00 0.  1.
         11    1    3    3    0    0  0.42978493447E+01 -0.37214693098E+02  0.38756102894E+02  0.53902137276E+02  0.00000000000E+00 0. -1.
<mgrwt>
<rscale>  0 0.89095051E+02</rscale>
<asrwt>0</asrwt>
<pdfrwt beam="1">  1        1 0.92498423E-02 0.89095051E+02</pdfrwt>
<pdfrwt beam="2">  1       -1 0.50779232E-02 0.89095051E+02</pdfrwt>
<totfact> 0.10276223E+05</totfact>
</mgrwt>
</event>
<event>
 5    1  0.1310593E+001  0.9039371E+02  0.7546771E-02  0.1301901E+00
         -2   -1    0    0    0  501 -0.00000000000E+00  0.00000000000E+00  0.19680594725E+02  0.19680594725E+02  0.00000000000E+00 0. -1.
          2   -1    0    0  501    0  0.00000000000E+00 -0.00000000000E+00 -0.10379543159E+03  0.10379543159E+03  0.00000000000E+00 0.  1.
         23    2    1    2    0    0  0.00000000000E+00  0.00000000000E+00 -0.84114836862E+02  0.12347602631E+03  0.90393712689E+02 0.  0.
        -13    1    3    3    0    0  0.43930901628E+02  0.44349872632E+01 -0.55241965209E+02  0.70719643312E+02  0.00000000000E+00 0.  1.
         13    1    3    3    0    0 -0.43930901628E+02 -0.44349872632E+01 -0.28872871653E+02  0.52756383001E+02  0.00000000000E+00 0. -1.
<mgrwt>
<rscale>  0 0.90393713E+02</rscale>
<asrwt>0</asrwt>
<pdfrwt beam="2">  1        2 0.15968528E-01 0.90393713E+02</pdfrwt>
<pdfrwt beam="1">  1       -2 0.30277838E-02 0.90393713E+02</pdfrwt>
<totfact> 0.12705694E+05</totfact>
</mgrwt>
</event>
<event>
 5    1  0.1310593E+001  0.7625673E+02  0.7546771E-02  0.1340023E+00
         -3   -1    0    0    0  501 -0.00000000000E+00  0.00000000000E+00  0.12202460065E+02  0.12202460065E+02  0.00000000000E+00 0.  1.
          3   -1    0    0  501    0  0.00000000000E+00 -0.00000000000E+00 -0.11913762526E+03  0.11913762526E+03  0.00000000000E+00 0. -1.
         23    2    1    2    0    0  0.00000000000E+00  0.00000000000E+00 -0.10693516520E+03  0.13134008532E+03  0.76256727294E+02 0.  0.
        -11    1    3    3    0    0  0.34832713368E+02 -0.15500868718E+02 -0.52742432456E+02  0.65079636085E+02  0.00000000000E+00 0. -1.
         11    1    3    3    0    0 -0.34832713368E+02  0.15500868718E+02 -0.54192732739E+02  0.66260449239E+02  0.00000000000E+00 0.  1.
<mgrwt>
<rscale>  0 0.76256727E+02</rscale>
<asrwt>0</asrwt>
<pdfrwt beam="2">  1        3 0.18328865E-01 0.76256727E+02</pdfrwt>
<pdfrwt beam="1">  1       -3 0.18773016E-02 0.76256727E+02</pdfrwt>
<totfact> 0.52460952E+04</totfact>
</mgrwt>
</event>
<event>
 5    1  0.1310593E+001  0.9277326E+02  0.7546771E-02  0.1296271E+00
          2   -1    0    0  501    0  0.00000000000E+00  0.00000000000E+00  0.29786667236E+02  0.29786667236E+02  0.00000000000E+00 0. -1.
         -2   -1    0    0    0  501 -0.00000000000E+00 -0.00000000000E+00 -0.72237676068E+02  0.72237676068E+02  0.00000000000E+00 0.  1.
         23    2    1    2    0    0  0.00000000000E+00  0.00000000000E+00 -0.42451008832E+02  0.10202434330E+03  0.92773263797E+02 0.  0.
        -13    1    3    3    0    0 -0.15201489151E+02  0.21744424414E+02  0.20618901991E+02  0.33601255703E+02  0.00000000000E+00 0. -1.
         13    1    3    3    0    0  0.15201489151E+02 -0.21744424414E+02 -0.63069910823E+02  0.68423087600E+02  0.00000000000E+00 0.  1.
<mgrwt>
<rscale>  0 0.92773264E+02</rscale>
<asrwt>0</asrwt>
<pdfrwt beam="1">  1        2 0.45825642E-02 0.92773264E+02</pdfrwt>
<pdfrwt beam="2">  1       -2 0.11113489E-01 0.92773264E+02</pdfrwt>
<totfact> 0.83848026E+04</totfact>
</mgrwt>
</event>
<event>
 5    1  0.1310593E+001  0.9571006E+02  0.7546771E-02  0.1289585E+00
          2   -1    0    0  501    0  0.00000000000E+00  0.00000000000E+00  0.74731950434E+02  0.74731950434E+02  0.00000000000E+00 0. -1.
         -2   -1    0    0    0  501 -0.00000000000E+00 -0.00000000000E+00 -0.30644237994E+02  0.30644237994E+02  0.00000000000E+00 0.  1.
         23    2    1    2    0    0  0.00000000000E+00  0.00000000000E+00  0.44087712440E+02  0.10537618843E+03  0.95710055373E+02 0.  0.
        -11    1    3    3    0    0 -0.37630641552E+02 -0.50665544499E+01 -0.10024536238E+02  0.39271191533E+02  0.00000000000E+00 0.  1.
         11    1    3    3    0    0  0.37630641552E+02  0.50665544499E+01  0.54112248678E+02  0.66104996896E+02  0.00000000000E+00 0. -1.
<mgrwt>
<rscale>  0 0.95710055E+02</rscale>
<asrwt>0</asrwt>
<pdfrwt beam="1">  1        2 0.11497223E-01 0.95710055E+02</pdfrwt>
<pdfrwt beam="2">  1       -2 0.47144982E-02 0.95710055E+02</pdfrwt>
<totfact> 0.98335723E+04</totfact>
</mgrwt>
</event>
<event>
 5    1  0.1310593E+001  0.9204644E+02  0.7546771E-02  0.1297970E+00
         -2   -1    0    0    0  501 -0.00000000000E+00  0.00000000000E+00  0.21716462154E+02  0.21716462154E+02  0.00000000000E+00 0.  1.
          2   -1    0    0  501    0  0.00000000000E+00 -0.00000000000E+00 -0.97536005990E+02  0.97536005990E+02  0.00000000000E+00 0. -1.
         23    2    1    2    0    0  0.00000000000E+00  0.00000000000E+00 -0.75819543836E+02  0.11925246814E+03  0.92046444424E+02 0.  0.
        -11    1    3    3    0    0  0.27674530370E+02 -0.26641327617E+02 -0.70749225030E+02  0.80505234679E+02  0.00000000000E+00 0. -1.
         11    1    3    3    0    0 -0.27674530370E+02  0.26641327617E+02 -0.50703188057E+01  0.38747233465E+02  0.00000000000E+00 0.  1.
<mgrwt>
<rscale>  0 0.92046444E+02</rscale>
<asrwt>0</asrwt>
<pdfrwt beam="2">  1        2 0.15005539E-01 0.92046444E+02</pdfrwt>
<pdfrwt beam="1">  1       -2 0.33409942E-02 0.92046444E+02</pdfrwt>
<totfact> 0.11860240E+05</totfact>
</mgrwt>
</event>
<event>
 5    1  0.1310593E+001  0.9113951E+02  0.7546771E-02  0.1300115E+00
         -3   -1    0    0    0  501 -0.00000000000E+00  0.00000000000E+00  0.26832871618E+02  0.26832871618E+02  0.00000000000E+00 0.  1.
          3   -1    0    0  501    0  0.00000000000E+00 -0.00000000000E+00 -0.77390246434E+02  0.77390246434E+02  0.00000000000E+00 0. -1.
         23    2    1    2    0    0  0.00000000000E+00  0.00000000000E+00 -0.50557374815E+02  0.10422311805E+03  0.91139509480E+02 0.  0.
        -13    1    3    3    0    0 -0.23032663722E+02  0.19326954084E+02  0.13879840410E+02  0.33116230493E+02  0.00000000000E+00 0.  1.
         13    1    3    3    0    0  0.23032663722E+02 -0.19326954084E+02 -0.64437215226E+02  0.71106887559E+02  0.00000000000E+00 0. -1.
<mgrwt>
<rscale>  0 0.91139509E+02</rscale>
<asrwt>0</asrwt>
<pdfrwt beam="2">  1        3 0.11906192E-01 0.91139509E+02</pdfrwt>
<pdfrwt beam="1">  1       -3 0.41281340E-02 0.91139509E+02</pdfrwt>
<totfact> 0.34399215E+04</totfact>
</mgrwt>
</event>
<event>
 5    1  0.1310593E+001  0.9050763E+02  0.7546771E-02  0.1301627E+00
          1   -1    0    0  501    0  0.00000000000E+00  0.00000000000E+00  0.11858103951E+03  0.11858103951E+03  0.00000000000E+00 0. -1.
         -1   -1    0    0    0  501 -0.00000000000E+00 -0.00000000000E+00 -0.17270111078E+02  0.17270111078E+02  0.00000000000E+00 0.  1.
         23    2    1    2    0    0  0.00000000000E+00  0.00000000000E+00  0.10131092843E+03  0.13585115058E+03  0.90507628939E+02 0.  0.
        -11    1    3    3    0    0  0.11147441200E+02 -0.40296892014E+02  0.24666082013E+02  0.48544006356E+02  0.00000000000E+00 0.  1.
         11    1    3    3    0    0 -0.11147441200E+02  0.40296892014E+02  0.76644846416E+02  0.87307144228E+02  0.00000000000E+00 0. -1.
<mgrwt>
<rscale>  0 0.90507629E+02</rscale>
<asrwt>0</asrwt>
<pdfrwt beam="1">  1        1 0.18243236E-01 0.90507629E+02</pdfrwt>
<pdfrwt beam="2">  1       -1 0.26569402E-02 0.90507629E+02</pdfrwt>
<totfact> 0.10968490E+05</totfact>
</mgrwt>
</event>
<event>
 5    1  0.1310593E+001  0.9097526E+02  0.7546771E-02  0.1300507E+00
          1   -1    0    0  501    0  0.00000000000E+00  0.00000000000E+00  0.32177007799E+03  0.32177007799E+03  0.00000000000E+00 0. -1.
         -1   -1    0    0    0  501 -0.00000000000E+00 -0.00000000000E+00 -0.64304439243E+01  0.64304439243E+01  0.00000000000E+00 0.  1.
         23    2    1    2    0    0  0.00000000000E+00  0.00000000000E+00  0.31533963407E+03  0.32820052192E+03  0.90975259122E+02 0.  0.
        -11    1    3    3    0    0  0.40869874940E+02 -0.16164193488E+02  0.19997192100E+03  0.20474471181E+03  0.00000000000E+00 0. -1.
         11    1    3    3    0    0 -0.40869874940E+02  0.16164193488E+02  0.11536771307E+03  0.12345581010E+03  0.00000000000E+00 0.  1.
<mgrwt>
<rscale>  0 0.90975259E+02</rscale>
<asrwt>0</asrwt>
<pdfrwt beam="1">  1        1 0.49503076E-01 0.90975259E+02</pdfrwt>
<pdfrwt beam="2">  1       -1 0.98929932E-03 0.90975259E+02</pdfrwt>
<totfact> 0.13059203E+05</totfact>
</mgrwt>
</event>
<event>
 5    1  0.1310593E+001  0.8882752E+02  0.7546771E-02  0.1305716E+00
          1   -1    0    0  501    0  0.00000000000E+00  0.00000000000E+00  0.41569611958E+03  0.41569611958E+03  0.00000000000E+00 0. -1.
         -1   -1    0    0    0  501 -0.00000000000E+00 -0.00000000000E+00 -0.47452497712E+01  0.47452497712E+01  0.00000000000E+00 0.  1.
         23    2    1    2    0    0  0.00000000000E+00  0.00000000000E+00  0.41095086980E+03  0.42044136935E+03  0.88827516374E+02 0.  0.
        -13    1    3    3    0    0 -0.24103615529E+02  0.37244018484E+02  0.21549460887E+03  0.22001369877E+03  0.00000000000E+00 0.  1.
         13    1    3    3    0    0  0.24103615529E+02 -0.37244018484E+02  0.19545626093E+03  0.20042767057E+03  0.00000000000E+00 0. -1.
<mgrwt>
<rscale>  0 0.88827516E+02</rscale>
<asrwt>0</asrwt>
<pdfrwt beam="1">  1        1 0.63953221E-01 0.88827516E+02</pdfrwt>
<pdfrwt beam="2">  1       -1 0.73003875E-03 0.88827516E+02</pdfrwt>
<totfact> 0.14544948E+05</totfact>
</mgrwt>
</event>
<event>
 5    1  0.1310593E+001  0.9170493E+02  0.7546771E-02  0.1298775E+00
          1   -1    0    0  501    0  0.00000000000E+00  0.00000000000E+00  0.36650453533E+02  0.36650453533E+02  0.00000000000E+00 0. -1.
         -1   -1    0    0    0  501 -0.00000000000E+00 -0.00000000000E+00 -0.57364867377E+02  0.57364867377E+02  0.00000000000E+00 0.  1.
         23    2    1    2    0    0  0.00000000000E+00  0.00000000000E+00 -0.20714413844E+02  0.94015320909E+02  0.91704926938E+02 0.  0.
        -11    1    3    3    0    0  0.43343284180E+02  0.86037009083E+01 -0.22904190599E+02  0.49772139795E+02  0.00000000000E+00 0.  1.
         11    1    3    3    0    0 -0.43343284180E+02 -0.86037009083E+01  0.21897767541E+01  0.44243181114E+02  0.00000000000E+00 0. -1.
<mgrwt>
<rscale>  0 0.91704927E+02</rscale>
<asrwt>0</asrwt>
<pdfrwt beam="1">  1        1 0.56385313E-02 0.91704927E+02</pdfrwt>
<pdfrwt beam="2">  1       -1 0.88253642E-02 0.91704927E+02</pdfrwt>
<totfact> 0.88003009E+04</totfact>
</mgrwt>
</event>
<event>
 5    1  0.1310593E+001  0.9013377E+02  0.7546771E-02  0.1302528E+00
          1   -1    0    0  501    0  0.00000000000E+00  0.00000000000E+00  0.17866451016E+02  0.17866451016E+02  0.00000000000E+00 0. -1.
         -1   -1    0    0    0  501 -0.00000000000E+00 -0.00000000000E+00 -0.11367809078E+03  0.11367809078E+03  0.00000000000E+00 0.  1.
         23    2    1    2    0    0  0.00000000000E+00  0.00000000000E+00 -0.95811639764E+02  0.13154454180E+03  0.90133768157E+02 0.  0.
        -11    1    3    3    0    0 -0.40898156910E+02  0.17738774349E+02 -0.57553645267E+02  0.72799350530E+02  0.00000000000E+00 0.  1.
         11    1    3    3    0    0  0.40898156910E+02 -0.17738774349E+02 -0.38257994497E+02  0.58745191267E+02  0.00000000000E+00 0. -1.
<mgrwt>
<rscale>  0 0.90133768E+02</rscale>
<asrwt>0</asrwt>
<pdfrwt beam="1">  1        1 0.27486847E-02 0.90133768E+02</pdfrwt>
<pdfrwt beam="2">  1       -1 0.17488937E-01 0.90133768E+02</pdfrwt>
<totfact> 0.81783666E+04</totfact>
</mgrwt>
</event>
<event>
 5    1  0.1310593E+001  0.9010763E+02  0.7546771E-02  0.1302591E+00
          1   -1    0    0  501    0  0.00000000000E+00  0.00000000000E+00  0.25444874455E+02  0.25444874455E+02  0.00000000000E+00 0. -1.
         -1   -1    0    0    0  501 -0.00000000000E+00 -0.00000000000E+00 -0.79774275398E+02  0.79774275398E+02  0.00000000000E+00 0.  1.
         23    2    1    2    0    0  0.00000000000E+00  0.00000000000E+00 -0.54329400944E+02  0.10521914985E+03  0.90107633910E+02 0.  0.
        -13    1    3    3    0    0 -0.24769233324E+01  0.16912816142E+02  0.21511491437E+02  0.27475857819E+02  0.00000000000E+00 0. -1.
         13    1    3    3    0    0  0.24769233324E+01 -0.16912816142E+02 -0.75840892381E+02  0.77743292033E+02  0.00000000000E+00 0.  1.
<mgrwt>
<rscale>  0 0.90107634E+02</rscale>
<asrwt>0</asrwt>
<pdfrwt beam="1">  1        1 0.39145960E-02 0.90107634E+02</pdfrwt>
<pdfrwt beam="2">  1       -1 0.12272966E-01 0.90107634E+02</pdfrwt>
<totfact> 0.87284713E+04</totfact>
</mgrwt>
</event>
<event>
 5    1  0.1310593E+001  0.9807987E+02  0.7546771E-02  0.1284386E+00
          2   -1    0    0  501    0  0.00000000000E+00  0.00000000000E+00  0.15657081334E+03  0.15657081334E+03  0.00000000000E+00 0. -1.
         -2   -1    0    0    0  501 -0.00000000000E+00 -0.00000000000E+00 -0.15359918991E+02  0.15359918991E+02  0.00000000000E+00 0.  1.
         23    2    1    2    0    0  0.00000000000E+00  0.00000000000E+00  0.14121089435E+03  0.17193073233E+03  0.98079865604E+02 0.  0.
        -11    1    3    3    0    0  0.15882565495E+02 -0.28306998045E+02  0.61645961461E+01  0.33038527066E+02  0.00000000000E+00 0.  1.
         11    1    3    3    0    0 -0.15882565495E+02  0.28306998045E+02  0.13504629820E+03  0.13889220526E+03  0.00000000000E+00 0. -1.
<mgrwt>
<rscale>  0 0.98079866E+02</rscale>
<asrwt>0</asrwt>
<pdfrwt beam="1">  1        2 0.24087816E-01 0.98079866E+02</pdfrwt>
<pdfrwt beam="2">  1       -2 0.23630646E-02 0.98079866E+02</pdfrwt>
<totfact> 0.11628512E+05</totfact>
</mgrwt>
</event>
<event>
 5    1  0.1310593E+001  0.9146105E+02  0.7546771E-02  0.1299352E+00
          2   -1    0    0  501    0  0.00000000000E+00  0.00000000000E+00  0.39926434826E+02  0.39926434826E+02  0.00000000000E+00 0. -1.
         -2   -1    0    0    0  501 -0.00000000000E+00 -0.00000000000E+00 -0.52378356166E+02  0.52378356166E+02  0.00000000000E+00 0.  1.
         23    2    1    2    0    0  0.00000000000E+00  0.00000000000E+00 -0.12451921340E+02  0.92304790993E+02  0.91461052340E+02 0.  0.
        -11    1    3    3    0    0  0.16290373977E+01  0.36504602990E+02 -0.33975820055E+02  0.49895853041E+02  0.00000000000E+00 0.  1.
         11    1    3    3    0    0 -0.16290373977E+01 -0.36504602990E+02  0.21523898715E+02  0.42408937952E+02  0.00000000000E+00 0. -1.
<mgrwt>
<rscale>  0 0.91461052E+02</rscale>
<asrwt>0</asrwt>
<pdfrwt beam="1">  1        2 0.61425285E-02 0.91461052E+02</pdfrwt>
<pdfrwt beam="2">  1       -2 0.80582086E-02 0.91461052E+02</pdfrwt>
<totfact> 0.94486067E+04</totfact>
</mgrwt>
</event>
<event>
 5    1  0.1310593E+001  0.9017607E+02  0.7546771E-02  0.1302426E+00
         -2   -1    0    0    0  501 -0.00000000000E+00  0.00000000000E+00  0.11170001810E+02  0.11170001810E+02  0.00000000000E+00 0.  1.
          2   -1    0    0  501    0  0.00000000000E+00 -0.00000000000E+00 -0.18199914532E+03  0.18199914532E+03  0.00000000000E+00 0. -1.
         23    2    1    2    0    0  0.00000000000E+00  0.00000000000E+00 -0.17082914351E+03  0.19316914713E+03  0.90176067396E+02 0.  0.
        -11    1    3    3    0    0 -0.21217497408E+02  0.32104061682E+02 -0.13574685321E+03  0.14109592882E+03  0.00000000000E+00 0.  1.
         11    1    3    3    0    0  0.21217497408E+02 -0.32104061682E+02 -0.35082290301E+02  0.52073218314E+02  0.00000000000E+00 0. -1.
<mgrwt>
<rscale>  0 0.90176067E+02</rscale>
<asrwt>0</asrwt>
<pdfrwt beam="2">  1        2 0.27999866E-01 0.90176067E+02</pdfrwt>
<pdfrwt beam="1">  1       -2 0.17184620E-02 0.90176067E+02</pdfrwt>
<totfact> 0.15404789E+05</totfact>
</mgrwt>
</event>
<event>
 5    1  0.1310593E+001  0.1024534E+03  0.7546771E-02  0.1275220E+00
         -1   -1    0    0    0  501 -0.00000000000E+00  0.00000000000E+00  0.25533913880E+02  0.25533913880E+02  0.00000000000E+00 0.  1.
          1   -1    0    0  501    0  0.00000000000E+00 -0.00000000000E+00 -0.10277206007E+03  0.10277206007E+03  0.00000000000E+00 0. -1.
         23    2    1    2    0    0  0.00000000000E+00  0.00000000000E+00 -0.77238146189E+02  0.12830597395E+03  0.10245336365E+03 0.  0.
        -11    1    3    3    0    0  0.18975676233E+02  0.26431996912E+00  0.20969287321E+02  0.28281746133E+02  0.00000000000E+00 0.  1.
         11    1    3    3    0    0 -0.18975676233E+02 -0.26431996912E+00 -0.98207433510E+02  0.10002422782E+03  0.00000000000E+00 0. -1.
<mgrwt>
<rscale>  0 0.10245336E+03</rscale>
<asrwt>0</asrwt>
<pdfrwt beam="2">  1        1 0.15811086E-01 0.10245336E+03</pdfrwt>
<pdfrwt beam="1">  1       -1 0.39282944E-02 0.10245336E+03</pdfrwt>
<totfact> 0.76176255E+04</totfact>
</mgrwt>
</event>
<event>
 5    1  0.1310593E+001  0.9016452E+02  0.7546771E-02  0.1302454E+00
         -2   -1    0    0    0  501 -0.00000000000E+00  0.00000000000E+00  0.17246846526E+02  0.17246846526E+02  0.00000000000E+00 0.  1.
          2   -1    0    0  501    0  0.00000000000E+00 -0.00000000000E+00 -0.11784241459E+03  0.11784241459E+03  0.00000000000E+00 0. -1.
         23    2    1    2    0    0  0.00000000000E+00  0.00000000000E+00 -0.10059556806E+03  0.13508926112E+03  0.90164517162E+02 0.  0.
        -13    1    3    3    0    0 -0.11203099520E+02 -0.26086404751E+02  0.21710304162E+01  0.28473203626E+02  0.00000000000E+00 0.  1.
         13    1    3    3    0    0  0.11203099520E+02  0.26086404751E+02 -0.10276659848E+03  0.10661605749E+03  0.00000000000E+00 0. -1.
<mgrwt>
<rscale>  0 0.90164517E+02</rscale>
<asrwt>0</asrwt>
<pdfrwt beam="2">  1        2 0.18129602E-01 0.90164517E+02</pdfrwt>
<pdfrwt beam="1">  1       -2 0.26533611E-02 0.90164517E+02</pdfrwt>
<totfact> 0.13311237E+05</totfact>
</mgrwt>
</event>
<event>
 5    1  0.1310593E+001  0.8859947E+02  0.7546771E-02  0.1306279E+00
          2   -1    0    0  501    0  0.00000000000E+00  0.00000000000E+00  0.98772860665E+02  0.98772860665E+02  0.00000000000E+00 0. -1.
         -2   -1    0    0    0  501 -0.00000000000E+00 -0.00000000000E+00 -0.19868478644E+02  0.19868478644E+02  0.00000000000E+00 0.  1.
         23    2    1    2    0    0  0.00000000000E+00  0.00000000000E+00  0.78904382020E+02  0.11864133931E+03  0.88599468909E+02 0.  0.
        -13    1    3    3    0    0  0.42247143463E+02  0.10936950205E+02  0.49652784785E+02  0.66104743003E+02  0.00000000000E+00 0. -1.
         13    1    3    3    0    0 -0.42247143463E+02 -0.10936950205E+02  0.29251597235E+02  0.52536596306E+02  0.00000000000E+00 0.  1.
<mgrwt>
<rscale>  0 0.88599469E+02</rscale>
<asrwt>0</asrwt>
<pdfrwt beam="1">  1        2 0.15195824E-01 0.88599469E+02</pdfrwt>
<pdfrwt beam="2">  1       -2 0.30566891E-02 0.88599469E+02</pdfrwt>
<totfact> 0.13223052E+05</totfact>
</mgrwt>
</event>
<event>
 5    1  0.1310593E+001  0.8834344E+02  0.7546771E-02  0.1306914E+00
         -3   -1    0    0    0  501 -0.00000000000E+00  0.00000000000E+00  0.86283565018E+02  0.86283565018E+02  0.00000000000E+00 0.  1.
          3   -1    0    0  501    0  0.00000000000E+00 -0.00000000000E+00 -0.22613121911E+02  0.22613121911E+02  0.00000000000E+00 0. -1.
         23    2    1    2    0    0  0.00000000000E+00  0.00000000000E+00  0.63670443107E+02  0.10889668693E+03  0.88343438346E+02 0.  0.
        -13    1    3    3    0    0 -0.33559617146E+02  0.27554778237E+02  0.41820998710E+02  0.60286894428E+02  0.00000000000E+00 0.  1.
         13    1    3    3    0    0  0.33559617146E+02 -0.27554778237E+02  0.21849444397E+02  0.48609792502E+02  0.00000000000E+00 0. -1.
<mgrwt>
<rscale>  0 0.88343438E+02</rscale>
<asrwt>0</asrwt>
<pdfrwt beam="2">  1        3 0.34789419E-02 0.88343438E+02</pdfrwt>
<pdfrwt beam="1">  1       -3 0.13274394E-01 0.88343438E+02</pdfrwt>
<totfact> 0.37063925E+04</totfact>
</mgrwt>
</event>
<event>
 5    1  0.1310593E+001  0.9450019E+02  0.7546771E-02  0.1292306E+00
         -1   -1    0    0    0  501 -0.00000000000E+00  0.00000000000E+00  0.37823191851E+02  0.37823191851E+02  0.00000000000E+00 0.  1.
          1   -1    0    0  501    0  0.00000000000E+00 -0.00000000000E+00 -0.59026519106E+02  0.59026519106E+02  0.00000000000E+00 0. -1.
         23    2    1    2    0    0  0.00000000000E+00  0.00000000000E+00 -0.21203327255E+02  0.96849710958E+02  0.94500187439E+02 0.  0.
        -11    1    3    3    0    0  0.66121447000E+01  0.37786707054E+02 -0.38874049421E+02  0.54614534749E+02  0.00000000000E+00 0. -1.
         11    1    3    3    0    0 -0.66121447000E+01 -0.37786707054E+02  0.17670722166E+02  0.42235176208E+02  0.00000000000E+00 0.  1.
<mgrwt>
<rscale>  0 0.94500187E+02</rscale>
<asrwt>0</asrwt>
<pdfrwt beam="2">  1        1 0.90810028E-02 0.94500187E+02</pdfrwt>
<pdfrwt beam="1">  1       -1 0.58189527E-02 0.94500187E+02</pdfrwt>
<totfact> 0.87008680E+04</totfact>
</mgrwt>
</event>
<event>
 5    1  0.1310593E+001  0.9205274E+02  0.7546771E-02  0.1297955E+00
          2   -1    0    0  501    0  0.00000000000E+00  0.00000000000E+00  0.22321071219E+03  0.22321071219E+03  0.00000000000E+00 0. -1.
         -2   -1    0    0    0  501 -0.00000000000E+00 -0.00000000000E+00 -0.94907033443E+01  0.94907033443E+01  0.00000000000E+00 0.  1.
         23    2    1    2    0    0  0.00000000000E+00  0.00000000000E+00  0.21372000885E+03  0.23270141553E+03  0.92052738203E+02 0.  0.
        -11    1    3    3    0    0 -0.44987552598E+02  0.55099534267E+01  0.86607140176E+02  0.97749865498E+02  0.00000000000E+00 0.  1.
         11    1    3    3    0    0  0.44987552598E+02 -0.55099534267E+01  0.12711286867E+03  0.13495155004E+03  0.00000000000E+00 0. -1.
<mgrwt>
<rscale>  0 0.92052738E+02</rscale>
<asrwt>0</asrwt>
<pdfrwt beam="1">  1        2 0.34340105E-01 0.92052738E+02</pdfrwt>
<pdfrwt beam="2">  1       -2 0.14601084E-02 0.92052738E+02</pdfrwt>
<totfact> 0.15690706E+05</totfact>
</mgrwt>
</event>
<event>
 5    1  0.1310593E+001  0.8791927E+02  0.7546771E-02  0.1307970E+00
          3   -1    0    0  501    0  0.00000000000E+00  0.00000000000E+00  0.19105617729E+02  0.19105617729E+02  0.00000000000E+00 0. -1.
         -3   -1    0    0    0  501 -0.00000000000E+00 -0.00000000000E+00 -0.10114562109E+03  0.10114562109E+03  0.00000000000E+00 0.  1.
         23    2    1    2    0    0  0.00000000000E+00  0.00000000000E+00 -0.82040003359E+02  0.12025123882E+03  0.87919271413E+02 0.  0.
        -11    1    3    3    0    0  0.42833979366E+02 -0.66210305429E+01 -0.30982037095E+02  0.53277335297E+02  0.00000000000E+00 0.  1.
         11    1    3    3    0    0 -0.42833979366E+02  0.66210305429E+01 -0.51057966263E+02  0.66973903520E+02  0.00000000000E+00 0. -1.
<mgrwt>
<rscale>  0 0.87919271E+02</rscale>
<asrwt>0</asrwt>
<pdfrwt beam="1">  1        3 0.29393257E-02 0.87919271E+02</pdfrwt>
<pdfrwt beam="2">  1       -3 0.15560865E-01 0.87919271E+02</pdfrwt>
<totfact> 0.36668999E+04</totfact>
</mgrwt>
</event>
<event>
 5    1  0.1310593E+001  0.9134760E+02  0.7546771E-02  0.1299621E+00
         -1   -1    0    0    0  501 -0.00000000000E+00  0.00000000000E+00  0.77064015891E+01  0.77064015891E+01  0.00000000000E+00 0.  1.
          1   -1    0    0  501    0  0.00000000000E+00 -0.00000000000E+00 -0.27069651683E+03  0.27069651683E+03  0.00000000000E+00 0. -1.
         23    2    1    2    0    0  0.00000000000E+00  0.00000000000E+00 -0.26299011524E+03  0.27840291842E+03  0.91347601336E+02 0.  0.
        -13    1    3    3    0    0 -0.38327114238E+01 -0.38662403385E+02 -0.58309842693E+02  0.70067887561E+02  0.00000000000E+00 0.  1.
         13    1    3    3    0    0  0.38327114238E+01  0.38662403385E+02 -0.20468027255E+03  0.20833503086E+03  0.00000000000E+00 0. -1.
<mgrwt>
<rscale>  0 0.91347601E+02</rscale>
<asrwt>0</asrwt>
<pdfrwt beam="2">  1        1 0.41645604E-01 0.91347601E+02</pdfrwt>
<pdfrwt beam="1">  1       -1 0.11856007E-02 0.91347601E+02</pdfrwt>
<totfact> 0.12497934E+05</totfact>
</mgrwt>
</event>
<event>
 5    1  0.1310593E+001  0.9474063E+02  0.7546771E-02  0.1291761E+00
         -3   -1    0    0    0  501 -0.00000000000E+00  0.00000000000E+00  0.10432265696E+02  0.10432265696E+02  0.00000000000E+00 0.  1.
          3   -1    0    0  501    0  0.00000000000E+00 -0.00000000000E+00 -0.21509678177E+03  0.21509678177E+03  0.00000000000E+00 0. -1.
         23    2    1    2    0    0  0.00000000000E+00  0.00000000000E+00 -0.20466451607E+03  0.22552904747E+03  0.94740630729E+02 0.  0.
        -11    1    3    3    0    0 -0.35436130356E+02 -0.30855458870E+02 -0.11664850123E+03  0.12575631800E+03  0.00000000000E+00 0.  1.
         11    1    3    3    0    0  0.35436130356E+02  0.30855458870E+02 -0.88016014840E+02  0.99772729466E+02  0.00000000000E+00 0. -1.
<mgrwt>
<rscale>  0 0.94740631E+02</rscale>
<asrwt>0</asrwt>
<pdfrwt beam="2">  1        3 0.33091812E-01 0.94740631E+02</pdfrwt>
<pdfrwt beam="1">  1       -3 0.16049640E-02 0.94740631E+02</pdfrwt>
<totfact> 0.24549254E+04</totfact>
</mgrwt>
</event>
<event>
 5    1  0.1310593E+001  0.9129596E+02  0.7546771E-02  0.1299743E+00
         -1   -1    0    0    0  501 -0.00000000000E+00  0.00000000000E+00  0.12673721550E+03  0.12673721550E+03  0.00000000000E+00 0.  1.
          1   -1    0    0  501    0  0.00000000000E+00 -0.00000000000E+00 -0.16441407178E+02  0.16441407178E+02  0.00000000000E+00 0. -1.
         23    2    1    2    0    0  0.00000000000E+00  0.00000000000E+00  0.11029580832E+03  0.14317862268E+03  0.91295961897E+02 0.  0.
        -11    1    3    3    0    0 -0.39977731904E+02 -0.21985562317E+02  0.57449696812E+02  0.73362467669E+02  0.00000000000E+00 0.  1.
         11    1    3    3    0    0  0.39977731904E+02  0.21985562317E+02  0.52846111507E+02  0.69816155007E+02  0.00000000000E+00 0. -1.
<mgrwt>
<rscale>  0 0.91295962E+02</rscale>
<asrwt>0</asrwt>
<pdfrwt beam="2">  1        1 0.25294473E-02 0.91295962E+02</pdfrwt>
<pdfrwt beam="1">  1       -1 0.19498032E-01 0.91295962E+02</pdfrwt>
<totfact> 0.77381600E+04</totfact>
</mgrwt>
</event>
<event>
 5    1  0.1310593E+001  0.9148327E+02  0.7546771E-02  0.1299299E+00
          2   -1    0    0  501    0  0.00000000000E+00  0.00000000000E+00  0.22669314742E+02  0.22669314742E+02  0.00000000000E+00 0. -1.
         -2   -1    0    0    0  501 -0.00000000000E+00 -0.00000000000E+00 -0.92296437024E+02  0.92296437024E+02  0.00000000000E+00 0.  1.
         23    2    1    2    0    0  0.00000000000E+00  0.00000000000E+00 -0.69627122283E+02  0.11496575177E+03  0.91483265802E+02 0.  0.
        -13    1    3    3    0    0  0.40236617801E+02 -0.20985413661E+02 -0.27602768605E+02  0.53115777630E+02  0.00000000000E+00 0.  1.
         13    1    3    3    0    0 -0.40236617801E+02  0.20985413661E+02 -0.42024353677E+02  0.61849974136E+02  0.00000000000E+00 0. -1.
<mgrwt>
<rscale>  0 0.91483266E+02</rscale>
<asrwt>0</asrwt>
<pdfrwt beam="1">  1        2 0.34875868E-02 0.91483266E+02</pdfrwt>
<pdfrwt beam="2">  1       -2 0.14199452E-01 0.91483266E+02</pdfrwt>
<totfact> 0.81031588E+04</totfact>
</mgrwt>
</event>
<event>
 5    1  0.1310593E+001  0.7757125E+02  0.7546771E-02  0.1336089E+00
          2   -1    0    0  501    0  0.00000000000E+00  0.00000000000E+00  0.20561830313E+02  0.20561830313E+02  0.00000000000E+00 0. -1.
         -2   -1    0    0    0  501 -0.00000000000E+00 -0.00000000000E+00 -0.73161030104E+02  0.73161030104E+02  0.00000000000E+00 0.  1.
         23    2    1    2    0    0  0.00000000000E+00  0.00000000000E+00 -0.52599199791E+02  0.93722860417E+02  0.77571249482E+02 0.  0.
        -11    1    3    3    0    0  0.22648514675E+02  0.26998957262E+02 -0.67270236669E+01  0.35876897269E+02  0.00000000000E+00 0. -1.
         11    1    3    3    0    0 -0.22648514675E+02 -0.26998957262E+02 -0.45872176125E+02  0.57845963149E+02  0.00000000000E+00 0.  1.
<mgrwt>
<rscale>  0 0.77571249E+02</rscale>
<asrwt>0</asrwt>
<pdfrwt beam="1">  1        2 0.31633584E-02 0.77571249E+02</pdfrwt>
<pdfrwt beam="2">  1       -2 0.11255543E-01 0.77571249E+02</pdfrwt>
<totfact> 0.12951728E+05</totfact>
</mgrwt>
</event>
<event>
 5    1  0.1310593E+001  0.9161260E+02  0.7546771E-02  0.1298993E+00
         -2   -1    0    0    0  501 -0.00000000000E+00  0.00000000000E+00  0.98053683718E+01  0.98053683718E+01  0.00000000000E+00 0.  1.
          2   -1    0    0  501    0  0.00000000000E+00 -0.00000000000E+00 -0.21398656203E+03  0.21398656203E+03  0.00000000000E+00 0. -1.
         23    2    1    2    0    0  0.00000000000E+00  0.00000000000E+00 -0.20418119366E+03  0.22379193041E+03  0.91612598858E+02 0.  0.
        -11    1    3    3    0    0  0.90941930888E+01 -0.41968379203E+02 -0.14103540248E+03  0.14742806365E+03  0.00000000000E+00 0.  1.
         11    1    3    3    0    0 -0.90941930888E+01  0.41968379203E+02 -0.63145791184E+02  0.76363866751E+02  0.00000000000E+00 0. -1.
<mgrwt>
<rscale>  0 0.91612599E+02</rscale>
<asrwt>0</asrwt>
<pdfrwt beam="2">  1        2 0.32921008E-01 0.91612599E+02</pdfrwt>
<pdfrwt beam="1">  1       -2 0.15085183E-02 0.91612599E+02</pdfrwt>
<totfact> 0.15650508E+05</totfact>
</mgrwt>
</event>
<event>
 5    1  0.1310593E+001  0.9107461E+02  0.7546771E-02  0.1300270E+00
         -3   -1    0    0    0  501 -0.00000000000E+00  0.00000000000E+00  0.13272649600E+03  0.13272649600E+03  0.00000000000E+00 0.  1.
          3   -1    0    0  501    0  0.00000000000E+00 -0.00000000000E+00 -0.15623454243E+02  0.15623454243E+02  0.00000000000E+00 0. -1.
         23    2    1    2    0    0  0.00000000000E+00  0.00000000000E+00  0.11710304176E+03  0.14834995024E+03  0.91074614182E+02 0.  0.
        -11    1    3    3    0    0 -0.30438788818E+01 -0.23125876519E+02  0.12225680390E+03  0.12446203222E+03  0.00000000000E+00 0.  1.
         11    1    3    3    0    0  0.30438788818E+01  0.23125876519E+02 -0.51537621436E+01  0.23887918027E+02  0.00000000000E+00 0. -1.
<mgrwt>
<rscale>  0 0.91074614E+02</rscale>
<asrwt>0</asrwt>
<pdfrwt beam="2">  1        3 0.24036084E-02 0.91074614E+02</pdfrwt>
<pdfrwt beam="1">  1       -3 0.20419460E-01 0.91074614E+02</pdfrwt>
<totfact> 0.31505129E+04</totfact>
</mgrwt>
</event>
<event>
 5    1  0.1310593E+001  0.7307808E+02  0.7546771E-02  0.1349928E+00
          1   -1    0    0  501    0  0.00000000000E+00  0.00000000000E+00  0.35188828205E+03  0.35188828205E+03  0.00000000000E+00 0. -1.
         -1   -1    0    0    0  501 -0.00000000000E+00 -0.00000000000E+00 -0.37941062331E+01  0.37941062331E+01  0.00000000000E+00 0.  1.
         23    2    1    2    0    0  0.00000000000E+00  0.00000000000E+00  0.34809417582E+03  0.35568238829E+03  0.73078082195E+02 0.  0.
        -11    1    3    3    0    0  0.24676185600E+02  0.26944540086E+02  0.17610715475E+03  0.17985731103E+03  0.00000000000E+00 0. -1.
         11    1    3    3    0    0 -0.24676185600E+02 -0.26944540086E+02  0.17198702107E+03  0.17582507725E+03  0.00000000000E+00 0.  1.
<mgrwt>
<rscale>  0 0.73078082E+02</rscale>
<asrwt>0</asrwt>
<pdfrwt beam="1">  1        1 0.54136633E-01 0.73078082E+02</pdfrwt>
<pdfrwt beam="2">  1       -1 0.58370893E-03 0.73078082E+02</pdfrwt>
<totfact> 0.23606654E+05</totfact>
</mgrwt>
</event>
<event>
 5    1  0.1310593E+001  0.9326143E+02  0.7546771E-02  0.1295140E+00
          3   -1    0    0  501    0  0.00000000000E+00  0.00000000000E+00  0.37498729475E+02  0.37498729475E+02  0.00000000000E+00 0. -1.
         -3   -1    0    0    0  501 -0.00000000000E+00 -0.00000000000E+00 -0.57986587515E+02  0.57986587515E+02  0.00000000000E+00 0.  1.
         23    2    1    2    0    0  0.00000000000E+00  0.00000000000E+00 -0.20487858040E+02  0.95485316990E+02  0.93261425218E+02 0.  0.
        -13    1    3    3    0    0  0.38775015974E+01  0.11901861985E+02  0.35746398722E+02  0.37874719259E+02  0.00000000000E+00 0. -1.
         13    1    3    3    0    0 -0.38775015974E+01 -0.11901861985E+02 -0.56234256762E+02  0.57610597731E+02  0.00000000000E+00 0.  1.
<mgrwt>
<rscale>  0 0.93261425E+02</rscale>
<asrwt>0</asrwt>
<pdfrwt beam="1">  1        3 0.57690354E-02 0.93261425E+02</pdfrwt>
<pdfrwt beam="2">  1       -3 0.89210134E-02 0.93261425E+02</pdfrwt>
<totfact> 0.32914909E+04</totfact>
</mgrwt>
</event>
<event>
 5    1  0.1310593E+001  0.9180115E+02  0.7546771E-02  0.1298548E+00
         -1   -1    0    0    0  501 -0.00000000000E+00  0.00000000000E+00  0.83569265966E+02  0.83569265966E+02  0.00000000000E+00 0.  1.
          1   -1    0    0  501    0  0.00000000000E+00 -0.00000000000E+00 -0.25210975932E+02  0.25210975932E+02  0.00000000000E+00 0. -1.
         23    2    1    2    0    0  0.00000000000E+00  0.00000000000E+00  0.58358290034E+02  0.10878024190E+03  0.91801149294E+02 0.  0.
        -11    1    3    3    0    0  0.34179309686E+02 -0.25031345783E+01  0.65361470877E+02  0.73801170509E+02  0.00000000000E+00 0.  1.
         11    1    3    3    0    0 -0.34179309686E+02  0.25031345783E+01 -0.70031808428E+01  0.34979071389E+02  0.00000000000E+00 0. -1.
<mgrwt>
<rscale>  0 0.91801149E+02</rscale>
<asrwt>0</asrwt>
<pdfrwt beam="2">  1        1 0.38786117E-02 0.91801149E+02</pdfrwt>
<pdfrwt beam="1">  1       -1 0.12856810E-01 0.91801149E+02</pdfrwt>
<totfact> 0.82564675E+04</totfact>
</mgrwt>
</event>
<event>
 5    1  0.1310593E+001  0.9134003E+02  0.7546771E-02  0.1299639E+00
          1   -1    0    0  501    0  0.00000000000E+00  0.00000000000E+00  0.84233505776E+02  0.84233505776E+02  0.00000000000E+00 0. -1.
         -1   -1    0    0    0  501 -0.00000000000E+00 -0.00000000000E+00 -0.24761529604E+02  0.24761529604E+02  0.00000000000E+00 0.  1.
         23    2    1    2    0    0  0.00000000000E+00  0.00000000000E+00  0.59471976171E+02  0.10899503538E+03  0.91340033872E+02 0.  0.
        -13    1    3    3    0    0  0.45573135861E+02  0.19297919063E+01  0.27037034308E+02  0.53024862406E+02  0.00000000000E+00 0.  1.
         13    1    3    3    0    0 -0.45573135861E+02 -0.19297919063E+01  0.32434941863E+02  0.55970172974E+02  0.00000000000E+00 0. -1.
<mgrwt>
<rscale>  0 0.91340034E+02</rscale>
<asrwt>0</asrwt>
<pdfrwt beam="1">  1        1 0.12959001E-01 0.91340034E+02</pdfrwt>
<pdfrwt beam="2">  1       -1 0.38094661E-02 0.91340034E+02</pdfrwt>
<totfact> 0.10107494E+05</totfact>
</mgrwt>
</event>
<event>
 5    1  0.1310593E+001  0.8484640E+02  0.7546771E-02  0.1315835E+00
          1   -1    0    0  501    0  0.00000000000E+00  0.00000000000E+00  0.39906101777E+03  0.39906101777E+03  0.00000000000E+00 0. -1.
         -1   -1    0    0    0  501 -0.00000000000E+00 -0.00000000000E+00 -0.45099068453E+01  0.45099068453E+01  0.00000000000E+00 0.  1.
         23    2    1    2    0    0  0.00000000000E+00  0.00000000000E+00  0.39455111093E+03  0.40357092462E+03  0.84846402770E+02 0.  0.
        -11    1    3    3    0    0  0.23863809046E+02 -0.35059781628E+02  0.19238227364E+03  0.19700154537E+03  0.00000000000E+00 0. -1.
         11    1    3    3    0    0 -0.23863809046E+02  0.35059781628E+02  0.20216883729E+03  0.20656937925E+03  0.00000000000E+00 0.  1.
<mgrwt>
<rscale>  0 0.84846403E+02</rscale>
<asrwt>0</asrwt>
<pdfrwt beam="1">  1        1 0.61393975E-01 0.84846403E+02</pdfrwt>
<pdfrwt beam="2">  1       -1 0.69383214E-03 0.84846403E+02</pdfrwt>
<totfact> 0.16310705E+05</totfact>
</mgrwt>
</event>
<event>
 5    1  0.1310593E+001  0.9044437E+02  0.7546771E-02  0.1301779E+00
          1   -1    0    0  501    0  0.00000000000E+00  0.00000000000E+00  0.14075889505E+02  0.14075889505E+02  0.00000000000E+00 0. -1.
         -1   -1    0    0    0  501 -0.00000000000E+00 -0.00000000000E+00 -0.14528715092E+03  0.14528715092E+03  0.00000000000E+00 0.  1.
         23    2    1    2    0    0  0.00000000000E+00  0.00000000000E+00 -0.13121126141E+03  0.15936304042E+03  0.90444367050E+02 0.  0.
        -13    1    3    3    0    0  0.33329618045E+02  0.30362591988E+02 -0.71784063459E+02  0.84768521268E+02  0.00000000000E+00 0. -1.
         13    1    3    3    0    0 -0.33329618045E+02 -0.30362591988E+02 -0.59427197954E+02  0.74594519154E+02  0.00000000000E+00 0.  1.
<mgrwt>
<rscale>  0 0.90444367E+02</rscale>
<asrwt>0</asrwt>
<pdfrwt beam="1">  1        1 0.21655215E-02 0.90444367E+02</pdfrwt>
<pdfrwt beam="2">  1       -1 0.22351869E-01 0.90444367E+02</pdfrwt>
<totfact> 0.76935818E+04</totfact>
</mgrwt>
</event>
<event>
 5    1  0.1310593E+001  0.9333332E+02  0.7546771E-02  0.1294975E+00
          4   -1    0    0  501    0  0.00000000000E+00  0.00000000000E+00  0.68054977723E+02  0.68054977723E+02  0.00000000000E+00 0.  1.
         -4   -1    0    0    0  501 -0.00000000000E+00 -0.00000000000E+00 -0.32000264255E+02  0.32000264255E+02  0.00000000000E+00 0. -1.
         23    2    1    2    0    0  0.00000000000E+00  0.00000000000E+00  0.36054713469E+02  0.10005524198E+03  0.93333322474E+02 0.  0.
        -13    1    3    3    0    0  0.18652633390E+02 -0.23820578339E+02  0.56117087827E+02  0.63753182124E+02  0.00000000000E+00 0.  1.
         13    1    3    3    0    0 -0.18652633390E+02  0.23820578339E+02 -0.20062374358E+02  0.36302059854E+02  0.00000000000E+00 0. -1.
<mgrwt>
<rscale>  0 0.93333322E+02</rscale>
<asrwt>0</asrwt>
<pdfrwt beam="1">  1        4 0.10469997E-01 0.93333322E+02</pdfrwt>
<pdfrwt beam="2">  1       -4 0.49231176E-02 0.93333322E+02</pdfrwt>
<totfact> 0.24825138E+04</totfact>
</mgrwt>
</event>
<event>
 5    1  0.1310593E+001  0.9074126E+02  0.7546771E-02  0.1301066E+00
          2   -1    0    0  501    0  0.00000000000E+00  0.00000000000E+00  0.16260857104E+03  0.16260857104E+03  0.00000000000E+00 0.  1.
         -2   -1    0    0    0  501 -0.00000000000E+00 -0.00000000000E+00 -0.12659197482E+02  0.12659197482E+02  0.00000000000E+00 0. -1.
         23    2    1    2    0    0  0.00000000000E+00  0.00000000000E+00  0.14994937356E+03  0.17526776852E+03  0.90741258821E+02 0.  0.
        -13    1    3    3    0    0 -0.42747476478E+02 -0.11241709705E+02  0.94745215349E+02  0.10454845104E+03  0.00000000000E+00 0. -1.
         13    1    3    3    0    0  0.42747476478E+02  0.11241709705E+02  0.55204158206E+02  0.70719317485E+02  0.00000000000E+00 0.  1.
<mgrwt>
<rscale>  0 0.90741259E+02</rscale>
<asrwt>0</asrwt>
<pdfrwt beam="1">  1        2 0.25016702E-01 0.90741259E+02</pdfrwt>
<pdfrwt beam="2">  1       -2 0.19475690E-02 0.90741259E+02</pdfrwt>
<totfact> 0.14561227E+05</totfact>
</mgrwt>
</event>
<event>
 5    1  0.1310593E+001  0.9141365E+02  0.7546771E-02  0.1299464E+00
         -1   -1    0    0    0  501 -0.00000000000E+00  0.00000000000E+00  0.45824152073E+02  0.45824152073E+02  0.00000000000E+00 0.  1.
          1   -1    0    0  501    0  0.00000000000E+00 -0.00000000000E+00 -0.45589801884E+02  0.45589801884E+02  0.00000000000E+00 0. -1.
         23    2    1    2    0    0  0.00000000000E+00  0.00000000000E+00  0.23435018955E+00  0.91413953957E+02  0.91413653565E+02 0.  0.
        -13    1    3    3    0    0  0.17131478333E+02 -0.29187772438E+02 -0.30602632959E+02  0.45628223216E+02  0.00000000000E+00 0. -1.
         13    1    3    3    0    0 -0.17131478333E+02  0.29187772438E+02  0.30836983149E+02  0.45785730741E+02  0.00000000000E+00 0.  1.
<mgrwt>
<rscale>  0 0.91413654E+02</rscale>
<asrwt>0</asrwt>
<pdfrwt beam="2">  1        1 0.70138157E-02 0.91413654E+02</pdfrwt>
<pdfrwt beam="1">  1       -1 0.70498695E-02 0.91413654E+02</pdfrwt>
<totfact> 0.91801045E+04</totfact>
</mgrwt>
</event>
<event>
 5    1  0.1310593E+001  0.9148807E+02  0.7546771E-02  0.1299288E+00
          1   -1    0    0  501    0  0.00000000000E+00  0.00000000000E+00  0.51252556509E+02  0.51252556509E+02  0.00000000000E+00 0. -1.
         -1   -1    0    0    0  501 -0.00000000000E+00 -0.00000000000E+00 -0.40827561796E+02  0.40827561796E+02  0.00000000000E+00 0.  1.
         23    2    1    2    0    0  0.00000000000E+00  0.00000000000E+00  0.10424994713E+02  0.92080118304E+02  0.91488073934E+02 0.  0.
        -13    1    3    3    0    0 -0.13268845795E+02  0.99229466975E+01 -0.37701315453E+02  0.41181504669E+02  0.00000000000E+00 0.  1.
         13    1    3    3    0    0  0.13268845795E+02 -0.99229466975E+01  0.48126310166E+02  0.50898613636E+02  0.00000000000E+00 0. -1.
<mgrwt>
<rscale>  0 0.91488074E+02</rscale>
<asrwt>0</asrwt>
<pdfrwt beam="1">  1        1 0.78850087E-02 0.91488074E+02</pdfrwt>
<pdfrwt beam="2">  1       -1 0.62811634E-02 0.91488074E+02</pdfrwt>
<totfact> 0.93220402E+04</totfact>
</mgrwt>
</event>
<event>
 5    1  0.1310593E+001  0.9047447E+02  0.7546771E-02  0.1301707E+00
          2   -1    0    0  501    0  0.00000000000E+00  0.00000000000E+00  0.22526194333E+02  0.22526194333E+02  0.00000000000E+00 0. -1.
         -2   -1    0    0    0  501 -0.00000000000E+00 -0.00000000000E+00 -0.90845685471E+02  0.90845685471E+02  0.00000000000E+00 0.  1.
         23    2    1    2    0    0  0.00000000000E+00  0.00000000000E+00 -0.68319491137E+02  0.11337187980E+03  0.90474472980E+02 0.  0.
        -13    1    3    3    0    0  0.23873399793E+02  0.30442101770E+02 -0.47791472471E+01  0.38980777651E+02  0.00000000000E+00 0. -1.
         13    1    3    3    0    0 -0.23873399793E+02 -0.30442101770E+02 -0.63540343890E+02  0.74391102153E+02  0.00000000000E+00 0.  1.
<mgrwt>
<rscale>  0 0.90474473E+02</rscale>
<asrwt>0</asrwt>
<pdfrwt beam="1">  1        2 0.34655683E-02 0.90474473E+02</pdfrwt>
<pdfrwt beam="2">  1       -2 0.13976259E-01 0.90474473E+02</pdfrwt>
<totfact> 0.83669027E+04</totfact>
</mgrwt>
</event>
<event>
 5    1  0.1310593E+001  0.9458738E+02  0.7546771E-02  0.1292108E+00
         -1   -1    0    0    0  501 -0.00000000000E+00  0.00000000000E+00  0.68120906919E+02  0.68120906919E+02  0.00000000000E+00 0.  1.
          1   -1    0    0  501    0  0.00000000000E+00 -0.00000000000E+00 -0.32834163607E+02  0.32834163607E+02  0.00000000000E+00 0. -1.
         23    2    1    2    0    0  0.00000000000E+00  0.00000000000E+00  0.35286743312E+02  0.10095507053E+03  0.94587377654E+02 0.  0.
        -11    1    3    3    0    0  0.10635748202E+02  0.28846630109E+02  0.55999348031E+02  0.63884068345E+02  0.00000000000E+00 0.  1.
         11    1    3    3    0    0 -0.10635748202E+02 -0.28846630109E+02 -0.20712604719E+02  0.37071002181E+02  0.00000000000E+00 0. -1.
<mgrwt>
<rscale>  0 0.94587378E+02</rscale>
<asrwt>0</asrwt>
<pdfrwt beam="2">  1        1 0.50514098E-02 0.94587378E+02</pdfrwt>
<pdfrwt beam="1">  1       -1 0.10480139E-01 0.94587378E+02</pdfrwt>
<totfact> 0.79149819E+04</totfact>
</mgrwt>
</event>
<event>
 5    1  0.1310593E+001  0.9221686E+02  0.7546771E-02  0.1297570E+00
          1   -1    0    0  501    0  0.00000000000E+00  0.00000000000E+00  0.31489378240E+02  0.31489378240E+02  0.00000000000E+00 0. -1.
         -1   -1    0    0    0  501 -0.00000000000E+00 -0.00000000000E+00 -0.67514421247E+02  0.67514421247E+02  0.00000000000E+00 0.  1.
         23    2    1    2    0    0  0.00000000000E+00  0.00000000000E+00 -0.36025043007E+02  0.99003799487E+02  0.92216856318E+02 0.  0.
        -13    1    3    3    0    0 -0.12504518987E+02  0.21150873587E+02 -0.59900233325E+02  0.64743805889E+02  0.00000000000E+00 0.  1.
         13    1    3    3    0    0  0.12504518987E+02 -0.21150873587E+02  0.23875190318E+02  0.34259993598E+02  0.00000000000E+00 0. -1.
<mgrwt>
<rscale>  0 0.92216856E+02</rscale>
<asrwt>0</asrwt>
<pdfrwt beam="1">  1        1 0.48445197E-02 0.92216856E+02</pdfrwt>
<pdfrwt beam="2">  1       -1 0.10386834E-01 0.92216856E+02</pdfrwt>
<totfact> 0.84563701E+04</totfact>
</mgrwt>
</event>
<event>
 5    1  0.1310593E+001  0.9088834E+02  0.7546771E-02  0.1300715E+00
         -1   -1    0    0    0  501 -0.00000000000E+00  0.00000000000E+00  0.30028866065E+02  0.30028866065E+02  0.00000000000E+00 0.  1.
          1   -1    0    0  501    0  0.00000000000E+00 -0.00000000000E+00 -0.68772918409E+02  0.68772918409E+02  0.00000000000E+00 0. -1.
         23    2    1    2    0    0  0.00000000000E+00  0.00000000000E+00 -0.38744052345E+02  0.98801784474E+02  0.90888343714E+02 0.  0.
        -13    1    3    3    0    0  0.61474768538E+01 -0.36860949588E+02  0.87376970378E+01  0.38377967973E+02  0.00000000000E+00 0.  1.
         13    1    3    3    0    0 -0.61474768538E+01  0.36860949588E+02 -0.47481749383E+02  0.60423816502E+02  0.00000000000E+00 0. -1.
<mgrwt>
<rscale>  0 0.90888344E+02</rscale>
<asrwt>0</asrwt>
<pdfrwt beam="2">  1        1 0.10580449E-01 0.90888344E+02</pdfrwt>
<pdfrwt beam="1">  1       -1 0.46198256E-02 0.90888344E+02</pdfrwt>
<totfact> 0.99262519E+04</totfact>
</mgrwt>
</event>
<event>
 5    1  0.1310593E+001  0.9058922E+02  0.7546771E-02  0.1301431E+00
         -2   -1    0    0    0  501 -0.00000000000E+00  0.00000000000E+00  0.14500961230E+02  0.14500961230E+02  0.00000000000E+00 0.  1.
          2   -1    0    0  501    0  0.00000000000E+00 -0.00000000000E+00 -0.14148038690E+03  0.14148038690E+03  0.00000000000E+00 0. -1.
         23    2    1    2    0    0  0.00000000000E+00  0.00000000000E+00 -0.12697942567E+03  0.15598134813E+03  0.90589218017E+02 0.  0.
        -11    1    3    3    0    0 -0.11286011995E+02 -0.43033511124E+02 -0.78135030456E+02  0.89912958637E+02  0.00000000000E+00 0. -1.
         11    1    3    3    0    0  0.11286011995E+02  0.43033511124E+02 -0.48844395212E+02  0.66068389492E+02  0.00000000000E+00 0.  1.
<mgrwt>
<rscale>  0 0.90589218E+02</rscale>
<asrwt>0</asrwt>
<pdfrwt beam="2">  1        2 0.21766213E-01 0.90589218E+02</pdfrwt>
<pdfrwt beam="1">  1       -2 0.22309172E-02 0.90589218E+02</pdfrwt>
<totfact> 0.13950451E+05</totfact>
</mgrwt>
</event>
<event>
 5    1  0.1310593E+001  0.8998312E+02  0.7546771E-02  0.1302893E+00
         -2   -1    0    0    0  501 -0.00000000000E+00  0.00000000000E+00  0.12131101616E+02  0.12131101616E+02  0.00000000000E+00 0.  1.
          2   -1    0    0  501    0  0.00000000000E+00 -0.00000000000E+00 -0.16686370266E+03  0.16686370266E+03  0.00000000000E+00 0. -1.
         23    2    1    2    0    0  0.00000000000E+00  0.00000000000E+00 -0.15473260105E+03  0.17899480428E+03  0.89983121374E+02 0.  0.
        -11    1    3    3    0    0  0.30689845657E+02 -0.15227692349E+02 -0.19354772296E+02  0.39349160745E+02  0.00000000000E+00 0.  1.
         11    1    3    3    0    0 -0.30689845657E+02  0.15227692349E+02 -0.13537782875E+03  0.13964564353E+03  0.00000000000E+00 0. -1.
<mgrwt>
<rscale>  0 0.89983121E+02</rscale>
<asrwt>0</asrwt>
<pdfrwt beam="2">  1        2 0.25671338E-01 0.89983121E+02</pdfrwt>
<pdfrwt beam="1">  1       -2 0.18663234E-02 0.89983121E+02</pdfrwt>
<totfact> 0.15028939E+05</totfact>
</mgrwt>
</event>
<event>
 5    1  0.1310593E+001  0.9207350E+02  0.7546771E-02  0.1297907E+00
         -1   -1    0    0    0  501 -0.00000000000E+00  0.00000000000E+00  0.15105028495E+02  0.15105028495E+02  0.00000000000E+00 0.  1.
          1   -1    0    0  501    0  0.00000000000E+00 -0.00000000000E+00 -0.14030970762E+03  0.14030970762E+03  0.00000000000E+00 0. -1.
         23    2    1    2    0    0  0.00000000000E+00  0.00000000000E+00 -0.12520467913E+03  0.15541473612E+03  0.92073495248E+02 0.  0.
        -11    1    3    3    0    0  0.23916939176E+02 -0.35440774548E+02 -0.33792689441E+02  0.54497837936E+02  0.00000000000E+00 0.  1.
         11    1    3    3    0    0 -0.23916939176E+02  0.35440774548E+02 -0.91411989689E+02  0.10091689818E+03  0.00000000000E+00 0. -1.
<mgrwt>
<rscale>  0 0.92073495E+02</rscale>
<asrwt>0</asrwt>
<pdfrwt beam="2">  1        1 0.21586108E-01 0.92073495E+02</pdfrwt>
<pdfrwt beam="1">  1       -1 0.23238506E-02 0.92073495E+02</pdfrwt>
<totfact> 0.10787959E+05</totfact>
</mgrwt>
</event>
<event>
 5    1  0.1310593E+001  0.9338647E+02  0.7546771E-02  0.1294852E+00
         -2   -1    0    0    0  501 -0.00000000000E+00  0.00000000000E+00  0.15303017387E+02  0.15303017387E+02  0.00000000000E+00 0.  1.
          2   -1    0    0  501    0  0.00000000000E+00 -0.00000000000E+00 -0.14247244688E+03  0.14247244688E+03  0.00000000000E+00 0. -1.
         23    2    1    2    0    0  0.00000000000E+00  0.00000000000E+00 -0.12716942949E+03  0.15777546427E+03  0.93386472933E+02 0.  0.
        -13    1    3    3    0    0  0.21477323416E+02  0.20603869983E+02 -0.12437027030E+03  0.12788181659E+03  0.00000000000E+00 0. -1.
         13    1    3    3    0    0 -0.21477323416E+02 -0.20603869983E+02 -0.27991591944E+01  0.29893647680E+02  0.00000000000E+00 0.  1.
<mgrwt>
<rscale>  0 0.93386473E+02</rscale>
<asrwt>0</asrwt>
<pdfrwt beam="2">  1        2 0.21918838E-01 0.93386473E+02</pdfrwt>
<pdfrwt beam="1">  1       -2 0.23543104E-02 0.93386473E+02</pdfrwt>
<totfact> 0.12871814E+05</totfact>
</mgrwt>
</event>
<event>
 5    1  0.1310593E+001  0.9208619E+02  0.7546771E-02  0.1297877E+00
         -1   -1    0    0    0  501 -0.00000000000E+00  0.00000000000E+00  0.18921012851E+02  0.18921012851E+02  0.00000000000E+00 0.  1.
          1   -1    0    0  501    0  0.00000000000E+00 -0.00000000000E+00 -0.11204297454E+03  0.11204297454E+03  0.00000000000E+00 0. -1.
         23    2    1    2    0    0  0.00000000000E+00  0.00000000000E+00 -0.93121961693E+02  0.13096398740E+03  0.92086189220E+02 0.  0.
        -11    1    3    3    0    0  0.10010560359E+02  0.42549786063E+02 -0.25987306571E+02  0.50853079705E+02  0.00000000000E+00 0.  1.
         11    1    3    3    0    0 -0.10010560359E+02 -0.42549786063E+02 -0.67134655122E+02  0.80110907690E+02  0.00000000000E+00 0. -1.
<mgrwt>
<rscale>  0 0.92086189E+02</rscale>
<asrwt>0</asrwt>
<pdfrwt beam="2">  1        1 0.17237381E-01 0.92086189E+02</pdfrwt>
<pdfrwt beam="1">  1       -1 0.29109251E-02 0.92086189E+02</pdfrwt>
<totfact> 0.10363621E+05</totfact>
</mgrwt>
</event>
<event>
 5    1  0.1310593E+001  0.9091857E+02  0.7546771E-02  0.1300642E+00
          2   -1    0    0  501    0  0.00000000000E+00  0.00000000000E+00  0.55723818709E+02  0.55723818709E+02  0.00000000000E+00 0. -1.
         -2   -1    0    0    0  501 -0.00000000000E+00 -0.00000000000E+00 -0.37085513374E+02  0.37085513374E+02  0.00000000000E+00 0.  1.
         23    2    1    2    0    0  0.00000000000E+00  0.00000000000E+00  0.18638305335E+02  0.92809332083E+02  0.90918566288E+02 0.  0.
        -13    1    3    3    0    0 -0.43747414248E+02 -0.12345710731E+02  0.87660381918E+01  0.46293587594E+02  0.00000000000E+00 0.  1.
         13    1    3    3    0    0  0.43747414248E+02  0.12345710731E+02  0.98722671431E+01  0.46515744489E+02  0.00000000000E+00 0. -1.
<mgrwt>
<rscale>  0 0.90918566E+02</rscale>
<asrwt>0</asrwt>
<pdfrwt beam="1">  1        2 0.85728952E-02 0.90918566E+02</pdfrwt>
<pdfrwt beam="2">  1       -2 0.57054636E-02 0.90918566E+02</pdfrwt>
<totfact> 0.10483863E+05</totfact>
</mgrwt>
</event>
<event>
 5    1  0.1310593E+001  0.8937378E+02  0.7546771E-02  0.1304375E+00
         -2   -1    0    0    0  501 -0.00000000000E+00  0.00000000000E+00  0.26595638635E+03  0.26595638635E+03  0.00000000000E+00 0. -1.
          2   -1    0    0  501    0  0.00000000000E+00 -0.00000000000E+00 -0.75084425002E+01  0.75084425002E+01  0.00000000000E+00 0.  1.
         23    2    1    2    0    0  0.00000000000E+00  0.00000000000E+00  0.25844794385E+03  0.27346482885E+03  0.89373782162E+02 0.  0.
        -11    1    3    3    0    0  0.50238017402E+01  0.43589641526E+02  0.10332890752E+03  0.11225933619E+03  0.00000000000E+00 0.  1.
         11    1    3    3    0    0 -0.50238017402E+01 -0.43589641526E+02  0.15511903633E+03  0.16120549266E+03  0.00000000000E+00 0. -1.
<mgrwt>
<rscale>  0 0.89373782E+02</rscale>
<asrwt>0</asrwt>
<pdfrwt beam="2">  1        2 0.11551452E-02 0.89373782E+02</pdfrwt>
<pdfrwt beam="1">  1       -2 0.40916360E-01 0.89373782E+02</pdfrwt>
<totfact> 0.57297682E+04</totfact>
</mgrwt>
</event>
<event>
 5    1  0.1310593E+001  0.8898716E+02  0.7546771E-02  0.1305323E+00
         -3   -1    0    0    0  501 -0.00000000000E+00  0.00000000000E+00  0.77506902786E+02  0.77506902786E+02  0.00000000000E+00 0.  1.
          3   -1    0    0  501    0  0.00000000000E+00 -0.00000000000E+00 -0.25541963852E+02  0.25541963852E+02  0.00000000000E+00 0. -1.
         23    2    1    2    0    0  0.00000000000E+00  0.00000000000E+00  0.51964938934E+02  0.10304886664E+03  0.88987156585E+02 0.  0.
        -11    1    3    3    0    0 -0.28041555095E+02 -0.30534061634E+02  0.44691592416E+02  0.60958971158E+02  0.00000000000E+00 0.  1.
         11    1    3    3    0    0  0.28041555095E+02  0.30534061634E+02  0.72733465183E+01  0.42089895481E+02  0.00000000000E+00 0. -1.
<mgrwt>
<rscale>  0 0.88987157E+02</rscale>
<asrwt>0</asrwt>
<pdfrwt beam="2">  1        3 0.39295329E-02 0.88987157E+02</pdfrwt>
<pdfrwt beam="1">  1       -3 0.11924139E-01 0.88987157E+02</pdfrwt>
<totfact> 0.36796247E+04</totfact>
</mgrwt>
</event>
<event>
 5    1  0.1310593E+001  0.9114222E+02  0.7546771E-02  0.1300109E+00
         -3   -1    0    0    0  501 -0.00000000000E+00  0.00000000000E+00  0.12206511965E+02  0.12206511965E+02  0.00000000000E+00 0.  1.
          3   -1    0    0  501    0  0.00000000000E+00 -0.00000000000E+00 -0.17013264683E+03  0.17013264683E+03  0.00000000000E+00 0. -1.
         23    2    1    2    0    0  0.00000000000E+00  0.00000000000E+00 -0.15792613487E+03  0.18233915880E+03  0.91142222689E+02 0.  0.
        -11    1    3    3    0    0  0.16003510761E+02  0.28586955970E+02 -0.14233505558E+03  0.14605681927E+03  0.00000000000E+00 0. -1.
         11    1    3    3    0    0 -0.16003510761E+02 -0.28586955970E+02 -0.15591079290E+02  0.36282339530E+02  0.00000000000E+00 0.  1.
<mgrwt>
<rscale>  0 0.91142223E+02</rscale>
<asrwt>0</asrwt>
<pdfrwt beam="2">  1        3 0.26174254E-01 0.91142223E+02</pdfrwt>
<pdfrwt beam="1">  1       -3 0.18779249E-02 0.91142223E+02</pdfrwt>
<totfact> 0.29467960E+04</totfact>
</mgrwt>
</event>
<event>
 5    1  0.1310593E+001  0.9093621E+02  0.7546771E-02  0.1300600E+00
          1   -1    0    0  501    0  0.00000000000E+00  0.00000000000E+00  0.19273542705E+03  0.19273542705E+03  0.00000000000E+00 0. -1.
         -1   -1    0    0    0  501 -0.00000000000E+00 -0.00000000000E+00 -0.10726355047E+02  0.10726355047E+02  0.00000000000E+00 0.  1.
         23    2    1    2    0    0  0.00000000000E+00  0.00000000000E+00  0.18200907200E+03  0.20346178209E+03  0.90936211064E+02 0.  0.
        -13    1    3    3    0    0  0.18420748562E+01 -0.44329654580E+02  0.11324818322E+03  0.12162920093E+03  0.00000000000E+00 0.  1.
         13    1    3    3    0    0 -0.18420748562E+01  0.44329654580E+02  0.68760888774E+02  0.81832581164E+02  0.00000000000E+00 0. -1.
<mgrwt>
<rscale>  0 0.90936211E+02</rscale>
<asrwt>0</asrwt>
<pdfrwt beam="1">  1        1 0.29651602E-01 0.90936211E+02</pdfrwt>
<pdfrwt beam="2">  1       -1 0.16502086E-02 0.90936211E+02</pdfrwt>
<totfact> 0.11839783E+05</totfact>
</mgrwt>
</event>
<event>
 5    1  0.1310593E+001  0.9212983E+02  0.7546771E-02  0.1297774E+00
         -2   -1    0    0    0  501 -0.00000000000E+00  0.00000000000E+00  0.65268098337E+02  0.65268098337E+02  0.00000000000E+00 0.  1.
          2   -1    0    0  501    0  0.00000000000E+00 -0.00000000000E+00 -0.32511694531E+02  0.32511694531E+02  0.00000000000E+00 0. -1.
         23    2    1    2    0    0  0.00000000000E+00  0.00000000000E+00  0.32756403807E+02  0.97779792868E+02  0.92129831775E+02 0.  0.
        -13    1    3    3    0    0  0.42402161586E+02 -0.13347580115E+02  0.29196774778E+02  0.53184141052E+02  0.00000000000E+00 0.  1.
         13    1    3    3    0    0 -0.42402161586E+02  0.13347580115E+02  0.35596290290E+01  0.44595651816E+02  0.00000000000E+00 0. -1.
<mgrwt>
<rscale>  0 0.92129832E+02</rscale>
<asrwt>0</asrwt>
<pdfrwt beam="2">  1        2 0.50017992E-02 0.92129832E+02</pdfrwt>
<pdfrwt beam="1">  1       -2 0.10041246E-01 0.92129832E+02</pdfrwt>
<totfact> 0.87639764E+04</totfact>
</mgrwt>
</event>
<event>
 5    1  0.1310593E+001  0.9442423E+02  0.7546771E-02  0.1292478E+00
         -3   -1    0    0    0  501 -0.00000000000E+00  0.00000000000E+00  0.10447638720E+03  0.10447638720E+03  0.00000000000E+00 0.  1.
          3   -1    0    0  501    0  0.00000000000E+00 -0.00000000000E+00 -0.21334809732E+02  0.21334809732E+02  0.00000000000E+00 0. -1.
         23    2    1    2    0    0  0.00000000000E+00  0.00000000000E+00  0.83141577465E+02  0.12581119693E+03  0.94424230839E+02 0.  0.
        -11    1    3    3    0    0  0.96107108753E+01  0.36140965361E+02  0.79967342227E+02  0.88279731330E+02  0.00000000000E+00 0.  1.
         11    1    3    3    0    0 -0.96107108753E+01 -0.36140965361E+02  0.31742352382E+01  0.37531465600E+02  0.00000000000E+00 0. -1.
<mgrwt>
<rscale>  0 0.94424231E+02</rscale>
<asrwt>0</asrwt>
<pdfrwt beam="2">  1        3 0.32822785E-02 0.94424231E+02</pdfrwt>
<pdfrwt beam="1">  1       -3 0.16073290E-01 0.94424231E+02</pdfrwt>
<totfact> 0.29867591E+04</totfact>
</mgrwt>
</event>
<event>
 5    1  0.1310593E+001  0.8915071E+02  0.7546771E-02  0.1304921E+00
          1   -1    0    0  501    0  0.00000000000E+00  0.00000000000E+00  0.20943097303E+03  0.20943097303E+03  0.00000000000E+00 0. -1.
         -1   -1    0    0    0  501 -0.00000000000E+00 -0.00000000000E+00 -0.94874330910E+01  0.94874330910E+01  0.00000000000E+00 0.  1.
         23    2    1    2    0    0  0.00000000000E+00  0.00000000000E+00  0.19994353994E+03  0.21891840612E+03  0.89150711581E+02 0.  0.
        -13    1    3    3    0    0  0.13220564399E+02  0.38245015848E+02  0.54064689240E+02  0.67531142319E+02  0.00000000000E+00 0.  1.
         13    1    3    3    0    0 -0.13220564399E+02 -0.38245015848E+02  0.14587885070E+03  0.15138726380E+03  0.00000000000E+00 0. -1.
<mgrwt>
<rscale>  0 0.89150712E+02</rscale>
<asrwt>0</asrwt>
<pdfrwt beam="1">  1        1 0.32220146E-01 0.89150712E+02</pdfrwt>
<pdfrwt beam="2">  1       -1 0.14596052E-02 0.89150712E+02</pdfrwt>
<totfact> 0.12687219E+05</totfact>
</mgrwt>
</event>
<event>
 5    1  0.1310593E+001  0.8789373E+02  0.7546771E-02  0.1308034E+00
          4   -1    0    0  501    0  0.00000000000E+00  0.00000000000E+00  0.80657343815E+02  0.80657343815E+02  0.00000000000E+00 0. -1.
         -4   -1    0    0    0  501 -0.00000000000E+00 -0.00000000000E+00 -0.23944839480E+02  0.23944839480E+02  0.00000000000E+00 0.  1.
         23    2    1    2    0    0  0.00000000000E+00  0.00000000000E+00  0.56712504335E+02  0.10460218330E+03  0.87893734715E+02 0.  0.
        -11    1    3    3    0    0 -0.27811637454E+02 -0.21456327930E+02 -0.30737448993E+01  0.35260588393E+02  0.00000000000E+00 0.  1.
         11    1    3    3    0    0  0.27811637454E+02  0.21456327930E+02  0.59786249234E+02  0.69341594902E+02  0.00000000000E+00 0. -1.
<mgrwt>
<rscale>  0 0.87893735E+02</rscale>
<asrwt>0</asrwt>
<pdfrwt beam="1">  1        4 0.12408822E-01 0.87893735E+02</pdfrwt>
<pdfrwt beam="2">  1       -4 0.36838215E-02 0.87893735E+02</pdfrwt>
<totfact> 0.28896824E+04</totfact>
</mgrwt>
</event>
<event>
 5    1  0.1310593E+001  0.9100253E+02  0.7546771E-02  0.1300442E+00
          1   -1    0    0  501    0  0.00000000000E+00  0.00000000000E+00  0.93678744505E+01  0.93678744505E+01  0.00000000000E+00 0. -1.
         -1   -1    0    0    0  501 -0.00000000000E+00 -0.00000000000E+00 -0.22100691406E+03  0.22100691406E+03  0.00000000000E+00 0.  1.
         23    2    1    2    0    0  0.00000000000E+00  0.00000000000E+00 -0.21163903961E+03  0.23037478851E+03  0.91002527956E+02 0.  0.
        -11    1    3    3    0    0 -0.41911307503E+02  0.75342776242E+01 -0.65232839724E+02  0.77901517407E+02  0.00000000000E+00 0. -1.
         11    1    3    3    0    0  0.41911307503E+02 -0.75342776242E+01 -0.14640619988E+03  0.15247327110E+03  0.00000000000E+00 0.  1.
<mgrwt>
<rscale>  0 0.91002528E+02</rscale>
<asrwt>0</asrwt>
<pdfrwt beam="1">  1        1 0.14412116E-02 0.91002528E+02</pdfrwt>
<pdfrwt beam="2">  1       -1 0.34001060E-01 0.91002528E+02</pdfrwt>
<totfact> 0.67733926E+04</totfact>
</mgrwt>
</event>
<event>
 5    1  0.1310593E+001  0.9005677E+02  0.7546771E-02  0.1302714E+00
         -2   -1    0    0    0  501 -0.00000000000E+00  0.00000000000E+00  0.31625587633E+02  0.31625587633E+02  0.00000000000E+00 0.  1.
          2   -1    0    0  501    0  0.00000000000E+00 -0.00000000000E+00 -0.64111230869E+02  0.64111230869E+02  0.00000000000E+00 0. -1.
         23    2    1    2    0    0  0.00000000000E+00  0.00000000000E+00 -0.32485643236E+02  0.95736818502E+02  0.90056767655E+02 0.  0.
        -13    1    3    3    0    0 -0.35749216284E+02 -0.77230942177E+01  0.11679823618E+02  0.38393631360E+02  0.00000000000E+00 0.  1.
         13    1    3    3    0    0  0.35749216284E+02  0.77230942177E+01 -0.44165466854E+02  0.57343187143E+02  0.00000000000E+00 0. -1.
<mgrwt>
<rscale>  0 0.90056768E+02</rscale>
<asrwt>0</asrwt>
<pdfrwt beam="2">  1        2 0.98632663E-02 0.90056768E+02</pdfrwt>
<pdfrwt beam="1">  1       -2 0.48654750E-02 0.90056768E+02</pdfrwt>
<totfact> 0.11179469E+05</totfact>
</mgrwt>
</event>
<event>
 5    1  0.1310593E+001  0.9068873E+02  0.7546771E-02  0.1301192E+00
         -1   -1    0    0    0  501 -0.00000000000E+00  0.00000000000E+00  0.35991168474E+02  0.35991168474E+02  0.00000000000E+00 0.  1.
          1   -1    0    0  501    0  0.00000000000E+00 -0.00000000000E+00 -0.57128216454E+02  0.57128216454E+02  0.00000000000E+00 0. -1.
         23    2    1    2    0    0  0.00000000000E+00  0.00000000000E+00 -0.21137047980E+02  0.93119384928E+02  0.90688726157E+02 0.  0.
        -11    1    3    3    0    0 -0.28098736151E+02  0.24314604763E+02 -0.37252983726E+02  0.52616763247E+02  0.00000000000E+00 0. -1.
         11    1    3    3    0    0  0.28098736151E+02 -0.24314604763E+02  0.16115935746E+02  0.40502621681E+02  0.00000000000E+00 0.  1.
<mgrwt>
<rscale>  0 0.90688726E+02</rscale>
<asrwt>0</asrwt>
<pdfrwt beam="2">  1        1 0.87889563E-02 0.90688726E+02</pdfrwt>
<pdfrwt beam="1">  1       -1 0.55371029E-02 0.90688726E+02</pdfrwt>
<totfact> 0.97096728E+04</totfact>
</mgrwt>
</event>
<event>
 5    1  0.1310593E+001  0.9102774E+02  0.7546771E-02  0.1300382E+00
         -3   -1    0    0    0  501 -0.00000000000E+00  0.00000000000E+00  0.91182597390E+02  0.91182597390E+02  0.00000000000E+00 0.  1.
          3   -1    0    0  501    0  0.00000000000E+00 -0.00000000000E+00 -0.22718284300E+02  0.22718284300E+02  0.00000000000E+00 0. -1.
         23    2    1    2    0    0  0.00000000000E+00  0.00000000000E+00  0.68464313089E+02  0.11390088169E+03  0.91027735789E+02 0.  0.
        -13    1    3    3    0    0  0.19363163104E+02 -0.39104582611E+02  0.50422134382E+02  0.66682022332E+02  0.00000000000E+00 0.  1.
         13    1    3    3    0    0 -0.19363163104E+02  0.39104582611E+02  0.18042178707E+02  0.47218859358E+02  0.00000000000E+00 0. -1.
<mgrwt>
<rscale>  0 0.91027736E+02</rscale>
<asrwt>0</asrwt>
<pdfrwt beam="2">  1        3 0.34951207E-02 0.91027736E+02</pdfrwt>
<pdfrwt beam="1">  1       -3 0.14028092E-01 0.91027736E+02</pdfrwt>
<totfact> 0.33820779E+04</totfact>
</mgrwt>
</event>
<event>
 5    1  0.1310593E+001  0.9145748E+02  0.7546771E-02  0.1299360E+00
         -1   -1    0    0    0  501 -0.00000000000E+00  0.00000000000E+00  0.10044217746E+02  0.10044217746E+02  0.00000000000E+00 0.  1.
          1   -1    0    0  501    0  0.00000000000E+00 -0.00000000000E+00 -0.20819118292E+03  0.20819118292E+03  0.00000000000E+00 0. -1.
         23    2    1    2    0    0  0.00000000000E+00  0.00000000000E+00 -0.19814696517E+03  0.21823540067E+03  0.91457478077E+02 0.  0.
        -13    1    3    3    0    0 -0.21166526702E+02 -0.23040506276E+02 -0.19493574025E+02  0.36863073805E+02  0.00000000000E+00 0.  1.
         13    1    3    3    0    0  0.21166526702E+02  0.23040506276E+02 -0.17865339115E+03  0.18137232686E+03  0.00000000000E+00 0. -1.
<mgrwt>
<rscale>  0 0.91457478E+02</rscale>
<asrwt>0</asrwt>
<pdfrwt beam="2">  1        1 0.32029407E-01 0.91457478E+02</pdfrwt>
<pdfrwt beam="1">  1       -1 0.15452645E-02 0.91457478E+02</pdfrwt>
<totfact> 0.11835331E+05</totfact>
</mgrwt>
</event>
<event>
 5    1  0.1310593E+001  0.8906543E+02  0.7546771E-02  0.1305131E+00
         -1   -1    0    0    0  501 -0.00000000000E+00  0.00000000000E+00  0.22707280714E+03  0.22707280714E+03  0.00000000000E+00 0.  1.
          1   -1    0    0  501    0  0.00000000000E+00 -0.00000000000E+00 -0.87335980350E+01  0.87335980350E+01  0.00000000000E+00 0. -1.
         23    2    1    2    0    0  0.00000000000E+00  0.00000000000E+00  0.21833920911E+03  0.23580640518E+03  0.89065428136E+02 0.  0.
        -13    1    3    3    0    0  0.19392496644E+02  0.40076079923E+02  0.10652003714E+03  0.11544990005E+03  0.00000000000E+00 0. -1.
         13    1    3    3    0    0 -0.19392496644E+02 -0.40076079923E+02  0.11181917197E+03  0.12035650513E+03  0.00000000000E+00 0.  1.
<mgrwt>
<rscale>  0 0.89065428E+02</rscale>
<asrwt>0</asrwt>
<pdfrwt beam="2">  1        1 0.13436306E-02 0.89065428E+02</pdfrwt>
<pdfrwt beam="1">  1       -1 0.34934274E-01 0.89065428E+02</pdfrwt>
<totfact> 0.71037402E+04</totfact>
</mgrwt>
</event>
<event>
 5    1  0.1310593E+001  0.9052698E+02  0.7546771E-02  0.1301581E+00
          4   -1    0    0  501    0  0.00000000000E+00  0.00000000000E+00  0.99639249333E+02  0.99639249333E+02  0.00000000000E+00 0. -1.
         -4   -1    0    0    0  501 -0.00000000000E+00 -0.00000000000E+00 -0.20562013686E+02  0.20562013686E+02  0.00000000000E+00 0.  1.
         23    2    1    2    0    0  0.00000000000E+00  0.00000000000E+00  0.79077235648E+02  0.12020126302E+03  0.90526981799E+02 0.  0.
        -13    1    3    3    0    0  0.40128136101E+02  0.20925964959E+02  0.38492864905E+02  0.59412658289E+02  0.00000000000E+00 0.  1.
         13    1    3    3    0    0 -0.40128136101E+02 -0.20925964959E+02  0.40584370743E+02  0.60788604730E+02  0.00000000000E+00 0. -1.
<mgrwt>
<rscale>  0 0.90526982E+02</rscale>
<asrwt>0</asrwt>
<pdfrwt beam="1">  1        4 0.15329115E-01 0.90526982E+02</pdfrwt>
<pdfrwt beam="2">  1       -4 0.31633868E-02 0.90526982E+02</pdfrwt>
<totfact> 0.25753377E+04</totfact>
</mgrwt>
</event>
<event>
 5    1  0.1310593E+001  0.9211833E+02  0.7546771E-02  0.1297801E+00
          2   -1    0    0  501    0  0.00000000000E+00  0.00000000000E+00  0.81696605540E+02  0.81696605540E+02  0.00000000000E+00 0. -1.
         -2   -1    0    0    0  501 -0.00000000000E+00 -0.00000000000E+00 -0.25967377275E+02  0.25967377275E+02  0.00000000000E+00 0.  1.
         23    2    1    2    0    0  0.00000000000E+00  0.00000000000E+00  0.55729228265E+02  0.10766398282E+03  0.92118327778E+02 0.  0.
        -11    1    3    3    0    0 -0.21895669722E+02 -0.30443922606E+02  0.59120820603E+02  0.70010886332E+02  0.00000000000E+00 0. -1.
         11    1    3    3    0    0  0.21895669722E+02  0.30443922606E+02 -0.33915923381E+01  0.37653096483E+02  0.00000000000E+00 0.  1.
<mgrwt>
<rscale>  0 0.92118328E+02</rscale>
<asrwt>0</asrwt>
<pdfrwt beam="1">  1        2 0.12568709E-01 0.92118328E+02</pdfrwt>
<pdfrwt beam="2">  1       -2 0.39949811E-02 0.92118328E+02</pdfrwt>
<totfact> 0.11229417E+05</totfact>
</mgrwt>
</event>
<event>
 5    1  0.1310593E+001  0.9160348E+02  0.7546771E-02  0.1299014E+00
          4   -1    0    0  501    0  0.00000000000E+00  0.00000000000E+00  0.17851948016E+02  0.17851948016E+02  0.00000000000E+00 0.  1.
         -4   -1    0    0    0  501 -0.00000000000E+00 -0.00000000000E+00 -0.11751094203E+03  0.11751094203E+03  0.00000000000E+00 0. -1.
         23    2    1    2    0    0  0.00000000000E+00  0.00000000000E+00 -0.99658994017E+02  0.13536289005E+03  0.91603476538E+02 0.  0.
        -13    1    3    3    0    0  0.36574259405E+02  0.25653917249E+02 -0.34905461533E+02  0.56693837109E+02  0.00000000000E+00 0.  1.
         13    1    3    3    0    0 -0.36574259405E+02 -0.25653917249E+02 -0.64753532483E+02  0.78669052939E+02  0.00000000000E+00 0. -1.
<mgrwt>
<rscale>  0 0.91603477E+02</rscale>
<asrwt>0</asrwt>
<pdfrwt beam="1">  1        4 0.27464535E-02 0.91603477E+02</pdfrwt>
<pdfrwt beam="2">  1       -4 0.18078606E-01 0.91603477E+02</pdfrwt>
<totfact> 0.24123356E+04</totfact>
</mgrwt>
</event>
<event>
 5    1  0.1310593E+001  0.9178114E+02  0.7546771E-02  0.1298595E+00
          1   -1    0    0  501    0  0.00000000000E+00  0.00000000000E+00  0.20349024547E+03  0.20349024547E+03  0.00000000000E+00 0. -1.
         -1   -1    0    0    0  501 -0.00000000000E+00 -0.00000000000E+00 -0.10349116634E+02  0.10349116634E+02  0.00000000000E+00 0.  1.
         23    2    1    2    0    0  0.00000000000E+00  0.00000000000E+00  0.19314112884E+03  0.21383936211E+03  0.91781137154E+02 0.  0.
        -13    1    3    3    0    0  0.41464135645E+02  0.71889247625E+01  0.53927387304E+02  0.68404080912E+02  0.00000000000E+00 0.  1.
         13    1    3    3    0    0 -0.41464135645E+02 -0.71889247625E+01  0.13921374154E+03  0.14543528120E+03  0.00000000000E+00 0. -1.
<mgrwt>
<rscale>  0 0.91781137E+02</rscale>
<asrwt>0</asrwt>
<pdfrwt beam="1">  1        1 0.31306189E-01 0.91781137E+02</pdfrwt>
<pdfrwt beam="2">  1       -1 0.15921719E-02 0.91781137E+02</pdfrwt>
<totfact> 0.11671637E+05</totfact>
</mgrwt>
</event>
<event>
 5    1  0.1310593E+001  0.9127138E+02  0.7546771E-02  0.1299802E+00
         -1   -1    0    0    0  501 -0.00000000000E+00  0.00000000000E+00  0.22919172621E+02  0.22919172621E+02  0.00000000000E+00 0.  1.
          1   -1    0    0  501    0  0.00000000000E+00 -0.00000000000E+00 -0.90867870876E+02  0.90867870876E+02  0.00000000000E+00 0. -1.
         23    2    1    2    0    0  0.00000000000E+00  0.00000000000E+00 -0.67948698255E+02  0.11378704350E+03  0.91271384746E+02 0.  0.
        -13    1    3    3    0    0 -0.11325649030E+01  0.32646339921E+02 -0.73703462479E+02  0.80618028969E+02  0.00000000000E+00 0.  1.
         13    1    3    3    0    0  0.11325649030E+01 -0.32646339921E+02  0.57547642239E+01  0.33169014528E+02  0.00000000000E+00 0. -1.
<mgrwt>
<rscale>  0 0.91271385E+02</rscale>
<asrwt>0</asrwt>
<pdfrwt beam="2">  1        1 0.13979672E-01 0.91271385E+02</pdfrwt>
<pdfrwt beam="1">  1       -1 0.35260266E-02 0.91271385E+02</pdfrwt>
<totfact> 0.10252924E+05</totfact>
</mgrwt>
</event>
<event>
 5    1  0.1310593E+001  0.9005511E+02  0.7546771E-02  0.1302718E+00
         -2   -1    0    0    0  501 -0.00000000000E+00  0.00000000000E+00  0.94996471910E+01  0.94996471910E+01  0.00000000000E+00 0.  1.
          2   -1    0    0  501    0  0.00000000000E+00 -0.00000000000E+00 -0.21342696828E+03  0.21342696828E+03  0.00000000000E+00 0. -1.
         23    2    1    2    0    0  0.00000000000E+00  0.00000000000E+00 -0.20392732108E+03  0.22292661547E+03  0.90055114228E+02 0.  0.
        -13    1    3    3    0    0  0.41439618528E+02 -0.16602509266E+02 -0.11652374812E+03  0.12478248745E+03  0.00000000000E+00 0. -1.
         13    1    3    3    0    0 -0.41439618528E+02  0.16602509266E+02 -0.87403572965E+02  0.98144128020E+02  0.00000000000E+00 0.  1.
<mgrwt>
<rscale>  0 0.90055114E+02</rscale>
<asrwt>0</asrwt>
<pdfrwt beam="2">  1        2 0.32834918E-01 0.90055114E+02</pdfrwt>
<pdfrwt beam="1">  1       -2 0.14614842E-02 0.90055114E+02</pdfrwt>
<totfact> 0.16372599E+05</totfact>
</mgrwt>
</event>
<event>
 5    1  0.1310593E+001  0.9104094E+02  0.7546771E-02  0.1300350E+00
         -2   -1    0    0    0  501 -0.00000000000E+00  0.00000000000E+00  0.10407325721E+02  0.10407325721E+02  0.00000000000E+00 0.  1.
          2   -1    0    0  501    0  0.00000000000E+00 -0.00000000000E+00 -0.19910142315E+03  0.19910142315E+03  0.00000000000E+00 0. -1.
         23    2    1    2    0    0  0.00000000000E+00  0.00000000000E+00 -0.18869409743E+03  0.20950874887E+03  0.91040943806E+02 0.  0.
        -13    1    3    3    0    0  0.15734132833E+02 -0.35523788709E+02 -0.39762532141E+02  0.55592818443E+02  0.00000000000E+00 0.  1.
         13    1    3    3    0    0 -0.15734132833E+02  0.35523788709E+02 -0.14893156529E+03  0.15391593043E+03  0.00000000000E+00 0. -1.
<mgrwt>
<rscale>  0 0.91040944E+02</rscale>
<asrwt>0</asrwt>
<pdfrwt beam="2">  1        2 0.30630987E-01 0.91040944E+02</pdfrwt>
<pdfrwt beam="1">  1       -2 0.16011271E-02 0.91040944E+02</pdfrwt>
<totfact> 0.15504998E+05</totfact>
</mgrwt>
</event>
<event>
 5    1  0.1310593E+001  0.9313995E+02  0.7546771E-02  0.1295421E+00
          2   -1    0    0  501    0  0.00000000000E+00  0.00000000000E+00  0.19298495627E+03  0.19298495627E+03  0.00000000000E+00 0. -1.
         -2   -1    0    0    0  501 -0.00000000000E+00 -0.00000000000E+00 -0.11237986810E+02  0.11237986810E+02  0.00000000000E+00 0.  1.
         23    2    1    2    0    0  0.00000000000E+00  0.00000000000E+00  0.18174696946E+03  0.20422294308E+03  0.93139946168E+02 0.  0.
        -11    1    3    3    0    0  0.30915740979E+02 -0.34610682987E+02  0.99388175349E+02  0.10968906881E+03  0.00000000000E+00 0.  1.
         11    1    3    3    0    0 -0.30915740979E+02  0.34610682987E+02  0.82358794112E+02  0.94533874271E+02  0.00000000000E+00 0. -1.
<mgrwt>
<rscale>  0 0.93139946E+02</rscale>
<asrwt>0</asrwt>
<pdfrwt beam="1">  1        2 0.29689991E-01 0.93139946E+02</pdfrwt>
<pdfrwt beam="2">  1       -2 0.17289212E-02 0.93139946E+02</pdfrwt>
<totfact> 0.14416492E+05</totfact>
</mgrwt>
</event>
<event>
 5    1  0.1310593E+001  0.9067987E+02  0.7546771E-02  0.1301214E+00
         -1   -1    0    0    0  501 -0.00000000000E+00  0.00000000000E+00  0.20705594414E+02  0.20705594414E+02  0.00000000000E+00 0.  1.
          1   -1    0    0  501    0  0.00000000000E+00 -0.00000000000E+00 -0.99282808205E+02  0.99282808205E+02  0.00000000000E+00 0. -1.
         23    2    1    2    0    0  0.00000000000E+00  0.00000000000E+00 -0.78577213791E+02  0.11998840262E+03  0.90679866763E+02 0.  0.
        -13    1    3    3    0    0 -0.10057972061E+02 -0.20783956868E+02 -0.90920445192E+02  0.93806519065E+02  0.00000000000E+00 0. -1.
         13    1    3    3    0    0  0.10057972061E+02  0.20783956868E+02  0.12343231401E+02  0.26181883555E+02  0.00000000000E+00 0.  1.
<mgrwt>
<rscale>  0 0.90679867E+02</rscale>
<asrwt>0</asrwt>
<pdfrwt beam="2">  1        1 0.15274278E-01 0.90679867E+02</pdfrwt>
<pdfrwt beam="1">  1       -1 0.31854761E-02 0.90679867E+02</pdfrwt>
<totfact> 0.10589209E+05</totfact>
</mgrwt>
</event>
<event>
 5    1  0.1310593E+001  0.8637460E+02  0.7546771E-02  0.1311876E+00
          2   -1    0    0  501    0  0.00000000000E+00  0.00000000000E+00  0.92363142506E+01  0.92363142506E+01  0.00000000000E+00 0. -1.
         -2   -1    0    0    0  501 -0.00000000000E+00 -0.00000000000E+00 -0.20193585766E+03  0.20193585766E+03  0.00000000000E+00 0.  1.
         23    2    1    2    0    0  0.00000000000E+00  0.00000000000E+00 -0.19269954341E+03  0.21117217191E+03  0.86374603671E+02 0.  0.
        -11    1    3    3    0    0  0.25157488308E+02  0.20830456326E+02 -0.27271183716E+02  0.42550259576E+02  0.00000000000E+00 0.  1.
         11    1    3    3    0    0 -0.25157488308E+02 -0.20830456326E+02 -0.16542835969E+03  0.16862191234E+03  0.00000000000E+00 0. -1.
<mgrwt>
<rscale>  0 0.86374604E+02</rscale>
<asrwt>0</asrwt>
<pdfrwt beam="1">  1        2 0.14209713E-02 0.86374604E+02</pdfrwt>
<pdfrwt beam="2">  1       -2 0.31067058E-01 0.86374604E+02</pdfrwt>
<totfact> 0.71241691E+04</totfact>
</mgrwt>
</event>
<event>
 5    1  0.1310593E+001  0.9291458E+02  0.7546771E-02  0.1295943E+00
         -1   -1    0    0    0  501 -0.00000000000E+00  0.00000000000E+00  0.14392595427E+02  0.14392595427E+02  0.00000000000E+00 0.  1.
          1   -1    0    0  501    0  0.00000000000E+00 -0.00000000000E+00 -0.14995764447E+03  0.14995764447E+03  0.00000000000E+00 0. -1.
         23    2    1    2    0    0  0.00000000000E+00  0.00000000000E+00 -0.13556504904E+03  0.16435023989E+03  0.92914578147E+02 0.  0.
        -13    1    3    3    0    0  0.43984967235E+02 -0.24196005736E+01 -0.41681144549E+02  0.60645276985E+02  0.00000000000E+00 0.  1.
         13    1    3    3    0    0 -0.43984967235E+02  0.24196005736E+01 -0.93883904491E+02  0.10370496291E+03  0.00000000000E+00 0. -1.
<mgrwt>
<rscale>  0 0.92914578E+02</rscale>
<asrwt>0</asrwt>
<pdfrwt beam="2">  1        1 0.23070407E-01 0.92914578E+02</pdfrwt>
<pdfrwt beam="1">  1       -1 0.22142454E-02 0.92914578E+02</pdfrwt>
<totfact> 0.10654836E+05</totfact>
</mgrwt>
</event>
<event>
 5    1  0.1310593E+001  0.9084515E+02  0.7546771E-02  0.1300818E+00
         -2   -1    0    0    0  501 -0.00000000000E+00  0.00000000000E+00  0.14972291152E+02  0.14972291152E+02  0.00000000000E+00 0.  1.
          2   -1    0    0  501    0  0.00000000000E+00 -0.00000000000E+00 -0.13780189846E+03  0.13780189846E+03  0.00000000000E+00 0. -1.
         23    2    1    2    0    0  0.00000000000E+00  0.00000000000E+00 -0.12282960731E+03  0.15277418961E+03  0.90845146156E+02 0.  0.
        -11    1    3    3    0    0 -0.20713879702E+02 -0.40337053073E+02 -0.56944051255E+02  0.72792634492E+02  0.00000000000E+00 0. -1.
         11    1    3    3    0    0  0.20713879702E+02  0.40337053073E+02 -0.65885556053E+02  0.79981555119E+02  0.00000000000E+00 0.  1.
<mgrwt>
<rscale>  0 0.90845146E+02</rscale>
<asrwt>0</asrwt>
<pdfrwt beam="2">  1        2 0.21200292E-01 0.90845146E+02</pdfrwt>
<pdfrwt beam="1">  1       -2 0.23034294E-02 0.90845146E+02</pdfrwt>
<totfact> 0.13722762E+05</totfact>
</mgrwt>
</event>
<event>
 5    1  0.1310593E+001  0.9318011E+02  0.7546771E-02  0.1295328E+00
         -1   -1    0    0    0  501 -0.00000000000E+00  0.00000000000E+00  0.38988129215E+02  0.38988129215E+02  0.00000000000E+00 0.  1.
          1   -1    0    0  501    0  0.00000000000E+00 -0.00000000000E+00 -0.55674203160E+02  0.55674203160E+02  0.00000000000E+00 0. -1.
         23    2    1    2    0    0  0.00000000000E+00  0.00000000000E+00 -0.16686073945E+02  0.94662332375E+02  0.93180105747E+02 0.  0.
        -13    1    3    3    0    0  0.94335888719E+01 -0.34337637839E+02 -0.38863684294E+02  0.52711022835E+02  0.00000000000E+00 0. -1.
         13    1    3    3    0    0 -0.94335888719E+01  0.34337637839E+02  0.22177610349E+02  0.41951309541E+02  0.00000000000E+00 0.  1.
<mgrwt>
<rscale>  0 0.93180106E+02</rscale>
<asrwt>0</asrwt>
<pdfrwt beam="2">  1        1 0.85652620E-02 0.93180106E+02</pdfrwt>
<pdfrwt beam="1">  1       -1 0.59981737E-02 0.93180106E+02</pdfrwt>
<totfact> 0.89684481E+04</totfact>
</mgrwt>
</event>
<event>
 5    1  0.1310593E+001  0.9326112E+02  0.7546771E-02  0.1295141E+00
         -1   -1    0    0    0  501 -0.00000000000E+00  0.00000000000E+00  0.11221591539E+03  0.11221591539E+03  0.00000000000E+00 0.  1.
          1   -1    0    0  501    0  0.00000000000E+00 -0.00000000000E+00 -0.19377010669E+02  0.19377010669E+02  0.00000000000E+00 0. -1.
         23    2    1    2    0    0  0.00000000000E+00  0.00000000000E+00  0.92838904721E+02  0.13159292606E+03  0.93261117081E+02 0.  0.
        -11    1    3    3    0    0  0.26512890404E+01 -0.45797375162E+02  0.34615725207E+02  0.57468924967E+02  0.00000000000E+00 0. -1.
         11    1    3    3    0    0 -0.26512890404E+01  0.45797375162E+02  0.58223179514E+02  0.74124001093E+02  0.00000000000E+00 0.  1.
<mgrwt>
<rscale>  0 0.93261117E+02</rscale>
<asrwt>0</asrwt>
<pdfrwt beam="2">  1        1 0.29810786E-02 0.93261117E+02</pdfrwt>
<pdfrwt beam="1">  1       -1 0.17263987E-01 0.93261117E+02</pdfrwt>
<totfact> 0.75077682E+04</totfact>
</mgrwt>
</event>
<event>
 5    1  0.1310593E+001  0.9106993E+02  0.7546771E-02  0.1300281E+00
         -1   -1    0    0    0  501 -0.00000000000E+00  0.00000000000E+00  0.98801982724E+02  0.98801982724E+02  0.00000000000E+00 0.  1.
          1   -1    0    0  501    0  0.00000000000E+00 -0.00000000000E+00 -0.20985743487E+02  0.20985743487E+02  0.00000000000E+00 0. -1.
         23    2    1    2    0    0  0.00000000000E+00  0.00000000000E+00  0.77816239237E+02  0.11978772621E+03  0.91069930613E+02 0.  0.
        -13    1    3    3    0    0  0.21687019785E+01  0.15618441341E+02  0.95096206870E+02  0.96394644764E+02  0.00000000000E+00 0.  1.
         13    1    3    3    0    0 -0.21687019785E+01 -0.15618441341E+02 -0.17279967633E+02  0.23393081447E+02  0.00000000000E+00 0. -1.
<mgrwt>
<rscale>  0 0.91069931E+02</rscale>
<asrwt>0</asrwt>
<pdfrwt beam="2">  1        1 0.32285760E-02 0.91069931E+02</pdfrwt>
<pdfrwt beam="1">  1       -1 0.15200305E-01 0.91069931E+02</pdfrwt>
<totfact> 0.81799609E+04</totfact>
</mgrwt>
</event>
<event>
 5    1  0.1310593E+001  0.9614119E+02  0.7546771E-02  0.1288626E+00
          3   -1    0    0  501    0  0.00000000000E+00  0.00000000000E+00  0.15697713878E+02  0.15697713878E+02  0.00000000000E+00 0. -1.
         -3   -1    0    0    0  501 -0.00000000000E+00 -0.00000000000E+00 -0.14720501377E+03  0.14720501377E+03  0.00000000000E+00 0.  1.
         23    2    1    2    0    0  0.00000000000E+00  0.00000000000E+00 -0.13150729989E+03  0.16290272764E+03  0.96141191743E+02 0.  0.
        -11    1    3    3    0    0  0.34899242404E+01  0.41078988121E+02 -0.10764090227E+03  0.11526589555E+03  0.00000000000E+00 0.  1.
         11    1    3    3    0    0 -0.34899242404E+01 -0.41078988121E+02 -0.23866397619E+02  0.47636832090E+02  0.00000000000E+00 0. -1.
<mgrwt>
<rscale>  0 0.96141192E+02</rscale>
<asrwt>0</asrwt>
<pdfrwt beam="1">  1        3 0.24150328E-02 0.96141192E+02</pdfrwt>
<pdfrwt beam="2">  1       -3 0.22646926E-01 0.96141192E+02</pdfrwt>
<totfact> 0.26439345E+04</totfact>
</mgrwt>
</event>
<event>
 5    1  0.1310593E+001  0.9007927E+02  0.7546771E-02  0.1302660E+00
         -2   -1    0    0    0  501 -0.00000000000E+00  0.00000000000E+00  0.50378627362E+01  0.50378627362E+01  0.00000000000E+00 0.  1.
          2   -1    0    0  501    0  0.00000000000E+00 -0.00000000000E+00 -0.40266453593E+03  0.40266453593E+03  0.00000000000E+00 0. -1.
         23    2    1    2    0    0  0.00000000000E+00  0.00000000000E+00 -0.39762667319E+03  0.40770239867E+03  0.90079268664E+02 0.  0.
        -13    1    3    3    0    0  0.23268897829E+02  0.38150800413E+02 -0.22427346276E+03  0.22868211840E+03  0.00000000000E+00 0.  1.
         13    1    3    3    0    0 -0.23268897829E+02 -0.38150800413E+02 -0.17335321044E+03  0.17902028027E+03  0.00000000000E+00 0. -1.
<mgrwt>
<rscale>  0 0.90079269E+02</rscale>
<asrwt>0</asrwt>
<pdfrwt beam="2">  1        2 0.61948391E-01 0.90079269E+02</pdfrwt>
<pdfrwt beam="1">  1       -2 0.77505579E-03 0.90079269E+02</pdfrwt>
<totfact> 0.20662948E+05</totfact>
</mgrwt>
</event>
<event>
 5    1  0.1310593E+001  0.8968346E+02  0.7546771E-02  0.1303620E+00
         -3   -1    0    0    0  501 -0.00000000000E+00  0.00000000000E+00  0.19358247000E+02  0.19358247000E+02  0.00000000000E+00 0.  1.
          3   -1    0    0  501    0  0.00000000000E+00 -0.00000000000E+00 -0.10387203857E+03  0.10387203857E+03  0.00000000000E+00 0. -1.
         23    2    1    2    0    0  0.00000000000E+00  0.00000000000E+00 -0.84513791567E+02  0.12323028557E+03  0.89683456199E+02 0.  0.
        -11    1    3    3    0    0  0.25262669079E+02  0.85274895081E+01 -0.91796600868E+02  0.95590462166E+02  0.00000000000E+00 0. -1.
         11    1    3    3    0    0 -0.25262669079E+02 -0.85274895081E+01  0.72828093007E+01  0.27639823400E+02  0.00000000000E+00 0.  1.
<mgrwt>
<rscale>  0 0.89683456E+02</rscale>
<asrwt>0</asrwt>
<pdfrwt beam="2">  1        3 0.15980314E-01 0.89683456E+02</pdfrwt>
<pdfrwt beam="1">  1       -3 0.29781918E-02 0.89683456E+02</pdfrwt>
<totfact> 0.34537704E+04</totfact>
</mgrwt>
</event>
<event>
 5    1  0.1310593E+001  0.1021814E+03  0.7546771E-02  0.1275775E+00
          2   -1    0    0  501    0  0.00000000000E+00  0.00000000000E+00  0.24437051133E+03  0.24437051133E+03  0.00000000000E+00 0. -1.
         -2   -1    0    0    0  501 -0.00000000000E+00 -0.00000000000E+00 -0.10681566475E+02  0.10681566475E+02  0.00000000000E+00 0.  1.
         23    2    1    2    0    0  0.00000000000E+00  0.00000000000E+00  0.23368894485E+03  0.25505207780E+03  0.10218140459E+03 0.  0.
        -11    1    3    3    0    0  0.42466357075E+02  0.10804951061E+01  0.45993808498E+02  0.62609818503E+02  0.00000000000E+00 0.  1.
         11    1    3    3    0    0 -0.42466357075E+02 -0.10804951061E+01  0.18769513635E+03  0.19244225930E+03  0.00000000000E+00 0. -1.
<mgrwt>
<rscale>  0 0.10218140E+03</rscale>
<asrwt>0</asrwt>
<pdfrwt beam="1">  1        2 0.37595459E-01 0.10218140E+03</pdfrwt>
<pdfrwt beam="2">  1       -2 0.16433181E-02 0.10218140E+03</pdfrwt>
<totfact> 0.12239005E+05</totfact>
</mgrwt>
</event>
<event>
 5    1  0.1310593E+001  0.8754034E+02  0.7546771E-02  0.1308920E+00
         -3   -1    0    0    0  501 -0.00000000000E+00  0.00000000000E+00  0.75807629615E+01  0.75807629615E+01  0.00000000000E+00 0.  1.
          3   -1    0    0  501    0  0.00000000000E+00 -0.00000000000E+00 -0.25272227200E+03  0.25272227200E+03  0.00000000000E+00 0. -1.
         23    2    1    2    0    0  0.00000000000E+00  0.00000000000E+00 -0.24514150904E+03  0.26030303496E+03  0.87540336739E+02 0.  0.
        -11    1    3    3    0    0 -0.33222517831E+02  0.26005750667E+02 -0.87920253465E+02  0.97519258242E+02  0.00000000000E+00 0. -1.
         11    1    3    3    0    0  0.33222517831E+02 -0.26005750667E+02 -0.15722125557E+03  0.16278377672E+03  0.00000000000E+00 0.  1.
<mgrwt>
<rscale>  0 0.87540337E+02</rscale>
<asrwt>0</asrwt>
<pdfrwt beam="2">  1        3 0.38880354E-01 0.87540337E+02</pdfrwt>
<pdfrwt beam="1">  1       -3 0.11662711E-02 0.87540337E+02</pdfrwt>
<totfact> 0.28608128E+04</totfact>
</mgrwt>
</event>
<event>
 5    1  0.1310593E+001  0.7398345E+02  0.7546771E-02  0.1347048E+00
          3   -1    0    0  501    0  0.00000000000E+00  0.00000000000E+00  0.32765513017E+02  0.32765513017E+02  0.00000000000E+00 0. -1.
         -3   -1    0    0    0  501 -0.00000000000E+00 -0.00000000000E+00 -0.41763044273E+02  0.41763044273E+02  0.00000000000E+00 0.  1.
         23    2    1    2    0    0  0.00000000000E+00  0.00000000000E+00 -0.89975312560E+01  0.74528557291E+02  0.73983446008E+02 0.  0.
        -13    1    3    3    0    0  0.15161780587E+02 -0.28952029234E+02  0.12957732855E+02  0.35156826194E+02  0.00000000000E+00 0. -1.
         13    1    3    3    0    0 -0.15161780587E+02  0.28952029234E+02 -0.21955264111E+02  0.39371731096E+02  0.00000000000E+00 0.  1.
<mgrwt>
<rscale>  0 0.73983446E+02</rscale>
<asrwt>0</asrwt>
<pdfrwt beam="1">  1        3 0.50408482E-02 0.73983446E+02</pdfrwt>
<pdfrwt beam="2">  1       -3 0.64250837E-02 0.73983446E+02</pdfrwt>
<totfact> 0.64382393E+04</totfact>
</mgrwt>
</event>
<event>
 4    1  0.1310593E+001  0.1410205E+03  0.7546771E-02  0.1211962E+00
         -3   -1    0    0    0  501 -0.00000000000E+00  0.00000000000E+00  0.13499808129E+02  0.13499808129E+02  0.00000000000E+00 0.  1.
          3   -1    0    0  501    0  0.00000000000E+00 -0.00000000000E+00 -0.36827877578E+03  0.36827877578E+03  0.00000000000E+00 0. -1.
        -11    1    1    2    0    0 -0.65531894551E+02  0.25254839673E+02 -0.16038397242E+03  0.17508642078E+03  0.00000000000E+00 0.  1.
         11    1    1    2    0    0  0.65531894551E+02 -0.25254839673E+02 -0.19439499523E+03  0.20669216313E+03  0.00000000000E+00 0. -1.
<mgrwt>
<rscale>  0 0.14102046E+03</rscale>
<asrwt>0</asrwt>
<pdfrwt beam="2">  1        3 0.56658265E-01 0.14102046E+03</pdfrwt>
<pdfrwt beam="1">  1       -3 0.20768938E-02 0.14102046E+03</pdfrwt>
<totfact> 0.63930533E+03</totfact>
</mgrwt>
</event>
<event>
 5    1  0.1310593E+001  0.8300760E+02  0.7546771E-02  0.1320727E+00
         -1   -1    0    0    0  501 -0.00000000000E+00  0.00000000000E+00  0.27007956028E+02  0.27007956028E+02  0.00000000000E+00 0.  1.
          1   -1    0    0  501    0  0.00000000000E+00 -0.00000000000E+00 -0.63779929799E+02  0.63779929799E+02  0.00000000000E+00 0. -1.
         23    2    1    2    0    0  0.00000000000E+00  0.00000000000E+00 -0.36771973772E+02  0.90787885827E+02  0.83007603012E+02 0.  0.
        -11    1    3    3    0    0  0.26401703781E+01 -0.22325357659E+02  0.19772071153E+02  0.29938718942E+02  0.00000000000E+00 0.  1.
         11    1    3    3    0    0 -0.26401703781E+01  0.22325357659E+02 -0.56544044924E+02  0.60849166885E+02  0.00000000000E+00 0. -1.
<mgrwt>
<rscale>  0 0.83007603E+02</rscale>
<asrwt>0</asrwt>
<pdfrwt beam="2">  1        1 0.98122967E-02 0.83007603E+02</pdfrwt>
<pdfrwt beam="1">  1       -1 0.41550702E-02 0.83007603E+02</pdfrwt>
<totfact> 0.12587571E+05</totfact>
</mgrwt>
</event>
<event>
 5    1  0.1310593E+001  0.9210562E+02  0.7546771E-02  0.1297831E+00
         -3   -1    0    0    0  501 -0.00000000000E+00  0.00000000000E+00  0.12412406505E+03  0.12412406505E+03  0.00000000000E+00 0.  1.
          3   -1    0    0  501    0  0.00000000000E+00 -0.00000000000E+00 -0.17086626343E+02  0.17086626343E+02  0.00000000000E+00 0. -1.
         23    2    1    2    0    0  0.00000000000E+00  0.00000000000E+00  0.10703743871E+03  0.14121069139E+03  0.92105624577E+02 0.  0.
        -11    1    3    3    0    0 -0.23027768142E+02  0.16611310474E+02 -0.20699314594E+01  0.28469252845E+02  0.00000000000E+00 0. -1.
         11    1    3    3    0    0  0.23027768142E+02 -0.16611310474E+02  0.10910737017E+03  0.11274143855E+03  0.00000000000E+00 0.  1.
<mgrwt>
<rscale>  0 0.92105625E+02</rscale>
<asrwt>0</asrwt>
<pdfrwt beam="2">  1        3 0.26287118E-02 0.92105625E+02</pdfrwt>
<pdfrwt beam="1">  1       -3 0.19096009E-01 0.92105625E+02</pdfrwt>
<totfact> 0.30989989E+04</totfact>
</mgrwt>
</event>
<event>
 5    1  0.1310593E+001  0.1016418E+03  0.7546771E-02  0.1276881E+00
         -1   -1    0    0    0  501 -0.00000000000E+00  0.00000000000E+00  0.42016802510E+02  0.42016802510E+02  0.00000000000E+00 0.  1.
          1   -1    0    0  501    0  0.00000000000E+00 -0.00000000000E+00 -0.61469740633E+02  0.61469740633E+02  0.00000000000E+00 0. -1.
         23    2    1    2    0    0  0.00000000000E+00  0.00000000000E+00 -0.19452938124E+02  0.10348654314E+03  0.10164176214E+03 0.  0.
        -11    1    3    3    0    0  0.33322109078E+02 -0.12813334061E+02  0.27099286529E+02  0.44820930530E+02  0.00000000000E+00 0.  1.
         11    1    3    3    0    0 -0.33322109078E+02  0.12813334061E+02 -0.46552224652E+02  0.58665612613E+02  0.00000000000E+00 0. -1.
<mgrwt>
<rscale>  0 0.10164176E+03</rscale>
<asrwt>0</asrwt>
<pdfrwt beam="2">  1        1 0.94568831E-02 0.10164176E+03</pdfrwt>
<pdfrwt beam="1">  1       -1 0.64641235E-02 0.10164176E+03</pdfrwt>
<totfact> 0.71385030E+04</totfact>
</mgrwt>
</event>
<event>
 5    1  0.1310593E+001  0.9115561E+02  0.7546771E-02  0.1300077E+00
         -2   -1    0    0    0  501 -0.00000000000E+00  0.00000000000E+00  0.22081782966E+03  0.22081782966E+03  0.00000000000E+00 0.  1.
          2   -1    0    0  501    0  0.00000000000E+00 -0.00000000000E+00 -0.94074669397E+01  0.94074669397E+01  0.00000000000E+00 0. -1.
         23    2    1    2    0    0  0.00000000000E+00  0.00000000000E+00  0.21141036272E+03  0.23022529660E+03  0.91155612712E+02 0.  0.
        -13    1    3    3    0    0 -0.29006776706E+02 -0.35074290122E+02  0.99655516097E+02  0.10955738593E+03  0.00000000000E+00 0.  1.
         13    1    3    3    0    0  0.29006776706E+02  0.35074290122E+02  0.11175484663E+03  0.12066791068E+03  0.00000000000E+00 0. -1.
<mgrwt>
<rscale>  0 0.91155613E+02</rscale>
<asrwt>0</asrwt>
<pdfrwt beam="2">  1        2 0.14473028E-02 0.91155613E+02</pdfrwt>
<pdfrwt beam="1">  1       -2 0.33971970E-01 0.91155613E+02</pdfrwt>
<totfact> 0.59658436E+04</totfact>
</mgrwt>
</event>
<event>
 5    1  0.1310593E+001  0.8807004E+02  0.7546771E-02  0.1307594E+00
         -2   -1    0    0    0  501 -0.00000000000E+00  0.00000000000E+00  0.20763798082E+02  0.20763798082E+02  0.00000000000E+00 0.  1.
          2   -1    0    0  501    0  0.00000000000E+00 -0.00000000000E+00 -0.93387675773E+02  0.93387675773E+02  0.00000000000E+00 0. -1.
         23    2    1    2    0    0  0.00000000000E+00  0.00000000000E+00 -0.72623877691E+02  0.11415147385E+03  0.88070036746E+02 0.  0.
        -11    1    3    3    0    0  0.28930862463E+02  0.14779303097E+01  0.66744229328E+01  0.29727546188E+02  0.00000000000E+00 0.  1.
         11    1    3    3    0    0 -0.28930862463E+02 -0.14779303097E+01 -0.79298300624E+02  0.84423927667E+02  0.00000000000E+00 0. -1.
<mgrwt>
<rscale>  0 0.88070037E+02</rscale>
<asrwt>0</asrwt>
<pdfrwt beam="2">  1        2 0.14367335E-01 0.88070037E+02</pdfrwt>
<pdfrwt beam="1">  1       -2 0.31944304E-02 0.88070037E+02</pdfrwt>
<totfact> 0.13219740E+05</totfact>
</mgrwt>
</event>
<event>
 5    1  0.1310593E+001  0.9113553E+02  0.7546771E-02  0.1300125E+00
         -1   -1    0    0    0  501 -0.00000000000E+00  0.00000000000E+00  0.73510278300E+02  0.73510278300E+02  0.00000000000E+00 0.  1.
          1   -1    0    0  501    0  0.00000000000E+00 -0.00000000000E+00 -0.28246677472E+02  0.28246677472E+02  0.00000000000E+00 0. -1.
         23    2    1    2    0    0  0.00000000000E+00  0.00000000000E+00  0.45263600828E+02  0.10175695577E+03  0.91135528134E+02 0.  0.
        -11    1    3    3    0    0  0.85695772679E+01 -0.44752683844E+02  0.22157096266E+02  0.50667319652E+02  0.00000000000E+00 0.  1.
         11    1    3    3    0    0 -0.85695772679E+01  0.44752683844E+02  0.23106504562E+02  0.51089636121E+02  0.00000000000E+00 0. -1.
<mgrwt>
<rscale>  0 0.91135528E+02</rscale>
<asrwt>0</asrwt>
<pdfrwt beam="2">  1        1 0.43456427E-02 0.91135528E+02</pdfrwt>
<pdfrwt beam="1">  1       -1 0.11309273E-01 0.91135528E+02</pdfrwt>
<totfact> 0.85951581E+04</totfact>
</mgrwt>
</event>
<event>
 5    1  0.1310593E+001  0.9049734E+02  0.7546771E-02  0.1301652E+00
         -1   -1    0    0    0  501 -0.00000000000E+00  0.00000000000E+00  0.94164839768E+02  0.94164839768E+02  0.00000000000E+00 0.  1.
          1   -1    0    0  501    0  0.00000000000E+00 -0.00000000000E+00 -0.21743171831E+02  0.21743171831E+02  0.00000000000E+00 0. -1.
         23    2    1    2    0    0  0.00000000000E+00  0.00000000000E+00  0.72421667937E+02  0.11590801160E+03  0.90497343419E+02 0.  0.
        -11    1    3    3    0    0 -0.24686398056E+02  0.12146490601E+02 -0.97993966192E+01  0.29205883945E+02  0.00000000000E+00 0. -1.
         11    1    3    3    0    0  0.24686398056E+02 -0.12146490601E+02  0.82221064556E+02  0.86702127654E+02  0.00000000000E+00 0.  1.
<mgrwt>
<rscale>  0 0.90497343E+02</rscale>
<asrwt>0</asrwt>
<pdfrwt beam="2">  1        1 0.33451034E-02 0.90497343E+02</pdfrwt>
<pdfrwt beam="1">  1       -1 0.14486898E-01 0.90497343E+02</pdfrwt>
<totfact> 0.83869402E+04</totfact>
</mgrwt>
</event>
<event>
 5    1  0.1310593E+001  0.9008831E+02  0.7546771E-02  0.1302638E+00
          2   -1    0    0  501    0  0.00000000000E+00  0.00000000000E+00  0.20367285041E+03  0.20367285041E+03  0.00000000000E+00 0. -1.
         -2   -1    0    0    0  501 -0.00000000000E+00 -0.00000000000E+00 -0.99619366853E+01  0.99619366853E+01  0.00000000000E+00 0.  1.
         23    2    1    2    0    0  0.00000000000E+00  0.00000000000E+00  0.19371091372E+03  0.21363478709E+03  0.90088313121E+02 0.  0.
        -11    1    3    3    0    0  0.35050861184E+02  0.13242068535E+02  0.15614316277E+03  0.16057584665E+03  0.00000000000E+00 0. -1.
         11    1    3    3    0    0 -0.35050861184E+02 -0.13242068535E+02  0.37567750951E+02  0.53058940438E+02  0.00000000000E+00 0.  1.
<mgrwt>
<rscale>  0 0.90088313E+02</rscale>
<asrwt>0</asrwt>
<pdfrwt beam="1">  1        2 0.31334282E-01 0.90088313E+02</pdfrwt>
<pdfrwt beam="2">  1       -2 0.15326058E-02 0.90088313E+02</pdfrwt>
<totfact> 0.16081032E+05</totfact>
</mgrwt>
</event>
<event>
 5    1  0.1310593E+001  0.9103566E+02  0.7546771E-02  0.1300363E+00
          3   -1    0    0  501    0  0.00000000000E+00  0.00000000000E+00  0.93154469400E+02  0.93154469400E+02  0.00000000000E+00 0. -1.
         -3   -1    0    0    0  501 -0.00000000000E+00 -0.00000000000E+00 -0.22241261099E+02  0.22241261099E+02  0.00000000000E+00 0.  1.
         23    2    1    2    0    0  0.00000000000E+00  0.00000000000E+00  0.70913208301E+02  0.11539573050E+03  0.91035660626E+02 0.  0.
        -13    1    3    3    0    0 -0.35998026473E+02 -0.20780862324E+01  0.70669477497E+02  0.79336948530E+02  0.00000000000E+00 0. -1.
         13    1    3    3    0    0  0.35998026473E+02  0.20780862324E+01  0.24373080404E+00  0.36058781968E+02  0.00000000000E+00 0.  1.
<mgrwt>
<rscale>  0 0.91035661E+02</rscale>
<asrwt>0</asrwt>
<pdfrwt beam="1">  1        3 0.14331457E-01 0.91035661E+02</pdfrwt>
<pdfrwt beam="2">  1       -3 0.34217325E-02 0.91035661E+02</pdfrwt>
<totfact> 0.33706030E+04</totfact>
</mgrwt>
</event>
<event>
 5    1  0.1310593E+001  0.8763910E+02  0.7546771E-02  0.1308672E+00
          3   -1    0    0  501    0  0.00000000000E+00  0.00000000000E+00  0.90836019142E+01  0.90836019142E+01  0.00000000000E+00 0.  1.
         -3   -1    0    0    0  501 -0.00000000000E+00 -0.00000000000E+00 -0.21138674982E+03  0.21138674982E+03  0.00000000000E+00 0. -1.
         23    2    1    2    0    0  0.00000000000E+00  0.00000000000E+00 -0.20230314791E+03  0.22047035174E+03  0.87639102809E+02 0.  0.
        -11    1    3    3    0    0  0.24603980874E+02 -0.24911125916E+02 -0.34868154635E+02  0.49413644643E+02  0.00000000000E+00 0.  1.
         11    1    3    3    0    0 -0.24603980874E+02  0.24911125916E+02 -0.16743499327E+03  0.17105670709E+03  0.00000000000E+00 0. -1.
<mgrwt>
<rscale>  0 0.87639103E+02</rscale>
<asrwt>0</asrwt>
<pdfrwt beam="1">  1        3 0.13974772E-02 0.87639103E+02</pdfrwt>
<pdfrwt beam="2">  1       -3 0.32521039E-01 0.87639103E+02</pdfrwt>
<totfact> 0.30550911E+04</totfact>
</mgrwt>
</event>
<event>
 5    1  0.1310593E+001  0.8998227E+02  0.7546771E-02  0.1302895E+00
          2   -1    0    0  501    0  0.00000000000E+00  0.00000000000E+00  0.24507653567E+03  0.24507653567E+03  0.00000000000E+00 0. -1.
         -2   -1    0    0    0  501 -0.00000000000E+00 -0.00000000000E+00 -0.82594691140E+01  0.82594691140E+01  0.00000000000E+00 0.  1.
         23    2    1    2    0    0  0.00000000000E+00  0.00000000000E+00  0.23681706656E+03  0.25333600478E+03  0.89982266629E+02 0.  0.
        -11    1    3    3    0    0  0.41905329228E+02  0.14650955299E+02  0.13900043491E+03  0.14591719574E+03  0.00000000000E+00 0. -1.
         11    1    3    3    0    0 -0.41905329228E+02 -0.14650955299E+02  0.97816631651E+02  0.10741880904E+03  0.00000000000E+00 0.  1.
<mgrwt>
<rscale>  0 0.89982267E+02</rscale>
<asrwt>0</asrwt>
<pdfrwt beam="1">  1        2 0.37704077E-01 0.89982267E+02</pdfrwt>
<pdfrwt beam="2">  1       -2 0.12706877E-02 0.89982267E+02</pdfrwt>
<totfact> 0.17261512E+05</totfact>
</mgrwt>
</event>
<event>
 5    1  0.1310593E+001  0.9963396E+02  0.7546771E-02  0.1281068E+00
         -1   -1    0    0    0  501 -0.00000000000E+00  0.00000000000E+00  0.66539620180E+01  0.66539620180E+01  0.00000000000E+00 0.  1.
          1   -1    0    0  501    0  0.00000000000E+00 -0.00000000000E+00 -0.37297052663E+03  0.37297052663E+03  0.00000000000E+00 0. -1.
         23    2    1    2    0    0  0.00000000000E+00  0.00000000000E+00 -0.36631656461E+03  0.37962448865E+03  0.99633964451E+02 0.  0.
        -11    1    3    3    0    0 -0.45878449202E+02 -0.15650099868E+02 -0.22692973736E+03  0.23204926939E+03  0.00000000000E+00 0. -1.
         11    1    3    3    0    0  0.45878449202E+02  0.15650099868E+02 -0.13938682725E+03  0.14757521925E+03  0.00000000000E+00 0.  1.
<mgrwt>
<rscale>  0 0.99633964E+02</rscale>
<asrwt>0</asrwt>
<pdfrwt beam="2">  1        1 0.57380084E-01 0.99633964E+02</pdfrwt>
<pdfrwt beam="1">  1       -1 0.10236864E-02 0.99633964E+02</pdfrwt>
<totfact> 0.10519515E+05</totfact>
</mgrwt>
</event>
<event>
 5    1  0.1310593E+001  0.8952396E+02  0.7546771E-02  0.1304009E+00
         -2   -1    0    0    0  501 -0.00000000000E+00  0.00000000000E+00  0.38719295310E+02  0.38719295310E+02  0.00000000000E+00 0.  1.
          2   -1    0    0  501    0  0.00000000000E+00 -0.00000000000E+00 -0.51747712935E+02  0.51747712935E+02  0.00000000000E+00 0. -1.
         23    2    1    2    0    0  0.00000000000E+00  0.00000000000E+00 -0.13028417624E+02  0.90467008245E+02  0.89523962798E+02 0.  0.
        -13    1    3    3    0    0  0.23711840407E+01  0.31539391009E+02 -0.38522453019E+02  0.49843104695E+02  0.00000000000E+00 0. -1.
         13    1    3    3    0    0 -0.23711840407E+01 -0.31539391009E+02  0.25494035395E+02  0.40623903551E+02  0.00000000000E+00 0.  1.
<mgrwt>
<rscale>  0 0.89523963E+02</rscale>
<asrwt>0</asrwt>
<pdfrwt beam="2">  1        2 0.79611866E-02 0.89523963E+02</pdfrwt>
<pdfrwt beam="1">  1       -2 0.59568147E-02 0.89523963E+02</pdfrwt>
<totfact> 0.10742686E+05</totfact>
</mgrwt>
</event>
<event>
 5    1  0.1310593E+001  0.9155836E+02  0.7546771E-02  0.1299121E+00
          2   -1    0    0  501    0  0.00000000000E+00  0.00000000000E+00  0.72444106474E+02  0.72444106474E+02  0.00000000000E+00 0. -1.
         -2   -1    0    0    0  501 -0.00000000000E+00 -0.00000000000E+00 -0.28928969309E+02  0.28928969309E+02  0.00000000000E+00 0.  1.
         23    2    1    2    0    0  0.00000000000E+00  0.00000000000E+00  0.43515137164E+02  0.10137307578E+03  0.91558360248E+02 0.  0.
        -11    1    3    3    0    0  0.17559274867E+02 -0.22398865145E+02 -0.17942729773E+02  0.33644893303E+02  0.00000000000E+00 0.  1.
         11    1    3    3    0    0 -0.17559274867E+02  0.22398865145E+02  0.61457866937E+02  0.67728182481E+02  0.00000000000E+00 0. -1.
<mgrwt>
<rscale>  0 0.91558360E+02</rscale>
<asrwt>0</asrwt>
<pdfrwt beam="1">  1        2 0.11145247E-01 0.91558360E+02</pdfrwt>
<pdfrwt beam="2">  1       -2 0.44506107E-02 0.91558360E+02</pdfrwt>
<totfact> 0.11038396E+05</totfact>
</mgrwt>
</event>
<event>
 5    1  0.1310593E+001  0.8793683E+02  0.7546771E-02  0.1307926E+00
          1   -1    0    0  501    0  0.00000000000E+00  0.00000000000E+00  0.44096223294E+02  0.44096223294E+02  0.00000000000E+00 0. -1.
         -1   -1    0    0    0  501 -0.00000000000E+00 -0.00000000000E+00 -0.43840977820E+02  0.43840977820E+02  0.00000000000E+00 0.  1.
         23    2    1    2    0    0  0.00000000000E+00  0.00000000000E+00  0.25524547452E+00  0.87937201114E+02  0.87936830676E+02 0.  0.
        -11    1    3    3    0    0  0.27697833056E+01 -0.13570343916E+02 -0.41602585568E+02  0.43847474950E+02  0.00000000000E+00 0.  1.
         11    1    3    3    0    0 -0.27697833056E+01  0.13570343916E+02  0.41857831043E+02  0.44089726163E+02  0.00000000000E+00 0. -1.
<mgrwt>
<rscale>  0 0.87936831E+02</rscale>
<asrwt>0</asrwt>
<pdfrwt beam="1">  1        1 0.67840343E-02 0.87936831E+02</pdfrwt>
<pdfrwt beam="2">  1       -1 0.67447658E-02 0.87936831E+02</pdfrwt>
<totfact> 0.10182241E+05</totfact>
</mgrwt>
</event>
<event>
 4    1  0.1310593E+001  0.4762202E+02  0.7546771E-02  0.1458607E+00
          1   -1    0    0  501    0  0.00000000000E+00  0.00000000000E+00  0.25045892283E+02  0.25045892283E+02  0.00000000000E+00 0.  1.
         -1   -1    0    0    0  501 -0.00000000000E+00 -0.00000000000E+00 -0.22637015827E+02  0.22637015827E+02  0.00000000000E+00 0. -1.
        -13    1    1    2    0    0  0.21862401115E+02 -0.66255569035E+01  0.79288023830E+01  0.24181159898E+02  0.00000000000E+00 0.  1.
         13    1    1    2    0    0 -0.21862401115E+02  0.66255569035E+01 -0.55199259261E+01  0.23501748212E+02  0.00000000000E+00 0. -1.
<mgrwt>
<rscale>  0 0.47622023E+02</rscale>
<asrwt>0</asrwt>
<pdfrwt beam="1">  1        1 0.38532142E-02 0.47622023E+02</pdfrwt>
<pdfrwt beam="2">  1       -1 0.34826178E-02 0.47622023E+02</pdfrwt>
<totfact> 0.49629340E+05</totfact>
</mgrwt>
</event>
<event>
 5    1  0.1310593E+001  0.8621897E+02  0.7546771E-02  0.1312275E+00
          2   -1    0    0  501    0  0.00000000000E+00  0.00000000000E+00  0.11283080517E+02  0.11283080517E+02  0.00000000000E+00 0. -1.
         -2   -1    0    0    0  501 -0.00000000000E+00 -0.00000000000E+00 -0.16470924761E+03  0.16470924761E+03  0.00000000000E+00 0.  1.
         23    2    1    2    0    0  0.00000000000E+00  0.00000000000E+00 -0.15342616709E+03  0.17599232813E+03  0.86218970132E+02 0.  0.
        -13    1    3    3    0    0  0.17029658480E+02  0.38531214528E+02 -0.95394915379E+02  0.10428256633E+03  0.00000000000E+00 0.  1.
         13    1    3    3    0    0 -0.17029658480E+02 -0.38531214528E+02 -0.58031251715E+02  0.71709761794E+02  0.00000000000E+00 0. -1.
<mgrwt>
<rscale>  0 0.86218970E+02</rscale>
<asrwt>0</asrwt>
<pdfrwt beam="1">  1        2 0.17358586E-02 0.86218970E+02</pdfrwt>
<pdfrwt beam="2">  1       -2 0.25339883E-01 0.86218970E+02</pdfrwt>
<totfact> 0.77731071E+04</totfact>
</mgrwt>
</event>
<event>
 5    1  0.1310593E+001  0.1053000E+03  0.7546771E-02  0.1269530E+00
         -1   -1    0    0    0  501 -0.00000000000E+00  0.00000000000E+00  0.20181335338E+02  0.20181335338E+02  0.00000000000E+00 0.  1.
          1   -1    0    0  501    0  0.00000000000E+00 -0.00000000000E+00 -0.13735572285E+03  0.13735572285E+03  0.00000000000E+00 0. -1.
         23    2    1    2    0    0  0.00000000000E+00  0.00000000000E+00 -0.11717438751E+03  0.15753705818E+03  0.10529998867E+03 0.  0.
        -13    1    3    3    0    0  0.37509886179E+02 -0.15633510756E+02 -0.85048891622E+01  0.41517843868E+02  0.00000000000E+00 0.  1.
         13    1    3    3    0    0 -0.37509886179E+02  0.15633510756E+02 -0.10866949835E+03  0.11601921432E+03  0.00000000000E+00 0. -1.
<mgrwt>
<rscale>  0 0.10529999E+03</rscale>
<asrwt>0</asrwt>
<pdfrwt beam="2">  1        1 0.21131649E-01 0.10529999E+03</pdfrwt>
<pdfrwt beam="1">  1       -1 0.31048210E-02 0.10529999E+03</pdfrwt>
<totfact> 0.74496458E+04</totfact>
</mgrwt>
</event>
<event>
 5    1  0.1310593E+001  0.8996896E+02  0.7546771E-02  0.1302927E+00
          2   -1    0    0  501    0  0.00000000000E+00  0.00000000000E+00  0.22924952074E+03  0.22924952074E+03  0.00000000000E+00 0. -1.
         -2   -1    0    0    0  501 -0.00000000000E+00 -0.00000000000E+00 -0.88270787417E+01  0.88270787417E+01  0.00000000000E+00 0.  1.
         23    2    1    2    0    0  0.00000000000E+00  0.00000000000E+00  0.22042244200E+03  0.23807659949E+03  0.89968962895E+02 0.  0.
        -13    1    3    3    0    0 -0.11793430573E+02  0.38966487755E+02  0.16084524974E+03  0.16591764986E+03  0.00000000000E+00 0.  1.
         13    1    3    3    0    0  0.11793430573E+02 -0.38966487755E+02  0.59577192266E+02  0.72158949625E+02  0.00000000000E+00 0. -1.
<mgrwt>
<rscale>  0 0.89968963E+02</rscale>
<asrwt>0</asrwt>
<pdfrwt beam="1">  1        2 0.35269153E-01 0.89968963E+02</pdfrwt>
<pdfrwt beam="2">  1       -2 0.13580123E-02 0.89968963E+02</pdfrwt>
<totfact> 0.16849410E+05</totfact>
</mgrwt>
</event>
<event>
 5    1  0.1310593E+001  0.8899513E+02  0.7546771E-02  0.1305304E+00
          3   -1    0    0  501    0  0.00000000000E+00  0.00000000000E+00  0.21523035739E+03  0.21523035739E+03  0.00000000000E+00 0. -1.
         -3   -1    0    0    0  501 -0.00000000000E+00 -0.00000000000E+00 -0.91995996597E+01  0.91995996597E+01  0.00000000000E+00 0.  1.
         23    2    1    2    0    0  0.00000000000E+00  0.00000000000E+00  0.20603075773E+03  0.22442995705E+03  0.88995126217E+02 0.  0.
        -11    1    3    3    0    0 -0.25303726209E+02 -0.35678354395E+02  0.12362803730E+03  0.13113777160E+03  0.00000000000E+00 0.  1.
         11    1    3    3    0    0  0.25303726209E+02  0.35678354395E+02  0.82402720426E+02  0.93292185450E+02  0.00000000000E+00 0. -1.
<mgrwt>
<rscale>  0 0.88995126E+02</rscale>
<asrwt>0</asrwt>
<pdfrwt beam="1">  1        3 0.33112359E-01 0.88995126E+02</pdfrwt>
<pdfrwt beam="2">  1       -3 0.14153232E-02 0.88995126E+02</pdfrwt>
<totfact> 0.29117308E+04</totfact>
</mgrwt>
</event>
<event>
 5    1  0.1310593E+001  0.8847838E+02  0.7546771E-02  0.1306579E+00
         -4   -1    0    0    0  501 -0.00000000000E+00  0.00000000000E+00  0.27660338773E+02  0.27660338773E+02  0.00000000000E+00 0.  1.
          4   -1    0    0  501    0  0.00000000000E+00 -0.00000000000E+00 -0.70754943971E+02  0.70754943971E+02  0.00000000000E+00 0. -1.
         23    2    1    2    0    0  0.00000000000E+00  0.00000000000E+00 -0.43094605198E+02  0.98415282745E+02  0.88478375214E+02 0.  0.
        -13    1    3    3    0    0  0.36462392759E+02  0.11865994761E+02 -0.46088723865E+02  0.59953968883E+02  0.00000000000E+00 0. -1.
         13    1    3    3    0    0 -0.36462392759E+02 -0.11865994761E+02  0.29941186668E+01  0.38461313862E+02  0.00000000000E+00 0.  1.
<mgrwt>
<rscale>  0 0.88478375E+02</rscale>
<asrwt>0</asrwt>
<pdfrwt beam="2">  1        4 0.10885376E-01 0.88478375E+02</pdfrwt>
<pdfrwt beam="1">  1       -4 0.42554368E-02 0.88478375E+02</pdfrwt>
<totfact> 0.28801283E+04</totfact>
</mgrwt>
</event>
<event>
 5    1  0.1310593E+001  0.9111727E+02  0.7546771E-02  0.1300168E+00
          1   -1    0    0  501    0  0.00000000000E+00  0.00000000000E+00  0.45803872310E+02  0.45803872310E+02  0.00000000000E+00 0. -1.
         -1   -1    0    0    0  501 -0.00000000000E+00 -0.00000000000E+00 -0.45314707504E+02  0.45314707504E+02  0.00000000000E+00 0.  1.
         23    2    1    2    0    0  0.00000000000E+00  0.00000000000E+00  0.48916480562E+00  0.91118579814E+02  0.91117266778E+02 0.  0.
        -13    1    3    3    0    0 -0.23749339585E+02  0.42851052915E+00  0.39121540664E+02  0.45767998600E+02  0.00000000000E+00 0. -1.
         13    1    3    3    0    0  0.23749339585E+02 -0.42851052915E+00 -0.38632375858E+02  0.45350581214E+02  0.00000000000E+00 0.  1.
<mgrwt>
<rscale>  0 0.91117267E+02</rscale>
<asrwt>0</asrwt>
<pdfrwt beam="1">  1        1 0.70467496E-02 0.91117267E+02</pdfrwt>
<pdfrwt beam="2">  1       -1 0.69714935E-02 0.91117267E+02</pdfrwt>
<totfact> 0.92707913E+04</totfact>
</mgrwt>
</event>
<event>
 5    1  0.1310593E+001  0.8867043E+02  0.7546771E-02  0.1306104E+00
         -2   -1    0    0    0  501 -0.00000000000E+00  0.00000000000E+00  0.14760826022E+02  0.14760826022E+02  0.00000000000E+00 0.  1.
          2   -1    0    0  501    0  0.00000000000E+00 -0.00000000000E+00 -0.13316402991E+03  0.13316402991E+03  0.00000000000E+00 0. -1.
         23    2    1    2    0    0  0.00000000000E+00  0.00000000000E+00 -0.11840320389E+03  0.14792485593E+03  0.88670425236E+02 0.  0.
        -13    1    3    3    0    0  0.42531843866E+02  0.10589433170E+02 -0.70332404546E+02  0.82871834580E+02  0.00000000000E+00 0. -1.
         13    1    3    3    0    0 -0.42531843866E+02 -0.10589433170E+02 -0.48070799341E+02  0.65053021350E+02  0.00000000000E+00 0.  1.
<mgrwt>
<rscale>  0 0.88670425E+02</rscale>
<asrwt>0</asrwt>
<pdfrwt beam="2">  1        2 0.20486774E-01 0.88670425E+02</pdfrwt>
<pdfrwt beam="1">  1       -2 0.22708963E-02 0.88670425E+02</pdfrwt>
<totfact> 0.14491028E+05</totfact>
</mgrwt>
</event>
<event>
 5    1  0.1310593E+001  0.8842278E+02  0.7546771E-02  0.1306717E+00
         -2   -1    0    0    0  501 -0.00000000000E+00  0.00000000000E+00  0.99725733042E+02  0.99725733042E+02  0.00000000000E+00 0.  1.
          2   -1    0    0  501    0  0.00000000000E+00 -0.00000000000E+00 -0.19600226032E+02  0.19600226032E+02  0.00000000000E+00 0. -1.
         23    2    1    2    0    0  0.00000000000E+00  0.00000000000E+00  0.80125507011E+02  0.11932595907E+03  0.88422777808E+02 0.  0.
        -11    1    3    3    0    0 -0.41614599817E+02 -0.51344260484E+01  0.21145297542E+02  0.46960205035E+02  0.00000000000E+00 0. -1.
         11    1    3    3    0    0  0.41614599817E+02  0.51344260484E+01  0.58980209468E+02  0.72365754039E+02  0.00000000000E+00 0.  1.
<mgrwt>
<rscale>  0 0.88422778E+02</rscale>
<asrwt>0</asrwt>
<pdfrwt beam="2">  1        2 0.30154194E-02 0.88422778E+02</pdfrwt>
<pdfrwt beam="1">  1       -2 0.15342420E-01 0.88422778E+02</pdfrwt>
<totfact> 0.86201204E+04</totfact>
</mgrwt>
</event>
<event>
 5    1  0.1310593E+001  0.9067386E+02  0.7546771E-02  0.1301228E+00
          1   -1    0    0  501    0  0.00000000000E+00  0.00000000000E+00  0.19199675773E+02  0.19199675773E+02  0.00000000000E+00 0. -1.
         -1   -1    0    0    0  501 -0.00000000000E+00 -0.00000000000E+00 -0.10705583792E+03  0.10705583792E+03  0.00000000000E+00 0.  1.
         23    2    1    2    0    0  0.00000000000E+00  0.00000000000E+00 -0.87856162147E+02  0.12625551369E+03  0.90673863439E+02 0.  0.
        -13    1    3    3    0    0  0.29973528177E+01 -0.36360839928E+02 -0.81402960013E+02  0.89205026221E+02  0.00000000000E+00 0.  1.
         13    1    3    3    0    0 -0.29973528177E+01  0.36360839928E+02 -0.64532021342E+01  0.37050487473E+02  0.00000000000E+00 0. -1.
<mgrwt>
<rscale>  0 0.90673863E+02</rscale>
<asrwt>0</asrwt>
<pdfrwt beam="1">  1        1 0.29537962E-02 0.90673863E+02</pdfrwt>
<pdfrwt beam="2">  1       -1 0.16470129E-01 0.90673863E+02</pdfrwt>
<totfact> 0.81481982E+04</totfact>
</mgrwt>
</event>
<event>
 5    1  0.1310593E+001  0.9445530E+02  0.7546771E-02  0.1292408E+00
         -3   -1    0    0    0  501 -0.00000000000E+00  0.00000000000E+00  0.19599524353E+02  0.19599524353E+02  0.00000000000E+00 0.  1.
          3   -1    0    0  501    0  0.00000000000E+00 -0.00000000000E+00 -0.11380128806E+03  0.11380128806E+03  0.00000000000E+00 0. -1.
         23    2    1    2    0    0  0.00000000000E+00  0.00000000000E+00 -0.94201763708E+02  0.13340081241E+03  0.94455304070E+02 0.  0.
        -13    1    3    3    0    0  0.21656352474E+02  0.10275859991E+02 -0.10457124745E+03  0.10728344091E+03  0.00000000000E+00 0. -1.
         13    1    3    3    0    0 -0.21656352474E+02 -0.10275859991E+02  0.10369483741E+02  0.26117371501E+02  0.00000000000E+00 0.  1.
<mgrwt>
<rscale>  0 0.94455304E+02</rscale>
<asrwt>0</asrwt>
<pdfrwt beam="2">  1        3 0.17507891E-01 0.94455304E+02</pdfrwt>
<pdfrwt beam="1">  1       -3 0.30153114E-02 0.94455304E+02</pdfrwt>
<totfact> 0.29387659E+04</totfact>
</mgrwt>
</event>
<event>
 5    1  0.1310593E+001  0.9038119E+02  0.7546771E-02  0.1301931E+00
         -2   -1    0    0    0  501 -0.00000000000E+00  0.00000000000E+00  0.70458458144E+01  0.70458458144E+01  0.00000000000E+00 0.  1.
          2   -1    0    0  501    0  0.00000000000E+00 -0.00000000000E+00 -0.28984309375E+03  0.28984309375E+03  0.00000000000E+00 0. -1.
         23    2    1    2    0    0  0.00000000000E+00  0.00000000000E+00 -0.28279724794E+03  0.29688893957E+03  0.90381187179E+02 0.  0.
        -13    1    3    3    0    0 -0.30728574774E+02  0.26387298266E+02 -0.20723145456E+03  0.21115257653E+03  0.00000000000E+00 0. -1.
         13    1    3    3    0    0  0.30728574774E+02 -0.26387298266E+02 -0.75565793377E+02  0.85736363033E+02  0.00000000000E+00 0.  1.
<mgrwt>
<rscale>  0 0.90381187E+02</rscale>
<asrwt>0</asrwt>
<pdfrwt beam="2">  1        2 0.44591258E-01 0.90381187E+02</pdfrwt>
<pdfrwt beam="1">  1       -2 0.10839760E-02 0.90381187E+02</pdfrwt>
<totfact> 0.18156449E+05</totfact>
</mgrwt>
</event>
<event>
 5    1  0.1310593E+001  0.8391556E+02  0.7546771E-02  0.1318293E+00
          1   -1    0    0  501    0  0.00000000000E+00  0.00000000000E+00  0.83910804894E+01  0.83910804894E+01  0.00000000000E+00 0. -1.
         -1   -1    0    0    0  501 -0.00000000000E+00 -0.00000000000E+00 -0.20980078616E+03  0.20980078616E+03  0.00000000000E+00 0.  1.
         23    2    1    2    0    0  0.00000000000E+00  0.00000000000E+00 -0.20140970568E+03  0.21819186665E+03  0.83915559545E+02 0.  0.
        -13    1    3    3    0    0 -0.12400612280E+02 -0.34159407324E+02 -0.15523429771E+03  0.15943126255E+03  0.00000000000E+00 0.  1.
         13    1    3    3    0    0  0.12400612280E+02  0.34159407324E+02 -0.46175407967E+02  0.58760604103E+02  0.00000000000E+00 0. -1.
<mgrwt>
<rscale>  0 0.83915560E+02</rscale>
<asrwt>0</asrwt>
<pdfrwt beam="1">  1        1 0.12909356E-02 0.83915560E+02</pdfrwt>
<pdfrwt beam="2">  1       -1 0.32277041E-01 0.83915560E+02</pdfrwt>
<totfact> 0.84941995E+04</totfact>
</mgrwt>
</event>
<event>
 5    1  0.1310593E+001  0.9570371E+02  0.7546771E-02  0.1289599E+00
         -2   -1    0    0    0  501 -0.00000000000E+00  0.00000000000E+00  0.25264727876E+02  0.25264727876E+02  0.00000000000E+00 0.  1.
          2   -1    0    0  501    0  0.00000000000E+00 -0.00000000000E+00 -0.90632284007E+02  0.90632284007E+02  0.00000000000E+00 0. -1.
         23    2    1    2    0    0  0.00000000000E+00  0.00000000000E+00 -0.65367556132E+02  0.11589701188E+03  0.95703709274E+02 0.  0.
        -11    1    3    3    0    0  0.25720559311E+02  0.14940958762E+02 -0.78076352046E+02  0.83550560553E+02  0.00000000000E+00 0. -1.
         11    1    3    3    0    0 -0.25720559311E+02 -0.14940958762E+02  0.12708795914E+02  0.32346451329E+02  0.00000000000E+00 0.  1.
<mgrwt>
<rscale>  0 0.95703709E+02</rscale>
<asrwt>0</asrwt>
<pdfrwt beam="2">  1        2 0.13943428E-01 0.95703709E+02</pdfrwt>
<pdfrwt beam="1">  1       -2 0.38868812E-02 0.95703709E+02</pdfrwt>
<totfact> 0.10411139E+05</totfact>
</mgrwt>
</event>
<event>
 5    1  0.1310593E+001  0.8043852E+02  0.7546771E-02  0.1327812E+00
          3   -1    0    0  501    0  0.00000000000E+00  0.00000000000E+00  0.16714177437E+03  0.16714177437E+03  0.00000000000E+00 0. -1.
         -3   -1    0    0    0  501 -0.00000000000E+00 -0.00000000000E+00 -0.96779459555E+01  0.96779459555E+01  0.00000000000E+00 0.  1.
         23    2    1    2    0    0  0.00000000000E+00  0.00000000000E+00  0.15746382841E+03  0.17681972032E+03  0.80438524582E+02 0.  0.
        -11    1    3    3    0    0 -0.16386486195E+02 -0.33320238000E+02  0.11270340144E+03  0.11866259683E+03  0.00000000000E+00 0. -1.
         11    1    3    3    0    0  0.16386486195E+02  0.33320238000E+02  0.44760426970E+02  0.58157123491E+02  0.00000000000E+00 0.  1.
<mgrwt>
<rscale>  0 0.80438525E+02</rscale>
<asrwt>0</asrwt>
<pdfrwt beam="1">  1        3 0.25714117E-01 0.80438525E+02</pdfrwt>
<pdfrwt beam="2">  1       -3 0.14889149E-02 0.80438525E+02</pdfrwt>
<totfact> 0.41609739E+04</totfact>
</mgrwt>
</event>
<event>
 5    1  0.1310593E+001  0.8990207E+02  0.7546771E-02  0.1303089E+00
          2   -1    0    0  501    0  0.00000000000E+00  0.00000000000E+00  0.14799518888E+02  0.14799518888E+02  0.00000000000E+00 0.  1.
         -2   -1    0    0    0  501 -0.00000000000E+00 -0.00000000000E+00 -0.13653115568E+03  0.13653115568E+03  0.00000000000E+00 0. -1.
         23    2    1    2    0    0  0.00000000000E+00  0.00000000000E+00 -0.12173163679E+03  0.15133067457E+03  0.89902067102E+02 0.  0.
        -11    1    3    3    0    0 -0.28365822165E+02 -0.17382278471E+02 -0.99807387728E+01  0.34732961555E+02  0.00000000000E+00 0.  1.
         11    1    3    3    0    0  0.28365822165E+02  0.17382278471E+02 -0.11175089802E+03  0.11659771301E+03  0.00000000000E+00 0. -1.
<mgrwt>
<rscale>  0 0.89902067E+02</rscale>
<asrwt>0</asrwt>
<pdfrwt beam="1">  1        2 0.22768490E-02 0.89902067E+02</pdfrwt>
<pdfrwt beam="2">  1       -2 0.21004793E-01 0.89902067E+02</pdfrwt>
<totfact> 0.74837875E+04</totfact>
</mgrwt>
</event>
<event>
 5    1  0.1310593E+001  0.8400583E+02  0.7546771E-02  0.1318053E+00
          1   -1    0    0  501    0  0.00000000000E+00  0.00000000000E+00  0.26537439496E+03  0.26537439496E+03  0.00000000000E+00 0. -1.
         -1   -1    0    0    0  501 -0.00000000000E+00 -0.00000000000E+00 -0.66481353799E+01  0.66481353799E+01  0.00000000000E+00 0.  1.
         23    2    1    2    0    0  0.00000000000E+00  0.00000000000E+00  0.25872625958E+03  0.27202253034E+03  0.84005830847E+02 0.  0.
        -13    1    3    3    0    0  0.12818699981E+02 -0.36182206270E+02  0.74146096524E+02  0.83493201816E+02  0.00000000000E+00 0.  1.
         13    1    3    3    0    0 -0.12818699981E+02  0.36182206270E+02  0.18458016306E+03  0.18852932853E+03  0.00000000000E+00 0. -1.
<mgrwt>
<rscale>  0 0.84005831E+02</rscale>
<asrwt>0</asrwt>
<pdfrwt beam="1">  1        1 0.40826822E-01 0.84005831E+02</pdfrwt>
<pdfrwt beam="2">  1       -1 0.10227903E-02 0.84005831E+02</pdfrwt>
<totfact> 0.15553440E+05</totfact>
</mgrwt>
</event>
<event>
 5    1  0.1310593E+001  0.9118968E+02  0.7546771E-02  0.1299996E+00
          2   -1    0    0  501    0  0.00000000000E+00  0.00000000000E+00  0.96909427118E+02  0.96909427118E+02  0.00000000000E+00 0. -1.
         -2   -1    0    0    0  501 -0.00000000000E+00 -0.00000000000E+00 -0.21451882425E+02  0.21451882425E+02  0.00000000000E+00 0.  1.
         23    2    1    2    0    0  0.00000000000E+00  0.00000000000E+00  0.75457544693E+02  0.11836130954E+03  0.91189684425E+02 0.  0.
        -13    1    3    3    0    0 -0.15023028656E+02 -0.18293240215E+02 -0.12851294487E+02  0.26934917812E+02  0.00000000000E+00 0.  1.
         13    1    3    3    0    0  0.15023028656E+02  0.18293240215E+02  0.88308839180E+02  0.91426391730E+02  0.00000000000E+00 0. -1.
<mgrwt>
<rscale>  0 0.91189684E+02</rscale>
<asrwt>0</asrwt>
<pdfrwt beam="1">  1        2 0.14909142E-01 0.91189684E+02</pdfrwt>
<pdfrwt beam="2">  1       -2 0.33002897E-02 0.91189684E+02</pdfrwt>
<totfact> 0.12146692E+05</totfact>
</mgrwt>
</event>
<event>
 5    1  0.1310593E+001  0.8891173E+02  0.7546771E-02  0.1305509E+00
          1   -1    0    0  501    0  0.00000000000E+00  0.00000000000E+00  0.14507793260E+03  0.14507793260E+03  0.00000000000E+00 0.  1.
         -1   -1    0    0    0  501 -0.00000000000E+00 -0.00000000000E+00 -0.13622497228E+02  0.13622497228E+02  0.00000000000E+00 0. -1.
         23    2    1    2    0    0  0.00000000000E+00  0.00000000000E+00  0.13145543537E+03  0.15870042982E+03  0.88911725541E+02 0.  0.
        -13    1    3    3    0    0  0.26677706683E+02 -0.55851386304E+01  0.12841454716E+03  0.13127524416E+03  0.00000000000E+00 0.  1.
         13    1    3    3    0    0 -0.26677706683E+02  0.55851386304E+01  0.30408882051E+01  0.27425185660E+02  0.00000000000E+00 0. -1.
<mgrwt>
<rscale>  0 0.88911726E+02</rscale>
<asrwt>0</asrwt>
<pdfrwt beam="1">  1        1 0.22319681E-01 0.88911726E+02</pdfrwt>
<pdfrwt beam="2">  1       -1 0.20957689E-02 0.88911726E+02</pdfrwt>
<totfact> 0.11926401E+05</totfact>
</mgrwt>
</event>
<event>
 4    1  0.1310593E+001  0.4007898E+02  0.7546771E-02  0.1507631E+00
         -2   -1    0    0    0  501 -0.00000000000E+00  0.00000000000E+00  0.74249736965E+01  0.74249736965E+01  0.00000000000E+00 0.  1.
          2   -1    0    0  501    0  0.00000000000E+00 -0.00000000000E+00 -0.54085197007E+02  0.54085197007E+02  0.00000000000E+00 0. -1.
        -11    1    1    2    0    0  0.15323294205E+01  0.13539048063E+02 -0.45882059337E+02  0.47862482435E+02  0.00000000000E+00 0. -1.
         11    1    1    2    0    0 -0.15323294205E+01 -0.13539048063E+02 -0.77816397428E+00  0.13647688269E+02  0.00000000000E+00 0.  1.
<mgrwt>
<rscale>  0 0.40078980E+02</rscale>
<asrwt>0</asrwt>
<pdfrwt beam="2">  1        2 0.83207996E-02 0.40078980E+02</pdfrwt>
<pdfrwt beam="1">  1       -2 0.11423036E-02 0.40078980E+02</pdfrwt>
<totfact> 0.91061703E+05</totfact>
</mgrwt>
</event>
<event>
 5    1  0.1310593E+001  0.8188331E+02  0.7546771E-02  0.1323790E+00
          1   -1    0    0  501    0  0.00000000000E+00  0.00000000000E+00  0.75967498157E+02  0.75967498157E+02  0.00000000000E+00 0. -1.
         -1   -1    0    0    0  501 -0.00000000000E+00 -0.00000000000E+00 -0.22064949740E+02  0.22064949740E+02  0.00000000000E+00 0.  1.
         23    2    1    2    0    0  0.00000000000E+00  0.00000000000E+00  0.53902548417E+02  0.98032447897E+02  0.81883307913E+02 0.  0.
        -11    1    3    3    0    0 -0.26057020299E+02  0.11486607591E+02  0.62168891546E+02  0.68380417788E+02  0.00000000000E+00 0. -1.
         11    1    3    3    0    0  0.26057020299E+02 -0.11486607591E+02 -0.82663431298E+01  0.29652030108E+02  0.00000000000E+00 0.  1.
<mgrwt>
<rscale>  0 0.81883308E+02</rscale>
<asrwt>0</asrwt>
<pdfrwt beam="1">  1        1 0.11687307E-01 0.81883308E+02</pdfrwt>
<pdfrwt beam="2">  1       -1 0.33946077E-02 0.81883308E+02</pdfrwt>
<totfact> 0.13397840E+05</totfact>
</mgrwt>
</event>
<event>
 5    1  0.1310593E+001  0.9170780E+02  0.7546771E-02  0.1298768E+00
          2   -1    0    0  501    0  0.00000000000E+00  0.00000000000E+00  0.18346796591E+03  0.18346796591E+03  0.00000000000E+00 0. -1.
         -2   -1    0    0    0  501 -0.00000000000E+00 -0.00000000000E+00 -0.11460202421E+02  0.11460202421E+02  0.00000000000E+00 0.  1.
         23    2    1    2    0    0  0.00000000000E+00  0.00000000000E+00  0.17200776349E+03  0.19492816833E+03  0.91707797426E+02 0.  0.
        -13    1    3    3    0    0  0.35235587272E+02  0.45585384390E+01  0.14761703162E+03  0.15183252257E+03  0.00000000000E+00 0. -1.
         13    1    3    3    0    0 -0.35235587272E+02 -0.45585384390E+01  0.24390731865E+02  0.43095645766E+02  0.00000000000E+00 0.  1.
<mgrwt>
<rscale>  0 0.91707797E+02</rscale>
<asrwt>0</asrwt>
<pdfrwt beam="1">  1        2 0.28225839E-01 0.91707797E+02</pdfrwt>
<pdfrwt beam="2">  1       -2 0.17631082E-02 0.91707797E+02</pdfrwt>
<totfact> 0.14762712E+05</totfact>
</mgrwt>
</event>
<event>
 5    1  0.1310593E+001  0.9246932E+02  0.7546771E-02  0.1296980E+00
         -1   -1    0    0    0  501 -0.00000000000E+00  0.00000000000E+00  0.25671392042E+03  0.25671392042E+03  0.00000000000E+00 0.  1.
          1   -1    0    0  501    0  0.00000000000E+00 -0.00000000000E+00 -0.83269489667E+01  0.83269489667E+01  0.00000000000E+00 0. -1.
         23    2    1    2    0    0  0.00000000000E+00  0.00000000000E+00  0.24838697145E+03  0.26504086938E+03  0.92469318465E+02 0.  0.
        -11    1    3    3    0    0 -0.18177808297E+02  0.37284055525E+02  0.65655119457E+02  0.77660338795E+02  0.00000000000E+00 0. -1.
         11    1    3    3    0    0  0.18177808297E+02 -0.37284055525E+02  0.18273185199E+03  0.18738053059E+03  0.00000000000E+00 0.  1.
<mgrwt>
<rscale>  0 0.92469318E+02</rscale>
<asrwt>0</asrwt>
<pdfrwt beam="2">  1        1 0.12810693E-02 0.92469318E+02</pdfrwt>
<pdfrwt beam="1">  1       -1 0.39494443E-01 0.92469318E+02</pdfrwt>
<totfact> 0.61860499E+04</totfact>
</mgrwt>
</event>
<event>
 5    1  0.1310593E+001  0.8915189E+02  0.7546771E-02  0.1304919E+00
         -1   -1    0    0    0  501 -0.00000000000E+00  0.00000000000E+00  0.17139533275E+03  0.17139533275E+03  0.00000000000E+00 0.  1.
          1   -1    0    0  501    0  0.00000000000E+00 -0.00000000000E+00 -0.11593167852E+02  0.11593167852E+02  0.00000000000E+00 0. -1.
         23    2    1    2    0    0  0.00000000000E+00  0.00000000000E+00  0.15980216490E+03  0.18298850061E+03  0.89151889753E+02 0.  0.
        -13    1    3    3    0    0 -0.34632041988E+02 -0.28025298058E+02  0.76843407699E+02  0.88824011226E+02  0.00000000000E+00 0.  1.
         13    1    3    3    0    0  0.34632041988E+02  0.28025298058E+02  0.82958757202E+02  0.94164489379E+02  0.00000000000E+00 0. -1.
<mgrwt>
<rscale>  0 0.89151890E+02</rscale>
<asrwt>0</asrwt>
<pdfrwt beam="2">  1        1 0.17835644E-02 0.89151890E+02</pdfrwt>
<pdfrwt beam="1">  1       -1 0.26368511E-01 0.89151890E+02</pdfrwt>
<totfact> 0.76734512E+04</totfact>
</mgrwt>
</event>
<event>
 5    1  0.1310593E+001  0.9325749E+02  0.7546771E-02  0.1295150E+00
          4   -1    0    0  501    0  0.00000000000E+00  0.00000000000E+00  0.16276316265E+03  0.16276316265E+03  0.00000000000E+00 0. -1.
         -4   -1    0    0    0  501 -0.00000000000E+00 -0.00000000000E+00 -0.13358303143E+02  0.13358303143E+02  0.00000000000E+00 0.  1.
         23    2    1    2    0    0  0.00000000000E+00  0.00000000000E+00  0.14940485951E+03  0.17612146579E+03  0.93257485859E+02 0.  0.
        -11    1    3    3    0    0  0.34178720552E+02 -0.24485857318E+02  0.36625884399E+02  0.55760178937E+02  0.00000000000E+00 0.  1.
         11    1    3    3    0    0 -0.34178720552E+02  0.24485857318E+02  0.11277897511E+03  0.12036128685E+03  0.00000000000E+00 0. -1.
<mgrwt>
<rscale>  0 0.93257486E+02</rscale>
<asrwt>0</asrwt>
<pdfrwt beam="1">  1        4 0.25040485E-01 0.93257486E+02</pdfrwt>
<pdfrwt beam="2">  1       -4 0.20551237E-02 0.93257486E+02</pdfrwt>
<totfact> 0.21104665E+04</totfact>
</mgrwt>
</event>
<event>
 5    1  0.1310593E+001  0.9097417E+02  0.7546771E-02  0.1300510E+00
         -1   -1    0    0    0  501 -0.00000000000E+00  0.00000000000E+00  0.80349020767E+02  0.80349020767E+02  0.00000000000E+00 0.  1.
          1   -1    0    0  501    0  0.00000000000E+00 -0.00000000000E+00 -0.25751090551E+02  0.25751090551E+02  0.00000000000E+00 0. -1.
         23    2    1    2    0    0  0.00000000000E+00  0.00000000000E+00  0.54597930217E+02  0.10610011132E+03  0.90974170168E+02 0.  0.
        -11    1    3    3    0    0  0.27002276276E+02 -0.18615216946E+02 -0.94601822012E+01  0.34134209722E+02  0.00000000000E+00 0. -1.
         11    1    3    3    0    0 -0.27002276276E+02  0.18615216946E+02  0.64058112418E+02  0.71965901596E+02  0.00000000000E+00 0.  1.
<mgrwt>
<rscale>  0 0.90974170E+02</rscale>
<asrwt>0</asrwt>
<pdfrwt beam="2">  1        1 0.39617063E-02 0.90974170E+02</pdfrwt>
<pdfrwt beam="1">  1       -1 0.12361388E-01 0.90974170E+02</pdfrwt>
<totfact> 0.85071790E+04</totfact>
</mgrwt>
</event>
<event>
 5    1  0.1310593E+001  0.9168095E+02  0.7546771E-02  0.1298831E+00
         -1   -1    0    0    0  501 -0.00000000000E+00  0.00000000000E+00  0.10809933407E+02  0.10809933407E+02  0.00000000000E+00 0.  1.
          1   -1    0    0  501    0  0.00000000000E+00 -0.00000000000E+00 -0.19439057267E+03  0.19439057267E+03  0.00000000000E+00 0. -1.
         23    2    1    2    0    0  0.00000000000E+00  0.00000000000E+00 -0.18358063927E+03  0.20520050608E+03  0.91680949943E+02 0.  0.
        -13    1    3    3    0    0  0.25403083199E+02 -0.34467069405E+02 -0.12843493558E+03  0.13538400270E+03  0.00000000000E+00 0. -1.
         13    1    3    3    0    0 -0.25403083199E+02  0.34467069405E+02 -0.55145703683E+02  0.69816503379E+02  0.00000000000E+00 0.  1.
<mgrwt>
<rscale>  0 0.91680950E+02</rscale>
<asrwt>0</asrwt>
<pdfrwt beam="2">  1        1 0.29906241E-01 0.91680950E+02</pdfrwt>
<pdfrwt beam="1">  1       -1 0.16630667E-02 0.91680950E+02</pdfrwt>
<totfact> 0.11602431E+05</totfact>
</mgrwt>
</event>
<event>
 5    1  0.1310593E+001  0.9146032E+02  0.7546771E-02  0.1299353E+00
          1   -1    0    0  501    0  0.00000000000E+00  0.00000000000E+00  0.34423323552E+02  0.34423323552E+02  0.00000000000E+00 0. -1.
         -1   -1    0    0    0  501 -0.00000000000E+00 -0.00000000000E+00 -0.60750884206E+02  0.60750884206E+02  0.00000000000E+00 0.  1.
         23    2    1    2    0    0  0.00000000000E+00  0.00000000000E+00 -0.26327560654E+02  0.95174207758E+02  0.91460315833E+02 0.  0.
        -13    1    3    3    0    0  0.34253982423E+02  0.23958852764E+02  0.61333818154E+01  0.42249027327E+02  0.00000000000E+00 0. -1.
         13    1    3    3    0    0 -0.34253982423E+02 -0.23958852764E+02 -0.32460942469E+02  0.52925180431E+02  0.00000000000E+00 0.  1.
<mgrwt>
<rscale>  0 0.91460316E+02</rscale>
<asrwt>0</asrwt>
<pdfrwt beam="1">  1        1 0.52958960E-02 0.91460316E+02</pdfrwt>
<pdfrwt beam="2">  1       -1 0.93462898E-02 0.91460316E+02</pdfrwt>
<totfact> 0.87813750E+04</totfact>
</mgrwt>
</event>
<event>
 5    1  0.1310593E+001  0.9119076E+02  0.7546771E-02  0.1299993E+00
         -1   -1    0    0    0  501 -0.00000000000E+00  0.00000000000E+00  0.62335038148E+02  0.62335038148E+02  0.00000000000E+00 0.  1.
          1   -1    0    0  501    0  0.00000000000E+00 -0.00000000000E+00 -0.33351044313E+02  0.33351044313E+02  0.00000000000E+00 0. -1.
         23    2    1    2    0    0  0.00000000000E+00  0.00000000000E+00  0.28983993835E+02  0.95686082461E+02  0.91190758732E+02 0.  0.
        -11    1    3    3    0    0  0.43087136457E+02  0.15945452134E+01 -0.10678508209E+01  0.43129852862E+02  0.00000000000E+00 0. -1.
         11    1    3    3    0    0 -0.43087136457E+02 -0.15945452134E+01  0.30051844656E+02  0.52556229599E+02  0.00000000000E+00 0.  1.
<mgrwt>
<rscale>  0 0.91190759E+02</rscale>
<asrwt>0</asrwt>
<pdfrwt beam="2">  1        1 0.51309299E-02 0.91190759E+02</pdfrwt>
<pdfrwt beam="1">  1       -1 0.95900059E-02 0.91190759E+02</pdfrwt>
<totfact> 0.88118478E+04</totfact>
</mgrwt>
</event>
<event>
 5    1  0.1310593E+001  0.1104869E+03  0.7546771E-02  0.1259671E+00
          2   -1    0    0  501    0  0.00000000000E+00  0.00000000000E+00  0.31873016881E+03  0.31873016881E+03  0.00000000000E+00 0. -1.
         -2   -1    0    0    0  501 -0.00000000000E+00 -0.00000000000E+00 -0.95749837686E+01  0.95749837686E+01  0.00000000000E+00 0.  1.
         23    2    1    2    0    0  0.00000000000E+00  0.00000000000E+00  0.30915518504E+03  0.32830515258E+03  0.11048685339E+03 0.  0.
        -13    1    3    3    0    0 -0.29353155339E+02 -0.35610675393E+02  0.64346118858E+02  0.79184284693E+02  0.00000000000E+00 0.  1.
         13    1    3    3    0    0  0.29353155339E+02  0.35610675393E+02  0.24480906618E+03  0.24912086788E+03  0.00000000000E+00 0. -1.
<mgrwt>
<rscale>  0 0.11048685E+03</rscale>
<asrwt>0</asrwt>
<pdfrwt beam="1">  1        2 0.49035402E-01 0.11048685E+03</pdfrwt>
<pdfrwt beam="2">  1       -2 0.14730747E-02 0.11048685E+03</pdfrwt>
<totfact> 0.10951038E+05</totfact>
</mgrwt>
</event>
<event>
 5    1  0.1310593E+001  0.9089995E+02  0.7546771E-02  0.1300687E+00
          2   -1    0    0  501    0  0.00000000000E+00  0.00000000000E+00  0.93406354829E+02  0.93406354829E+02  0.00000000000E+00 0. -1.
         -2   -1    0    0    0  501 -0.00000000000E+00 -0.00000000000E+00 -0.22115199269E+02  0.22115199269E+02  0.00000000000E+00 0.  1.
         23    2    1    2    0    0  0.00000000000E+00  0.00000000000E+00  0.71291155560E+02  0.11552155410E+03  0.90899948296E+02 0.  0.
        -11    1    3    3    0    0 -0.28553487111E+02  0.29803200125E+01  0.80424700907E+02  0.85395061037E+02  0.00000000000E+00 0. -1.
         11    1    3    3    0    0  0.28553487111E+02 -0.29803200125E+01 -0.91335453474E+01  0.30126493061E+02  0.00000000000E+00 0.  1.
<mgrwt>
<rscale>  0 0.90899948E+02</rscale>
<asrwt>0</asrwt>
<pdfrwt beam="1">  1        2 0.14370208E-01 0.90899948E+02</pdfrwt>
<pdfrwt beam="2">  1       -2 0.34023384E-02 0.90899948E+02</pdfrwt>
<totfact> 0.12119116E+05</totfact>
</mgrwt>
</event>
<event>
 5    1  0.1310593E+001  0.9128442E+02  0.7546771E-02  0.1299771E+00
          1   -1    0    0  501    0  0.00000000000E+00  0.00000000000E+00  0.12278147374E+02  0.12278147374E+02  0.00000000000E+00 0. -1.
         -1   -1    0    0    0  501 -0.00000000000E+00 -0.00000000000E+00 -0.16966821845E+03  0.16966821845E+03  0.00000000000E+00 0.  1.
         23    2    1    2    0    0  0.00000000000E+00  0.00000000000E+00 -0.15739007108E+03  0.18194636582E+03  0.91284421250E+02 0.  0.
        -13    1    3    3    0    0 -0.27804548517E+02 -0.12954303219E+02 -0.14606055499E+03  0.14924675077E+03  0.00000000000E+00 0.  1.
         13    1    3    3    0    0  0.27804548517E+02  0.12954303219E+02 -0.11329516085E+02  0.32699615057E+02  0.00000000000E+00 0. -1.
<mgrwt>
<rscale>  0 0.91284421E+02</rscale>
<asrwt>0</asrwt>
<pdfrwt beam="1">  1        1 0.18889458E-02 0.91284421E+02</pdfrwt>
<pdfrwt beam="2">  1       -1 0.26102802E-01 0.91284421E+02</pdfrwt>
<totfact> 0.72352025E+04</totfact>
</mgrwt>
</event>
<event>
 5    1  0.1310593E+001  0.8803694E+02  0.7546771E-02  0.1307676E+00
         -1   -1    0    0    0  501 -0.00000000000E+00  0.00000000000E+00  0.26487552350E+03  0.26487552350E+03  0.00000000000E+00 0.  1.
          1   -1    0    0  501    0  0.00000000000E+00 -0.00000000000E+00 -0.73152304903E+01  0.73152304903E+01  0.00000000000E+00 0. -1.
         23    2    1    2    0    0  0.00000000000E+00  0.00000000000E+00  0.25756029301E+03  0.27219075399E+03  0.88036935559E+02 0.  0.
        -13    1    3    3    0    0 -0.10643707273E+02  0.42542248110E+02  0.11700938716E+03  0.12495730496E+03  0.00000000000E+00 0. -1.
         13    1    3    3    0    0  0.10643707273E+02 -0.42542248110E+02  0.14055090585E+03  0.14723344904E+03  0.00000000000E+00 0.  1.
<mgrwt>
<rscale>  0 0.88036936E+02</rscale>
<asrwt>0</asrwt>
<pdfrwt beam="2">  1        1 0.11254203E-02 0.88036936E+02</pdfrwt>
<pdfrwt beam="1">  1       -1 0.40750073E-01 0.88036936E+02</pdfrwt>
<totfact> 0.69552586E+04</totfact>
</mgrwt>
</event>
<event>
 5    1  0.1310593E+001  0.9282989E+02  0.7546771E-02  0.1296140E+00
          2   -1    0    0  501    0  0.00000000000E+00  0.00000000000E+00  0.34906753646E+02  0.34906753646E+02  0.00000000000E+00 0. -1.
         -2   -1    0    0    0  501 -0.00000000000E+00 -0.00000000000E+00 -0.61717196719E+02  0.61717196719E+02  0.00000000000E+00 0.  1.
         23    2    1    2    0    0  0.00000000000E+00  0.00000000000E+00 -0.26810443073E+02  0.96623950365E+02  0.92829887032E+02 0.  0.
        -13    1    3    3    0    0 -0.66503036490E+01  0.28274324842E+02 -0.51088250151E+02  0.58767961402E+02  0.00000000000E+00 0.  1.
         13    1    3    3    0    0  0.66503036490E+01 -0.28274324842E+02  0.24277807078E+02  0.37855988963E+02  0.00000000000E+00 0. -1.
<mgrwt>
<rscale>  0 0.92829887E+02</rscale>
<asrwt>0</asrwt>
<pdfrwt beam="1">  1        2 0.53702698E-02 0.92829887E+02</pdfrwt>
<pdfrwt beam="2">  1       -2 0.94949533E-02 0.92829887E+02</pdfrwt>
<totfact> 0.87339607E+04</totfact>
</mgrwt>
</event>
<event>
 5    1  0.1310593E+001  0.8913033E+02  0.7546771E-02  0.1304971E+00
          2   -1    0    0  501    0  0.00000000000E+00  0.00000000000E+00  0.21895642203E+02  0.21895642203E+02  0.00000000000E+00 0. -1.
         -2   -1    0    0    0  501 -0.00000000000E+00 -0.00000000000E+00 -0.90705445916E+02  0.90705445916E+02  0.00000000000E+00 0.  1.
         23    2    1    2    0    0  0.00000000000E+00  0.00000000000E+00 -0.68809803712E+02  0.11260108812E+03  0.89130331306E+02 0.  0.
        -11    1    3    3    0    0 -0.11230581041E+02 -0.28644917084E+02 -0.75134276947E+02  0.81190004296E+02  0.00000000000E+00 0.  1.
         11    1    3    3    0    0  0.11230581041E+02  0.28644917084E+02  0.63244732342E+01  0.31411083823E+02  0.00000000000E+00 0. -1.
<mgrwt>
<rscale>  0 0.89130331E+02</rscale>
<asrwt>0</asrwt>
<pdfrwt beam="1">  1        2 0.33685603E-02 0.89130331E+02</pdfrwt>
<pdfrwt beam="2">  1       -2 0.13954684E-01 0.89130331E+02</pdfrwt>
<totfact> 0.86863656E+04</totfact>
</mgrwt>
</event>
<event>
 5    1  0.1310593E+001  0.9242223E+02  0.7546771E-02  0.1297090E+00
          3   -1    0    0  501    0  0.00000000000E+00  0.00000000000E+00  0.45243797487E+01  0.45243797487E+01  0.00000000000E+00 0. -1.
         -3   -1    0    0    0  501 -0.00000000000E+00 -0.00000000000E+00 -0.47199113779E+03  0.47199113779E+03  0.00000000000E+00 0.  1.
         23    2    1    2    0    0  0.00000000000E+00  0.00000000000E+00 -0.46746675804E+03  0.47651551754E+03  0.92422229910E+02 0.  0.
        -13    1    3    3    0    0 -0.32230647502E+02  0.32628925519E+02 -0.20456485524E+03  0.20964312871E+03  0.00000000000E+00 0.  1.
         13    1    3    3    0    0  0.32230647502E+02 -0.32628925519E+02 -0.26290190281E+03  0.26687238883E+03  0.00000000000E+00 0. -1.
<mgrwt>
<rscale>  0 0.92422230E+02</rscale>
<asrwt>0</asrwt>
<pdfrwt beam="1">  1        3 0.69605844E-03 0.92422230E+02</pdfrwt>
<pdfrwt beam="2">  1       -3 0.72614020E-01 0.92422230E+02</pdfrwt>
<totfact> 0.17816741E+04</totfact>
</mgrwt>
</event>
<event>
 5    1  0.1310593E+001  0.9008064E+02  0.7546771E-02  0.1302657E+00
          1   -1    0    0  501    0  0.00000000000E+00  0.00000000000E+00  0.75320122656E+01  0.75320122656E+01  0.00000000000E+00 0. -1.
         -1   -1    0    0    0  501 -0.00000000000E+00 -0.00000000000E+00 -0.26933447369E+03  0.26933447369E+03  0.00000000000E+00 0.  1.
         23    2    1    2    0    0  0.00000000000E+00  0.00000000000E+00 -0.26180246143E+03  0.27686648596E+03  0.90080642968E+02 0.  0.
        -13    1    3    3    0    0  0.21409069717E+02  0.29666580968E+02 -0.21164684108E+03  0.21478556663E+03  0.00000000000E+00 0.  1.
         13    1    3    3    0    0 -0.21409069717E+02 -0.29666580968E+02 -0.50155620348E+02  0.62080919331E+02  0.00000000000E+00 0. -1.
<mgrwt>
<rscale>  0 0.90080643E+02</rscale>
<asrwt>0</asrwt>
<pdfrwt beam="1">  1        1 0.11587710E-02 0.90080643E+02</pdfrwt>
<pdfrwt beam="2">  1       -1 0.41436077E-01 0.90080643E+02</pdfrwt>
<totfact> 0.65123381E+04</totfact>
</mgrwt>
</event>
<event>
 5    1  0.1310593E+001  0.9005475E+02  0.7546771E-02  0.1302719E+00
          3   -1    0    0  501    0  0.00000000000E+00  0.00000000000E+00  0.30405864017E+02  0.30405864017E+02  0.00000000000E+00 0. -1.
         -3   -1    0    0    0  501 -0.00000000000E+00 -0.00000000000E+00 -0.66680048111E+02  0.66680048111E+02  0.00000000000E+00 0.  1.
         23    2    1    2    0    0  0.00000000000E+00  0.00000000000E+00 -0.36274184094E+02  0.97085912128E+02  0.90054749469E+02 0.  0.
        -13    1    3    3    0    0  0.32892617612E+02  0.21893393329E+02  0.51408624501E+01  0.39845619980E+02  0.00000000000E+00 0. -1.
         13    1    3    3    0    0 -0.32892617612E+02 -0.21893393329E+02 -0.41415046544E+02  0.57240292148E+02  0.00000000000E+00 0.  1.
<mgrwt>
<rscale>  0 0.90054749E+02</rscale>
<asrwt>0</asrwt>
<pdfrwt beam="1">  1        3 0.46778252E-02 0.90054749E+02</pdfrwt>
<pdfrwt beam="2">  1       -3 0.10258469E-01 0.90054749E+02</pdfrwt>
<totfact> 0.36083623E+04</totfact>
</mgrwt>
</event>
<event>
 5    1  0.1310593E+001  0.9789837E+02  0.7546771E-02  0.1284778E+00
          2   -1    0    0  501    0  0.00000000000E+00  0.00000000000E+00  0.21407223595E+03  0.21407223595E+03  0.00000000000E+00 0. -1.
         -2   -1    0    0    0  501 -0.00000000000E+00 -0.00000000000E+00 -0.11192588931E+02  0.11192588931E+02  0.00000000000E+00 0.  1.
         23    2    1    2    0    0  0.00000000000E+00  0.00000000000E+00  0.20287964702E+03  0.22526482488E+03  0.97898366455E+02 0.  0.
        -13    1    3    3    0    0  0.97755256387E+01  0.36867258521E+02  0.17203488600E+03  0.17621225171E+03  0.00000000000E+00 0. -1.
         13    1    3    3    0    0 -0.97755256387E+01 -0.36867258521E+02  0.30844761021E+02  0.49052573172E+02  0.00000000000E+00 0.  1.
<mgrwt>
<rscale>  0 0.97898366E+02</rscale>
<asrwt>0</asrwt>
<pdfrwt beam="1">  1        2 0.32934187E-01 0.97898366E+02</pdfrwt>
<pdfrwt beam="2">  1       -2 0.17219369E-02 0.97898366E+02</pdfrwt>
<totfact> 0.13083738E+05</totfact>
</mgrwt>
</event>
<event>
 5    1  0.1310593E+001  0.9099678E+02  0.7546771E-02  0.1300456E+00
          1   -1    0    0  501    0  0.00000000000E+00  0.00000000000E+00  0.68743950044E+02  0.68743950044E+02  0.00000000000E+00 0. -1.
         -1   -1    0    0    0  501 -0.00000000000E+00 -0.00000000000E+00 -0.30113245444E+02  0.30113245444E+02  0.00000000000E+00 0.  1.
         23    2    1    2    0    0  0.00000000000E+00  0.00000000000E+00  0.38630704600E+02  0.98857195488E+02  0.90996778854E+02 0.  0.
        -11    1    3    3    0    0  0.18682740306E+02 -0.15601688717E+02 -0.22445318145E+02  0.33109662982E+02  0.00000000000E+00 0.  1.
         11    1    3    3    0    0 -0.18682740306E+02  0.15601688717E+02  0.61076022745E+02  0.65747532506E+02  0.00000000000E+00 0. -1.
<mgrwt>
<rscale>  0 0.90996779E+02</rscale>
<asrwt>0</asrwt>
<pdfrwt beam="1">  1        1 0.10575992E-01 0.90996779E+02</pdfrwt>
<pdfrwt beam="2">  1       -1 0.46328070E-02 0.90996779E+02</pdfrwt>
<totfact> 0.98930489E+04</totfact>
</mgrwt>
</event>
<event>
 5    1  0.1310593E+001  0.7779513E+02  0.7546771E-02  0.1335428E+00
         -2   -1    0    0    0  501 -0.00000000000E+00  0.00000000000E+00  0.12032029460E+02  0.12032029460E+02  0.00000000000E+00 0.  1.
          2   -1    0    0  501    0  0.00000000000E+00 -0.00000000000E+00 -0.12574941032E+03  0.12574941032E+03  0.00000000000E+00 0. -1.
         23    2    1    2    0    0  0.00000000000E+00  0.00000000000E+00 -0.11371738086E+03  0.13778143978E+03  0.77795131200E+02 0.  0.
        -13    1    3    3    0    0 -0.21872631820E+02 -0.11243891097E+02 -0.11023211939E+03  0.11294227399E+03  0.00000000000E+00 0. -1.
         13    1    3    3    0    0  0.21872631820E+02  0.11243891097E+02 -0.34852614770E+01  0.24839165793E+02  0.00000000000E+00 0.  1.
<mgrwt>
<rscale>  0 0.77795131E+02</rscale>
<asrwt>0</asrwt>
<pdfrwt beam="2">  1        2 0.19346063E-01 0.77795131E+02</pdfrwt>
<pdfrwt beam="1">  1       -2 0.18510815E-02 0.77795131E+02</pdfrwt>
<totfact> 0.20236569E+05</totfact>
</mgrwt>
</event>
<event>
 5    1  0.1310593E+001  0.9226655E+02  0.7546771E-02  0.1297454E+00
         -3   -1    0    0    0  501 -0.00000000000E+00  0.00000000000E+00  0.24623941775E+02  0.24623941775E+02  0.00000000000E+00 0.  1.
          3   -1    0    0  501    0  0.00000000000E+00 -0.00000000000E+00 -0.86431287392E+02  0.86431287392E+02  0.00000000000E+00 0. -1.
         23    2    1    2    0    0  0.00000000000E+00  0.00000000000E+00 -0.61807345616E+02  0.11105522917E+03  0.92266548398E+02 0.  0.
        -11    1    3    3    0    0 -0.36273297299E+02 -0.27649749457E+02 -0.39244284183E+02  0.60169548635E+02  0.00000000000E+00 0. -1.
         11    1    3    3    0    0  0.36273297299E+02  0.27649749457E+02 -0.22563061433E+02  0.50885680532E+02  0.00000000000E+00 0.  1.
<mgrwt>
<rscale>  0 0.92266548E+02</rscale>
<asrwt>0</asrwt>
<pdfrwt beam="2">  1        3 0.13297121E-01 0.92266548E+02</pdfrwt>
<pdfrwt beam="1">  1       -3 0.37882987E-02 0.92266548E+02</pdfrwt>
<totfact> 0.32790941E+04</totfact>
</mgrwt>
</event>
<event>
 5    1  0.1310593E+001  0.8983720E+02  0.7546771E-02  0.1303246E+00
          2   -1    0    0  501    0  0.00000000000E+00  0.00000000000E+00  0.10168988787E+02  0.10168988787E+02  0.00000000000E+00 0. -1.
         -2   -1    0    0    0  501 -0.00000000000E+00 -0.00000000000E+00 -0.19841508087E+03  0.19841508087E+03  0.00000000000E+00 0.  1.
         23    2    1    2    0    0  0.00000000000E+00  0.00000000000E+00 -0.18824609208E+03  0.20858406965E+03  0.89837202372E+02 0.  0.
        -11    1    3    3    0    0  0.24889497966E+02  0.36526353505E+02 -0.75545866502E+02  0.87526222099E+02  0.00000000000E+00 0. -1.
         11    1    3    3    0    0 -0.24889497966E+02 -0.36526353505E+02 -0.11270022558E+03  0.12105784755E+03  0.00000000000E+00 0.  1.
<mgrwt>
<rscale>  0 0.89837202E+02</rscale>
<asrwt>0</asrwt>
<pdfrwt beam="1">  1        2 0.15644600E-02 0.89837202E+02</pdfrwt>
<pdfrwt beam="2">  1       -2 0.30525394E-01 0.89837202E+02</pdfrwt>
<totfact> 0.64939879E+04</totfact>
</mgrwt>
</event>
<event>
 5    1  0.1310593E+001  0.9059764E+02  0.7546771E-02  0.1301411E+00
         -2   -1    0    0    0  501 -0.00000000000E+00  0.00000000000E+00  0.10024074330E+02  0.10024074330E+02  0.00000000000E+00 0.  1.
          2   -1    0    0  501    0  0.00000000000E+00 -0.00000000000E+00 -0.20470551509E+03  0.20470551509E+03  0.00000000000E+00 0. -1.
         23    2    1    2    0    0  0.00000000000E+00  0.00000000000E+00 -0.19468144076E+03  0.21472958942E+03  0.90597644539E+02 0.  0.
        -11    1    3    3    0    0  0.34213097870E+02  0.28588110718E+02 -0.11632662924E+03  0.12457809122E+03  0.00000000000E+00 0.  1.
         11    1    3    3    0    0 -0.34213097870E+02 -0.28588110718E+02 -0.78354811512E+02  0.90151498198E+02  0.00000000000E+00 0. -1.
<mgrwt>
<rscale>  0 0.90597645E+02</rscale>
<asrwt>0</asrwt>
<pdfrwt beam="2">  1        2 0.31493155E-01 0.90597645E+02</pdfrwt>
<pdfrwt beam="1">  1       -2 0.15421653E-02 0.90597645E+02</pdfrwt>
<totfact> 0.15868391E+05</totfact>
</mgrwt>
</event>
<event>
 5    1  0.1310593E+001  0.7756864E+02  0.7546771E-02  0.1336096E+00
         -4   -1    0    0    0  501 -0.00000000000E+00  0.00000000000E+00  0.29485827989E+03  0.29485827989E+03  0.00000000000E+00 0.  1.
          4   -1    0    0  501    0  0.00000000000E+00 -0.00000000000E+00 -0.51015136160E+01  0.51015136160E+01  0.00000000000E+00 0. -1.
         23    2    1    2    0    0  0.00000000000E+00  0.00000000000E+00  0.28975676628E+03  0.29995979351E+03  0.77568641336E+02 0.  0.
        -13    1    3    3    0    0  0.13507872708E+02  0.34959327983E+02  0.10628434275E+03  0.11269861912E+03  0.00000000000E+00 0. -1.
         13    1    3    3    0    0 -0.13507872708E+02 -0.34959327983E+02  0.18347242353E+03  0.18726117439E+03  0.00000000000E+00 0.  1.
<mgrwt>
<rscale>  0 0.77568641E+02</rscale>
<asrwt>0</asrwt>
<pdfrwt beam="2">  1        4 0.78484848E-03 0.77568641E+02</pdfrwt>
<pdfrwt beam="1">  1       -4 0.45362799E-01 0.77568641E+02</pdfrwt>
<totfact> 0.27248175E+04</totfact>
</mgrwt>
</event>
<event>
 5    1  0.1310593E+001  0.8643492E+02  0.7546771E-02  0.1311722E+00
          2   -1    0    0  501    0  0.00000000000E+00  0.00000000000E+00  0.18854193600E+02  0.18854193600E+02  0.00000000000E+00 0. -1.
         -2   -1    0    0    0  501 -0.00000000000E+00 -0.00000000000E+00 -0.99062777662E+02  0.99062777662E+02  0.00000000000E+00 0.  1.
         23    2    1    2    0    0  0.00000000000E+00  0.00000000000E+00 -0.80208584061E+02  0.11791697126E+03  0.86434918606E+02 0.  0.
        -13    1    3    3    0    0  0.36394064510E+02  0.23100763216E+02 -0.44325823131E+02  0.61830023362E+02  0.00000000000E+00 0.  1.
         13    1    3    3    0    0 -0.36394064510E+02 -0.23100763216E+02 -0.35882760930E+02  0.56086947900E+02  0.00000000000E+00 0. -1.
<mgrwt>
<rscale>  0 0.86434919E+02</rscale>
<asrwt>0</asrwt>
<pdfrwt beam="1">  1        2 0.29006452E-02 0.86434919E+02</pdfrwt>
<pdfrwt beam="2">  1       -2 0.15240427E-01 0.86434919E+02</pdfrwt>
<totfact> 0.91395088E+04</totfact>
</mgrwt>
</event>
<event>
 5    1  0.1310593E+001  0.8308721E+02  0.7546771E-02  0.1320512E+00
         -3   -1    0    0    0  501 -0.00000000000E+00  0.00000000000E+00  0.29171646468E+03  0.29171646468E+03  0.00000000000E+00 0.  1.
          3   -1    0    0  501    0  0.00000000000E+00 -0.00000000000E+00 -0.59162623049E+01  0.59162623049E+01  0.00000000000E+00 0. -1.
         23    2    1    2    0    0  0.00000000000E+00  0.00000000000E+00  0.28580020238E+03  0.29763272699E+03  0.83087210177E+02 0.  0.
        -11    1    3    3    0    0 -0.83640669538E+01  0.40216634847E+02  0.16513722611E+03  0.17016944139E+03  0.00000000000E+00 0.  1.
         11    1    3    3    0    0  0.83640669538E+01 -0.40216634847E+02  0.12066297627E+03  0.12746328560E+03  0.00000000000E+00 0. -1.
<mgrwt>
<rscale>  0 0.83087210E+02</rscale>
<asrwt>0</asrwt>
<pdfrwt beam="2">  1        3 0.91019443E-03 0.83087210E+02</pdfrwt>
<pdfrwt beam="1">  1       -3 0.44879445E-01 0.83087210E+02</pdfrwt>
<totfact> 0.30896905E+04</totfact>
</mgrwt>
</event>
<event>
 5    1  0.1310593E+001  0.8970340E+02  0.7546771E-02  0.1303572E+00
          1   -1    0    0  501    0  0.00000000000E+00  0.00000000000E+00  0.54242368965E+02  0.54242368965E+02  0.00000000000E+00 0. -1.
         -1   -1    0    0    0  501 -0.00000000000E+00 -0.00000000000E+00 -0.37086782499E+02  0.37086782499E+02  0.00000000000E+00 0.  1.
         23    2    1    2    0    0  0.00000000000E+00  0.00000000000E+00  0.17155586466E+02  0.91329151464E+02  0.89703398822E+02 0.  0.
        -13    1    3    3    0    0  0.41919934741E+02 -0.15869417182E+02  0.69501928335E+01  0.45358841594E+02  0.00000000000E+00 0.  1.
         13    1    3    3    0    0 -0.41919934741E+02  0.15869417182E+02  0.10205393632E+02  0.45970309870E+02  0.00000000000E+00 0. -1.
<mgrwt>
<rscale>  0 0.89703399E+02</rscale>
<asrwt>0</asrwt>
<pdfrwt beam="1">  1        1 0.83449798E-02 0.89703399E+02</pdfrwt>
<pdfrwt beam="2">  1       -1 0.57056588E-02 0.89703399E+02</pdfrwt>
<totfact> 0.99313973E+04</totfact>
</mgrwt>
</event>
<event>
 5    1  0.1310593E+001  0.9339256E+02  0.7546771E-02  0.1294838E+00
         -1   -1    0    0    0  501 -0.00000000000E+00  0.00000000000E+00  0.61749139778E+02  0.61749139778E+02  0.00000000000E+00 0.  1.
          1   -1    0    0  501    0  0.00000000000E+00 -0.00000000000E+00 -0.35312921033E+02  0.35312921033E+02  0.00000000000E+00 0. -1.
         23    2    1    2    0    0  0.00000000000E+00  0.00000000000E+00  0.26436218745E+02  0.97062060811E+02  0.93392558522E+02 0.  0.
        -11    1    3    3    0    0 -0.26153859697E+02  0.22387819609E+02  0.46006117476E+02  0.57461306017E+02  0.00000000000E+00 0.  1.
         11    1    3    3    0    0  0.26153859697E+02 -0.22387819609E+02 -0.19569898731E+02  0.39600754794E+02  0.00000000000E+00 0. -1.
<mgrwt>
<rscale>  0 0.93392559E+02</rscale>
<asrwt>0</asrwt>
<pdfrwt beam="2">  1        1 0.54327571E-02 0.93392559E+02</pdfrwt>
<pdfrwt beam="1">  1       -1 0.94998677E-02 0.93392559E+02</pdfrwt>
<totfact> 0.83058423E+04</totfact>
</mgrwt>
</event>
<event>
 5    1  0.1310593E+001  0.8826126E+02  0.7546771E-02  0.1307118E+00
          1   -1    0    0  501    0  0.00000000000E+00  0.00000000000E+00  0.10869927509E+03  0.10869927509E+03  0.00000000000E+00 0. -1.
         -1   -1    0    0    0  501 -0.00000000000E+00 -0.00000000000E+00 -0.17916518042E+02  0.17916518042E+02  0.00000000000E+00 0.  1.
         23    2    1    2    0    0  0.00000000000E+00  0.00000000000E+00  0.90782757049E+02  0.12661579313E+03  0.88261260433E+02 0.  0.
        -13    1    3    3    0    0  0.21960548407E+02 -0.27573480187E+02  0.73026109583E+01  0.35998480839E+02  0.00000000000E+00 0.  1.
         13    1    3    3    0    0 -0.21960548407E+02  0.27573480187E+02  0.83480146091E+02  0.90617312293E+02  0.00000000000E+00 0. -1.
<mgrwt>
<rscale>  0 0.88261260E+02</rscale>
<asrwt>0</asrwt>
<pdfrwt beam="1">  1        1 0.16722965E-01 0.88261260E+02</pdfrwt>
<pdfrwt beam="2">  1       -1 0.27563875E-02 0.88261260E+02</pdfrwt>
<totfact> 0.11568377E+05</totfact>
</mgrwt>
</event>
<event>
 5    1  0.1310593E+001  0.8019434E+02  0.7546771E-02  0.1328501E+00
          3   -1    0    0  501    0  0.00000000000E+00  0.00000000000E+00  0.62838224230E+02  0.62838224230E+02  0.00000000000E+00 0. -1.
         -3   -1    0    0    0  501 -0.00000000000E+00 -0.00000000000E+00 -0.25586069627E+02  0.25586069627E+02  0.00000000000E+00 0.  1.
         23    2    1    2    0    0  0.00000000000E+00  0.00000000000E+00  0.37252154604E+02  0.88424293857E+02  0.80194343451E+02 0.  0.
        -11    1    3    3    0    0 -0.60251163110E+01  0.12024524245E+02 -0.23024728807E+02  0.26665133536E+02  0.00000000000E+00 0.  1.
         11    1    3    3    0    0  0.60251163110E+01 -0.12024524245E+02  0.60276883410E+02  0.61759160321E+02  0.00000000000E+00 0. -1.
<mgrwt>
<rscale>  0 0.80194343E+02</rscale>
<asrwt>0</asrwt>
<pdfrwt beam="1">  1        3 0.96674190E-02 0.80194343E+02</pdfrwt>
<pdfrwt beam="2">  1       -3 0.39363184E-02 0.80194343E+02</pdfrwt>
<totfact> 0.50286336E+04</totfact>
</mgrwt>
</event>
<event>
 5    1  0.1310593E+001  0.9155647E+02  0.7546771E-02  0.1299126E+00
          2   -1    0    0  501    0  0.00000000000E+00  0.00000000000E+00  0.94974197544E+02  0.94974197544E+02  0.00000000000E+00 0. -1.
         -2   -1    0    0    0  501 -0.00000000000E+00 -0.00000000000E+00 -0.22065432249E+02  0.22065432249E+02  0.00000000000E+00 0.  1.
         23    2    1    2    0    0  0.00000000000E+00  0.00000000000E+00  0.72908765295E+02  0.11703962979E+03  0.91556468287E+02 0.  0.
        -13    1    3    3    0    0  0.47160541854E+01 -0.31140809415E+02 -0.60135071856E+01  0.32064831931E+02  0.00000000000E+00 0.  1.
         13    1    3    3    0    0 -0.47160541854E+01  0.31140809415E+02  0.78922272481E+02  0.84974797862E+02  0.00000000000E+00 0. -1.
<mgrwt>
<rscale>  0 0.91556468E+02</rscale>
<asrwt>0</asrwt>
<pdfrwt beam="1">  1        2 0.14611415E-01 0.91556468E+02</pdfrwt>
<pdfrwt beam="2">  1       -2 0.33946820E-02 0.91556468E+02</pdfrwt>
<totfact> 0.11940037E+05</totfact>
</mgrwt>
</event>
<event>
 5    1  0.1310593E+001  0.8265253E+02  0.7546771E-02  0.1321688E+00
         -4   -1    0    0    0  501 -0.00000000000E+00  0.00000000000E+00  0.13777699965E+02  0.13777699965E+02  0.00000000000E+00 0.  1.
          4   -1    0    0  501    0  0.00000000000E+00 -0.00000000000E+00 -0.12395830611E+03  0.12395830611E+03  0.00000000000E+00 0. -1.
         23    2    1    2    0    0  0.00000000000E+00  0.00000000000E+00 -0.11018060614E+03  0.13773600607E+03  0.82652534136E+02 0.  0.
        -11    1    3    3    0    0  0.25976903644E+02  0.30948564308E+02 -0.69545914548E+02  0.80431631749E+02  0.00000000000E+00 0. -1.
         11    1    3    3    0    0 -0.25976903644E+02 -0.30948564308E+02 -0.40634691596E+02  0.57304374324E+02  0.00000000000E+00 0.  1.
<mgrwt>
<rscale>  0 0.82652534E+02</rscale>
<asrwt>0</asrwt>
<pdfrwt beam="2">  1        4 0.19070508E-01 0.82652534E+02</pdfrwt>
<pdfrwt beam="1">  1       -4 0.21196462E-02 0.82652534E+02</pdfrwt>
<totfact> 0.31594837E+04</totfact>
</mgrwt>
</event>
<event>
 5    1  0.1310593E+001  0.9181051E+02  0.7546771E-02  0.1298526E+00
         -2   -1    0    0    0  501 -0.00000000000E+00  0.00000000000E+00  0.32626417366E+02  0.32626417366E+02  0.00000000000E+00 0.  1.
          2   -1    0    0  501    0  0.00000000000E+00 -0.00000000000E+00 -0.64588534718E+02  0.64588534718E+02  0.00000000000E+00 0. -1.
         23    2    1    2    0    0  0.00000000000E+00  0.00000000000E+00 -0.31962117351E+02  0.97214952084E+02  0.91810511180E+02 0.  0.
        -11    1    3    3    0    0 -0.19073266723E+02 -0.25027377310E+02 -0.51372086360E+02  0.60243260001E+02  0.00000000000E+00 0. -1.
         11    1    3    3    0    0  0.19073266723E+02  0.25027377310E+02  0.19409969009E+02  0.36971692083E+02  0.00000000000E+00 0.  1.
<mgrwt>
<rscale>  0 0.91810511E+02</rscale>
<asrwt>0</asrwt>
<pdfrwt beam="2">  1        2 0.99366975E-02 0.91810511E+02</pdfrwt>
<pdfrwt beam="1">  1       -2 0.50194489E-02 0.91810511E+02</pdfrwt>
<totfact> 0.10611435E+05</totfact>
</mgrwt>
</event>
<event>
 5    1  0.1310593E+001  0.9255973E+02  0.7546771E-02  0.1296769E+00
          2   -1    0    0  501    0  0.00000000000E+00  0.00000000000E+00  0.26371773389E+03  0.26371773389E+03  0.00000000000E+00 0. -1.
         -2   -1    0    0    0  501 -0.00000000000E+00 -0.00000000000E+00 -0.81216604703E+01  0.81216604703E+01  0.00000000000E+00 0.  1.
         23    2    1    2    0    0  0.00000000000E+00  0.00000000000E+00  0.25559607342E+03  0.27183939436E+03  0.92559729789E+02 0.  0.
        -13    1    3    3    0    0 -0.42333526281E+02 -0.72032106941E+01  0.77115124595E+02  0.88265260057E+02  0.00000000000E+00 0.  1.
         13    1    3    3    0    0  0.42333526281E+02  0.72032106941E+01  0.17848094883E+03  0.18357413431E+03  0.00000000000E+00 0. -1.
<mgrwt>
<rscale>  0 0.92559730E+02</rscale>
<asrwt>0</asrwt>
<pdfrwt beam="1">  1        2 0.40571952E-01 0.92559730E+02</pdfrwt>
<pdfrwt beam="2">  1       -2 0.12494864E-02 0.92559730E+02</pdfrwt>
<totfact> 0.16445793E+05</totfact>
</mgrwt>
</event>
<event>
 5    1  0.1310593E+001  0.9137640E+02  0.7546771E-02  0.1299552E+00
         -2   -1    0    0    0  501 -0.00000000000E+00  0.00000000000E+00  0.92587379665E+01  0.92587379665E+01  0.00000000000E+00 0.  1.
          2   -1    0    0  501    0  0.00000000000E+00 -0.00000000000E+00 -0.22545316590E+03  0.22545316590E+03  0.00000000000E+00 0. -1.
         23    2    1    2    0    0  0.00000000000E+00  0.00000000000E+00 -0.21619442794E+03  0.23471190387E+03  0.91376403668E+02 0.  0.
        -13    1    3    3    0    0 -0.30445405015E+02  0.21018634649E+02 -0.39235675754E+02  0.53927209653E+02  0.00000000000E+00 0. -1.
         13    1    3    3    0    0  0.30445405015E+02 -0.21018634649E+02 -0.17695875218E+03  0.18078469422E+03  0.00000000000E+00 0.  1.
<mgrwt>
<rscale>  0 0.91376404E+02</rscale>
<asrwt>0</asrwt>
<pdfrwt beam="2">  1        2 0.34685104E-01 0.91376404E+02</pdfrwt>
<pdfrwt beam="1">  1       -2 0.14244212E-02 0.91376404E+02</pdfrwt>
<totfact> 0.16063798E+05</totfact>
</mgrwt>
</event>
<event>
 5    1  0.1310593E+001  0.8897156E+02  0.7546771E-02  0.1305361E+00
         -2   -1    0    0    0  501 -0.00000000000E+00  0.00000000000E+00  0.24913818212E+02  0.24913818212E+02  0.00000000000E+00 0.  1.
          2   -1    0    0  501    0  0.00000000000E+00 -0.00000000000E+00 -0.79433219992E+02  0.79433219992E+02  0.00000000000E+00 0. -1.
         23    2    1    2    0    0  0.00000000000E+00  0.00000000000E+00 -0.54519401780E+02  0.10434703820E+03  0.88971564062E+02 0.  0.
        -13    1    3    3    0    0 -0.24900090262E+02  0.18326751876E+02  0.10253838716E+02  0.32573386956E+02  0.00000000000E+00 0.  1.
         13    1    3    3    0    0  0.24900090262E+02 -0.18326751876E+02 -0.64773240495E+02  0.71773651249E+02  0.00000000000E+00 0. -1.
<mgrwt>
<rscale>  0 0.88971564E+02</rscale>
<asrwt>0</asrwt>
<pdfrwt beam="2">  1        2 0.12220495E-01 0.88971564E+02</pdfrwt>
<pdfrwt beam="1">  1       -2 0.38328951E-02 0.88971564E+02</pdfrwt>
<totfact> 0.12267351E+05</totfact>
</mgrwt>
</event>
<event>
 5    1  0.1310593E+001  0.9231920E+02  0.7546771E-02  0.1297331E+00
          1   -1    0    0  501    0  0.00000000000E+00  0.00000000000E+00  0.13686887058E+02  0.13686887058E+02  0.00000000000E+00 0. -1.
         -1   -1    0    0    0  501 -0.00000000000E+00 -0.00000000000E+00 -0.15567518630E+03  0.15567518630E+03  0.00000000000E+00 0.  1.
         23    2    1    2    0    0  0.00000000000E+00  0.00000000000E+00 -0.14198829924E+03  0.16936207335E+03  0.92319200441E+02 0.  0.
        -13    1    3    3    0    0 -0.36858201074E+02  0.23306053587E+02 -0.43232137141E+02  0.61406162574E+02  0.00000000000E+00 0.  1.
         13    1    3    3    0    0  0.36858201074E+02 -0.23306053587E+02 -0.98756162097E+02  0.10795591078E+03  0.00000000000E+00 0. -1.
<mgrwt>
<rscale>  0 0.92319200E+02</rscale>
<asrwt>0</asrwt>
<pdfrwt beam="1">  1        1 0.21056750E-02 0.92319200E+02</pdfrwt>
<pdfrwt beam="2">  1       -1 0.23950028E-01 0.92319200E+02</pdfrwt>
<totfact> 0.71771606E+04</totfact>
</mgrwt>
</event>
<event>
 5    1  0.1310593E+001  0.9181479E+02  0.7546771E-02  0.1298515E+00
         -1   -1    0    0    0  501 -0.00000000000E+00  0.00000000000E+00  0.18411397087E+03  0.18411397087E+03  0.00000000000E+00 0.  1.
          1   -1    0    0  501    0  0.00000000000E+00 -0.00000000000E+00 -0.11446654960E+02  0.11446654960E+02  0.00000000000E+00 0. -1.
         23    2    1    2    0    0  0.00000000000E+00  0.00000000000E+00  0.17266731591E+03  0.19556062583E+03  0.91814793969E+02 0.  0.
        -13    1    3    3    0    0 -0.45461904758E+02 -0.16886534179E+01  0.73229245646E+02  0.86209968986E+02  0.00000000000E+00 0. -1.
         13    1    3    3    0    0  0.45461904758E+02  0.16886534179E+01  0.99438070260E+02  0.10935065684E+03  0.00000000000E+00 0.  1.
<mgrwt>
<rscale>  0 0.91814794E+02</rscale>
<asrwt>0</asrwt>
<pdfrwt beam="2">  1        1 0.17610240E-02 0.91814794E+02</pdfrwt>
<pdfrwt beam="1">  1       -1 0.28325224E-01 0.91814794E+02</pdfrwt>
<totfact> 0.69759748E+04</totfact>
</mgrwt>
</event>
<event>
 5    1  0.1310593E+001  0.9088742E+02  0.7546771E-02  0.1300717E+00
         -2   -1    0    0    0  501 -0.00000000000E+00  0.00000000000E+00  0.56882280664E+02  0.56882280664E+02  0.00000000000E+00 0.  1.
          2   -1    0    0  501    0  0.00000000000E+00 -0.00000000000E+00 -0.36305341163E+02  0.36305341163E+02  0.00000000000E+00 0. -1.
         23    2    1    2    0    0  0.00000000000E+00  0.00000000000E+00  0.20576939501E+02  0.93187621827E+02  0.90887416194E+02 0.  0.
        -11    1    3    3    0    0  0.23579363563E+02  0.38501832458E+02  0.15591714437E+02  0.47764830657E+02  0.00000000000E+00 0. -1.
         11    1    3    3    0    0 -0.23579363563E+02 -0.38501832458E+02  0.49852250642E+01  0.45422791169E+02  0.00000000000E+00 0.  1.
<mgrwt>
<rscale>  0 0.90887416E+02</rscale>
<asrwt>0</asrwt>
<pdfrwt beam="2">  1        2 0.55854371E-02 0.90887416E+02</pdfrwt>
<pdfrwt beam="1">  1       -2 0.87511201E-02 0.90887416E+02</pdfrwt>
<totfact> 0.93888196E+04</totfact>
</mgrwt>
</event>
<event>
 5    1  0.1310593E+001  0.9108250E+02  0.7546771E-02  0.1300251E+00
          3   -1    0    0  501    0  0.00000000000E+00  0.00000000000E+00  0.60770522108E+02  0.60770522108E+02  0.00000000000E+00 0. -1.
         -3   -1    0    0    0  501 -0.00000000000E+00 -0.00000000000E+00 -0.34128480942E+02  0.34128480942E+02  0.00000000000E+00 0.  1.
         23    2    1    2    0    0  0.00000000000E+00  0.00000000000E+00  0.26642041165E+02  0.94899003050E+02  0.91082503382E+02 0.  0.
        -13    1    3    3    0    0  0.15557670632E+02  0.53647367784E+01 -0.30922199170E+02  0.35028615698E+02  0.00000000000E+00 0.  1.
         13    1    3    3    0    0 -0.15557670632E+02 -0.53647367784E+01  0.57564240336E+02  0.59870387352E+02  0.00000000000E+00 0. -1.
<mgrwt>
<rscale>  0 0.91082503E+02</rscale>
<asrwt>0</asrwt>
<pdfrwt beam="1">  1        3 0.93493111E-02 0.91082503E+02</pdfrwt>
<pdfrwt beam="2">  1       -3 0.52505355E-02 0.91082503E+02</pdfrwt>
<totfact> 0.35153152E+04</totfact>
</mgrwt>
</event>
<event>
 5    1  0.1310593E+001  0.9180137E+02  0.7546771E-02  0.1298547E+00
         -2   -1    0    0    0  501 -0.00000000000E+00  0.00000000000E+00  0.12838607566E+02  0.12838607566E+02  0.00000000000E+00 0.  1.
          2   -1    0    0  501    0  0.00000000000E+00 -0.00000000000E+00 -0.16410448204E+03  0.16410448204E+03  0.00000000000E+00 0. -1.
         23    2    1    2    0    0  0.00000000000E+00  0.00000000000E+00 -0.15126587448E+03  0.17694308961E+03  0.91801373515E+02 0.  0.
        -11    1    3    3    0    0 -0.11282167523E+02 -0.31751641007E+02 -0.15558773824E+02  0.37115083909E+02  0.00000000000E+00 0.  1.
         11    1    3    3    0    0  0.11282167523E+02  0.31751641007E+02 -0.13570710065E+03  0.13982800570E+03  0.00000000000E+00 0. -1.
<mgrwt>
<rscale>  0 0.91801374E+02</rscale>
<asrwt>0</asrwt>
<pdfrwt beam="2">  1        2 0.25246840E-01 0.91801374E+02</pdfrwt>
<pdfrwt beam="1">  1       -2 0.19751706E-02 0.91801374E+02</pdfrwt>
<totfact> 0.14155167E+05</totfact>
</mgrwt>
</event>
<event>
 5    1  0.1310593E+001  0.9104153E+02  0.7546771E-02  0.1300349E+00
          2   -1    0    0  501    0  0.00000000000E+00  0.00000000000E+00  0.18488676030E+02  0.18488676030E+02  0.00000000000E+00 0. -1.
         -2   -1    0    0    0  501 -0.00000000000E+00 -0.00000000000E+00 -0.11207616472E+03  0.11207616472E+03  0.00000000000E+00 0.  1.
         23    2    1    2    0    0  0.00000000000E+00  0.00000000000E+00 -0.93587488693E+02  0.13056484075E+03  0.91041526793E+02 0.  0.
        -11    1    3    3    0    0  0.26212696017E+02 -0.33336789792E+02 -0.70519414475E+02  0.82288728292E+02  0.00000000000E+00 0.  1.
         11    1    3    3    0    0 -0.26212696017E+02  0.33336789792E+02 -0.23068074218E+02  0.48276112460E+02  0.00000000000E+00 0. -1.
<mgrwt>
<rscale>  0 0.91041527E+02</rscale>
<asrwt>0</asrwt>
<pdfrwt beam="1">  1        2 0.28444116E-02 0.91041527E+02</pdfrwt>
<pdfrwt beam="2">  1       -2 0.17242487E-01 0.91041527E+02</pdfrwt>
<totfact> 0.77361350E+04</totfact>
</mgrwt>
</event>
<event>
 5    1  0.1310593E+001  0.9092633E+02  0.7546771E-02  0.1300624E+00
          1   -1    0    0  501    0  0.00000000000E+00  0.00000000000E+00  0.64329063267E+02  0.64329063267E+02  0.00000000000E+00 0. -1.
         -1   -1    0    0    0  501 -0.00000000000E+00 -0.00000000000E+00 -0.32130101824E+02  0.32130101824E+02  0.00000000000E+00 0.  1.
         23    2    1    2    0    0  0.00000000000E+00  0.00000000000E+00  0.32198961443E+02  0.96459165091E+02  0.90926329586E+02 0.  0.
        -13    1    3    3    0    0 -0.14777890313E+02 -0.39893477189E+02 -0.90802002782E+00  0.42552321496E+02  0.00000000000E+00 0.  1.
         13    1    3    3    0    0  0.14777890313E+02  0.39893477189E+02  0.33106981471E+02  0.53906843595E+02  0.00000000000E+00 0. -1.
<mgrwt>
<rscale>  0 0.90926330E+02</rscale>
<asrwt>0</asrwt>
<pdfrwt beam="1">  1        1 0.98967789E-02 0.90926330E+02</pdfrwt>
<pdfrwt beam="2">  1       -1 0.49430926E-02 0.90926330E+02</pdfrwt>
<totfact> 0.98140659E+04</totfact>
</mgrwt>
</event>
<event>
 5    1  0.1310593E+001  0.9187133E+02  0.7546771E-02  0.1298382E+00
          1   -1    0    0  501    0  0.00000000000E+00  0.00000000000E+00  0.57981142989E+02  0.57981142989E+02  0.00000000000E+00 0. -1.
         -1   -1    0    0    0  501 -0.00000000000E+00 -0.00000000000E+00 -0.36392614242E+02  0.36392614242E+02  0.00000000000E+00 0.  1.
         23    2    1    2    0    0  0.00000000000E+00  0.00000000000E+00  0.21588528747E+02  0.94373757230E+02  0.91871331112E+02 0.  0.
        -13    1    3    3    0    0  0.13296698925E+02 -0.43755839204E+02  0.63509740841E+01  0.46170450924E+02  0.00000000000E+00 0.  1.
         13    1    3    3    0    0 -0.13296698925E+02  0.43755839204E+02  0.15237554663E+02  0.48203306306E+02  0.00000000000E+00 0. -1.
<mgrwt>
<rscale>  0 0.91871331E+02</rscale>
<asrwt>0</asrwt>
<pdfrwt beam="1">  1        1 0.89201759E-02 0.91871331E+02</pdfrwt>
<pdfrwt beam="2">  1       -1 0.55988637E-02 0.91871331E+02</pdfrwt>
<totfact> 0.93871485E+04</totfact>
</mgrwt>
</event>
<event>
 5    1  0.1310593E+001  0.9034884E+02  0.7546771E-02  0.1302009E+00
          4   -1    0    0  501    0  0.00000000000E+00  0.00000000000E+00  0.13156309541E+02  0.13156309541E+02  0.00000000000E+00 0.  1.
         -4   -1    0    0    0  501 -0.00000000000E+00 -0.00000000000E+00 -0.15511404556E+03  0.15511404556E+03  0.00000000000E+00 0. -1.
         23    2    1    2    0    0  0.00000000000E+00  0.00000000000E+00 -0.14195773602E+03  0.16827035511E+03  0.90348843878E+02 0.  0.
        -11    1    3    3    0    0  0.23611684144E+02 -0.52747191050E+01  0.72970127742E-01  0.24193792890E+02  0.00000000000E+00 0.  1.
         11    1    3    3    0    0 -0.23611684144E+02  0.52747191050E+01 -0.14203070615E+03  0.14407656222E+03  0.00000000000E+00 0. -1.
<mgrwt>
<rscale>  0 0.90348844E+02</rscale>
<asrwt>0</asrwt>
<pdfrwt beam="1">  1        4 0.20240475E-02 0.90348844E+02</pdfrwt>
<pdfrwt beam="2">  1       -4 0.23863701E-01 0.90348844E+02</pdfrwt>
<totfact> 0.23352242E+04</totfact>
</mgrwt>
</event>
<event>
 5    1  0.1310593E+001  0.9121681E+02  0.7546771E-02  0.1299931E+00
         -2   -1    0    0    0  501 -0.00000000000E+00  0.00000000000E+00  0.24371523036E+02  0.24371523036E+02  0.00000000000E+00 0.  1.
          2   -1    0    0  501    0  0.00000000000E+00 -0.00000000000E+00 -0.85350696170E+02  0.85350696170E+02  0.00000000000E+00 0. -1.
         23    2    1    2    0    0  0.00000000000E+00  0.00000000000E+00 -0.60979173134E+02  0.10972221921E+03  0.91216806737E+02 0.  0.
        -11    1    3    3    0    0 -0.28957674786E+02  0.28117570859E+02 -0.49449812937E+01  0.40664450814E+02  0.00000000000E+00 0.  1.
         11    1    3    3    0    0  0.28957674786E+02 -0.28117570859E+02 -0.56034191841E+02  0.69057768392E+02  0.00000000000E+00 0. -1.
<mgrwt>
<rscale>  0 0.91216807E+02</rscale>
<asrwt>0</asrwt>
<pdfrwt beam="2">  1        2 0.13130876E-01 0.91216807E+02</pdfrwt>
<pdfrwt beam="1">  1       -2 0.37494651E-02 0.91216807E+02</pdfrwt>
<totfact> 0.11687982E+05</totfact>
</mgrwt>
</event>
<event>
 5    1  0.1310593E+001  0.9498424E+02  0.7546771E-02  0.1291212E+00
         -1   -1    0    0    0  501 -0.00000000000E+00  0.00000000000E+00  0.10397624468E+02  0.10397624468E+02  0.00000000000E+00 0.  1.
          1   -1    0    0  501    0  0.00000000000E+00 -0.00000000000E+00 -0.21692469391E+03  0.21692469391E+03  0.00000000000E+00 0. -1.
         23    2    1    2    0    0  0.00000000000E+00  0.00000000000E+00 -0.20652706944E+03  0.22732231837E+03  0.94984240906E+02 0.  0.
        -11    1    3    3    0    0  0.17716501461E+02  0.26033325320E+02 -0.18834710076E+03  0.19096135424E+03  0.00000000000E+00 0. -1.
         11    1    3    3    0    0 -0.17716501461E+02 -0.26033325320E+02 -0.18179968681E+02  0.36360964130E+02  0.00000000000E+00 0.  1.
<mgrwt>
<rscale>  0 0.94984241E+02</rscale>
<asrwt>0</asrwt>
<pdfrwt beam="2">  1        1 0.33373031E-01 0.94984241E+02</pdfrwt>
<pdfrwt beam="1">  1       -1 0.15996345E-02 0.94984241E+02</pdfrwt>
<totfact> 0.10777555E+05</totfact>
</mgrwt>
</event>
<event>
 5    1  0.1310593E+001  0.9315550E+02  0.7546771E-02  0.1295385E+00
         -2   -1    0    0    0  501 -0.00000000000E+00  0.00000000000E+00  0.34539714032E+02  0.34539714032E+02  0.00000000000E+00 0.  1.
          2   -1    0    0  501    0  0.00000000000E+00 -0.00000000000E+00 -0.62811377705E+02  0.62811377705E+02  0.00000000000E+00 0. -1.
         23    2    1    2    0    0  0.00000000000E+00  0.00000000000E+00 -0.28271663673E+02  0.97351091737E+02  0.93155504913E+02 0.  0.
        -13    1    3    3    0    0 -0.16231117828E+02 -0.12661386136E+02 -0.57799526756E+02  0.61355889514E+02  0.00000000000E+00 0. -1.
         13    1    3    3    0    0  0.16231117828E+02  0.12661386136E+02  0.29527863083E+02  0.35995202223E+02  0.00000000000E+00 0.  1.
<mgrwt>
<rscale>  0 0.93155505E+02</rscale>
<asrwt>0</asrwt>
<pdfrwt beam="2">  1        2 0.96632889E-02 0.93155505E+02</pdfrwt>
<pdfrwt beam="1">  1       -2 0.53138022E-02 0.93155505E+02</pdfrwt>
<totfact> 0.10107436E+05</totfact>
</mgrwt>
</event>
<event>
 5    1  0.1310593E+001  0.9082080E+02  0.7546771E-02  0.1300876E+00
         -1   -1    0    0    0  501 -0.00000000000E+00  0.00000000000E+00  0.37685283062E+02  0.37685283062E+02  0.00000000000E+00 0.  1.
          1   -1    0    0  501    0  0.00000000000E+00 -0.00000000000E+00 -0.54719091886E+02  0.54719091886E+02  0.00000000000E+00 0. -1.
         23    2    1    2    0    0  0.00000000000E+00  0.00000000000E+00 -0.17033808824E+02  0.92404374948E+02  0.90820800847E+02 0.  0.
        -13    1    3    3    0    0 -0.16778937445E+02 -0.34784663604E+02  0.15786811086E+02  0.41722044150E+02  0.00000000000E+00 0.  1.
         13    1    3    3    0    0  0.16778937445E+02  0.34784663604E+02 -0.32820619911E+02  0.50682330798E+02  0.00000000000E+00 0. -1.
<mgrwt>
<rscale>  0 0.90820801E+02</rscale>
<asrwt>0</asrwt>
<pdfrwt beam="2">  1        1 0.84183219E-02 0.90820801E+02</pdfrwt>
<pdfrwt beam="1">  1       -1 0.57977358E-02 0.90820801E+02</pdfrwt>
<totfact> 0.96082434E+04</totfact>
</mgrwt>
</event>
<event>
 5    1  0.1310593E+001  0.8983960E+02  0.7546771E-02  0.1303241E+00
         -4   -1    0    0    0  501 -0.00000000000E+00  0.00000000000E+00  0.23211340715E+03  0.23211340715E+03  0.00000000000E+00 0.  1.
          4   -1    0    0  501    0  0.00000000000E+00 -0.00000000000E+00 -0.86931142548E+01  0.86931142548E+01  0.00000000000E+00 0. -1.
         23    2    1    2    0    0  0.00000000000E+00  0.00000000000E+00  0.22342029289E+03  0.24080652140E+03  0.89839598583E+02 0.  0.
        -11    1    3    3    0    0 -0.88515074041E+01  0.43062794427E+02  0.13642733657E+03  0.14333586994E+03  0.00000000000E+00 0.  1.
         11    1    3    3    0    0  0.88515074041E+01 -0.43062794427E+02  0.86992956323E+02  0.97470651465E+02  0.00000000000E+00 0. -1.
<mgrwt>
<rscale>  0 0.89839599E+02</rscale>
<asrwt>0</asrwt>
<pdfrwt beam="2">  1        4 0.13374024E-02 0.89839599E+02</pdfrwt>
<pdfrwt beam="1">  1       -4 0.35709750E-01 0.89839599E+02</pdfrwt>
<totfact> 0.20587972E+04</totfact>
</mgrwt>
</event>
<event>
 5    1  0.1310593E+001  0.9150828E+02  0.7546771E-02  0.1299240E+00
          1   -1    0    0  501    0  0.00000000000E+00  0.00000000000E+00  0.62346337964E+02  0.62346337964E+02  0.00000000000E+00 0. -1.
         -1   -1    0    0    0  501 -0.00000000000E+00 -0.00000000000E+00 -0.33577612655E+02  0.33577612655E+02  0.00000000000E+00 0.  1.
         23    2    1    2    0    0  0.00000000000E+00  0.00000000000E+00  0.28768725309E+02  0.95923950620E+02  0.91508276929E+02 0.  0.
        -13    1    3    3    0    0  0.20499012980E+02 -0.16158499234E+02 -0.25007336947E+02  0.36147939524E+02  0.00000000000E+00 0.  1.
         13    1    3    3    0    0 -0.20499012980E+02  0.16158499234E+02  0.53776062256E+02  0.59776011095E+02  0.00000000000E+00 0. -1.
<mgrwt>
<rscale>  0 0.91508277E+02</rscale>
<asrwt>0</asrwt>
<pdfrwt beam="1">  1        1 0.95917443E-02 0.91508277E+02</pdfrwt>
<pdfrwt beam="2">  1       -1 0.51657866E-02 0.91508277E+02</pdfrwt>
<totfact> 0.95962968E+04</totfact>
</mgrwt>
</event>
<event>
 5    1  0.1310593E+001  0.9500000E+02  0.7546771E-02  0.1291176E+00
         -1   -1    0    0    0  501 -0.00000000000E+00  0.00000000000E+00  0.71422561223E+01  0.71422561223E+01  0.00000000000E+00 0.  1.
          1   -1    0    0  501    0  0.00000000000E+00 -0.00000000000E+00 -0.31590161096E+03  0.31590161096E+03  0.00000000000E+00 0. -1.
         23    2    1    2    0    0  0.00000000000E+00  0.00000000000E+00 -0.30875935484E+03  0.32304386709E+03  0.95000004526E+02 0.  0.
        -13    1    3    3    0    0  0.17561834565E+02 -0.43468825902E+02 -0.12841712388E+03  0.13670740494E+03  0.00000000000E+00 0.  1.
         13    1    3    3    0    0 -0.17561834565E+02  0.43468825902E+02 -0.18034223096E+03  0.18633646215E+03  0.00000000000E+00 0. -1.
<mgrwt>
<rscale>  0 0.95000005E+02</rscale>
<asrwt>0</asrwt>
<pdfrwt beam="2">  1        1 0.48600239E-01 0.95000005E+02</pdfrwt>
<pdfrwt beam="1">  1       -1 0.10988088E-02 0.95000005E+02</pdfrwt>
<totfact> 0.11594124E+05</totfact>
</mgrwt>
</event>
<event>
 5    1  0.1310593E+001  0.9239746E+02  0.7546771E-02  0.1297148E+00
         -4   -1    0    0    0  501 -0.00000000000E+00  0.00000000000E+00  0.28316564579E+02  0.28316564579E+02  0.00000000000E+00 0. -1.
          4   -1    0    0  501    0  0.00000000000E+00 -0.00000000000E+00 -0.75373643231E+02  0.75373643231E+02  0.00000000000E+00 0.  1.
         23    2    1    2    0    0  0.00000000000E+00  0.00000000000E+00 -0.47057078652E+02  0.10369020781E+03  0.92397459621E+02 0.  0.
        -13    1    3    3    0    0 -0.18084451210E+02  0.23075217773E+02  0.16539710609E+02  0.33661180577E+02  0.00000000000E+00 0. -1.
         13    1    3    3    0    0  0.18084451210E+02 -0.23075217773E+02 -0.63596789261E+02  0.70029027233E+02  0.00000000000E+00 0.  1.
<mgrwt>
<rscale>  0 0.92397460E+02</rscale>
<asrwt>0</asrwt>
<pdfrwt beam="2">  1        4 0.11595945E-01 0.92397460E+02</pdfrwt>
<pdfrwt beam="1">  1       -4 0.43563945E-02 0.92397460E+02</pdfrwt>
<totfact> 0.25301090E+04</totfact>
</mgrwt>
</event>
<event>
 5    1  0.1310593E+001  0.1011857E+03  0.7546771E-02  0.1277822E+00
         -4   -1    0    0    0  501 -0.00000000000E+00  0.00000000000E+00  0.40116097307E+02  0.40116097307E+02  0.00000000000E+00 0.  1.
          4   -1    0    0  501    0  0.00000000000E+00 -0.00000000000E+00 -0.63805710651E+02  0.63805710651E+02  0.00000000000E+00 0. -1.
         23    2    1    2    0    0  0.00000000000E+00  0.00000000000E+00 -0.23689613344E+02  0.10392180796E+03  0.10118569261E+03 0.  0.
        -13    1    3    3    0    0  0.15533791133E+02  0.44425929805E+02  0.72226148471E+01  0.47614368328E+02  0.00000000000E+00 0.  1.
         13    1    3    3    0    0 -0.15533791133E+02 -0.44425929805E+02 -0.30912228191E+02  0.56307439631E+02  0.00000000000E+00 0. -1.
<mgrwt>
<rscale>  0 0.10118569E+03</rscale>
<asrwt>0</asrwt>
<pdfrwt beam="2">  1        4 0.98162632E-02 0.10118569E+03</pdfrwt>
<pdfrwt beam="1">  1       -4 0.61717073E-02 0.10118569E+03</pdfrwt>
<totfact> 0.19725882E+04</totfact>
</mgrwt>
</event>
<event>
 5    1  0.1310593E+001  0.9149981E+02  0.7546771E-02  0.1299260E+00
          1   -1    0    0  501    0  0.00000000000E+00  0.00000000000E+00  0.48974057561E+01  0.48974057561E+01  0.00000000000E+00 0. -1.
         -1   -1    0    0    0  501 -0.00000000000E+00 -0.00000000000E+00 -0.42738013762E+03  0.42738013762E+03  0.00000000000E+00 0.  1.
         23    2    1    2    0    0  0.00000000000E+00  0.00000000000E+00 -0.42248273187E+03  0.43227754338E+03  0.91499813028E+02 0.  0.
        -11    1    3    3    0    0 -0.34709807696E+02  0.29660668172E+02 -0.22503774210E+03  0.22962254105E+03  0.00000000000E+00 0. -1.
         11    1    3    3    0    0  0.34709807696E+02 -0.29660668172E+02 -0.19744498976E+03  0.20265500233E+03  0.00000000000E+00 0.  1.
<mgrwt>
<rscale>  0 0.91499813E+02</rscale>
<asrwt>0</asrwt>
<pdfrwt beam="1">  1        1 0.75344676E-03 0.91499813E+02</pdfrwt>
<pdfrwt beam="2">  1       -1 0.65750815E-01 0.91499813E+02</pdfrwt>
<totfact> 0.51010343E+04</totfact>
</mgrwt>
</event>
<event>
 5    1  0.1310593E+001  0.9473293E+02  0.7546771E-02  0.1291779E+00
         -2   -1    0    0    0  501 -0.00000000000E+00  0.00000000000E+00  0.61215749749E+01  0.61215749749E+01  0.00000000000E+00 0.  1.
          2   -1    0    0  501    0  0.00000000000E+00 -0.00000000000E+00 -0.36650405062E+03  0.36650405062E+03  0.00000000000E+00 0. -1.
         23    2    1    2    0    0  0.00000000000E+00  0.00000000000E+00 -0.36038247564E+03  0.37262562559E+03  0.94732930377E+02 0.  0.
        -13    1    3    3    0    0  0.44804355695E+02  0.10246798620E+02 -0.13514443947E+03  0.14274609168E+03  0.00000000000E+00 0.  1.
         13    1    3    3    0    0 -0.44804355695E+02 -0.10246798620E+02 -0.22523803618E+03  0.22987953391E+03  0.00000000000E+00 0. -1.
<mgrwt>
<rscale>  0 0.94732930E+02</rscale>
<asrwt>0</asrwt>
<pdfrwt beam="2">  1        2 0.56385245E-01 0.94732930E+02</pdfrwt>
<pdfrwt beam="1">  1       -2 0.94178065E-03 0.94732930E+02</pdfrwt>
<totfact> 0.17466637E+05</totfact>
</mgrwt>
</event>
<event>
 5    1  0.1310593E+001  0.9089986E+02  0.7546771E-02  0.1300687E+00
         -1   -1    0    0    0  501 -0.00000000000E+00  0.00000000000E+00  0.17702732642E+02  0.17702732642E+02  0.00000000000E+00 0.  1.
          1   -1    0    0  501    0  0.00000000000E+00 -0.00000000000E+00 -0.11668799370E+03  0.11668799370E+03  0.00000000000E+00 0. -1.
         23    2    1    2    0    0  0.00000000000E+00  0.00000000000E+00 -0.98985261056E+02  0.13439072634E+03  0.90899864797E+02 0.  0.
        -11    1    3    3    0    0  0.85009627664E+01  0.26113331266E+02  0.40493178943E+01  0.27759132068E+02  0.00000000000E+00 0.  1.
         11    1    3    3    0    0 -0.85009627664E+01 -0.26113331266E+02 -0.10303457895E+03  0.10663159427E+03  0.00000000000E+00 0. -1.
<mgrwt>
<rscale>  0 0.90899865E+02</rscale>
<asrwt>0</asrwt>
<pdfrwt beam="2">  1        1 0.17951999E-01 0.90899865E+02</pdfrwt>
<pdfrwt beam="1">  1       -1 0.27234973E-02 0.90899865E+02</pdfrwt>
<totfact> 0.10810684E+05</totfact>
</mgrwt>
</event>
<event>
 5    1  0.1310593E+001  0.9198949E+02  0.7546771E-02  0.1298104E+00
         -1   -1    0    0    0  501 -0.00000000000E+00  0.00000000000E+00  0.78084508955E+01  0.78084508955E+01  0.00000000000E+00 0.  1.
          1   -1    0    0  501    0  0.00000000000E+00 -0.00000000000E+00 -0.27092654629E+03  0.27092654629E+03  0.00000000000E+00 0. -1.
         23    2    1    2    0    0  0.00000000000E+00  0.00000000000E+00 -0.26311809540E+03  0.27873499719E+03  0.91989491422E+02 0.  0.
        -11    1    3    3    0    0  0.40723762597E+02 -0.19232232499E+01 -0.19607850282E+03  0.20027207218E+03  0.00000000000E+00 0. -1.
         11    1    3    3    0    0 -0.40723762597E+02  0.19232232499E+01 -0.67039592579E+02  0.78462925009E+02  0.00000000000E+00 0.  1.
<mgrwt>
<rscale>  0 0.91989491E+02</rscale>
<asrwt>0</asrwt>
<pdfrwt beam="2">  1        1 0.41681011E-01 0.91989491E+02</pdfrwt>
<pdfrwt beam="1">  1       -1 0.12013000E-02 0.91989491E+02</pdfrwt>
<totfact> 0.12268338E+05</totfact>
</mgrwt>
</event>
<event>
 5    1  0.1310593E+001  0.9127932E+02  0.7546771E-02  0.1299783E+00
         -2   -1    0    0    0  501 -0.00000000000E+00  0.00000000000E+00  0.30424929607E+02  0.30424929607E+02  0.00000000000E+00 0.  1.
          2   -1    0    0  501    0  0.00000000000E+00 -0.00000000000E+00 -0.68462886221E+02  0.68462886221E+02  0.00000000000E+00 0. -1.
         23    2    1    2    0    0  0.00000000000E+00  0.00000000000E+00 -0.38037956614E+02  0.98887815827E+02  0.91279318445E+02 0.  0.
        -13    1    3    3    0    0  0.24305389035E+02 -0.70077798602E+01  0.22135893611E+02  0.33613370862E+02  0.00000000000E+00 0.  1.
         13    1    3    3    0    0 -0.24305389035E+02  0.70077798602E+01 -0.60173850225E+02  0.65274444966E+02  0.00000000000E+00 0. -1.
<mgrwt>
<rscale>  0 0.91279318E+02</rscale>
<asrwt>0</asrwt>
<pdfrwt beam="2">  1        2 0.10532752E-01 0.91279318E+02</pdfrwt>
<pdfrwt beam="1">  1       -2 0.46807585E-02 0.91279318E+02</pdfrwt>
<totfact> 0.10959713E+05</totfact>
</mgrwt>
</event>
<event>
 5    1  0.1310593E+001  0.8960615E+02  0.7546771E-02  0.1303808E+00
          3   -1    0    0  501    0  0.00000000000E+00  0.00000000000E+00  0.21342165480E+02  0.21342165480E+02  0.00000000000E+00 0. -1.
         -3   -1    0    0    0  501 -0.00000000000E+00 -0.00000000000E+00 -0.94053985455E+02  0.94053985455E+02  0.00000000000E+00 0.  1.
         23    2    1    2    0    0  0.00000000000E+00  0.00000000000E+00 -0.72711819975E+02  0.11539615093E+03  0.89606154288E+02 0.  0.
        -13    1    3    3    0    0  0.12475723235E+02  0.17300812169E+02  0.14383902726E+02  0.25726609368E+02  0.00000000000E+00 0. -1.
         13    1    3    3    0    0 -0.12475723235E+02 -0.17300812169E+02 -0.87095722701E+02  0.89669541566E+02  0.00000000000E+00 0.  1.
<mgrwt>
<rscale>  0 0.89606154E+02</rscale>
<asrwt>0</asrwt>
<pdfrwt beam="1">  1        3 0.32834101E-02 0.89606154E+02</pdfrwt>
<pdfrwt beam="2">  1       -3 0.14469844E-01 0.89606154E+02</pdfrwt>
<totfact> 0.35184677E+04</totfact>
</mgrwt>
</event>
<event>
 5    1  0.1310593E+001  0.9667328E+02  0.7546771E-02  0.1287451E+00
         -1   -1    0    0    0  501 -0.00000000000E+00  0.00000000000E+00  0.41451912251E+02  0.41451912251E+02  0.00000000000E+00 0.  1.
          1   -1    0    0  501    0  0.00000000000E+00 -0.00000000000E+00 -0.56364852735E+02  0.56364852735E+02  0.00000000000E+00 0. -1.
         23    2    1    2    0    0  0.00000000000E+00  0.00000000000E+00 -0.14912940484E+02  0.97816764986E+02  0.96673283375E+02 0.  0.
        -13    1    3    3    0    0  0.24966040824E+02  0.25450000912E+02  0.25570467417E+02  0.43873164289E+02  0.00000000000E+00 0.  1.
         13    1    3    3    0    0 -0.24966040824E+02 -0.25450000912E+02 -0.40483407901E+02  0.53943600697E+02  0.00000000000E+00 0. -1.
<mgrwt>
<rscale>  0 0.96673283E+02</rscale>
<asrwt>0</asrwt>
<pdfrwt beam="2">  1        1 0.86715158E-02 0.96673283E+02</pdfrwt>
<pdfrwt beam="1">  1       -1 0.63772173E-02 0.96673283E+02</pdfrwt>
<totfact> 0.81054901E+04</totfact>
</mgrwt>
</event>
<event>
 5    1  0.1310593E+001  0.8939196E+02  0.7546771E-02  0.1304331E+00
         -2   -1    0    0    0  501 -0.00000000000E+00  0.00000000000E+00  0.71232153140E+01  0.71232153140E+01  0.00000000000E+00 0.  1.
          2   -1    0    0  501    0  0.00000000000E+00 -0.00000000000E+00 -0.28045348301E+03  0.28045348301E+03  0.00000000000E+00 0. -1.
         23    2    1    2    0    0  0.00000000000E+00  0.00000000000E+00 -0.27333026769E+03  0.28757669832E+03  0.89391958140E+02 0.  0.
        -11    1    3    3    0    0 -0.43740100023E+02  0.55425201218E+01 -0.16026478406E+03  0.16621888246E+03  0.00000000000E+00 0.  1.
         11    1    3    3    0    0  0.43740100023E+02 -0.55425201218E+01 -0.11306548364E+03  0.12135781586E+03  0.00000000000E+00 0. -1.
<mgrwt>
<rscale>  0 0.89391958E+02</rscale>
<asrwt>0</asrwt>
<pdfrwt beam="2">  1        2 0.43146684E-01 0.89391958E+02</pdfrwt>
<pdfrwt beam="1">  1       -2 0.10958794E-02 0.89391958E+02</pdfrwt>
<totfact> 0.18468950E+05</totfact>
</mgrwt>
</event>
<event>
 5    1  0.1310593E+001  0.1078232E+03  0.7546771E-02  0.1264655E+00
         -2   -1    0    0    0  501 -0.00000000000E+00  0.00000000000E+00  0.54627245859E+01  0.54627245859E+01  0.00000000000E+00 0.  1.
          2   -1    0    0  501    0  0.00000000000E+00 -0.00000000000E+00 -0.53205341009E+03  0.53205341009E+03  0.00000000000E+00 0. -1.
         23    2    1    2    0    0  0.00000000000E+00  0.00000000000E+00 -0.52659068550E+03  0.53751613467E+03  0.10782321168E+03 0.  0.
        -11    1    3    3    0    0 -0.33436437879E+02 -0.41737480256E+02 -0.22931986335E+03  0.23547316697E+03  0.00000000000E+00 0.  1.
         11    1    3    3    0    0  0.33436437879E+02  0.41737480256E+02 -0.29727082216E+03  0.30204296771E+03  0.00000000000E+00 0. -1.
<mgrwt>
<rscale>  0 0.10782321E+03</rscale>
<asrwt>0</asrwt>
<pdfrwt beam="2">  1        2 0.81854372E-01 0.10782321E+03</pdfrwt>
<pdfrwt beam="1">  1       -2 0.84041915E-03 0.10782321E+03</pdfrwt>
<totfact> 0.14052172E+05</totfact>
</mgrwt>
</event>
<event>
 5    1  0.1310593E+001  0.9057284E+02  0.7546771E-02  0.1301470E+00
          3   -1    0    0  501    0  0.00000000000E+00  0.00000000000E+00  0.40361368508E+02  0.40361368508E+02  0.00000000000E+00 0. -1.
         -3   -1    0    0    0  501 -0.00000000000E+00 -0.00000000000E+00 -0.50812443564E+02  0.50812443564E+02  0.00000000000E+00 0.  1.
         23    2    1    2    0    0  0.00000000000E+00  0.00000000000E+00 -0.10451075056E+02  0.91173812072E+02  0.90572838301E+02 0.  0.
        -13    1    3    3    0    0  0.10331213999E+02 -0.80564228470E+01 -0.48863144754E+02  0.50588999269E+02  0.00000000000E+00 0.  1.
         13    1    3    3    0    0 -0.10331213999E+02  0.80564228470E+01  0.38412069698E+02  0.40584812803E+02  0.00000000000E+00 0. -1.
<mgrwt>
<rscale>  0 0.90572838E+02</rscale>
<asrwt>0</asrwt>
<pdfrwt beam="1">  1        3 0.62094413E-02 0.90572838E+02</pdfrwt>
<pdfrwt beam="2">  1       -3 0.78172990E-02 0.90572838E+02</pdfrwt>
<totfact> 0.35984484E+04</totfact>
</mgrwt>
</event>
<event>
 5    1  0.1310593E+001  0.9153681E+02  0.7546771E-02  0.1299172E+00
          1   -1    0    0  501    0  0.00000000000E+00  0.00000000000E+00  0.35242412054E+02  0.35242412054E+02  0.00000000000E+00 0. -1.
         -1   -1    0    0    0  501 -0.00000000000E+00 -0.00000000000E+00 -0.59438241592E+02  0.59438241592E+02  0.00000000000E+00 0.  1.
         23    2    1    2    0    0  0.00000000000E+00  0.00000000000E+00 -0.24195829538E+02  0.94680653646E+02  0.91536812309E+02 0.  0.
        -11    1    3    3    0    0 -0.10907122033E+02  0.20937627633E+02  0.28458405116E+02  0.36976078533E+02  0.00000000000E+00 0. -1.
         11    1    3    3    0    0  0.10907122033E+02 -0.20937627633E+02 -0.52654234654E+02  0.57704575113E+02  0.00000000000E+00 0.  1.
<mgrwt>
<rscale>  0 0.91536812E+02</rscale>
<asrwt>0</asrwt>
<pdfrwt beam="1">  1        1 0.54219096E-02 0.91536812E+02</pdfrwt>
<pdfrwt beam="2">  1       -1 0.91443448E-02 0.91536812E+02</pdfrwt>
<totfact> 0.87926983E+04</totfact>
</mgrwt>
</event>
<event>
 5    1  0.1310593E+001  0.8986934E+02  0.7546771E-02  0.1303168E+00
         -1   -1    0    0    0  501 -0.00000000000E+00  0.00000000000E+00  0.25817021318E+03  0.25817021318E+03  0.00000000000E+00 0.  1.
          1   -1    0    0  501    0  0.00000000000E+00 -0.00000000000E+00 -0.78209039445E+01  0.78209039445E+01  0.00000000000E+00 0. -1.
         23    2    1    2    0    0  0.00000000000E+00  0.00000000000E+00  0.25034930923E+03  0.26599111712E+03  0.89869337120E+02 0.  0.
        -13    1    3    3    0    0  0.36338032824E+02 -0.19563839623E+02  0.72566914495E+02  0.83481456203E+02  0.00000000000E+00 0. -1.
         13    1    3    3    0    0 -0.36338032824E+02  0.19563839623E+02  0.17778239474E+03  0.18250966092E+03  0.00000000000E+00 0.  1.
<mgrwt>
<rscale>  0 0.89869337E+02</rscale>
<asrwt>0</asrwt>
<pdfrwt beam="2">  1        1 0.12032162E-02 0.89869337E+02</pdfrwt>
<pdfrwt beam="1">  1       -1 0.39718488E-01 0.89869337E+02</pdfrwt>
<totfact> 0.66513786E+04</totfact>
</mgrwt>
</event>
<event>
 5    1  0.1310593E+001  0.9297023E+02  0.7546771E-02  0.1295814E+00
          4   -1    0    0  501    0  0.00000000000E+00  0.00000000000E+00  0.23224815682E+02  0.23224815682E+02  0.00000000000E+00 0. -1.
         -4   -1    0    0    0  501 -0.00000000000E+00 -0.00000000000E+00 -0.93041259422E+02  0.93041259422E+02  0.00000000000E+00 0.  1.
         23    2    1    2    0    0  0.00000000000E+00  0.00000000000E+00 -0.69816443740E+02  0.11626607510E+03  0.92970233965E+02 0.  0.
        -11    1    3    3    0    0 -0.44796237682E+01 -0.39105641054E+02 -0.65834263129E+02  0.76703770397E+02  0.00000000000E+00 0.  1.
         11    1    3    3    0    0  0.44796237682E+01  0.39105641054E+02 -0.39821806107E+01  0.39562304707E+02  0.00000000000E+00 0. -1.
<mgrwt>
<rscale>  0 0.92970234E+02</rscale>
<asrwt>0</asrwt>
<pdfrwt beam="1">  1        4 0.35730487E-02 0.92970234E+02</pdfrwt>
<pdfrwt beam="2">  1       -4 0.14314039E-01 0.92970234E+02</pdfrwt>
<totfact> 0.24174947E+04</totfact>
</mgrwt>
</event>
<event>
 5    1  0.1310593E+001  0.8330808E+02  0.7546771E-02  0.1319917E+00
          1   -1    0    0  501    0  0.00000000000E+00  0.00000000000E+00  0.10604090394E+03  0.10604090394E+03  0.00000000000E+00 0. -1.
         -1   -1    0    0    0  501 -0.00000000000E+00 -0.00000000000E+00 -0.16362166133E+02  0.16362166133E+02  0.00000000000E+00 0.  1.
         23    2    1    2    0    0  0.00000000000E+00  0.00000000000E+00  0.89678737809E+02  0.12240307007E+03  0.83308076130E+02 0.  0.
        -13    1    3    3    0    0  0.40526625952E+02  0.94967768814E+01  0.47145114561E+02  0.62890842013E+02  0.00000000000E+00 0. -1.
         13    1    3    3    0    0 -0.40526625952E+02 -0.94967768814E+01  0.42533623248E+02  0.59512228061E+02  0.00000000000E+00 0.  1.
<mgrwt>
<rscale>  0 0.83308076E+02</rscale>
<asrwt>0</asrwt>
<pdfrwt beam="1">  1        1 0.16313985E-01 0.83308076E+02</pdfrwt>
<pdfrwt beam="2">  1       -1 0.25172564E-02 0.83308076E+02</pdfrwt>
<totfact> 0.13463745E+05</totfact>
</mgrwt>
</event>
<event>
 5    1  0.1310593E+001  0.9163356E+02  0.7546771E-02  0.1298943E+00
          2   -1    0    0  501    0  0.00000000000E+00  0.00000000000E+00  0.12168691576E+02  0.12168691576E+02  0.00000000000E+00 0. -1.
         -2   -1    0    0    0  501 -0.00000000000E+00 -0.00000000000E+00 -0.17250642015E+03  0.17250642015E+03  0.00000000000E+00 0.  1.
         23    2    1    2    0    0  0.00000000000E+00  0.00000000000E+00 -0.16033772858E+03  0.18467511173E+03  0.91633562009E+02 0.  0.
        -13    1    3    3    0    0 -0.57099874632E+01  0.35077045693E+02 -0.21891189310E+02  0.41739995937E+02  0.00000000000E+00 0. -1.
         13    1    3    3    0    0  0.57099874632E+01 -0.35077045693E+02 -0.13844653927E+03  0.14293511579E+03  0.00000000000E+00 0.  1.
<mgrwt>
<rscale>  0 0.91633562E+02</rscale>
<asrwt>0</asrwt>
<pdfrwt beam="1">  1        2 0.18721066E-02 0.91633562E+02</pdfrwt>
<pdfrwt beam="2">  1       -2 0.26539446E-01 0.91633562E+02</pdfrwt>
<totfact> 0.65414151E+04</totfact>
</mgrwt>
</event>
<event>
 5    1  0.1310593E+001  0.9499941E+02  0.7546771E-02  0.1291177E+00
          2   -1    0    0  501    0  0.00000000000E+00  0.00000000000E+00  0.18915227814E+02  0.18915227814E+02  0.00000000000E+00 0. -1.
         -2   -1    0    0    0  501 -0.00000000000E+00 -0.00000000000E+00 -0.11928072016E+03  0.11928072016E+03  0.00000000000E+00 0.  1.
         23    2    1    2    0    0  0.00000000000E+00  0.00000000000E+00 -0.10036549235E+03  0.13819594797E+03  0.94999410433E+02 0.  0.
        -13    1    3    3    0    0  0.41971321029E+02  0.19148937335E+02 -0.66637517019E+02  0.81048332891E+02  0.00000000000E+00 0.  1.
         13    1    3    3    0    0 -0.41971321029E+02 -0.19148937335E+02 -0.33727975327E+02  0.57147615083E+02  0.00000000000E+00 0. -1.
<mgrwt>
<rscale>  0 0.94999410E+02</rscale>
<asrwt>0</asrwt>
<pdfrwt beam="1">  1        2 0.29100350E-02 0.94999410E+02</pdfrwt>
<pdfrwt beam="2">  1       -2 0.18350880E-01 0.94999410E+02</pdfrwt>
<totfact> 0.68160074E+04</totfact>
</mgrwt>
</event>
<event>
 5    1  0.1310593E+001  0.8087335E+02  0.7546771E-02  0.1326591E+00
         -1   -1    0    0    0  501 -0.00000000000E+00  0.00000000000E+00  0.88561324390E+02  0.88561324390E+02  0.00000000000E+00 0.  1.
          1   -1    0    0  501    0  0.00000000000E+00 -0.00000000000E+00 -0.18463192298E+02  0.18463192298E+02  0.00000000000E+00 0. -1.
         23    2    1    2    0    0  0.00000000000E+00  0.00000000000E+00  0.70098132092E+02  0.10702451669E+03  0.80873351912E+02 0.  0.
        -11    1    3    3    0    0  0.33745313002E+01 -0.28235307285E+02  0.73094321261E+02  0.78430860250E+02  0.00000000000E+00 0.  1.
         11    1    3    3    0    0 -0.33745313002E+01  0.28235307285E+02 -0.29961891687E+01  0.28593656438E+02  0.00000000000E+00 0. -1.
<mgrwt>
<rscale>  0 0.80873352E+02</rscale>
<asrwt>0</asrwt>
<pdfrwt beam="2">  1        1 0.28404912E-02 0.80873352E+02</pdfrwt>
<pdfrwt beam="1">  1       -1 0.13624819E-01 0.80873352E+02</pdfrwt>
<totfact> 0.11307763E+05</totfact>
</mgrwt>
</event>
<event>
 5    1  0.1310593E+001  0.9036863E+02  0.7546771E-02  0.1301961E+00
          1   -1    0    0  501    0  0.00000000000E+00  0.00000000000E+00  0.10287670339E+03  0.10287670339E+03  0.00000000000E+00 0. -1.
         -1   -1    0    0    0  501 -0.00000000000E+00 -0.00000000000E+00 -0.19845329892E+02  0.19845329892E+02  0.00000000000E+00 0.  1.
         23    2    1    2    0    0  0.00000000000E+00  0.00000000000E+00  0.83031373501E+02  0.12272203328E+03  0.90368625463E+02 0.  0.
        -11    1    3    3    0    0 -0.44569680711E+02  0.66957342080E+01  0.45880989163E+02  0.64314496514E+02  0.00000000000E+00 0. -1.
         11    1    3    3    0    0  0.44569680711E+02 -0.66957342080E+01  0.37150384338E+02  0.58407536771E+02  0.00000000000E+00 0.  1.
<mgrwt>
<rscale>  0 0.90368625E+02</rscale>
<asrwt>0</asrwt>
<pdfrwt beam="1">  1        1 0.15827185E-01 0.90368625E+02</pdfrwt>
<pdfrwt beam="2">  1       -1 0.30531277E-02 0.90368625E+02</pdfrwt>
<totfact> 0.10752038E+05</totfact>
</mgrwt>
</event>
<event>
 5    1  0.1310593E+001  0.9187038E+02  0.7546771E-02  0.1298384E+00
          2   -1    0    0  501    0  0.00000000000E+00  0.00000000000E+00  0.10460192258E+03  0.10460192258E+03  0.00000000000E+00 0. -1.
         -2   -1    0    0    0  501 -0.00000000000E+00 -0.00000000000E+00 -0.20172109916E+02  0.20172109916E+02  0.00000000000E+00 0.  1.
         23    2    1    2    0    0  0.00000000000E+00  0.00000000000E+00  0.84429812665E+02  0.12477403250E+03  0.91870375633E+02 0.  0.
        -11    1    3    3    0    0  0.21967561761E+02 -0.78217776173E+01 -0.11535835267E+02  0.26015946459E+02  0.00000000000E+00 0.  1.
         11    1    3    3    0    0 -0.21967561761E+02  0.78217776173E+01  0.95965647933E+02  0.98758086038E+02  0.00000000000E+00 0. -1.
<mgrwt>
<rscale>  0 0.91870376E+02</rscale>
<asrwt>0</asrwt>
<pdfrwt beam="1">  1        2 0.16092603E-01 0.91870376E+02</pdfrwt>
<pdfrwt beam="2">  1       -2 0.31034016E-02 0.91870376E+02</pdfrwt>
<totfact> 0.12181211E+05</totfact>
</mgrwt>
</event>
<event>
 5    1  0.1310593E+001  0.9290196E+02  0.7546771E-02  0.1295973E+00
          2   -1    0    0  501    0  0.00000000000E+00  0.00000000000E+00  0.31228578901E+02  0.31228578901E+02  0.00000000000E+00 0. -1.
         -2   -1    0    0    0  501 -0.00000000000E+00 -0.00000000000E+00 -0.69093560455E+02  0.69093560455E+02  0.00000000000E+00 0.  1.
         23    2    1    2    0    0  0.00000000000E+00  0.00000000000E+00 -0.37864981554E+02  0.10032213936E+03  0.92901963471E+02 0.  0.
        -13    1    3    3    0    0  0.10263933575E+02  0.33221947937E+02  0.14327669373E+02  0.37607555980E+02  0.00000000000E+00 0. -1.
         13    1    3    3    0    0 -0.10263933575E+02 -0.33221947937E+02 -0.52192650927E+02  0.62714583375E+02  0.00000000000E+00 0.  1.
<mgrwt>
<rscale>  0 0.92901963E+02</rscale>
<asrwt>0</asrwt>
<pdfrwt beam="1">  1        2 0.48043968E-02 0.92901963E+02</pdfrwt>
<pdfrwt beam="2">  1       -2 0.10629778E-01 0.92901963E+02</pdfrwt>
<totfact> 0.84579625E+04</totfact>
</mgrwt>
</event>
<event>
 5    1  0.1310593E+001  0.8917146E+02  0.7546771E-02  0.1304871E+00
         -3   -1    0    0    0  501 -0.00000000000E+00  0.00000000000E+00  0.17643015825E+02  0.17643015825E+02  0.00000000000E+00 0.  1.
          3   -1    0    0  501    0  0.00000000000E+00 -0.00000000000E+00 -0.11267276171E+03  0.11267276171E+03  0.00000000000E+00 0. -1.
         23    2    1    2    0    0  0.00000000000E+00  0.00000000000E+00 -0.95029745884E+02  0.13031577753E+03  0.89171459960E+02 0.  0.
        -13    1    3    3    0    0 -0.28293055762E+02 -0.31672060741E+02 -0.27676800145E+02  0.50691436182E+02  0.00000000000E+00 0.  1.
         13    1    3    3    0    0  0.28293055762E+02  0.31672060741E+02 -0.67352945739E+02  0.79624341351E+02  0.00000000000E+00 0. -1.
<mgrwt>
<rscale>  0 0.89171460E+02</rscale>
<asrwt>0</asrwt>
<pdfrwt beam="2">  1        3 0.17334271E-01 0.89171460E+02</pdfrwt>
<pdfrwt beam="1">  1       -3 0.27143101E-02 0.89171460E+02</pdfrwt>
<totfact> 0.34573817E+04</totfact>
</mgrwt>
</event>
<event>
 5    1  0.1310593E+001  0.9134727E+02  0.7546771E-02  0.1299621E+00
         -1   -1    0    0    0  501 -0.00000000000E+00  0.00000000000E+00  0.17841720858E+02  0.17841720858E+02  0.00000000000E+00 0.  1.
          1   -1    0    0  501    0  0.00000000000E+00 -0.00000000000E+00 -0.11692152024E+03  0.11692152024E+03  0.00000000000E+00 0. -1.
         23    2    1    2    0    0  0.00000000000E+00  0.00000000000E+00 -0.99079799386E+02  0.13476324110E+03  0.91347274212E+02 0.  0.
        -13    1    3    3    0    0  0.29250816079E+02 -0.20101605694E+02 -0.71297265361E+01  0.36201074477E+02  0.00000000000E+00 0.  1.
         13    1    3    3    0    0 -0.29250816079E+02  0.20101605694E+02 -0.91950072850E+02  0.98562166625E+02  0.00000000000E+00 0. -1.
<mgrwt>
<rscale>  0 0.91347274E+02</rscale>
<asrwt>0</asrwt>
<pdfrwt beam="2">  1        1 0.17987926E-01 0.91347274E+02</pdfrwt>
<pdfrwt beam="1">  1       -1 0.27448801E-02 0.91347274E+02</pdfrwt>
<totfact> 0.10671217E+05</totfact>
</mgrwt>
</event>
<event>
 5    1  0.1310593E+001  0.9167954E+02  0.7546771E-02  0.1298835E+00
          2   -1    0    0  501    0  0.00000000000E+00  0.00000000000E+00  0.85486918241E+01  0.85486918241E+01  0.00000000000E+00 0. -1.
         -2   -1    0    0    0  501 -0.00000000000E+00 -0.00000000000E+00 -0.24580185409E+03  0.24580185409E+03  0.00000000000E+00 0.  1.
         23    2    1    2    0    0  0.00000000000E+00  0.00000000000E+00 -0.23725316226E+03  0.25435054591E+03  0.91679535347E+02 0.  0.
        -13    1    3    3    0    0  0.42582500606E+02  0.30180272143E+01 -0.72293673765E+02  0.83956852684E+02  0.00000000000E+00 0. -1.
         13    1    3    3    0    0 -0.42582500606E+02 -0.30180272143E+01 -0.16495948850E+03  0.17039369323E+03  0.00000000000E+00 0.  1.
<mgrwt>
<rscale>  0 0.91679535E+02</rscale>
<asrwt>0</asrwt>
<pdfrwt beam="1">  1        2 0.13151833E-02 0.91679535E+02</pdfrwt>
<pdfrwt beam="2">  1       -2 0.37815673E-01 0.91679535E+02</pdfrwt>
<totfact> 0.55856911E+04</totfact>
</mgrwt>
</event>
<event>
 5    1  0.1310593E+001  0.9215067E+02  0.7546771E-02  0.1297726E+00
          4   -1    0    0  501    0  0.00000000000E+00  0.00000000000E+00  0.65663101419E+02  0.65663101419E+02  0.00000000000E+00 0. -1.
         -4   -1    0    0    0  501 -0.00000000000E+00 -0.00000000000E+00 -0.32330740959E+02  0.32330740959E+02  0.00000000000E+00 0.  1.
         23    2    1    2    0    0  0.00000000000E+00  0.00000000000E+00  0.33332360460E+02  0.97993842378E+02  0.92150674931E+02 0.  0.
        -11    1    3    3    0    0 -0.32362397471E+02  0.83555332778E+01 -0.17059089973E+02  0.37525354857E+02  0.00000000000E+00 0.  1.
         11    1    3    3    0    0  0.32362397471E+02 -0.83555332778E+01  0.50391450433E+02  0.60468487522E+02  0.00000000000E+00 0. -1.
<mgrwt>
<rscale>  0 0.92150675E+02</rscale>
<asrwt>0</asrwt>
<pdfrwt beam="1">  1        4 0.10102016E-01 0.92150675E+02</pdfrwt>
<pdfrwt beam="2">  1       -4 0.49739601E-02 0.92150675E+02</pdfrwt>
<totfact> 0.25826234E+04</totfact>
</mgrwt>
</event>
<event>
 5    1  0.1310593E+001  0.9124998E+02  0.7546771E-02  0.1299853E+00
         -1   -1    0    0    0  501 -0.00000000000E+00  0.00000000000E+00  0.39088571433E+02  0.39088571433E+02  0.00000000000E+00 0.  1.
          1   -1    0    0  501    0  0.00000000000E+00 -0.00000000000E+00 -0.53254432633E+02  0.53254432633E+02  0.00000000000E+00 0. -1.
         23    2    1    2    0    0  0.00000000000E+00  0.00000000000E+00 -0.14165861200E+02  0.92343004067E+02  0.91249979597E+02 0.  0.
        -11    1    3    3    0    0 -0.22651462436E+02  0.17501481426E+02 -0.43036644326E+02  0.51686974737E+02  0.00000000000E+00 0. -1.
         11    1    3    3    0    0  0.22651462436E+02 -0.17501481426E+02  0.28870783126E+02  0.40656029330E+02  0.00000000000E+00 0.  1.
<mgrwt>
<rscale>  0 0.91249980E+02</rscale>
<asrwt>0</asrwt>
<pdfrwt beam="2">  1        1 0.81929896E-02 0.91249980E+02</pdfrwt>
<pdfrwt beam="1">  1       -1 0.60136264E-02 0.91249980E+02</pdfrwt>
<totfact> 0.94443995E+04</totfact>
</mgrwt>
</event>
<event>
 5    1  0.1310593E+001  0.8981357E+02  0.7546771E-02  0.1303304E+00
         -2   -1    0    0    0  501 -0.00000000000E+00  0.00000000000E+00  0.14180143834E+03  0.14180143834E+03  0.00000000000E+00 0.  1.
          2   -1    0    0  501    0  0.00000000000E+00 -0.00000000000E+00 -0.14221429741E+02  0.14221429741E+02  0.00000000000E+00 0. -1.
         23    2    1    2    0    0  0.00000000000E+00  0.00000000000E+00  0.12758000860E+03  0.15602286808E+03  0.89813566736E+02 0.  0.
        -13    1    3    3    0    0  0.28768223568E+02 -0.14488525071E+02  0.94327044983E+01  0.33563431889E+02  0.00000000000E+00 0. -1.
         13    1    3    3    0    0 -0.28768223568E+02  0.14488525071E+02  0.11814730410E+03  0.12245943619E+03  0.00000000000E+00 0.  1.
<mgrwt>
<rscale>  0 0.89813567E+02</rscale>
<asrwt>0</asrwt>
<pdfrwt beam="2">  1        2 0.21879124E-02 0.89813567E+02</pdfrwt>
<pdfrwt beam="1">  1       -2 0.21815605E-01 0.89813567E+02</pdfrwt>
<totfact> 0.74041334E+04</totfact>
</mgrwt>
</event>
<event>
 5    1  0.1310593E+001  0.9547656E+02  0.7546771E-02  0.1290106E+00
          2   -1    0    0  501    0  0.00000000000E+00  0.00000000000E+00  0.20445172100E+03  0.20445172100E+03  0.00000000000E+00 0. -1.
         -2   -1    0    0    0  501 -0.00000000000E+00 -0.00000000000E+00 -0.11146609121E+02  0.11146609121E+02  0.00000000000E+00 0.  1.
         23    2    1    2    0    0  0.00000000000E+00  0.00000000000E+00  0.19330511187E+03  0.21559833012E+03  0.95476560855E+02 0.  0.
        -13    1    3    3    0    0  0.72496784581E+01 -0.47147252783E+02  0.92414646728E+02  0.10399946256E+03  0.00000000000E+00 0.  1.
         13    1    3    3    0    0 -0.72496784581E+01  0.47147252783E+02  0.10089046515E+03  0.11159886756E+03  0.00000000000E+00 0. -1.
<mgrwt>
<rscale>  0 0.95476561E+02</rscale>
<asrwt>0</asrwt>
<pdfrwt beam="1">  1        2 0.31454108E-01 0.95476561E+02</pdfrwt>
<pdfrwt beam="2">  1       -2 0.17148631E-02 0.95476561E+02</pdfrwt>
<totfact> 0.13767669E+05</totfact>
</mgrwt>
</event>
<event>
 5    1  0.1310593E+001  0.9043146E+02  0.7546771E-02  0.1301810E+00
          1   -1    0    0  501    0  0.00000000000E+00  0.00000000000E+00  0.20574746579E+02  0.20574746579E+02  0.00000000000E+00 0. -1.
         -1   -1    0    0    0  501 -0.00000000000E+00 -0.00000000000E+00 -0.99367558750E+02  0.99367558750E+02  0.00000000000E+00 0.  1.
         23    2    1    2    0    0  0.00000000000E+00  0.00000000000E+00 -0.78792812170E+02  0.11994230533E+03  0.90431462213E+02 0.  0.
        -13    1    3    3    0    0  0.41310361430E+02 -0.54158767282E+01 -0.62695552116E+02  0.75276888467E+02  0.00000000000E+00 0.  1.
         13    1    3    3    0    0 -0.41310361430E+02  0.54158767282E+01 -0.16097260054E+02  0.44665416862E+02  0.00000000000E+00 0. -1.
<mgrwt>
<rscale>  0 0.90431462E+02</rscale>
<asrwt>0</asrwt>
<pdfrwt beam="1">  1        1 0.31653457E-02 0.90431462E+02</pdfrwt>
<pdfrwt beam="2">  1       -1 0.15287316E-01 0.90431462E+02</pdfrwt>
<totfact> 0.83205287E+04</totfact>
</mgrwt>
</event>
<event>
 5    1  0.1310593E+001  0.9146999E+02  0.7546771E-02  0.1299330E+00
         -1   -1    0    0    0  501 -0.00000000000E+00  0.00000000000E+00  0.14000244014E+03  0.14000244014E+03  0.00000000000E+00 0.  1.
          1   -1    0    0  501    0  0.00000000000E+00 -0.00000000000E+00 -0.14940379779E+02  0.14940379779E+02  0.00000000000E+00 0. -1.
         23    2    1    2    0    0  0.00000000000E+00  0.00000000000E+00  0.12506206036E+03  0.15494281992E+03  0.91469986894E+02 0.  0.
        -13    1    3    3    0    0 -0.45229894836E+02 -0.41112304329E+01  0.53402071843E+02  0.70102973401E+02  0.00000000000E+00 0. -1.
         13    1    3    3    0    0  0.45229894836E+02  0.41112304329E+01  0.71659988516E+02  0.84839846515E+02  0.00000000000E+00 0.  1.
<mgrwt>
<rscale>  0 0.91469987E+02</rscale>
<asrwt>0</asrwt>
<pdfrwt beam="2">  1        1 0.22985201E-02 0.91469987E+02</pdfrwt>
<pdfrwt beam="1">  1       -1 0.21538836E-01 0.91469987E+02</pdfrwt>
<totfact> 0.75349446E+04</totfact>
</mgrwt>
</event>
<event>
 5    1  0.1310593E+001  0.9021925E+02  0.7546771E-02  0.1302322E+00
          3   -1    0    0  501    0  0.00000000000E+00  0.00000000000E+00  0.10168511996E+03  0.10168511996E+03  0.00000000000E+00 0. -1.
         -3   -1    0    0    0  501 -0.00000000000E+00 -0.00000000000E+00 -0.20011563145E+02  0.20011563145E+02  0.00000000000E+00 0.  1.
         23    2    1    2    0    0  0.00000000000E+00  0.00000000000E+00  0.81673556814E+02  0.12169668310E+03  0.90219248476E+02 0.  0.
        -13    1    3    3    0    0 -0.38106685954E+02 -0.17790633184E+01  0.83623635953E+01  0.39053984503E+02  0.00000000000E+00 0.  1.
         13    1    3    3    0    0  0.38106685954E+02  0.17790633184E+01  0.73311193218E+02  0.82642698599E+02  0.00000000000E+00 0. -1.
<mgrwt>
<rscale>  0 0.90219248E+02</rscale>
<asrwt>0</asrwt>
<pdfrwt beam="1">  1        3 0.15643864E-01 0.90219248E+02</pdfrwt>
<pdfrwt beam="2">  1       -3 0.30787021E-02 0.90219248E+02</pdfrwt>
<totfact> 0.34092424E+04</totfact>
</mgrwt>
</event>
<event>
 5    1  0.1310593E+001  0.9223094E+02  0.7546771E-02  0.1297537E+00
          3   -1    0    0  501    0  0.00000000000E+00  0.00000000000E+00  0.13034967075E+03  0.13034967075E+03  0.00000000000E+00 0. -1.
         -3   -1    0    0    0  501 -0.00000000000E+00 -0.00000000000E+00 -0.16314860021E+02  0.16314860021E+02  0.00000000000E+00 0.  1.
         23    2    1    2    0    0  0.00000000000E+00  0.00000000000E+00  0.11403481073E+03  0.14666453077E+03  0.92230941272E+02 0.  0.
        -11    1    3    3    0    0 -0.15938433320E+02  0.40093959246E+02  0.31127240659E+02  0.53202108377E+02  0.00000000000E+00 0.  1.
         11    1    3    3    0    0  0.15938433320E+02 -0.40093959246E+02  0.82907570068E+02  0.93462422391E+02  0.00000000000E+00 0. -1.
<mgrwt>
<rscale>  0 0.92230941E+02</rscale>
<asrwt>0</asrwt>
<pdfrwt beam="1">  1        3 0.20053795E-01 0.92230941E+02</pdfrwt>
<pdfrwt beam="2">  1       -3 0.25099785E-02 0.92230941E+02</pdfrwt>
<totfact> 0.30544107E+04</totfact>
</mgrwt>
</event>
<event>
 5    1  0.1310593E+001  0.8789406E+02  0.7546771E-02  0.1308033E+00
          2   -1    0    0  501    0  0.00000000000E+00  0.00000000000E+00  0.42381295287E+02  0.42381295287E+02  0.00000000000E+00 0. -1.
         -2   -1    0    0    0  501 -0.00000000000E+00 -0.00000000000E+00 -0.45570609649E+02  0.45570609649E+02  0.00000000000E+00 0.  1.
         23    2    1    2    0    0  0.00000000000E+00  0.00000000000E+00 -0.31893143619E+01  0.87951904937E+02  0.87894060413E+02 0.  0.
        -13    1    3    3    0    0 -0.21383942628E+02 -0.94993353390E+01  0.35629704909E+02  0.42626121641E+02  0.00000000000E+00 0. -1.
         13    1    3    3    0    0  0.21383942628E+02  0.94993353390E+01 -0.38819019271E+02  0.45325783296E+02  0.00000000000E+00 0.  1.
<mgrwt>
<rscale>  0 0.87894060E+02</rscale>
<asrwt>0</asrwt>
<pdfrwt beam="1">  1        2 0.65201992E-02 0.87894060E+02</pdfrwt>
<pdfrwt beam="2">  1       -2 0.70108631E-02 0.87894060E+02</pdfrwt>
<totfact> 0.10757626E+05</totfact>
</mgrwt>
</event>
<event>
 5    1  0.1310593E+001  0.8996609E+02  0.7546771E-02  0.1302934E+00
         -2   -1    0    0    0  501 -0.00000000000E+00  0.00000000000E+00  0.54349327388E+02  0.54349327388E+02  0.00000000000E+00 0.  1.
          2   -1    0    0  501    0  0.00000000000E+00 -0.00000000000E+00 -0.37230896196E+02  0.37230896196E+02  0.00000000000E+00 0. -1.
         23    2    1    2    0    0  0.00000000000E+00  0.00000000000E+00  0.17118431191E+02  0.91580223584E+02  0.89966086195E+02 0.  0.
        -11    1    3    3    0    0 -0.32182849224E+01 -0.41742272839E+02 -0.81889239898E+01  0.42659502760E+02  0.00000000000E+00 0. -1.
         11    1    3    3    0    0  0.32182849224E+01  0.41742272839E+02  0.25307355181E+02  0.48920720824E+02  0.00000000000E+00 0.  1.
<mgrwt>
<rscale>  0 0.89966086E+02</rscale>
<asrwt>0</asrwt>
<pdfrwt beam="2">  1        2 0.57278302E-02 0.89966086E+02</pdfrwt>
<pdfrwt beam="1">  1       -2 0.83614350E-02 0.89966086E+02</pdfrwt>
<totfact> 0.97340751E+04</totfact>
</mgrwt>
</event>
<event>
 5    1  0.1310593E+001  0.9391931E+02  0.7546771E-02  0.1293629E+00
          1   -1    0    0  501    0  0.00000000000E+00  0.00000000000E+00  0.21558558327E+03  0.21558558327E+03  0.00000000000E+00 0. -1.
         -1   -1    0    0    0  501 -0.00000000000E+00 -0.00000000000E+00 -0.10228927589E+02  0.10228927589E+02  0.00000000000E+00 0.  1.
         23    2    1    2    0    0  0.00000000000E+00  0.00000000000E+00  0.20535665568E+03  0.22581451086E+03  0.93919312617E+02 0.  0.
        -13    1    3    3    0    0  0.44088396459E+02  0.14980168793E+02  0.88049871619E+02  0.99604076480E+02  0.00000000000E+00 0.  1.
         13    1    3    3    0    0 -0.44088396459E+02 -0.14980168793E+02  0.11730678406E+03  0.12621043438E+03  0.00000000000E+00 0. -1.
<mgrwt>
<rscale>  0 0.93919313E+02</rscale>
<asrwt>0</asrwt>
<pdfrwt beam="1">  1        1 0.33167010E-01 0.93919313E+02</pdfrwt>
<pdfrwt beam="2">  1       -1 0.15736813E-02 0.93919313E+02</pdfrwt>
<totfact> 0.11095919E+05</totfact>
</mgrwt>
</event>
<event>
 5    1  0.1310593E+001  0.9141487E+02  0.7546771E-02  0.1299461E+00
         -1   -1    0    0    0  501 -0.00000000000E+00  0.00000000000E+00  0.10231429129E+02  0.10231429129E+02  0.00000000000E+00 0.  1.
          1   -1    0    0  501    0  0.00000000000E+00 -0.00000000000E+00 -0.20419137282E+03  0.20419137282E+03  0.00000000000E+00 0. -1.
         23    2    1    2    0    0  0.00000000000E+00  0.00000000000E+00 -0.19395994369E+03  0.21442280194E+03  0.91414868804E+02 0.  0.
        -11    1    3    3    0    0  0.28954332016E+02 -0.22088463220E+02 -0.32192282542E+02  0.48606548995E+02  0.00000000000E+00 0.  1.
         11    1    3    3    0    0 -0.28954332016E+02  0.22088463220E+02 -0.16176766115E+03  0.16581625295E+03  0.00000000000E+00 0. -1.
<mgrwt>
<rscale>  0 0.91414869E+02</rscale>
<asrwt>0</asrwt>
<pdfrwt beam="2">  1        1 0.31414055E-01 0.91414869E+02</pdfrwt>
<pdfrwt beam="1">  1       -1 0.15740661E-02 0.91414869E+02</pdfrwt>
<totfact> 0.11805489E+05</totfact>
</mgrwt>
</event>
<event>
 5    1  0.1310593E+001  0.9192126E+02  0.7546771E-02  0.1298265E+00
         -4   -1    0    0    0  501 -0.00000000000E+00  0.00000000000E+00  0.17956215397E+02  0.17956215397E+02  0.00000000000E+00 0.  1.
          4   -1    0    0  501    0  0.00000000000E+00 -0.00000000000E+00 -0.11764057542E+03  0.11764057542E+03  0.00000000000E+00 0. -1.
         23    2    1    2    0    0  0.00000000000E+00  0.00000000000E+00 -0.99684360027E+02  0.13559679082E+03  0.91921260037E+02 0.  0.
        -13    1    3    3    0    0  0.97228532884E+01  0.30841557798E+02 -0.16647999333E+01  0.32380659695E+02  0.00000000000E+00 0.  1.
         13    1    3    3    0    0 -0.97228532884E+01 -0.30841557798E+02 -0.98019560094E+02  0.10321613113E+03  0.00000000000E+00 0. -1.
<mgrwt>
<rscale>  0 0.91921260E+02</rscale>
<asrwt>0</asrwt>
<pdfrwt beam="2">  1        4 0.18098551E-01 0.91921260E+02</pdfrwt>
<pdfrwt beam="1">  1       -4 0.27624945E-02 0.91921260E+02</pdfrwt>
<totfact> 0.23886449E+04</totfact>
</mgrwt>
</event>
<event>
 5    1  0.1310593E+001  0.9016561E+02  0.7546771E-02  0.1302451E+00
          1   -1    0    0  501    0  0.00000000000E+00  0.00000000000E+00  0.61262739506E+01  0.61262739506E+01  0.00000000000E+00 0. -1.
         -1   -1    0    0    0  501 -0.00000000000E+00 -0.00000000000E+00 -0.33176107336E+03  0.33176107336E+03  0.00000000000E+00 0.  1.
         23    2    1    2    0    0  0.00000000000E+00  0.00000000000E+00 -0.32563479941E+03  0.33788734731E+03  0.90165608112E+02 0.  0.
        -11    1    3    3    0    0  0.15934302975E+02  0.40513094383E+02 -0.20671911452E+03  0.21125341450E+03  0.00000000000E+00 0.  1.
         11    1    3    3    0    0 -0.15934302975E+02 -0.40513094383E+02 -0.11891568489E+03  0.12663393282E+03  0.00000000000E+00 0. -1.
<mgrwt>
<rscale>  0 0.90165608E+02</rscale>
<asrwt>0</asrwt>
<pdfrwt beam="1">  1        1 0.94250381E-03 0.90165608E+02</pdfrwt>
<pdfrwt beam="2">  1       -1 0.51040158E-01 0.90165608E+02</pdfrwt>
<totfact> 0.59854309E+04</totfact>
</mgrwt>
</event>
<event>
 5    1  0.1310593E+001  0.8852315E+02  0.7546771E-02  0.1306468E+00
         -2   -1    0    0    0  501 -0.00000000000E+00  0.00000000000E+00  0.10512335723E+03  0.10512335723E+03  0.00000000000E+00 0.  1.
          2   -1    0    0  501    0  0.00000000000E+00 -0.00000000000E+00 -0.18636076853E+02  0.18636076853E+02  0.00000000000E+00 0. -1.
         23    2    1    2    0    0  0.00000000000E+00  0.00000000000E+00  0.86487280373E+02  0.12375943408E+03  0.88523148707E+02 0.  0.
        -13    1    3    3    0    0 -0.36884017817E+02 -0.19704856960E+02  0.63521323028E+02  0.76050447976E+02  0.00000000000E+00 0.  1.
         13    1    3    3    0    0  0.36884017817E+02  0.19704856960E+02  0.22965957345E+02  0.47708986102E+02  0.00000000000E+00 0. -1.
<mgrwt>
<rscale>  0 0.88523149E+02</rscale>
<asrwt>0</asrwt>
<pdfrwt beam="2">  1        2 0.28670888E-02 0.88523149E+02</pdfrwt>
<pdfrwt beam="1">  1       -2 0.16172824E-01 0.88523149E+02</pdfrwt>
<totfact> 0.84620109E+04</totfact>
</mgrwt>
</event>
<event>
 5    1  0.1310593E+001  0.9189099E+02  0.7546771E-02  0.1298336E+00
         -1   -1    0    0    0  501 -0.00000000000E+00  0.00000000000E+00  0.66180480412E+01  0.66180480412E+01  0.00000000000E+00 0.  1.
          1   -1    0    0  501    0  0.00000000000E+00 -0.00000000000E+00 -0.31897446111E+03  0.31897446111E+03  0.00000000000E+00 0. -1.
         23    2    1    2    0    0  0.00000000000E+00  0.00000000000E+00 -0.31235641307E+03  0.32559250916E+03  0.91890985577E+02 0.  0.
        -13    1    3    3    0    0 -0.36809382012E+02 -0.26429278115E+02 -0.12929829791E+03  0.13700907703E+03  0.00000000000E+00 0.  1.
         13    1    3    3    0    0  0.36809382012E+02  0.26429278115E+02 -0.18305811516E+03  0.18858343212E+03  0.00000000000E+00 0. -1.
<mgrwt>
<rscale>  0 0.91890986E+02</rscale>
<asrwt>0</asrwt>
<pdfrwt beam="2">  1        1 0.49072984E-01 0.91890986E+02</pdfrwt>
<pdfrwt beam="1">  1       -1 0.10181614E-02 0.91890986E+02</pdfrwt>
<totfact> 0.12694647E+05</totfact>
</mgrwt>
</event>
