<event>
 5    1  0.1787806E-056  0.1249999E+03  0.7818608E-02  0.1235069E+00
          3   -1    0    0  501    0  0.00000000000E+00  0.00000000000E+00  0.84967155517E+02  0.84967206413E+02  0.93000000000E-01 0. -1.
         -3   -1    0    0    0  501 -0.00000000000E+00 -0.00000000000E+00 -0.45973463838E+02  0.45973557903E+02  0.93000000000E-01 0.  1.
         25    2    1    2    0    0  0.00000000000E+00  0.00000000000E+00  0.38993691679E+02  0.13094076432E+03  0.12499990308E+03 0.  0.
        -11    1    3    3    0    0  0.61660912848E+02 -0.10167442966E+02  0.18560569935E+02  0.65191562539E+02  0.51100000000E-03 0.  1.
         11    1    3    3    0    0 -0.61660912848E+02  0.10167442966E+02  0.20433121744E+02  0.65749201776E+02  0.51100000000E-03 0. -1.
<mgrwt>
<rscale>  0 0.12499990E+03</rscale>
<asrwt>0</asrwt>
<pdfrwt beam="1">  1        3 0.13071881E-01 0.12499990E+03</pdfrwt>
<pdfrwt beam="2">  1       -3 0.70728517E-02 0.12499990E+03</pdfrwt>
<totfact> 0.13579129E+04</totfact>
</mgrwt>
</event>
<event>
 5    1  0.1787806E-056  0.1249997E+03  0.7818608E-02  0.1235070E+00
          3   -1    0    0  501    0  0.00000000000E+00  0.00000000000E+00  0.23519888675E+03  0.23519890513E+03  0.93000000000E-01 0.  1.
         -3   -1    0    0    0  501 -0.00000000000E+00 -0.00000000000E+00 -0.16608055362E+02  0.16608315745E+02  0.93000000000E-01 0. -1.
         25    2    1    2    0    0  0.00000000000E+00  0.00000000000E+00  0.21859083139E+03  0.25180722088E+03  0.12499969968E+03 0.  0.
        -11    1    3    3    0    0 -0.60525228179E+02 -0.68031422613E+01  0.13754427584E+03  0.15042610747E+03  0.51100000000E-03 0. -1.
         11    1    3    3    0    0  0.60525228179E+02  0.68031422613E+01  0.81046555543E+02  0.10138111341E+03  0.51100000000E-03 0.  1.
<mgrwt>
<rscale>  0 0.12499970E+03</rscale>
<asrwt>0</asrwt>
<pdfrwt beam="1">  1        3 0.36184466E-01 0.12499970E+03</pdfrwt>
<pdfrwt beam="2">  1       -3 0.25551068E-02 0.12499970E+03</pdfrwt>
<totfact> 0.10953918E+04</totfact>
</mgrwt>
</event>
<event>
 5    1  0.1787806E-056  0.1250051E+03  0.7818608E-02  0.1235061E+00
          3   -1    0    0  501    0  0.00000000000E+00  0.00000000000E+00  0.29213994686E+03  0.29213996167E+03  0.93000000000E-01 0. -1.
         -3   -1    0    0    0  501 -0.00000000000E+00 -0.00000000000E+00 -0.13372083546E+02  0.13372406940E+02  0.93000000000E-01 0.  1.
         25    2    1    2    0    0  0.00000000000E+00  0.00000000000E+00  0.27876786332E+03  0.30551236861E+03  0.12500514290E+03 0.  0.
        -11    1    3    3    0    0 -0.56424003368E+02 -0.26229673216E+02  0.12494415606E+03  0.13958046442E+03  0.51100000000E-03 0.  1.
         11    1    3    3    0    0  0.56424003368E+02  0.26229673216E+02  0.15382370726E+03  0.16593190419E+03  0.51100000000E-03 0. -1.
<mgrwt>
<rscale>  0 0.12500514E+03</rscale>
<asrwt>0</asrwt>
<pdfrwt beam="1">  1        3 0.44944627E-01 0.12500514E+03</pdfrwt>
<pdfrwt beam="2">  1       -3 0.20572699E-02 0.12500514E+03</pdfrwt>
<totfact> 0.10048380E+04</totfact>
</mgrwt>
</event>
<event>
 5    1  0.1787806E-056  0.1250023E+03  0.7818608E-02  0.1235066E+00
          3   -1    0    0  501    0  0.00000000000E+00  0.00000000000E+00  0.19378994492E+03  0.19378996723E+03  0.93000000000E-01 0. -1.
         -3   -1    0    0    0  501 -0.00000000000E+00 -0.00000000000E+00 -0.20157735313E+02  0.20157949845E+02  0.93000000000E-01 0.  1.
         25    2    1    2    0    0  0.00000000000E+00  0.00000000000E+00  0.17363220960E+03  0.21394791708E+03  0.12500226802E+03 0.  0.
        -11    1    3    3    0    0 -0.18516615438E+02  0.25657404713E+02  0.17906899966E+03  0.18184299300E+03  0.51100000000E-03 0. -1.
         11    1    3    3    0    0  0.18516615438E+02 -0.25657404713E+02 -0.54367900519E+01  0.32104924081E+02  0.51100000000E-03 0.  1.
<mgrwt>
<rscale>  0 0.12500227E+03</rscale>
<asrwt>0</asrwt>
<pdfrwt beam="1">  1        3 0.29813856E-01 0.12500227E+03</pdfrwt>
<pdfrwt beam="2">  1       -3 0.31012083E-02 0.12500227E+03</pdfrwt>
<totfact> 0.11675153E+04</totfact>
</mgrwt>
</event>
<event>
 5    1  0.1787806E-056  0.1250022E+03  0.7818608E-02  0.1235066E+00
         -3   -1    0    0    0  501 -0.00000000000E+00  0.00000000000E+00  0.14733565457E+02  0.14733858967E+02  0.93000000000E-01 0.  1.
          3   -1    0    0  501    0  0.00000000000E+00 -0.00000000000E+00 -0.26513213460E+03  0.26513215091E+03  0.93000000000E-01 0. -1.
         25    2    1    2    0    0  0.00000000000E+00  0.00000000000E+00 -0.25039856915E+03  0.27986600988E+03  0.12500216021E+03 0.  0.
        -11    1    3    3    0    0 -0.13806430602E+02  0.51242141477E+02 -0.51281666538E+02  0.73798264968E+02  0.51100000000E-03 0.  1.
         11    1    3    3    0    0  0.13806430602E+02 -0.51242141477E+02 -0.19911690261E+03  0.20606774491E+03  0.51100000000E-03 0. -1.
<mgrwt>
<rscale>  0 0.12500216E+03</rscale>
<asrwt>0</asrwt>
<pdfrwt beam="2">  1        3 0.40789579E-01 0.12500216E+03</pdfrwt>
<pdfrwt beam="1">  1       -3 0.22667264E-02 0.12500216E+03</pdfrwt>
<totfact> 0.10465059E+04</totfact>
</mgrwt>
</event>
<event>
 5    1  0.1787806E-056  0.1250140E+03  0.7818608E-02  0.1235047E+00
         -3   -1    0    0    0  501 -0.00000000000E+00  0.00000000000E+00  0.65196016886E+01  0.65202649622E+01  0.93000000000E-01 0.  1.
          3   -1    0    0  501    0  0.00000000000E+00 -0.00000000000E+00 -0.59925768142E+03  0.59925768864E+03  0.93000000000E-01 0. -1.
         25    2    1    2    0    0  0.00000000000E+00  0.00000000000E+00 -0.59273807974E+03  0.60577795360E+03  0.12501399083E+03 0.  0.
        -11    1    3    3    0    0  0.62042216243E+02  0.46690021117E+01 -0.32547876111E+03  0.33137208710E+03  0.51100000000E-03 0.  1.
         11    1    3    3    0    0 -0.62042216243E+02 -0.46690021117E+01 -0.26725931863E+03  0.27440586650E+03  0.51100000000E-03 0. -1.
<mgrwt>
<rscale>  0 0.12501399E+03</rscale>
<asrwt>0</asrwt>
<pdfrwt beam="2">  1        3 0.92193498E-01 0.12501399E+03</pdfrwt>
<pdfrwt beam="1">  1       -3 0.10030677E-02 0.12501399E+03</pdfrwt>
<totfact> 0.66335676E+03</totfact>
</mgrwt>
</event>
<event>
 5    1  0.1787806E-056  0.1250029E+03  0.7818608E-02  0.1235065E+00
         -3   -1    0    0    0  501 -0.00000000000E+00  0.00000000000E+00  0.10636684658E+03  0.10636688723E+03  0.93000000000E-01 0.  1.
          3   -1    0    0  501    0  0.00000000000E+00 -0.00000000000E+00 -0.36725924210E+02  0.36726041960E+02  0.93000000000E-01 0. -1.
         25    2    1    2    0    0  0.00000000000E+00  0.00000000000E+00  0.69640922368E+02  0.14309292919E+03  0.12500291323E+03 0.  0.
        -11    1    3    3    0    0 -0.58173023417E+02 -0.13705396172E+02  0.13884548046E+02  0.61357307734E+02  0.51100000000E-03 0. -1.
         11    1    3    3    0    0  0.58173023417E+02  0.13705396172E+02  0.55756374321E+02  0.81735621460E+02  0.51100000000E-03 0.  1.
<mgrwt>
<rscale>  0 0.12500291E+03</rscale>
<asrwt>0</asrwt>
<pdfrwt beam="2">  1        3 0.56501544E-02 0.12500291E+03</pdfrwt>
<pdfrwt beam="1">  1       -3 0.16364142E-01 0.12500291E+03</pdfrwt>
<totfact> 0.13266377E+04</totfact>
</mgrwt>
</event>
<event>
 5    1  0.1787806E-056  0.1249995E+03  0.7818608E-02  0.1235070E+00
          3   -1    0    0  501    0  0.00000000000E+00  0.00000000000E+00  0.78833928777E+02  0.78833983632E+02  0.93000000000E-01 0. -1.
         -3   -1    0    0    0  501 -0.00000000000E+00 -0.00000000000E+00 -0.49549868498E+02  0.49549955774E+02  0.93000000000E-01 0.  1.
         25    2    1    2    0    0  0.00000000000E+00  0.00000000000E+00  0.29284060278E+02  0.12838393941E+03  0.12499951884E+03 0.  0.
        -11    1    3    3    0    0 -0.18031721790E+02  0.39118369439E+02  0.61154264087E+02  0.74801295674E+02  0.51100000000E-03 0. -1.
         11    1    3    3    0    0  0.18031721790E+02 -0.39118369439E+02 -0.31870203809E+02  0.53582643732E+02  0.51100000000E-03 0.  1.
<mgrwt>
<rscale>  0 0.12499952E+03</rscale>
<asrwt>0</asrwt>
<pdfrwt beam="1">  1        3 0.12128308E-01 0.12499952E+03</pdfrwt>
<pdfrwt beam="2">  1       -3 0.76230677E-02 0.12499952E+03</pdfrwt>
<totfact> 0.13646374E+04</totfact>
</mgrwt>
</event>
<event>
 5    1  0.1787806E-056  0.1249994E+03  0.7818608E-02  0.1235070E+00
         -3   -1    0    0    0  501 -0.00000000000E+00  0.00000000000E+00  0.20931324575E+02  0.20931531178E+02  0.93000000000E-01 0.  1.
          3   -1    0    0  501    0  0.00000000000E+00 -0.00000000000E+00 -0.18661935112E+03  0.18661937429E+03  0.93000000000E-01 0. -1.
         25    2    1    2    0    0  0.00000000000E+00  0.00000000000E+00 -0.16568802654E+03  0.20755090547E+03  0.12499942488E+03 0.  0.
        -11    1    3    3    0    0 -0.29677703785E+02  0.54986290088E+02 -0.85166135078E+02  0.10562920412E+03  0.51100000000E-03 0.  1.
         11    1    3    3    0    0  0.29677703785E+02 -0.54986290088E+02 -0.80521891466E+02  0.10192170135E+03  0.51100000000E-03 0. -1.
<mgrwt>
<rscale>  0 0.12499942E+03</rscale>
<asrwt>0</asrwt>
<pdfrwt beam="2">  1        3 0.28710686E-01 0.12499942E+03</pdfrwt>
<pdfrwt beam="1">  1       -3 0.32202216E-02 0.12499942E+03</pdfrwt>
<totfact> 0.11805818E+04</totfact>
</mgrwt>
</event>
<event>
 5    1  0.1787806E-056  0.1250004E+03  0.7818608E-02  0.1235069E+00
         -3   -1    0    0    0  501 -0.00000000000E+00  0.00000000000E+00  0.14585959204E+03  0.14585962169E+03  0.93000000000E-01 0.  1.
          3   -1    0    0  501    0  0.00000000000E+00 -0.00000000000E+00 -0.26780939998E+02  0.26781101474E+02  0.93000000000E-01 0. -1.
         25    2    1    2    0    0  0.00000000000E+00  0.00000000000E+00  0.11907865204E+03  0.17264072317E+03  0.12500037569E+03 0.  0.
        -11    1    3    3    0    0  0.53654217942E+02 -0.16569613762E+02  0.97437119381E+02  0.11246030160E+03  0.51100000000E-03 0.  1.
         11    1    3    3    0    0 -0.53654217942E+02  0.16569613762E+02  0.21641532664E+02  0.60180421562E+02  0.51100000000E-03 0. -1.
<mgrwt>
<rscale>  0 0.12500038E+03</rscale>
<asrwt>0</asrwt>
<pdfrwt beam="2">  1        3 0.41201593E-02 0.12500038E+03</pdfrwt>
<pdfrwt beam="1">  1       -3 0.22439952E-01 0.12500038E+03</pdfrwt>
<totfact> 0.12559797E+04</totfact>
</mgrwt>
</event>
<event>
 5    1  0.1787806E-056  0.1249984E+03  0.7818608E-02  0.1235072E+00
         -3   -1    0    0    0  501 -0.00000000000E+00  0.00000000000E+00  0.52172503443E+02  0.52172586332E+02  0.93000000000E-01 0.  1.
          3   -1    0    0  501    0  0.00000000000E+00 -0.00000000000E+00 -0.74869673546E+02  0.74869731307E+02  0.93000000000E-01 0. -1.
         25    2    1    2    0    0  0.00000000000E+00  0.00000000000E+00 -0.22697170103E+02  0.12704231764E+03  0.12499835575E+03 0.  0.
        -11    1    3    3    0    0 -0.30719087943E+02  0.54055832904E+02 -0.48844111382E+01  0.62366280212E+02  0.51100000000E-03 0. -1.
         11    1    3    3    0    0  0.30719087943E+02 -0.54055832904E+02 -0.17812758965E+02  0.64676037427E+02  0.51100000000E-03 0.  1.
<mgrwt>
<rscale>  0 0.12499836E+03</rscale>
<asrwt>0</asrwt>
<pdfrwt beam="2">  1        3 0.11518422E-01 0.12499836E+03</pdfrwt>
<pdfrwt beam="1">  1       -3 0.80265498E-02 0.12499836E+03</pdfrwt>
<totfact> 0.13682251E+04</totfact>
</mgrwt>
</event>
<event>
 5    1  0.1787806E-056  0.1250048E+03  0.7818608E-02  0.1235062E+00
         -3   -1    0    0    0  501 -0.00000000000E+00  0.00000000000E+00  0.15755545324E+02  0.15755819796E+02  0.93000000000E-01 0.  1.
          3   -1    0    0  501    0  0.00000000000E+00 -0.00000000000E+00 -0.24794526703E+03  0.24794528447E+03  0.93000000000E-01 0. -1.
         25    2    1    2    0    0  0.00000000000E+00  0.00000000000E+00 -0.23218972171E+03  0.26370110427E+03  0.12500482201E+03 0.  0.
        -11    1    3    3    0    0  0.11507537754E+02 -0.61229918514E+02 -0.10554194372E+03  0.12255867261E+03  0.51100000000E-03 0.  1.
         11    1    3    3    0    0 -0.11507537754E+02  0.61229918514E+02 -0.12664777799E+03  0.14114243166E+03  0.51100000000E-03 0. -1.
<mgrwt>
<rscale>  0 0.12500482E+03</rscale>
<asrwt>0</asrwt>
<pdfrwt beam="2">  1        3 0.38145445E-01 0.12500482E+03</pdfrwt>
<pdfrwt beam="1">  1       -3 0.24239527E-02 0.12500482E+03</pdfrwt>
<totfact> 0.10741243E+04</totfact>
</mgrwt>
</event>
<event>
 5    1  0.1787806E-056  0.1249962E+03  0.7818608E-02  0.1235075E+00
         -3   -1    0    0    0  501 -0.00000000000E+00  0.00000000000E+00  0.28070771042E+02  0.28070925099E+02  0.93000000000E-01 0.  1.
          3   -1    0    0  501    0  0.00000000000E+00 -0.00000000000E+00 -0.13914822623E+03  0.13914825731E+03  0.93000000000E-01 0. -1.
         25    2    1    2    0    0  0.00000000000E+00  0.00000000000E+00 -0.11107745519E+03  0.16721918241E+03  0.12499621560E+03 0.  0.
        -11    1    3    3    0    0  0.26918967989E+02 -0.47417421005E+02 -0.96401070413E+02  0.11075291883E+03  0.51100000000E-03 0. -1.
         11    1    3    3    0    0 -0.26918967989E+02  0.47417421005E+02 -0.14676384778E+02  0.56466263580E+02  0.51100000000E-03 0.  1.
<mgrwt>
<rscale>  0 0.12499622E+03</rscale>
<asrwt>0</asrwt>
<pdfrwt beam="2">  1        3 0.21407433E-01 0.12499622E+03</pdfrwt>
<pdfrwt beam="1">  1       -3 0.43185945E-02 0.12499622E+03</pdfrwt>
<totfact> 0.12685911E+04</totfact>
</mgrwt>
</event>
<event>
 5    1  0.1787806E-056  0.1249953E+03  0.7818608E-02  0.1235077E+00
          3   -1    0    0  501    0  0.00000000000E+00  0.00000000000E+00  0.56142643671E+02  0.56142720698E+02  0.93000000000E-01 0. -1.
         -3   -1    0    0    0  501 -0.00000000000E+00 -0.00000000000E+00 -0.69571862881E+02  0.69571925040E+02  0.93000000000E-01 0.  1.
         25    2    1    2    0    0  0.00000000000E+00  0.00000000000E+00 -0.13429219210E+02  0.12571464574E+03  0.12499531281E+03 0.  0.
        -11    1    3    3    0    0  0.79544263932E+01 -0.61453940360E+02 -0.14891425893E+02  0.63730795150E+02  0.51100000000E-03 0.  1.
         11    1    3    3    0    0 -0.79544263932E+01  0.61453940360E+02  0.14622066832E+01  0.61983850588E+02  0.51100000000E-03 0. -1.
<mgrwt>
<rscale>  0 0.12499531E+03</rscale>
<asrwt>0</asrwt>
<pdfrwt beam="1">  1        3 0.86373406E-02 0.12499531E+03</pdfrwt>
<pdfrwt beam="2">  1       -3 0.10703374E-01 0.12499531E+03</pdfrwt>
<totfact> 0.13718776E+04</totfact>
</mgrwt>
</event>
<event>
 5    1  0.1787806E-056  0.1249999E+03  0.7818608E-02  0.1235070E+00
          3   -1    0    0  501    0  0.00000000000E+00  0.00000000000E+00  0.27010449035E+02  0.27010609139E+02  0.93000000000E-01 0.  1.
         -3   -1    0    0    0  501 -0.00000000000E+00 -0.00000000000E+00 -0.14461901765E+03  0.14461904755E+03  0.93000000000E-01 0. -1.
         25    2    1    2    0    0  0.00000000000E+00  0.00000000000E+00 -0.11760856862E+03  0.17162965669E+03  0.12499985458E+03 0.  0.
        -11    1    3    3    0    0 -0.47930414558E+02 -0.40292694585E+01 -0.11360008292E+03  0.12336344066E+03  0.51100000000E-03 0. -1.
         11    1    3    3    0    0  0.47930414558E+02  0.40292694585E+01 -0.40084856942E+01  0.48266216030E+02  0.51100000000E-03 0.  1.
<mgrwt>
<rscale>  0 0.12499985E+03</rscale>
<asrwt>0</asrwt>
<pdfrwt beam="1">  1        3 0.41554684E-02 0.12499985E+03</pdfrwt>
<pdfrwt beam="2">  1       -3 0.22249094E-01 0.12499985E+03</pdfrwt>
<totfact> 0.12583074E+04</totfact>
</mgrwt>
</event>
<event>
 5    1  0.1787806E-056  0.1250010E+03  0.7818608E-02  0.1235068E+00
         -3   -1    0    0    0  501 -0.00000000000E+00  0.00000000000E+00  0.80915718859E+02  0.80915772304E+02  0.93000000000E-01 0. -1.
          3   -1    0    0  501    0  0.00000000000E+00 -0.00000000000E+00 -0.48276221999E+02  0.48276311578E+02  0.93000000000E-01 0.  1.
         25    2    1    2    0    0  0.00000000000E+00  0.00000000000E+00  0.32639496860E+02  0.12919208388E+03  0.12500103113E+03 0.  0.
        -11    1    3    3    0    0  0.43746986698E+02  0.43938340129E+02  0.81858184387E+01  0.62541060130E+02  0.51100000000E-03 0. -1.
         11    1    3    3    0    0 -0.43746986698E+02 -0.43938340129E+02  0.24453678421E+02  0.66651023751E+02  0.51100000000E-03 0.  1.
<mgrwt>
<rscale>  0 0.12500103E+03</rscale>
<asrwt>0</asrwt>
<pdfrwt beam="2">  1        3 0.74271221E-02 0.12500103E+03</pdfrwt>
<pdfrwt beam="1">  1       -3 0.12448583E-01 0.12500103E+03</pdfrwt>
<totfact> 0.13624792E+04</totfact>
</mgrwt>
</event>
<event>
 5    1  0.1787806E-056  0.1250005E+03  0.7818608E-02  0.1235069E+00
          3   -1    0    0  501    0  0.00000000000E+00  0.00000000000E+00  0.12124463676E+03  0.12124467242E+03  0.93000000000E-01 0. -1.
         -3   -1    0    0    0  501 -0.00000000000E+00 -0.00000000000E+00 -0.32218055943E+02  0.32218190168E+02  0.93000000000E-01 0.  1.
         25    2    1    2    0    0  0.00000000000E+00  0.00000000000E+00  0.89026580814E+02  0.15346286259E+03  0.12500047241E+03 0.  0.
        -11    1    3    3    0    0  0.40125300408E+02  0.42390352319E+02  0.17080405784E+02  0.60817119009E+02  0.51100000000E-03 0. -1.
         11    1    3    3    0    0 -0.40125300408E+02 -0.42390352319E+02  0.71946175030E+02  0.92645743584E+02  0.51100000000E-03 0.  1.
<mgrwt>
<rscale>  0 0.12500047E+03</rscale>
<asrwt>0</asrwt>
<pdfrwt beam="1">  1        3 0.18653034E-01 0.12500047E+03</pdfrwt>
<pdfrwt beam="2">  1       -3 0.49566371E-02 0.12500047E+03</pdfrwt>
<totfact> 0.13011189E+04</totfact>
</mgrwt>
</event>
<event>
 5    1  0.1787806E-056  0.1250007E+03  0.7818608E-02  0.1235068E+00
         -3   -1    0    0    0  501 -0.00000000000E+00  0.00000000000E+00  0.27710060218E+02  0.27710216280E+02  0.93000000000E-01 0.  1.
          3   -1    0    0  501    0  0.00000000000E+00 -0.00000000000E+00 -0.14096960979E+03  0.14096964046E+03  0.93000000000E-01 0. -1.
         25    2    1    2    0    0  0.00000000000E+00  0.00000000000E+00 -0.11325954957E+03  0.16867985674E+03  0.12500067401E+03 0.  0.
        -11    1    3    3    0    0 -0.60517532692E+02  0.97980484550E+01 -0.40217745796E+02  0.73320124072E+02  0.51100000000E-03 0.  1.
         11    1    3    3    0    0  0.60517532692E+02 -0.97980484550E+01 -0.73041803773E+02  0.95359732672E+02  0.51100000000E-03 0. -1.
<mgrwt>
<rscale>  0 0.12500067E+03</rscale>
<asrwt>0</asrwt>
<pdfrwt beam="2">  1        3 0.21687646E-01 0.12500067E+03</pdfrwt>
<pdfrwt beam="1">  1       -3 0.42631006E-02 0.12500067E+03</pdfrwt>
<totfact> 0.12650842E+04</totfact>
</mgrwt>
</event>
<event>
 5    1  0.1787806E-056  0.1249959E+03  0.7818608E-02  0.1235076E+00
          3   -1    0    0  501    0  0.00000000000E+00  0.00000000000E+00  0.23526863155E+02  0.23527046965E+02  0.93000000000E-01 0. -1.
         -3   -1    0    0    0  501 -0.00000000000E+00 -0.00000000000E+00 -0.16602175865E+03  0.16602178470E+03  0.93000000000E-01 0.  1.
         25    2    1    2    0    0  0.00000000000E+00  0.00000000000E+00 -0.14249489550E+03  0.18954883166E+03  0.12499585730E+03 0.  0.
        -11    1    3    3    0    0 -0.61020607131E+02 -0.42074281812E+01 -0.90713147373E+02  0.10940791586E+03  0.51100000000E-03 0.  1.
         11    1    3    3    0    0  0.61020607131E+02  0.42074281812E+01 -0.51781748123E+02  0.80140915801E+02  0.51100000000E-03 0. -1.
<mgrwt>
<rscale>  0 0.12499586E+03</rscale>
<asrwt>0</asrwt>
<pdfrwt beam="1">  1        3 0.36195337E-02 0.12499586E+03</pdfrwt>
<pdfrwt beam="2">  1       -3 0.25541824E-01 0.12499586E+03</pdfrwt>
<totfact> 0.12185226E+04</totfact>
</mgrwt>
</event>
<event>
 5    1  0.1787806E-056  0.1250002E+03  0.7818608E-02  0.1235069E+00
          3   -1    0    0  501    0  0.00000000000E+00  0.00000000000E+00  0.10392618569E+03  0.10392622730E+03  0.93000000000E-01 0.  1.
         -3   -1    0    0    0  501 -0.00000000000E+00 -0.00000000000E+00 -0.37586795208E+02  0.37586910261E+02  0.93000000000E-01 0. -1.
         25    2    1    2    0    0  0.00000000000E+00  0.00000000000E+00  0.66339390478E+02  0.14151313756E+03  0.12500021349E+03 0.  0.
        -11    1    3    3    0    0 -0.42550335210E+02  0.12408467338E+02 -0.16716919332E+02  0.47370417777E+02  0.51100000000E-03 0. -1.
         11    1    3    3    0    0  0.42550335210E+02 -0.12408467338E+02  0.83056309810E+02  0.94142719780E+02  0.51100000000E-03 0.  1.
<mgrwt>
<rscale>  0 0.12500021E+03</rscale>
<asrwt>0</asrwt>
<pdfrwt beam="1">  1        3 0.15988656E-01 0.12500021E+03</pdfrwt>
<pdfrwt beam="2">  1       -3 0.57825960E-02 0.12500021E+03</pdfrwt>
<totfact> 0.13306829E+04</totfact>
</mgrwt>
</event>
<event>
 5    1  0.1787806E-056  0.1250023E+03  0.7818608E-02  0.1235066E+00
          3   -1    0    0  501    0  0.00000000000E+00  0.00000000000E+00  0.29969995078E+03  0.29969996521E+03  0.93000000000E-01 0. -1.
         -3   -1    0    0    0  501 -0.00000000000E+00 -0.00000000000E+00 -0.13034164289E+02  0.13034496067E+02  0.93000000000E-01 0.  1.
         25    2    1    2    0    0  0.00000000000E+00  0.00000000000E+00  0.28666578649E+03  0.31273446127E+03  0.12500228048E+03 0.  0.
        -11    1    3    3    0    0  0.56412778343E+02  0.26801638440E+02  0.14928659046E+03  0.16182464421E+03  0.51100000000E-03 0.  1.
         11    1    3    3    0    0 -0.56412778343E+02 -0.26801638440E+02  0.13737919603E+03  0.15090981706E+03  0.51100000000E-03 0. -1.
<mgrwt>
<rscale>  0 0.12500228E+03</rscale>
<asrwt>0</asrwt>
<pdfrwt beam="1">  1        3 0.46107712E-01 0.12500228E+03</pdfrwt>
<pdfrwt beam="2">  1       -3 0.20052826E-02 0.12500228E+03</pdfrwt>
<totfact> 0.99367088E+03</totfact>
</mgrwt>
</event>
<event>
 5    1  0.1787806E-056  0.1249976E+03  0.7818608E-02  0.1235073E+00
         -3   -1    0    0    0  501 -0.00000000000E+00  0.00000000000E+00  0.22710212653E+02  0.22710403073E+02  0.93000000000E-01 0.  1.
          3   -1    0    0  501    0  0.00000000000E+00 -0.00000000000E+00 -0.17199651186E+03  0.17199653700E+03  0.93000000000E-01 0. -1.
         25    2    1    2    0    0  0.00000000000E+00  0.00000000000E+00 -0.14928629920E+03  0.19470694007E+03  0.12499757351E+03 0.  0.
        -11    1    3    3    0    0  0.17097737971E+02  0.28389301550E+02  0.78967544128E+01  0.34068222976E+02  0.51100000000E-03 0.  1.
         11    1    3    3    0    0 -0.17097737971E+02 -0.28389301550E+02 -0.15718305362E+03  0.16063871710E+03  0.51100000000E-03 0. -1.
<mgrwt>
<rscale>  0 0.12499757E+03</rscale>
<asrwt>0</asrwt>
<pdfrwt beam="2">  1        3 0.26461018E-01 0.12499757E+03</pdfrwt>
<pdfrwt beam="1">  1       -3 0.34938956E-02 0.12499757E+03</pdfrwt>
<totfact> 0.12074648E+04</totfact>
</mgrwt>
</event>
<event>
 5    1  0.1787806E-056  0.1249977E+03  0.7818608E-02  0.1235073E+00
          3   -1    0    0  501    0  0.00000000000E+00  0.00000000000E+00  0.66582380671E+02  0.66582445620E+02  0.93000000000E-01 0. -1.
         -3   -1    0    0    0  501 -0.00000000000E+00 -0.00000000000E+00 -0.58665663270E+02  0.58665736984E+02  0.93000000000E-01 0.  1.
         25    2    1    2    0    0  0.00000000000E+00  0.00000000000E+00  0.79167174008E+01  0.12524818260E+03  0.12499773130E+03 0.  0.
        -11    1    3    3    0    0  0.19203019766E+01  0.60163816300E+02 -0.12890083267E+02  0.61559130910E+02  0.51100000000E-03 0.  1.
         11    1    3    3    0    0 -0.19203019766E+01 -0.60163816300E+02  0.20806800668E+02  0.63689051695E+02  0.51100000000E-03 0. -1.
<mgrwt>
<rscale>  0 0.12499773E+03</rscale>
<asrwt>0</asrwt>
<pdfrwt beam="1">  1        3 0.10243454E-01 0.12499773E+03</pdfrwt>
<pdfrwt beam="2">  1       -3 0.90254973E-02 0.12499773E+03</pdfrwt>
<totfact> 0.13730524E+04</totfact>
</mgrwt>
</event>
<event>
 5    1  0.1787806E-056  0.1250018E+03  0.7818608E-02  0.1235067E+00
         -3   -1    0    0    0  501 -0.00000000000E+00  0.00000000000E+00  0.11076998178E+02  0.11077388575E+02  0.93000000000E-01 0.  1.
          3   -1    0    0  501    0  0.00000000000E+00 -0.00000000000E+00 -0.35264847871E+03  0.35264849098E+03  0.93000000000E-01 0. -1.
         25    2    1    2    0    0  0.00000000000E+00  0.00000000000E+00 -0.34157148053E+03  0.36372587955E+03  0.12500175655E+03 0.  0.
        -11    1    3    3    0    0  0.57306895264E+02  0.25088022178E+01 -0.24300338398E+03  0.24968183546E+03  0.51100000000E-03 0. -1.
         11    1    3    3    0    0 -0.57306895264E+02 -0.25088022178E+01 -0.98568096553E+02  0.11404404409E+03  0.51100000000E-03 0.  1.
<mgrwt>
<rscale>  0 0.12500176E+03</rscale>
<asrwt>0</asrwt>
<pdfrwt beam="2">  1        3 0.54253635E-01 0.12500176E+03</pdfrwt>
<pdfrwt beam="1">  1       -3 0.17041848E-02 0.12500176E+03</pdfrwt>
<totfact> 0.91979165E+03</totfact>
</mgrwt>
</event>
<event>
 5    1  0.1787806E-056  0.1250012E+03  0.7818608E-02  0.1235067E+00
         -3   -1    0    0    0  501 -0.00000000000E+00  0.00000000000E+00  0.52962202777E+02  0.52962284430E+02  0.93000000000E-01 0.  1.
          3   -1    0    0  501    0  0.00000000000E+00 -0.00000000000E+00 -0.73756620872E+02  0.73756679504E+02  0.93000000000E-01 0. -1.
         25    2    1    2    0    0  0.00000000000E+00  0.00000000000E+00 -0.20794418094E+02  0.12671896393E+03  0.12500115198E+03 0.  0.
        -11    1    3    3    0    0  0.52248490420E+02 -0.29914059442E+02  0.66133243302E+01  0.60568075439E+02  0.51100000000E-03 0.  1.
         11    1    3    3    0    0 -0.52248490420E+02  0.29914059442E+02 -0.27407742425E+02  0.66150888494E+02  0.51100000000E-03 0. -1.
<mgrwt>
<rscale>  0 0.12500115E+03</rscale>
<asrwt>0</asrwt>
<pdfrwt beam="2">  1        3 0.11347183E-01 0.12500115E+03</pdfrwt>
<pdfrwt beam="1">  1       -3 0.81480420E-02 0.12500115E+03</pdfrwt>
<totfact> 0.13689995E+04</totfact>
</mgrwt>
</event>
<event>
 5    1  0.1787806E-056  0.1250003E+03  0.7818608E-02  0.1235069E+00
         -3   -1    0    0    0  501 -0.00000000000E+00  0.00000000000E+00  0.29182893975E+02  0.29183042161E+02  0.93000000000E-01 0.  1.
          3   -1    0    0  501    0  0.00000000000E+00 -0.00000000000E+00 -0.13385415188E+03  0.13385418419E+03  0.93000000000E-01 0. -1.
         25    2    1    2    0    0  0.00000000000E+00  0.00000000000E+00 -0.10467125791E+03  0.16303722635E+03  0.12500025978E+03 0.  0.
        -11    1    3    3    0    0  0.29299666651E+02 -0.54331845476E+02 -0.39566430901E+02  0.73320681620E+02  0.51100000000E-03 0. -1.
         11    1    3    3    0    0 -0.29299666651E+02  0.54331845476E+02 -0.65104827008E+02  0.89716544732E+02  0.51100000000E-03 0.  1.
<mgrwt>
<rscale>  0 0.12500026E+03</rscale>
<asrwt>0</asrwt>
<pdfrwt beam="2">  1        3 0.20592960E-01 0.12500026E+03</pdfrwt>
<pdfrwt beam="1">  1       -3 0.44896899E-02 0.12500026E+03</pdfrwt>
<totfact> 0.12782428E+04</totfact>
</mgrwt>
</event>
<event>
 5    1  0.1787806E-056  0.1249991E+03  0.7818608E-02  0.1235071E+00
         -3   -1    0    0    0  501 -0.00000000000E+00  0.00000000000E+00  0.55229660687E+02  0.55229738988E+02  0.93000000000E-01 0.  1.
          3   -1    0    0  501    0  0.00000000000E+00 -0.00000000000E+00 -0.70726242818E+02  0.70726303962E+02  0.93000000000E-01 0. -1.
         25    2    1    2    0    0  0.00000000000E+00  0.00000000000E+00 -0.15496582131E+02  0.12595604295E+03  0.12499912279E+03 0.  0.
        -11    1    3    3    0    0 -0.26970179094E+02  0.48933836588E+02 -0.35967756985E+02  0.66449909453E+02  0.51100000000E-03 0.  1.
         11    1    3    3    0    0  0.26970179094E+02 -0.48933836588E+02  0.20471174854E+02  0.59506133497E+02  0.51100000000E-03 0. -1.
<mgrwt>
<rscale>  0 0.12499912E+03</rscale>
<asrwt>0</asrwt>
<pdfrwt beam="2">  1        3 0.10880971E-01 0.12499912E+03</pdfrwt>
<pdfrwt beam="1">  1       -3 0.84968816E-02 0.12499912E+03</pdfrwt>
<totfact> 0.13711028E+04</totfact>
</mgrwt>
</event>
<event>
 4    1  0.1787806E-056  0.1249515E+03  0.7818608E-02  0.1235145E+00
          3   -1    0    0  501    0  0.00000000000E+00  0.00000000000E+00  0.22208938383E+02  0.22209133101E+02  0.93000000000E-01 0. -1.
         -3   -1    0    0    0  501 -0.00000000000E+00 -0.00000000000E+00 -0.17574889335E+03  0.17574891796E+03  0.93000000000E-01 0.  1.
        -11    1    1    2    0    0 -0.28315415651E+01  0.48361703057E+02 -0.13927067411E+03  0.14745573104E+03  0.51100000000E-03 0.  1.
         11    1    1    2    0    0  0.28315415651E+01 -0.48361703057E+02 -0.14269280857E+02  0.50502320013E+02  0.51100000000E-03 0. -1.
<mgrwt>
<rscale>  0 0.12495148E+03</rscale>
<asrwt>0</asrwt>
<pdfrwt beam="1">  1        3 0.34167767E-02 0.12495148E+03</pdfrwt>
<pdfrwt beam="2">  1       -3 0.27038307E-01 0.12495148E+03</pdfrwt>
<totfact> 0.12017575E+04</totfact>
</mgrwt>
</event>
<event>
 5    1  0.1787806E-056  0.1249990E+03  0.7818608E-02  0.1235071E+00
         -3   -1    0    0    0  501 -0.00000000000E+00  0.00000000000E+00  0.41661145773E+02  0.41661249575E+02  0.93000000000E-01 0.  1.
          3   -1    0    0  501    0  0.00000000000E+00 -0.00000000000E+00 -0.93760720343E+02  0.93760766466E+02  0.93000000000E-01 0. -1.
         25    2    1    2    0    0  0.00000000000E+00  0.00000000000E+00 -0.52099574570E+02  0.13542201604E+03  0.12499902703E+03 0.  0.
        -11    1    3    3    0    0 -0.54772995236E+02  0.29912253030E+02 -0.22397431222E+02  0.66305873149E+02  0.51100000000E-03 0. -1.
         11    1    3    3    0    0  0.54772995236E+02 -0.29912253030E+02 -0.29702143348E+02  0.69116142891E+02  0.51100000000E-03 0.  1.
<mgrwt>
<rscale>  0 0.12499903E+03</rscale>
<asrwt>0</asrwt>
<pdfrwt beam="2">  1        3 0.14424738E-01 0.12499903E+03</pdfrwt>
<pdfrwt beam="1">  1       -3 0.64094186E-02 0.12499903E+03</pdfrwt>
<totfact> 0.13462788E+04</totfact>
</mgrwt>
</event>
<event>
 5    1  0.1787806E-056  0.1249996E+03  0.7818608E-02  0.1235070E+00
          3   -1    0    0  501    0  0.00000000000E+00  0.00000000000E+00  0.14315125707E+03  0.14315128728E+03  0.93000000000E-01 0. -1.
         -3   -1    0    0    0  501 -0.00000000000E+00 -0.00000000000E+00 -0.27287276224E+02  0.27287434704E+02  0.93000000000E-01 0.  1.
         25    2    1    2    0    0  0.00000000000E+00  0.00000000000E+00  0.11586398085E+03  0.17043872199E+03  0.12499958358E+03 0.  0.
        -11    1    3    3    0    0  0.19490148923E+02 -0.54248467379E+02  0.90867617543E+02  0.10760894961E+03  0.51100000000E-03 0. -1.
         11    1    3    3    0    0 -0.19490148923E+02  0.54248467379E+02  0.24996363305E+02  0.62829772375E+02  0.51100000000E-03 0.  1.
<mgrwt>
<rscale>  0 0.12499958E+03</rscale>
<asrwt>0</asrwt>
<pdfrwt beam="1">  1        3 0.22023285E-01 0.12499958E+03</pdfrwt>
<pdfrwt beam="2">  1       -3 0.41980569E-02 0.12499958E+03</pdfrwt>
<totfact> 0.12610637E+04</totfact>
</mgrwt>
</event>
<event>
 5    1  0.1787806E-056  0.1249985E+03  0.7818608E-02  0.1235072E+00
          3   -1    0    0  501    0  0.00000000000E+00  0.00000000000E+00  0.16316367085E+02  0.16316632123E+02  0.93000000000E-01 0. -1.
         -3   -1    0    0    0  501 -0.00000000000E+00 -0.00000000000E+00 -0.23939887498E+03  0.23939889305E+03  0.93000000000E-01 0.  1.
         25    2    1    2    0    0  0.00000000000E+00  0.00000000000E+00 -0.22308250790E+03  0.25571552517E+03  0.12499849792E+03 0.  0.
        -11    1    3    3    0    0 -0.21253809515E+01  0.39967906004E+02 -0.20974157182E+03  0.21352629277E+03  0.51100000000E-03 0. -1.
         11    1    3    3    0    0  0.21253809515E+01 -0.39967906004E+02 -0.13340936073E+02  0.42189232395E+02  0.51100000000E-03 0.  1.
<mgrwt>
<rscale>  0 0.12499850E+03</rscale>
<asrwt>0</asrwt>
<pdfrwt beam="1">  1        3 0.25102323E-02 0.12499850E+03</pdfrwt>
<pdfrwt beam="2">  1       -3 0.36830615E-01 0.12499850E+03</pdfrwt>
<totfact> 0.10881844E+04</totfact>
</mgrwt>
</event>
<event>
 5    1  0.1787806E-056  0.1249970E+03  0.7818608E-02  0.1235074E+00
          3   -1    0    0  501    0  0.00000000000E+00  0.00000000000E+00  0.13630623097E+03  0.13630626270E+03  0.93000000000E-01 0. -1.
         -3   -1    0    0    0  501 -0.00000000000E+00 -0.00000000000E+00 -0.28656433809E+02  0.28656584717E+02  0.93000000000E-01 0.  1.
         25    2    1    2    0    0  0.00000000000E+00  0.00000000000E+00  0.10764979716E+03  0.16496284742E+03  0.12499704876E+03 0.  0.
        -11    1    3    3    0    0  0.45756258972E+02 -0.33491478782E+02  0.19139459419E+02  0.59846748393E+02  0.51100000000E-03 0.  1.
         11    1    3    3    0    0 -0.45756258972E+02  0.33491478782E+02  0.88510337745E+02  0.10511609902E+03  0.51100000000E-03 0. -1.
<mgrwt>
<rscale>  0 0.12499705E+03</rscale>
<asrwt>0</asrwt>
<pdfrwt beam="1">  1        3 0.20970203E-01 0.12499705E+03</pdfrwt>
<pdfrwt beam="2">  1       -3 0.44086962E-02 0.12499705E+03</pdfrwt>
<totfact> 0.12738205E+04</totfact>
</mgrwt>
</event>
<event>
 5    1  0.1787806E-056  0.1250005E+03  0.7818608E-02  0.1235068E+00
          3   -1    0    0  501    0  0.00000000000E+00  0.00000000000E+00  0.57025882267E+02  0.57025958101E+02  0.93000000000E-01 0. -1.
         -3   -1    0    0    0  501 -0.00000000000E+00 -0.00000000000E+00 -0.68500015590E+02  0.68500078721E+02  0.93000000000E-01 0.  1.
         25    2    1    2    0    0  0.00000000000E+00  0.00000000000E+00 -0.11474133323E+02  0.12552603682E+03  0.12500052074E+03 0.  0.
        -11    1    3    3    0    0  0.61902826566E+02  0.70945293490E+01 -0.10655643883E+02  0.63212617651E+02  0.51100000000E-03 0. -1.
         11    1    3    3    0    0 -0.61902826566E+02 -0.70945293490E+01 -0.81848943967E+00  0.62313419171E+02  0.51100000000E-03 0.  1.
<mgrwt>
<rscale>  0 0.12500052E+03</rscale>
<asrwt>0</asrwt>
<pdfrwt beam="1">  1        3 0.87732233E-02 0.12500052E+03</pdfrwt>
<pdfrwt beam="2">  1       -3 0.10538475E-01 0.12500052E+03</pdfrwt>
<totfact> 0.13722252E+04</totfact>
</mgrwt>
</event>
<event>
 5    1  0.1787806E-056  0.1249968E+03  0.7818608E-02  0.1235074E+00
         -3   -1    0    0    0  501 -0.00000000000E+00  0.00000000000E+00  0.15948401005E+03  0.15948403716E+03  0.93000000000E-01 0.  1.
          3   -1    0    0  501    0  0.00000000000E+00 -0.00000000000E+00 -0.24491682887E+02  0.24491859456E+02  0.93000000000E-01 0. -1.
         25    2    1    2    0    0  0.00000000000E+00  0.00000000000E+00  0.13499232716E+03  0.18397589662E+03  0.12499680854E+03 0.  0.
        -11    1    3    3    0    0 -0.13826071368E+02 -0.40921431670E+02  0.13397935544E+03  0.14076999504E+03  0.51100000000E-03 0.  1.
         11    1    3    3    0    0  0.13826071368E+02  0.40921431670E+02  0.10129717226E+01  0.43205901580E+02  0.51100000000E-03 0. -1.
<mgrwt>
<rscale>  0 0.12499681E+03</rscale>
<asrwt>0</asrwt>
<pdfrwt beam="2">  1        3 0.37679668E-02 0.12499681E+03</pdfrwt>
<pdfrwt beam="1">  1       -3 0.24536018E-01 0.12499681E+03</pdfrwt>
<totfact> 0.12306609E+04</totfact>
</mgrwt>
</event>
<event>
 5    1  0.1787806E-056  0.1250018E+03  0.7818608E-02  0.1235067E+00
         -3   -1    0    0    0  501 -0.00000000000E+00  0.00000000000E+00  0.28016794784E+02  0.28016949138E+02  0.93000000000E-01 0.  1.
          3   -1    0    0  501    0  0.00000000000E+00 -0.00000000000E+00 -0.13942869559E+03  0.13942872660E+03  0.93000000000E-01 0. -1.
         25    2    1    2    0    0  0.00000000000E+00  0.00000000000E+00 -0.11141190080E+03  0.16744567574E+03  0.12500177072E+03 0.  0.
        -11    1    3    3    0    0 -0.38668455529E+02  0.11677056153E+02  0.81829379390E+01  0.41213633266E+02  0.51100000000E-03 0.  1.
         11    1    3    3    0    0  0.38668455529E+02 -0.11677056153E+02 -0.11959483874E+03  0.12623204247E+03  0.51100000000E-03 0. -1.
<mgrwt>
<rscale>  0 0.12500177E+03</rscale>
<asrwt>0</asrwt>
<pdfrwt beam="2">  1        3 0.21450583E-01 0.12500177E+03</pdfrwt>
<pdfrwt beam="1">  1       -3 0.43102904E-02 0.12500177E+03</pdfrwt>
<totfact> 0.12679075E+04</totfact>
</mgrwt>
</event>
<event>
 5    1  0.1787806E-056  0.1250003E+03  0.7818608E-02  0.1235069E+00
         -3   -1    0    0    0  501 -0.00000000000E+00  0.00000000000E+00  0.24826629868E+03  0.24826631609E+03  0.93000000000E-01 0.  1.
          3   -1    0    0  501    0  0.00000000000E+00 -0.00000000000E+00 -0.15734042848E+02  0.15734317696E+02  0.93000000000E-01 0. -1.
         25    2    1    2    0    0  0.00000000000E+00  0.00000000000E+00  0.23253225583E+03  0.26400063379E+03  0.12500033857E+03 0.  0.
        -11    1    3    3    0    0  0.44628598045E+02  0.35012135060E+01  0.20838177069E+03  0.21313594867E+03  0.51100000000E-03 0.  1.
         11    1    3    3    0    0 -0.44628598045E+02 -0.35012135060E+01  0.24150485134E+02  0.50864685116E+02  0.51100000000E-03 0. -1.
<mgrwt>
<rscale>  0 0.12500034E+03</rscale>
<asrwt>0</asrwt>
<pdfrwt beam="2">  1        3 0.24206445E-02 0.12500034E+03</pdfrwt>
<pdfrwt beam="1">  1       -3 0.38194837E-01 0.12500034E+03</pdfrwt>
<totfact> 0.10734731E+04</totfact>
</mgrwt>
</event>
<event>
 5    1  0.1787806E-056  0.1250016E+03  0.7818608E-02  0.1235067E+00
         -3   -1    0    0    0  501 -0.00000000000E+00  0.00000000000E+00  0.18456264785E+02  0.18456499094E+02  0.93000000000E-01 0. -1.
          3   -1    0    0  501    0  0.00000000000E+00 -0.00000000000E+00 -0.21165278110E+03  0.21165280153E+03  0.93000000000E-01 0.  1.
         25    2    1    2    0    0  0.00000000000E+00  0.00000000000E+00 -0.19319651631E+03  0.23010930062E+03  0.12500158526E+03 0.  0.
        -11    1    3    3    0    0 -0.35861471016E+02 -0.38593699736E+02 -0.34694449039E+02  0.63081087159E+02  0.51100000000E-03 0. -1.
         11    1    3    3    0    0  0.35861471016E+02  0.38593699736E+02 -0.15850206727E+03  0.16702821346E+03  0.51100000000E-03 0.  1.
<mgrwt>
<rscale>  0 0.12500159E+03</rscale>
<asrwt>0</asrwt>
<pdfrwt beam="2">  1        3 0.32561984E-01 0.12500159E+03</pdfrwt>
<pdfrwt beam="1">  1       -3 0.28394451E-02 0.12500159E+03</pdfrwt>
<totfact> 0.11357692E+04</totfact>
</mgrwt>
</event>
<event>
 5    1  0.1787806E-056  0.1249970E+03  0.7818608E-02  0.1235074E+00
          3   -1    0    0  501    0  0.00000000000E+00  0.00000000000E+00  0.13358513368E+02  0.13358837090E+02  0.93000000000E-01 0. -1.
         -3   -1    0    0    0  501 -0.00000000000E+00 -0.00000000000E+00 -0.29239878027E+03  0.29239879506E+03  0.93000000000E-01 0.  1.
         25    2    1    2    0    0  0.00000000000E+00  0.00000000000E+00 -0.27904026690E+03  0.30575763215E+03  0.12499703622E+03 0.  0.
        -11    1    3    3    0    0  0.58340401839E+02 -0.68218595653E+01 -0.19175061879E+03  0.20054535661E+03  0.51100000000E-03 0.  1.
         11    1    3    3    0    0 -0.58340401839E+02  0.68218595653E+01 -0.87289648116E+02  0.10521227553E+03  0.51100000000E-03 0. -1.
<mgrwt>
<rscale>  0 0.12499704E+03</rscale>
<asrwt>0</asrwt>
<pdfrwt beam="1">  1        3 0.20551822E-02 0.12499704E+03</pdfrwt>
<pdfrwt beam="2">  1       -3 0.44984449E-01 0.12499704E+03</pdfrwt>
<totfact> 0.10042810E+04</totfact>
</mgrwt>
</event>
<event>
 5    1  0.1787806E-056  0.1250007E+03  0.7818608E-02  0.1235068E+00
         -3   -1    0    0    0  501 -0.00000000000E+00  0.00000000000E+00  0.14633814131E+03  0.14633817086E+03  0.93000000000E-01 0.  1.
          3   -1    0    0  501    0  0.00000000000E+00 -0.00000000000E+00 -0.26693501333E+02  0.26693663338E+02  0.93000000000E-01 0. -1.
         25    2    1    2    0    0  0.00000000000E+00  0.00000000000E+00  0.11964463998E+03  0.17303183420E+03  0.12500070308E+03 0.  0.
        -11    1    3    3    0    0  0.52607831283E+02 -0.31158087876E+02  0.77757993084E+02  0.98917722584E+02  0.51100000000E-03 0. -1.
         11    1    3    3    0    0 -0.52607831283E+02  0.31158087876E+02  0.41886646894E+02  0.74114111617E+02  0.51100000000E-03 0.  1.
<mgrwt>
<rscale>  0 0.12500070E+03</rscale>
<asrwt>0</asrwt>
<pdfrwt beam="2">  1        3 0.41067072E-02 0.12500070E+03</pdfrwt>
<pdfrwt beam="1">  1       -3 0.22513575E-01 0.12500070E+03</pdfrwt>
<totfact> 0.12550778E+04</totfact>
</mgrwt>
</event>
<event>
 5    1  0.1787806E-056  0.1249993E+03  0.7818608E-02  0.1235070E+00
          3   -1    0    0  501    0  0.00000000000E+00  0.00000000000E+00  0.24406575511E+03  0.24406577283E+03  0.93000000000E-01 0. -1.
         -3   -1    0    0    0  501 -0.00000000000E+00 -0.00000000000E+00 -0.16004570151E+02  0.16004840353E+02  0.93000000000E-01 0.  1.
         25    2    1    2    0    0  0.00000000000E+00  0.00000000000E+00  0.22806118496E+03  0.26007061318E+03  0.12499927902E+03 0.  0.
        -11    1    3    3    0    0  0.14489413089E+02 -0.52677310701E+02  0.50876847846E+02  0.74654509585E+02  0.51100000000E-03 0.  1.
         11    1    3    3    0    0 -0.14489413089E+02  0.52677310701E+02  0.17718433711E+03  0.18541610359E+03  0.51100000000E-03 0. -1.
<mgrwt>
<rscale>  0 0.12499928E+03</rscale>
<asrwt>0</asrwt>
<pdfrwt beam="1">  1        3 0.37548596E-01 0.12499928E+03</pdfrwt>
<pdfrwt beam="2">  1       -3 0.24622640E-02 0.12499928E+03</pdfrwt>
<totfact> 0.10806388E+04</totfact>
</mgrwt>
</event>
<event>
 5    1  0.1787806E-056  0.1250008E+03  0.7818608E-02  0.1235068E+00
          3   -1    0    0  501    0  0.00000000000E+00  0.00000000000E+00  0.10274622892E+02  0.10275043775E+02  0.93000000000E-01 0. -1.
         -3   -1    0    0    0  501 -0.00000000000E+00 -0.00000000000E+00 -0.38018113779E+03  0.38018114917E+03  0.93000000000E-01 0.  1.
         25    2    1    2    0    0  0.00000000000E+00  0.00000000000E+00 -0.36990651490E+03  0.39045619294E+03  0.12500083536E+03 0.  0.
        -11    1    3    3    0    0  0.29772022523E+02  0.53112303969E+02 -0.22901879669E+03  0.23697446993E+03  0.51100000000E-03 0.  1.
         11    1    3    3    0    0 -0.29772022523E+02 -0.53112303969E+02 -0.14088771821E+03  0.15348172302E+03  0.51100000000E-03 0. -1.
<mgrwt>
<rscale>  0 0.12500084E+03</rscale>
<asrwt>0</asrwt>
<pdfrwt beam="1">  1        3 0.15807448E-02 0.12500084E+03</pdfrwt>
<pdfrwt beam="2">  1       -3 0.58489428E-01 0.12500084E+03</pdfrwt>
<totfact> 0.88391559E+03</totfact>
</mgrwt>
</event>
<event>
 5    1  0.1787806E-056  0.1250018E+03  0.7818608E-02  0.1235066E+00
         -3   -1    0    0    0  501 -0.00000000000E+00  0.00000000000E+00  0.63481803846E+02  0.63481871968E+02  0.93000000000E-01 0.  1.
          3   -1    0    0  501    0  0.00000000000E+00 -0.00000000000E+00 -0.61535050676E+02  0.61535120953E+02  0.93000000000E-01 0. -1.
         25    2    1    2    0    0  0.00000000000E+00  0.00000000000E+00  0.19467531702E+01  0.12501699292E+03  0.12500183467E+03 0.  0.
        -11    1    3    3    0    0  0.21072274019E+02  0.54791063690E+02  0.22429725496E+02  0.62842612761E+02  0.51100000000E-03 0.  1.
         11    1    3    3    0    0 -0.21072274019E+02 -0.54791063690E+02 -0.20482972326E+02  0.62174380159E+02  0.51100000000E-03 0. -1.
<mgrwt>
<rscale>  0 0.12500183E+03</rscale>
<asrwt>0</asrwt>
<pdfrwt beam="2">  1        3 0.94669416E-02 0.12500183E+03</pdfrwt>
<pdfrwt beam="1">  1       -3 0.97664420E-02 0.12500183E+03</pdfrwt>
<totfact> 0.13735407E+04</totfact>
</mgrwt>
</event>
<event>
 5    1  0.1787806E-056  0.1250007E+03  0.7818608E-02  0.1235068E+00
          3   -1    0    0  501    0  0.00000000000E+00  0.00000000000E+00  0.22659443217E+03  0.22659445126E+03  0.93000000000E-01 0. -1.
         -3   -1    0    0    0  501 -0.00000000000E+00 -0.00000000000E+00 -0.17238984493E+02  0.17239235347E+02  0.93000000000E-01 0.  1.
         25    2    1    2    0    0  0.00000000000E+00  0.00000000000E+00  0.20935544768E+03  0.24383368660E+03  0.12500065300E+03 0.  0.
        -11    1    3    3    0    0  0.59996001085E+02 -0.86934971733E+01  0.75017837027E+02  0.96450883416E+02  0.51100000000E-03 0. -1.
         11    1    3    3    0    0 -0.59996001085E+02  0.86934971733E+01  0.13433761065E+03  0.14738280319E+03  0.51100000000E-03 0.  1.
<mgrwt>
<rscale>  0 0.12500065E+03</rscale>
<asrwt>0</asrwt>
<pdfrwt beam="1">  1        3 0.34860700E-01 0.12500065E+03</pdfrwt>
<pdfrwt beam="2">  1       -3 0.26521724E-02 0.12500065E+03</pdfrwt>
<totfact> 0.11099372E+04</totfact>
</mgrwt>
</event>
<event>
 5    1  0.1787806E-056  0.1250042E+03  0.7818608E-02  0.1235063E+00
          3   -1    0    0  501    0  0.00000000000E+00  0.00000000000E+00  0.41971718166E+02  0.41971821199E+02  0.93000000000E-01 0. -1.
         -3   -1    0    0    0  501 -0.00000000000E+00 -0.00000000000E+00 -0.93074691459E+02  0.93074737921E+02  0.93000000000E-01 0.  1.
         25    2    1    2    0    0  0.00000000000E+00  0.00000000000E+00 -0.51102973293E+02  0.13504655912E+03  0.12500423693E+03 0.  0.
        -11    1    3    3    0    0  0.37210120104E+02  0.50143456096E+02 -0.28521051667E+02  0.68646992767E+02  0.51100000000E-03 0.  1.
         11    1    3    3    0    0 -0.37210120104E+02 -0.50143456096E+02 -0.22581921625E+02  0.66399566354E+02  0.51100000000E-03 0. -1.
<mgrwt>
<rscale>  0 0.12500424E+03</rscale>
<asrwt>0</asrwt>
<pdfrwt beam="1">  1        3 0.64571989E-02 0.12500424E+03</pdfrwt>
<pdfrwt beam="2">  1       -3 0.14319195E-01 0.12500424E+03</pdfrwt>
<totfact> 0.13471089E+04</totfact>
</mgrwt>
</event>
<event>
 5    1  0.1787806E-056  0.1249975E+03  0.7818608E-02  0.1235073E+00
          3   -1    0    0  501    0  0.00000000000E+00  0.00000000000E+00  0.29307241683E+03  0.29307243159E+03  0.93000000000E-01 0. -1.
         -3   -1    0    0    0  501 -0.00000000000E+00 -0.00000000000E+00 -0.13327910974E+02  0.13328235440E+02  0.93000000000E-01 0.  1.
         25    2    1    2    0    0  0.00000000000E+00  0.00000000000E+00  0.27974450586E+03  0.30640066703E+03  0.12499752077E+03 0.  0.
        -11    1    3    3    0    0  0.54928404642E+02  0.28834847353E+02  0.15846255238E+03  0.17017331919E+03  0.51100000000E-03 0.  1.
         11    1    3    3    0    0 -0.54928404642E+02 -0.28834847353E+02  0.12128195348E+03  0.13622734784E+03  0.51100000000E-03 0. -1.
<mgrwt>
<rscale>  0 0.12499752E+03</rscale>
<asrwt>0</asrwt>
<pdfrwt beam="1">  1        3 0.45088087E-01 0.12499752E+03</pdfrwt>
<pdfrwt beam="2">  1       -3 0.20504741E-02 0.12499752E+03</pdfrwt>
<totfact> 0.10036161E+04</totfact>
</mgrwt>
</event>
<event>
 5    1  0.1787806E-056  0.1249997E+03  0.7818608E-02  0.1235070E+00
         -3   -1    0    0    0  501 -0.00000000000E+00  0.00000000000E+00  0.64326393691E+02  0.64326460919E+02  0.93000000000E-01 0.  1.
          3   -1    0    0  501    0  0.00000000000E+00 -0.00000000000E+00 -0.60725026665E+02  0.60725097879E+02  0.93000000000E-01 0. -1.
         25    2    1    2    0    0  0.00000000000E+00  0.00000000000E+00  0.36013670266E+01  0.12505155880E+03  0.12499969005E+03 0.  0.
        -11    1    3    3    0    0 -0.53539251636E+02  0.31718976695E+02 -0.40056614146E+01  0.62358562138E+02  0.51100000000E-03 0.  1.
         11    1    3    3    0    0  0.53539251636E+02 -0.31718976695E+02  0.76070284413E+01  0.62692996660E+02  0.51100000000E-03 0. -1.
<mgrwt>
<rscale>  0 0.12499969E+03</rscale>
<asrwt>0</asrwt>
<pdfrwt beam="2">  1        3 0.93423225E-02 0.12499969E+03</pdfrwt>
<pdfrwt beam="1">  1       -3 0.98963789E-02 0.12499969E+03</pdfrwt>
<totfact> 0.13735160E+04</totfact>
</mgrwt>
</event>
<event>
 5    1  0.1787806E-056  0.1250005E+03  0.7818608E-02  0.1235068E+00
          3   -1    0    0  501    0  0.00000000000E+00  0.00000000000E+00  0.37100199909E+02  0.37100316471E+02  0.93000000000E-01 0. -1.
         -3   -1    0    0    0  501 -0.00000000000E+00 -0.00000000000E+00 -0.10528974227E+03  0.10528978334E+03  0.93000000000E-01 0.  1.
         25    2    1    2    0    0  0.00000000000E+00  0.00000000000E+00 -0.68189542357E+02  0.14239009981E+03  0.12500050735E+03 0.  0.
        -11    1    3    3    0    0  0.29672943062E+02  0.53497167348E+02 -0.19513583796E+02  0.64212229498E+02  0.51100000000E-03 0.  1.
         11    1    3    3    0    0 -0.29672943062E+02 -0.53497167348E+02 -0.48675958561E+02  0.78177870311E+02  0.51100000000E-03 0. -1.
<mgrwt>
<rscale>  0 0.12500051E+03</rscale>
<asrwt>0</asrwt>
<pdfrwt beam="1">  1        3 0.57077352E-02 0.12500051E+03</pdfrwt>
<pdfrwt beam="2">  1       -3 0.16198434E-01 0.12500051E+03</pdfrwt>
<totfact> 0.13284787E+04</totfact>
</mgrwt>
</event>
<event>
 5    1  0.1787806E-056  0.1249917E+03  0.7818608E-02  0.1235082E+00
         -3   -1    0    0    0  501 -0.00000000000E+00  0.00000000000E+00  0.10239222173E+03  0.10239226396E+03  0.93000000000E-01 0.  1.
          3   -1    0    0  501    0  0.00000000000E+00 -0.00000000000E+00 -0.38144684705E+02  0.38144798076E+02  0.93000000000E-01 0. -1.
         25    2    1    2    0    0  0.00000000000E+00  0.00000000000E+00  0.64247537023E+02  0.14053706204E+03  0.12499167890E+03 0.  0.
        -11    1    3    3    0    0  0.49138932051E+02  0.34864124678E+02  0.13458252046E+02  0.61735454813E+02  0.51100000000E-03 0.  1.
         11    1    3    3    0    0 -0.49138932051E+02 -0.34864124678E+02  0.50789284977E+02  0.78801607226E+02  0.51100000000E-03 0. -1.
<mgrwt>
<rscale>  0 0.12499168E+03</rscale>
<asrwt>0</asrwt>
<pdfrwt beam="2">  1        3 0.58684251E-02 0.12499168E+03</pdfrwt>
<pdfrwt beam="1">  1       -3 0.15752661E-01 0.12499168E+03</pdfrwt>
<totfact> 0.13334307E+04</totfact>
</mgrwt>
</event>
<event>
 5    1  0.1787806E-056  0.1249983E+03  0.7818608E-02  0.1235072E+00
          3   -1    0    0  501    0  0.00000000000E+00  0.00000000000E+00  0.55447143096E+02  0.55447221089E+02  0.93000000000E-01 0. -1.
         -3   -1    0    0    0  501 -0.00000000000E+00 -0.00000000000E+00 -0.70447935828E+02  0.70447997213E+02  0.93000000000E-01 0.  1.
         25    2    1    2    0    0  0.00000000000E+00  0.00000000000E+00 -0.15000792731E+02  0.12589521830E+03  0.12499832882E+03 0.  0.
        -11    1    3    3    0    0 -0.51023040782E+02  0.28996156994E+02  0.14148429874E+02  0.60368086596E+02  0.51100000000E-03 0.  1.
         11    1    3    3    0    0  0.51023040782E+02 -0.28996156994E+02 -0.29149222605E+02  0.65527131707E+02  0.51100000000E-03 0. -1.
<mgrwt>
<rscale>  0 0.12499833E+03</rscale>
<asrwt>0</asrwt>
<pdfrwt beam="1">  1        3 0.85303404E-02 0.12499833E+03</pdfrwt>
<pdfrwt beam="2">  1       -3 0.10838155E-01 0.12499833E+03</pdfrwt>
<totfact> 0.13712989E+04</totfact>
</mgrwt>
</event>
<event>
 5    1  0.1787806E-056  0.1250013E+03  0.7818608E-02  0.1235067E+00
         -3   -1    0    0    0  501 -0.00000000000E+00  0.00000000000E+00  0.32942996208E+02  0.32943127480E+02  0.93000000000E-01 0.  1.
          3   -1    0    0  501    0  0.00000000000E+00 -0.00000000000E+00 -0.11857802470E+03  0.11857806117E+03  0.93000000000E-01 0. -1.
         25    2    1    2    0    0  0.00000000000E+00  0.00000000000E+00 -0.85635028495E+02  0.15152118865E+03  0.12500125001E+03 0.  0.
        -11    1    3    3    0    0 -0.61711308920E+02  0.72400744103E+01 -0.34629949646E+02  0.71133239339E+02  0.51100000000E-03 0.  1.
         11    1    3    3    0    0  0.61711308920E+02 -0.72400744103E+01 -0.51005078850E+02  0.80387949314E+02  0.51100000000E-03 0. -1.
<mgrwt>
<rscale>  0 0.12500125E+03</rscale>
<asrwt>0</asrwt>
<pdfrwt beam="2">  1        3 0.18242786E-01 0.12500125E+03</pdfrwt>
<pdfrwt beam="1">  1       -3 0.50681662E-02 0.12500125E+03</pdfrwt>
<totfact> 0.13058129E+04</totfact>
</mgrwt>
</event>
<event>
 5    1  0.1787806E-056  0.1249997E+03  0.7818608E-02  0.1235070E+00
          3   -1    0    0  501    0  0.00000000000E+00  0.00000000000E+00  0.79389921092E+01  0.79395368070E+01  0.93000000000E-01 0. -1.
         -3   -1    0    0    0  501 -0.00000000000E+00 -0.00000000000E+00 -0.49201371561E+03  0.49201372440E+03  0.93000000000E-01 0.  1.
         25    2    1    2    0    0  0.00000000000E+00  0.00000000000E+00 -0.48407472350E+03  0.49995326121E+03  0.12499970183E+03 0.  0.
        -11    1    3    3    0    0  0.48702427379E+02 -0.39122401690E+02 -0.24977499544E+03  0.25746851670E+03  0.51100000000E-03 0.  1.
         11    1    3    3    0    0 -0.48702427379E+02  0.39122401690E+02 -0.23429972806E+03  0.24248474451E+03  0.51100000000E-03 0. -1.
<mgrwt>
<rscale>  0 0.12499970E+03</rscale>
<asrwt>0</asrwt>
<pdfrwt beam="1">  1        3 0.12214264E-02 0.12499970E+03</pdfrwt>
<pdfrwt beam="2">  1       -3 0.75694436E-01 0.12499970E+03</pdfrwt>
<totfact> 0.75901971E+03</totfact>
</mgrwt>
</event>
<event>
 5    1  0.1787806E-056  0.1249996E+03  0.7818608E-02  0.1235070E+00
          3   -1    0    0  501    0  0.00000000000E+00  0.00000000000E+00  0.85343142254E+02  0.85343192926E+02  0.93000000000E-01 0. -1.
         -3   -1    0    0    0  501 -0.00000000000E+00 -0.00000000000E+00 -0.45770709163E+02  0.45770803645E+02  0.93000000000E-01 0.  1.
         25    2    1    2    0    0  0.00000000000E+00  0.00000000000E+00  0.39572433091E+02  0.13111399657E+03  0.12499961054E+03 0.  0.
        -11    1    3    3    0    0  0.38575319034E+02 -0.43374597770E+02 -0.45163751833E+01  0.58222062960E+02  0.51100000000E-03 0.  1.
         11    1    3    3    0    0 -0.38575319034E+02  0.43374597770E+02  0.44088808274E+02  0.72891933611E+02  0.51100000000E-03 0. -1.
<mgrwt>
<rscale>  0 0.12499961E+03</rscale>
<asrwt>0</asrwt>
<pdfrwt beam="1">  1        3 0.13129725E-01 0.12499961E+03</pdfrwt>
<pdfrwt beam="2">  1       -3 0.70416588E-02 0.12499961E+03</pdfrwt>
<totfact> 0.13574670E+04</totfact>
</mgrwt>
</event>
<event>
 5    1  0.1787806E-056  0.1250052E+03  0.7818608E-02  0.1235061E+00
         -3   -1    0    0    0  501 -0.00000000000E+00  0.00000000000E+00  0.28207310730E+03  0.28207312263E+03  0.93000000000E-01 0.  1.
          3   -1    0    0  501    0  0.00000000000E+00 -0.00000000000E+00 -0.13849348355E+02  0.13849660605E+02  0.93000000000E-01 0. -1.
         25    2    1    2    0    0  0.00000000000E+00  0.00000000000E+00  0.26822375894E+03  0.29592278323E+03  0.12500523499E+03 0.  0.
        -11    1    3    3    0    0  0.22949977294E+02 -0.54626631906E+02  0.87015031744E+02  0.10527291257E+03  0.51100000000E-03 0. -1.
         11    1    3    3    0    0 -0.22949977294E+02  0.54626631906E+02  0.18120872720E+03  0.19064987066E+03  0.51100000000E-03 0.  1.
<mgrwt>
<rscale>  0 0.12500523E+03</rscale>
<asrwt>0</asrwt>
<pdfrwt beam="2">  1        3 0.21306943E-02 0.12500523E+03</pdfrwt>
<pdfrwt beam="1">  1       -3 0.43395885E-01 0.12500523E+03</pdfrwt>
<totfact> 0.10197435E+04</totfact>
</mgrwt>
</event>
<event>
 5    1  0.1787806E-056  0.1249985E+03  0.7818608E-02  0.1235072E+00
         -3   -1    0    0    0  501 -0.00000000000E+00  0.00000000000E+00  0.51539768235E+02  0.51539852141E+02  0.93000000000E-01 0.  1.
          3   -1    0    0  501    0  0.00000000000E+00 -0.00000000000E+00 -0.75788960704E+02  0.75789017764E+02  0.93000000000E-01 0. -1.
         25    2    1    2    0    0  0.00000000000E+00  0.00000000000E+00 -0.24249192469E+02  0.12732886991E+03  0.12499847109E+03 0.  0.
        -11    1    3    3    0    0 -0.60049737073E+02  0.67375516504E+01  0.41351008929E+01  0.60567851080E+02  0.51100000000E-03 0.  1.
         11    1    3    3    0    0  0.60049737073E+02 -0.67375516504E+01 -0.28384293362E+02  0.66761018826E+02  0.51100000000E-03 0. -1.
<mgrwt>
<rscale>  0 0.12499847E+03</rscale>
<asrwt>0</asrwt>
<pdfrwt beam="2">  1        3 0.11659851E-01 0.12499847E+03</pdfrwt>
<pdfrwt beam="1">  1       -3 0.79292059E-02 0.12499847E+03</pdfrwt>
<totfact> 0.13674605E+04</totfact>
</mgrwt>
</event>
<event>
 5    1  0.1787806E-056  0.1250004E+03  0.7818608E-02  0.1235069E+00
          3   -1    0    0  501    0  0.00000000000E+00  0.00000000000E+00  0.18076293822E+03  0.18076296214E+03  0.93000000000E-01 0. -1.
         -3   -1    0    0    0  501 -0.00000000000E+00 -0.00000000000E+00 -0.21609823976E+02  0.21610024093E+02  0.93000000000E-01 0.  1.
         25    2    1    2    0    0  0.00000000000E+00  0.00000000000E+00  0.15915311424E+03  0.20237298624E+03  0.12500044714E+03 0.  0.
        -11    1    3    3    0    0  0.35754084669E+02  0.51177949696E+02  0.84363051644E+02  0.10495075792E+03  0.51100000000E-03 0.  1.
         11    1    3    3    0    0 -0.35754084669E+02 -0.51177949696E+02  0.74790062599E+02  0.97422228313E+02  0.51100000000E-03 0. -1.
<mgrwt>
<rscale>  0 0.12500045E+03</rscale>
<asrwt>0</asrwt>
<pdfrwt beam="1">  1        3 0.27809699E-01 0.12500045E+03</pdfrwt>
<pdfrwt beam="2">  1       -3 0.33246056E-02 0.12500045E+03</pdfrwt>
<totfact> 0.11912540E+04</totfact>
</mgrwt>
</event>
<event>
 5    1  0.1787806E-056  0.1250004E+03  0.7818608E-02  0.1235069E+00
         -3   -1    0    0    0  501 -0.00000000000E+00  0.00000000000E+00  0.36651282262E+02  0.36651400253E+02  0.93000000000E-01 0.  1.
          3   -1    0    0  501    0  0.00000000000E+00 -0.00000000000E+00 -0.10657920524E+03  0.10657924582E+03  0.93000000000E-01 0. -1.
         25    2    1    2    0    0  0.00000000000E+00  0.00000000000E+00 -0.69927922981E+02  0.14323064607E+03  0.12500041425E+03 0.  0.
        -11    1    3    3    0    0  0.40683065494E+02  0.47015592505E+02 -0.27654056286E+02  0.68046488417E+02  0.51100000000E-03 0.  1.
         11    1    3    3    0    0 -0.40683065494E+02 -0.47015592505E+02 -0.42273866695E+02  0.75184157654E+02  0.51100000000E-03 0. -1.
<mgrwt>
<rscale>  0 0.12500041E+03</rscale>
<asrwt>0</asrwt>
<pdfrwt beam="2">  1        3 0.16396813E-01 0.12500041E+03</pdfrwt>
<pdfrwt beam="1">  1       -3 0.56386710E-02 0.12500041E+03</pdfrwt>
<totfact> 0.13263487E+04</totfact>
</mgrwt>
</event>
<event>
 5    1  0.1787806E-056  0.1250020E+03  0.7818608E-02  0.1235066E+00
          3   -1    0    0  501    0  0.00000000000E+00  0.00000000000E+00  0.21785663723E+02  0.21785862224E+02  0.93000000000E-01 0. -1.
         -3   -1    0    0    0  501 -0.00000000000E+00 -0.00000000000E+00 -0.17930842391E+03  0.17930844803E+03  0.93000000000E-01 0.  1.
         25    2    1    2    0    0  0.00000000000E+00  0.00000000000E+00 -0.15752276019E+03  0.20109431025E+03  0.12500200654E+03 0.  0.
        -11    1    3    3    0    0  0.16156408160E+02  0.57841735527E+02 -0.10661049055E+03  0.12236213708E+03  0.51100000000E-03 0. -1.
         11    1    3    3    0    0 -0.16156408160E+02 -0.57841735527E+02 -0.50912269635E+02  0.78732173177E+02  0.51100000000E-03 0.  1.
<mgrwt>
<rscale>  0 0.12500201E+03</rscale>
<asrwt>0</asrwt>
<pdfrwt beam="1">  1        3 0.33516578E-02 0.12500201E+03</pdfrwt>
<pdfrwt beam="2">  1       -3 0.27585928E-01 0.12500201E+03</pdfrwt>
<totfact> 0.11938057E+04</totfact>
</mgrwt>
</event>
<event>
 5    1  0.1787806E-056  0.1250023E+03  0.7818608E-02  0.1235066E+00
          3   -1    0    0  501    0  0.00000000000E+00  0.00000000000E+00  0.14147025251E+02  0.14147330930E+02  0.93000000000E-01 0. -1.
         -3   -1    0    0    0  501 -0.00000000000E+00 -0.00000000000E+00 -0.27612516425E+03  0.27612517991E+03  0.93000000000E-01 0.  1.
         25    2    1    2    0    0  0.00000000000E+00  0.00000000000E+00 -0.26197813900E+03  0.29027251084E+03  0.12500234092E+03 0.  0.
        -11    1    3    3    0    0 -0.16999556138E+02  0.58628579773E+02 -0.99825595438E+02  0.11701044731E+03  0.51100000000E-03 0.  1.
         11    1    3    3    0    0  0.16999556138E+02 -0.58628579773E+02 -0.16215254356E+03  0.17326206353E+03  0.51100000000E-03 0. -1.
<mgrwt>
<rscale>  0 0.12500234E+03</rscale>
<asrwt>0</asrwt>
<pdfrwt beam="1">  1        3 0.21764903E-02 0.12500234E+03</pdfrwt>
<pdfrwt beam="2">  1       -3 0.42480815E-01 0.12500234E+03</pdfrwt>
<totfact> 0.10289787E+04</totfact>
</mgrwt>
</event>
<event>
 5    1  0.1787806E-056  0.1249972E+03  0.7818608E-02  0.1235074E+00
         -3   -1    0    0    0  501 -0.00000000000E+00  0.00000000000E+00  0.20388742670E+02  0.20388954772E+02  0.93000000000E-01 0.  1.
          3   -1    0    0  501    0  0.00000000000E+00 -0.00000000000E+00 -0.19157869274E+03  0.19157871531E+03  0.93000000000E-01 0. -1.
         25    2    1    2    0    0  0.00000000000E+00  0.00000000000E+00 -0.17118995007E+03  0.21196767008E+03  0.12499717659E+03 0.  0.
        -11    1    3    3    0    0  0.31956254551E+02  0.52390928556E+02 -0.65525801427E+02  0.89775510318E+02  0.51100000000E-03 0.  1.
         11    1    3    3    0    0 -0.31956254551E+02 -0.52390928556E+02 -0.10566414864E+03  0.12219215977E+03  0.51100000000E-03 0. -1.
<mgrwt>
<rscale>  0 0.12499718E+03</rscale>
<asrwt>0</asrwt>
<pdfrwt beam="2">  1        3 0.29473662E-01 0.12499718E+03</pdfrwt>
<pdfrwt beam="1">  1       -3 0.31367478E-02 0.12499718E+03</pdfrwt>
<totfact> 0.11716442E+04</totfact>
</mgrwt>
</event>
<event>
 5    1  0.1952869E-056  0.1249909E+03  0.7818608E-02  0.1235083E+00
          3   -1    0    0  501    0  0.00000000000E+00  0.00000000000E+00  0.65924656877E+02  0.65924722475E+02  0.93000000000E-01 0. -1.
         -3   -1    0    0    0  501 -0.00000000000E+00 -0.00000000000E+00 -0.59244502128E+02  0.59244575122E+02  0.93000000000E-01 0.  1.
         25    2    1    2    0    0  0.00000000000E+00  0.00000000000E+00  0.66801547487E+01  0.12516929760E+03  0.12499091404E+03 0.  0.
        -11    1    3    3    0    0 -0.18629562618E+02  0.56907389045E+02  0.21258926282E+02  0.63540959059E+02  0.51100000000E-03 0. -1.
         11    1    3    3    0    0  0.18629562618E+02 -0.56907389045E+02 -0.14578771534E+02  0.61628338538E+02  0.51100000000E-03 0.  1.
<mgrwt>
<rscale>  0 0.12499091E+03</rscale>
<asrwt>0</asrwt>
<pdfrwt beam="1">  1        3 0.10142266E-01 0.12499091E+03</pdfrwt>
<pdfrwt beam="2">  1       -3 0.91145494E-02 0.12499091E+03</pdfrwt>
<totfact> 0.13734733E+04</totfact>
</mgrwt>
</event>
<event>
 5    1  0.1787806E-056  0.1250010E+03  0.7818608E-02  0.1235068E+00
          3   -1    0    0  501    0  0.00000000000E+00  0.00000000000E+00  0.59558885953E+03  0.59558886679E+03  0.93000000000E-01 0. -1.
         -3   -1    0    0    0  501 -0.00000000000E+00 -0.00000000000E+00 -0.65584056676E+01  0.65590650172E+01  0.93000000000E-01 0.  1.
         25    2    1    2    0    0  0.00000000000E+00  0.00000000000E+00  0.58903045387E+03  0.60214793181E+03  0.12500102481E+03 0.  0.
        -11    1    3    3    0    0 -0.10605288042E+02 -0.59842959533E+02  0.22426711030E+03  0.23235616777E+03  0.51100000000E-03 0.  1.
         11    1    3    3    0    0  0.10605288042E+02  0.59842959533E+02  0.36476334357E+03  0.36979176404E+03  0.51100000000E-03 0. -1.
<mgrwt>
<rscale>  0 0.12500102E+03</rscale>
<asrwt>0</asrwt>
<pdfrwt beam="1">  1        3 0.91629108E-01 0.12500102E+03</pdfrwt>
<pdfrwt beam="2">  1       -3 0.10090368E-02 0.12500102E+03</pdfrwt>
<totfact> 0.66653338E+03</totfact>
</mgrwt>
</event>
<event>
 5    1  0.1787806E-056  0.1250038E+03  0.7818608E-02  0.1235063E+00
         -3   -1    0    0    0  501 -0.00000000000E+00  0.00000000000E+00  0.13389200168E+03  0.13389203398E+03  0.93000000000E-01 0.  1.
          3   -1    0    0  501    0  0.00000000000E+00 -0.00000000000E+00 -0.29176309519E+02  0.29176457738E+02  0.93000000000E-01 0. -1.
         25    2    1    2    0    0  0.00000000000E+00  0.00000000000E+00  0.10471569216E+03  0.16306849172E+03  0.12500382717E+03 0.  0.
        -11    1    3    3    0    0 -0.59890070254E+02  0.12624663366E+02  0.35842210166E+02  0.70928602622E+02  0.51100000000E-03 0.  1.
         11    1    3    3    0    0  0.59890070254E+02 -0.12624663366E+02  0.68873481996E+02  0.92139889096E+02  0.51100000000E-03 0. -1.
<mgrwt>
<rscale>  0 0.12500383E+03</rscale>
<asrwt>0</asrwt>
<pdfrwt beam="2">  1        3 0.44886768E-02 0.12500383E+03</pdfrwt>
<pdfrwt beam="1">  1       -3 0.20598784E-01 0.12500383E+03</pdfrwt>
<totfact> 0.12780637E+04</totfact>
</mgrwt>
</event>
<event>
 5    1  0.1787806E-056  0.1250007E+03  0.7818608E-02  0.1235068E+00
          3   -1    0    0  501    0  0.00000000000E+00  0.00000000000E+00  0.17752635797E+02  0.17752879393E+02  0.93000000000E-01 0. -1.
         -3   -1    0    0    0  501 -0.00000000000E+00 -0.00000000000E+00 -0.22003858970E+03  0.22003860936E+03  0.93000000000E-01 0.  1.
         25    2    1    2    0    0  0.00000000000E+00  0.00000000000E+00 -0.20228595391E+03  0.23779148875E+03  0.12500073989E+03 0.  0.
        -11    1    3    3    0    0  0.25927824321E+02  0.56411977492E+02 -0.11482553836E+03  0.13053531146E+03  0.51100000000E-03 0.  1.
         11    1    3    3    0    0 -0.25927824321E+02 -0.56411977492E+02 -0.87460415551E+02  0.10725617729E+03  0.51100000000E-03 0. -1.
<mgrwt>
<rscale>  0 0.12500074E+03</rscale>
<asrwt>0</asrwt>
<pdfrwt beam="1">  1        3 0.27311952E-02 0.12500074E+03</pdfrwt>
<pdfrwt beam="2">  1       -3 0.33852109E-01 0.12500074E+03</pdfrwt>
<totfact> 0.11210293E+04</totfact>
</mgrwt>
</event>
<event>
 5    1  0.1787806E-056  0.1249974E+03  0.7818608E-02  0.1235073E+00
          3   -1    0    0  501    0  0.00000000000E+00  0.00000000000E+00  0.25240798886E+02  0.25240970215E+02  0.93000000000E-01 0. -1.
         -3   -1    0    0    0  501 -0.00000000000E+00 -0.00000000000E+00 -0.15475219596E+03  0.15475222391E+03  0.93000000000E-01 0.  1.
         25    2    1    2    0    0  0.00000000000E+00  0.00000000000E+00 -0.12951139708E+03  0.17999319412E+03  0.12499739180E+03 0.  0.
        -11    1    3    3    0    0 -0.43264840159E+02 -0.17256711502E+02 -0.12476047702E+03  0.13317213340E+03  0.51100000000E-03 0.  1.
         11    1    3    3    0    0  0.43264840159E+02  0.17256711502E+02 -0.47509200533E+01  0.46821060726E+02  0.51100000000E-03 0. -1.
<mgrwt>
<rscale>  0 0.12499739E+03</rscale>
<asrwt>0</asrwt>
<pdfrwt beam="1">  1        3 0.38832153E-02 0.12499739E+03</pdfrwt>
<pdfrwt beam="2">  1       -3 0.23808045E-01 0.12499739E+03</pdfrwt>
<totfact> 0.12394704E+04</totfact>
</mgrwt>
</event>
<event>
 5    1  0.1787806E-056  0.1249979E+03  0.7818608E-02  0.1235073E+00
          3   -1    0    0  501    0  0.00000000000E+00  0.00000000000E+00  0.21400287724E+02  0.21400489799E+02  0.93000000000E-01 0. -1.
         -3   -1    0    0    0  501 -0.00000000000E+00 -0.00000000000E+00 -0.18252529735E+03  0.18252532104E+03  0.93000000000E-01 0.  1.
         25    2    1    2    0    0  0.00000000000E+00  0.00000000000E+00 -0.16112500963E+03  0.20392581084E+03  0.12499787038E+03 0.  0.
        -11    1    3    3    0    0  0.20909210014E+02 -0.53978682254E+02 -0.11900429299E+03  0.13233637048E+03  0.51100000000E-03 0.  1.
         11    1    3    3    0    0 -0.20909210014E+02  0.53978682254E+02 -0.42120716638E+02  0.71589440364E+02  0.51100000000E-03 0. -1.
<mgrwt>
<rscale>  0 0.12499787E+03</rscale>
<asrwt>0</asrwt>
<pdfrwt beam="1">  1        3 0.32923694E-02 0.12499787E+03</pdfrwt>
<pdfrwt beam="2">  1       -3 0.28080831E-01 0.12499787E+03</pdfrwt>
<totfact> 0.11880155E+04</totfact>
</mgrwt>
</event>
<event>
 5    1  0.1787806E-056  0.1249995E+03  0.7818608E-02  0.1235070E+00
          3   -1    0    0  501    0  0.00000000000E+00  0.00000000000E+00  0.27193891817E+02  0.27194050841E+02  0.93000000000E-01 0. -1.
         -3   -1    0    0    0  501 -0.00000000000E+00 -0.00000000000E+00 -0.14364264332E+03  0.14364267342E+03  0.93000000000E-01 0.  1.
         25    2    1    2    0    0  0.00000000000E+00  0.00000000000E+00 -0.11644875150E+03  0.17083672426E+03  0.12499949852E+03 0.  0.
        -11    1    3    3    0    0 -0.11794179958E+02  0.60937648055E+02 -0.68241360902E+02  0.92246316834E+02  0.51100000000E-03 0.  1.
         11    1    3    3    0    0  0.11794179958E+02 -0.60937648055E+02 -0.48207390596E+02  0.78590407428E+02  0.51100000000E-03 0. -1.
<mgrwt>
<rscale>  0 0.12499950E+03</rscale>
<asrwt>0</asrwt>
<pdfrwt beam="1">  1        3 0.41836903E-02 0.12499950E+03</pdfrwt>
<pdfrwt beam="2">  1       -3 0.22098882E-01 0.12499950E+03</pdfrwt>
<totfact> 0.12601368E+04</totfact>
</mgrwt>
</event>
<event>
 5    1  0.1787806E-056  0.1249998E+03  0.7818608E-02  0.1235070E+00
         -3   -1    0    0    0  501 -0.00000000000E+00  0.00000000000E+00  0.13700262746E+03  0.13700265902E+03  0.93000000000E-01 0.  1.
          3   -1    0    0  501    0  0.00000000000E+00 -0.00000000000E+00 -0.28512046788E+02  0.28512198460E+02  0.93000000000E-01 0. -1.
         25    2    1    2    0    0  0.00000000000E+00  0.00000000000E+00  0.10849058067E+03  0.16551485748E+03  0.12499984781E+03 0.  0.
        -11    1    3    3    0    0  0.42990409005E+02 -0.45215049441E+02  0.59139975717E+02  0.85965764642E+02  0.51100000000E-03 0.  1.
         11    1    3    3    0    0 -0.42990409005E+02  0.45215049441E+02  0.49350604954E+02  0.79549092842E+02  0.51100000000E-03 0. -1.
<mgrwt>
<rscale>  0 0.12499985E+03</rscale>
<asrwt>0</asrwt>
<pdfrwt beam="2">  1        3 0.43864829E-02 0.12499985E+03</pdfrwt>
<pdfrwt beam="1">  1       -3 0.21077341E-01 0.12499985E+03</pdfrwt>
<totfact> 0.12724450E+04</totfact>
</mgrwt>
</event>
<event>
 5    1  0.1787806E-056  0.1250045E+03  0.7818608E-02  0.1235062E+00
          3   -1    0    0  501    0  0.00000000000E+00  0.00000000000E+00  0.31185306156E+03  0.31185307543E+03  0.93000000000E-01 0. -1.
         -3   -1    0    0    0  501 -0.00000000000E+00 -0.00000000000E+00 -0.12526653559E+02  0.12526998778E+02  0.93000000000E-01 0.  1.
         25    2    1    2    0    0  0.00000000000E+00  0.00000000000E+00  0.29932640800E+03  0.32438007421E+03  0.12500453598E+03 0.  0.
        -11    1    3    3    0    0 -0.13862946083E+02  0.47502845257E+02  0.50584087721E+02  0.70763348651E+02  0.51100000000E-03 0.  1.
         11    1    3    3    0    0  0.13862946083E+02 -0.47502845257E+02  0.24874232028E+03  0.25361672556E+03  0.51100000000E-03 0. -1.
<mgrwt>
<rscale>  0 0.12500454E+03</rscale>
<asrwt>0</asrwt>
<pdfrwt beam="1">  1        3 0.47977418E-01 0.12500454E+03</pdfrwt>
<pdfrwt beam="2">  1       -3 0.19272052E-02 0.12500454E+03</pdfrwt>
<totfact> 0.97592484E+03</totfact>
</mgrwt>
</event>
<event>
 5    1  0.1787806E-056  0.1250050E+03  0.7818608E-02  0.1235062E+00
         -3   -1    0    0    0  501 -0.00000000000E+00  0.00000000000E+00  0.14339301155E+03  0.14339304171E+03  0.93000000000E-01 0.  1.
          3   -1    0    0  501    0  0.00000000000E+00 -0.00000000000E+00 -0.27243615889E+02  0.27243774623E+02  0.93000000000E-01 0. -1.
         25    2    1    2    0    0  0.00000000000E+00  0.00000000000E+00  0.11614939567E+03  0.17063681634E+03  0.12500496380E+03 0.  0.
        -11    1    3    3    0    0 -0.18027787821E+02 -0.59787994708E+02  0.61674575659E+02  0.87768779916E+02  0.51100000000E-03 0.  1.
         11    1    3    3    0    0  0.18027787821E+02  0.59787994708E+02  0.54474820006E+02  0.82868036419E+02  0.51100000000E-03 0. -1.
<mgrwt>
<rscale>  0 0.12500496E+03</rscale>
<asrwt>0</asrwt>
<pdfrwt beam="2">  1        3 0.41913400E-02 0.12500496E+03</pdfrwt>
<pdfrwt beam="1">  1       -3 0.22060478E-01 0.12500496E+03</pdfrwt>
<totfact> 0.12604414E+04</totfact>
</mgrwt>
</event>
<event>
 5    1  0.1787806E-056  0.1250260E+03  0.7818608E-02  0.1235029E+00
          3   -1    0    0  501    0  0.00000000000E+00  0.00000000000E+00  0.16280707269E+03  0.16280709925E+03  0.93000000000E-01 0. -1.
         -3   -1    0    0    0  501 -0.00000000000E+00 -0.00000000000E+00 -0.24002997085E+02  0.24003177249E+02  0.93000000000E-01 0.  1.
         25    2    1    2    0    0  0.00000000000E+00  0.00000000000E+00  0.13880407560E+03  0.18681027650E+03  0.12502602930E+03 0.  0.
        -11    1    3    3    0    0  0.29299112090E+02 -0.54899925291E+02  0.78296715834E+02  0.10001407639E+03  0.51100000000E-03 0. -1.
         11    1    3    3    0    0 -0.29299112090E+02  0.54899925291E+02  0.60507359766E+02  0.86796200103E+02  0.51100000000E-03 0.  1.
<mgrwt>
<rscale>  0 0.12502603E+03</rscale>
<asrwt>0</asrwt>
<pdfrwt beam="1">  1        3 0.25047257E-01 0.12502603E+03</pdfrwt>
<pdfrwt beam="2">  1       -3 0.36927848E-02 0.12502603E+03</pdfrwt>
<totfact> 0.12236892E+04</totfact>
</mgrwt>
</event>
<event>
 5    1  0.1787806E-056  0.1249997E+03  0.7818608E-02  0.1235070E+00
         -3   -1    0    0    0  501 -0.00000000000E+00  0.00000000000E+00  0.10091175348E+02  0.10091603881E+02  0.93000000000E-01 0. -1.
          3   -1    0    0  501    0  0.00000000000E+00 -0.00000000000E+00 -0.38708518086E+03  0.38708519203E+03  0.93000000000E-01 0.  1.
         25    2    1    2    0    0  0.00000000000E+00  0.00000000000E+00 -0.37699400551E+03  0.39717679591E+03  0.12499970808E+03 0.  0.
        -11    1    3    3    0    0  0.89621462663E+01 -0.61760696173E+02 -0.17770868611E+03  0.18834829645E+03  0.51100000000E-03 0. -1.
         11    1    3    3    0    0 -0.89621462663E+01  0.61760696173E+02 -0.19928531940E+03  0.20882849946E+03  0.51100000000E-03 0.  1.
<mgrwt>
<rscale>  0 0.12499971E+03</rscale>
<asrwt>0</asrwt>
<pdfrwt beam="2">  1        3 0.59551589E-01 0.12499971E+03</pdfrwt>
<pdfrwt beam="1">  1       -3 0.15525226E-02 0.12499971E+03</pdfrwt>
<totfact> 0.87599460E+03</totfact>
</mgrwt>
</event>
<event>
 4    1  0.1787806E-056  0.1180669E+03  0.7818608E-02  0.1246321E+00
         -3   -1    0    0    0  501 -0.00000000000E+00  0.00000000000E+00  0.72589606932E+02  0.72589666507E+02  0.93000000000E-01 0.  1.
          3   -1    0    0  501    0  0.00000000000E+00 -0.00000000000E+00 -0.48008749520E+02  0.48008839597E+02  0.93000000000E-01 0. -1.
        -11    1    1    2    0    0 -0.29424307929E+02  0.51082139320E+02  0.90976361730E+01  0.59648485637E+02  0.51100000000E-03 0.  1.
         11    1    1    2    0    0  0.29424307929E+02 -0.51082139320E+02  0.15483221240E+02  0.60950020466E+02  0.51100000000E-03 0. -1.
<mgrwt>
<rscale>  0 0.11806685E+03</rscale>
<asrwt>0</asrwt>
<pdfrwt beam="2">  1        3 0.73859730E-02 0.11806685E+03</pdfrwt>
<pdfrwt beam="1">  1       -3 0.11167643E-01 0.11806685E+03</pdfrwt>
<totfact> 0.16268442E+04</totfact>
</mgrwt>
</event>
<event>
 5    1  0.1787806E-056  0.1249978E+03  0.7818608E-02  0.1235073E+00
          3   -1    0    0  501    0  0.00000000000E+00  0.00000000000E+00  0.17840829848E+02  0.17841072240E+02  0.93000000000E-01 0. -1.
         -3   -1    0    0    0  501 -0.00000000000E+00 -0.00000000000E+00 -0.21894053774E+03  0.21894055749E+03  0.93000000000E-01 0.  1.
         25    2    1    2    0    0  0.00000000000E+00  0.00000000000E+00 -0.20109970789E+03  0.23678162973E+03  0.12499779064E+03 0.  0.
        -11    1    3    3    0    0  0.10133153804E+02 -0.61395185409E+02 -0.11160546548E+03  0.12778039569E+03  0.51100000000E-03 0.  1.
         11    1    3    3    0    0 -0.10133153804E+02  0.61395185409E+02 -0.89494242410E+02  0.10900123404E+03  0.51100000000E-03 0. -1.
<mgrwt>
<rscale>  0 0.12499779E+03</rscale>
<asrwt>0</asrwt>
<pdfrwt beam="1">  1        3 0.27447634E-02 0.12499779E+03</pdfrwt>
<pdfrwt beam="2">  1       -3 0.33683178E-01 0.12499779E+03</pdfrwt>
<totfact> 0.11230066E+04</totfact>
</mgrwt>
</event>
<event>
 5    1  0.1787806E-056  0.1250005E+03  0.7818608E-02  0.1235068E+00
         -3   -1    0    0    0  501 -0.00000000000E+00  0.00000000000E+00  0.25121539328E+02  0.25121711471E+02  0.93000000000E-01 0.  1.
          3   -1    0    0  501    0  0.00000000000E+00 -0.00000000000E+00 -0.15549464764E+03  0.15549467545E+03  0.93000000000E-01 0. -1.
         25    2    1    2    0    0  0.00000000000E+00  0.00000000000E+00 -0.13037310831E+03  0.18061638692E+03  0.12500052741E+03 0.  0.
        -11    1    3    3    0    0  0.26361573929E+02 -0.72238957026E+01  0.16027559443E+02  0.31685957632E+02  0.51100000000E-03 0.  1.
         11    1    3    3    0    0 -0.26361573929E+02  0.72238957026E+01 -0.14640066775E+03  0.14893042929E+03  0.51100000000E-03 0. -1.
<mgrwt>
<rscale>  0 0.12500053E+03</rscale>
<asrwt>0</asrwt>
<pdfrwt beam="2">  1        3 0.23922268E-01 0.12500053E+03</pdfrwt>
<pdfrwt beam="1">  1       -3 0.38648677E-02 0.12500053E+03</pdfrwt>
<totfact> 0.12380272E+04</totfact>
</mgrwt>
</event>
<event>
 5    1  0.1787806E-056  0.1249923E+03  0.7818608E-02  0.1235081E+00
          3   -1    0    0  501    0  0.00000000000E+00  0.00000000000E+00  0.12789963305E+03  0.12789966686E+03  0.93000000000E-01 0. -1.
         -3   -1    0    0    0  501 -0.00000000000E+00 -0.00000000000E+00 -0.30537631221E+02  0.30537772833E+02  0.93000000000E-01 0.  1.
         25    2    1    2    0    0  0.00000000000E+00  0.00000000000E+00  0.97362001826E+02  0.15843743969E+03  0.12499225135E+03 0.  0.
        -11    1    3    3    0    0  0.42612676503E+02  0.43149262031E+02  0.29538191512E+02  0.67455198248E+02  0.51100000000E-03 0.  1.
         11    1    3    3    0    0 -0.42612676503E+02 -0.43149262031E+02  0.67823810313E+02  0.90982241444E+02  0.51100000000E-03 0. -1.
<mgrwt>
<rscale>  0 0.12499225E+03</rscale>
<asrwt>0</asrwt>
<pdfrwt beam="1">  1        3 0.19676880E-01 0.12499225E+03</pdfrwt>
<pdfrwt beam="2">  1       -3 0.46981107E-02 0.12499225E+03</pdfrwt>
<totfact> 0.12893771E+04</totfact>
</mgrwt>
</event>
<event>
 5    1  0.1787806E-056  0.1250002E+03  0.7818608E-02  0.1235069E+00
          3   -1    0    0  501    0  0.00000000000E+00  0.00000000000E+00  0.54173970618E+02  0.54174050444E+02  0.93000000000E-01 0. -1.
         -3   -1    0    0    0  501 -0.00000000000E+00 -0.00000000000E+00 -0.72105700149E+02  0.72105760124E+02  0.93000000000E-01 0.  1.
         25    2    1    2    0    0  0.00000000000E+00  0.00000000000E+00 -0.17931729531E+02  0.12627981057E+03  0.12500017453E+03 0.  0.
        -11    1    3    3    0    0 -0.46403343273E+00  0.58121929976E+02 -0.32176857663E+02  0.66435865619E+02  0.51100000000E-03 0.  1.
         11    1    3    3    0    0  0.46403343273E+00 -0.58121929976E+02  0.14245128132E+02  0.59843944948E+02  0.51100000000E-03 0. -1.
<mgrwt>
<rscale>  0 0.12500017E+03</rscale>
<asrwt>0</asrwt>
<pdfrwt beam="1">  1        3 0.83344678E-02 0.12500017E+03</pdfrwt>
<pdfrwt beam="2">  1       -3 0.11093195E-01 0.12500017E+03</pdfrwt>
<totfact> 0.13702118E+04</totfact>
</mgrwt>
</event>
<event>
 5    1  0.1787806E-056  0.1250013E+03  0.7818608E-02  0.1235067E+00
          3   -1    0    0  501    0  0.00000000000E+00  0.00000000000E+00  0.70674309200E+01  0.70680427849E+01  0.93000000000E-01 0. -1.
         -3   -1    0    0    0  501 -0.00000000000E+00 -0.00000000000E+00 -0.55269873535E+03  0.55269874317E+03  0.93000000000E-01 0.  1.
         25    2    1    2    0    0  0.00000000000E+00  0.00000000000E+00 -0.54563130443E+03  0.55976678596E+03  0.12500133715E+03 0.  0.
        -11    1    3    3    0    0 -0.59877459423E+02  0.13293381649E+01 -0.35282895454E+03  0.35787616356E+03  0.51100000000E-03 0.  1.
         11    1    3    3    0    0  0.59877459423E+02 -0.13293381649E+01 -0.19280234989E+03  0.20189062239E+03  0.51100000000E-03 0. -1.
<mgrwt>
<rscale>  0 0.12500134E+03</rscale>
<asrwt>0</asrwt>
<pdfrwt beam="1">  1        3 0.10873452E-02 0.12500134E+03</pdfrwt>
<pdfrwt beam="2">  1       -3 0.85030588E-01 0.12500134E+03</pdfrwt>
<totfact> 0.70192072E+03</totfact>
</mgrwt>
</event>
<event>
 5    1  0.1787806E-056  0.1249980E+03  0.7818608E-02  0.1235072E+00
          3   -1    0    0  501    0  0.00000000000E+00  0.00000000000E+00  0.19671891216E+03  0.19671893414E+03  0.93000000000E-01 0.  1.
         -3   -1    0    0    0  501 -0.00000000000E+00 -0.00000000000E+00 -0.19856231479E+02  0.19856449268E+02  0.93000000000E-01 0. -1.
         25    2    1    2    0    0  0.00000000000E+00  0.00000000000E+00  0.17686268068E+03  0.21657538341E+03  0.12499795551E+03 0.  0.
        -11    1    3    3    0    0  0.51630070050E+02  0.32582163464E+02  0.65259332941E+02  0.89364657698E+02  0.51100000000E-03 0. -1.
         11    1    3    3    0    0 -0.51630070050E+02 -0.32582163464E+02  0.11160334774E+03  0.12721072571E+03  0.51100000000E-03 0.  1.
<mgrwt>
<rscale>  0 0.12499796E+03</rscale>
<asrwt>0</asrwt>
<pdfrwt beam="1">  1        3 0.30264467E-01 0.12499796E+03</pdfrwt>
<pdfrwt beam="2">  1       -3 0.30548232E-02 0.12499796E+03</pdfrwt>
<totfact> 0.11623625E+04</totfact>
</mgrwt>
</event>
<event>
 5    1  0.1787806E-056  0.1249980E+03  0.7818608E-02  0.1235072E+00
          3   -1    0    0  501    0  0.00000000000E+00  0.00000000000E+00  0.17370345695E+03  0.17370348185E+03  0.93000000000E-01 0. -1.
         -3   -1    0    0    0  501 -0.00000000000E+00 -0.00000000000E+00 -0.22487202959E+02  0.22487395267E+02  0.93000000000E-01 0.  1.
         25    2    1    2    0    0  0.00000000000E+00  0.00000000000E+00  0.15121625399E+03  0.19619087711E+03  0.12499801915E+03 0.  0.
        -11    1    3    3    0    0 -0.36986644683E+02  0.50213850359E+02  0.69197214590E+02  0.93154158040E+02  0.51100000000E-03 0.  1.
         11    1    3    3    0    0  0.36986644683E+02 -0.50213850359E+02  0.82019039402E+02  0.10303671907E+03  0.51100000000E-03 0. -1.
<mgrwt>
<rscale>  0 0.12499802E+03</rscale>
<asrwt>0</asrwt>
<pdfrwt beam="1">  1        3 0.26723625E-01 0.12499802E+03</pdfrwt>
<pdfrwt beam="2">  1       -3 0.34595864E-02 0.12499802E+03</pdfrwt>
<totfact> 0.12043033E+04</totfact>
</mgrwt>
</event>
<event>
 5    1  0.1787806E-056  0.1249998E+03  0.7818608E-02  0.1235070E+00
         -3   -1    0    0    0  501 -0.00000000000E+00  0.00000000000E+00  0.13736130490E+02  0.13736445313E+02  0.93000000000E-01 0.  1.
          3   -1    0    0  501    0  0.00000000000E+00 -0.00000000000E+00 -0.28437308838E+03  0.28437310358E+03  0.93000000000E-01 0. -1.
         25    2    1    2    0    0  0.00000000000E+00  0.00000000000E+00 -0.27063695789E+03  0.29810954890E+03  0.12499976068E+03 0.  0.
        -11    1    3    3    0    0 -0.33117999304E+02 -0.26144152462E+02 -0.25357194864E+02  0.49227085202E+02  0.51100000000E-03 0.  1.
         11    1    3    3    0    0  0.33117999304E+02  0.26144152462E+02 -0.24527976302E+03  0.24888246369E+03  0.51100000000E-03 0. -1.
<mgrwt>
<rscale>  0 0.12499976E+03</rscale>
<asrwt>0</asrwt>
<pdfrwt beam="2">  1        3 0.43749727E-01 0.12499976E+03</pdfrwt>
<pdfrwt beam="1">  1       -3 0.21132764E-02 0.12499976E+03</pdfrwt>
<totfact> 0.10166863E+04</totfact>
</mgrwt>
</event>
<event>
 5    1  0.1787806E-056  0.1249996E+03  0.7818608E-02  0.1235070E+00
         -3   -1    0    0    0  501 -0.00000000000E+00  0.00000000000E+00  0.40318004026E+02  0.40318111286E+02  0.93000000000E-01 0.  1.
          3   -1    0    0  501    0  0.00000000000E+00 -0.00000000000E+00 -0.96885105333E+02  0.96885149968E+02  0.93000000000E-01 0. -1.
         25    2    1    2    0    0  0.00000000000E+00  0.00000000000E+00 -0.56567101307E+02  0.13720326125E+03  0.12499959179E+03 0.  0.
        -11    1    3    3    0    0  0.30624419993E+02 -0.24826970453E+02  0.24948556847E+02  0.46654732352E+02  0.51100000000E-03 0.  1.
         11    1    3    3    0    0 -0.30624419993E+02  0.24826970453E+02 -0.81515658154E+02  0.90548528902E+02  0.51100000000E-03 0. -1.
<mgrwt>
<rscale>  0 0.12499959E+03</rscale>
<asrwt>0</asrwt>
<pdfrwt beam="2">  1        3 0.14905412E-01 0.12499959E+03</pdfrwt>
<pdfrwt beam="1">  1       -3 0.62027816E-02 0.12499959E+03</pdfrwt>
<totfact> 0.13416841E+04</totfact>
</mgrwt>
</event>
<event>
 5    1  0.1787806E-056  0.1250012E+03  0.7818608E-02  0.1235067E+00
         -3   -1    0    0    0  501 -0.00000000000E+00  0.00000000000E+00  0.11793009508E+03  0.11793013175E+03  0.93000000000E-01 0.  1.
          3   -1    0    0  501    0  0.00000000000E+00 -0.00000000000E+00 -0.33123958153E+02  0.33124088708E+02  0.93000000000E-01 0. -1.
         25    2    1    2    0    0  0.00000000000E+00  0.00000000000E+00  0.84806136928E+02  0.15105422046E+03  0.12500118663E+03 0.  0.
        -11    1    3    3    0    0 -0.41310726818E+02 -0.20803540095E+02  0.93199379928E+02  0.10404560466E+03  0.51100000000E-03 0.  1.
         11    1    3    3    0    0  0.41310726818E+02  0.20803540095E+02 -0.83932429999E+01  0.47008615796E+02  0.51100000000E-03 0. -1.
<mgrwt>
<rscale>  0 0.12500119E+03</rscale>
<asrwt>0</asrwt>
<pdfrwt beam="2">  1        3 0.50960065E-02 0.12500119E+03</pdfrwt>
<pdfrwt beam="1">  1       -3 0.18143104E-01 0.12500119E+03</pdfrwt>
<totfact> 0.13069656E+04</totfact>
</mgrwt>
</event>
<event>
 5    1  0.1787806E-056  0.1249989E+03  0.7818608E-02  0.1235071E+00
         -3   -1    0    0    0  501 -0.00000000000E+00  0.00000000000E+00  0.39797656154E+02  0.39797764816E+02  0.93000000000E-01 0.  1.
          3   -1    0    0  501    0  0.00000000000E+00 -0.00000000000E+00 -0.98150740981E+02  0.98150785040E+02  0.93000000000E-01 0. -1.
         25    2    1    2    0    0  0.00000000000E+00  0.00000000000E+00 -0.58353084826E+02  0.13794854986E+03  0.12499887959E+03 0.  0.
        -11    1    3    3    0    0  0.45888251446E+02 -0.22727155550E+02  0.10367476509E+02  0.52246911771E+02  0.51100000000E-03 0.  1.
         11    1    3    3    0    0 -0.45888251446E+02  0.22727155550E+02 -0.68720561335E+02  0.85701638086E+02  0.51100000000E-03 0. -1.
<mgrwt>
<rscale>  0 0.12499888E+03</rscale>
<asrwt>0</asrwt>
<pdfrwt beam="2">  1        3 0.15100126E-01 0.12499888E+03</pdfrwt>
<pdfrwt beam="1">  1       -3 0.61227281E-02 0.12499888E+03</pdfrwt>
<totfact> 0.13397982E+04</totfact>
</mgrwt>
</event>
<event>
 5    1  0.1902424E-056  0.1249992E+03  0.7818608E-02  0.1235071E+00
         -3   -1    0    0    0  501 -0.00000000000E+00  0.00000000000E+00  0.65891953415E+02  0.65892019045E+02  0.93000000000E-01 0.  1.
          3   -1    0    0  501    0  0.00000000000E+00 -0.00000000000E+00 -0.59281747240E+02  0.59281820188E+02  0.93000000000E-01 0. -1.
         25    2    1    2    0    0  0.00000000000E+00  0.00000000000E+00  0.66102061747E+01  0.12517383923E+03  0.12499918081E+03 0.  0.
        -11    1    3    3    0    0 -0.40590065797E+02 -0.45783653457E+02  0.16070559370E+02  0.63261040491E+02  0.51100000000E-03 0. -1.
         11    1    3    3    0    0  0.40590065797E+02  0.45783653457E+02 -0.94603531953E+01  0.61912798742E+02  0.51100000000E-03 0.  1.
<mgrwt>
<rscale>  0 0.12499918E+03</rscale>
<asrwt>0</asrwt>
<pdfrwt beam="2">  1        3 0.91202795E-02 0.12499918E+03</pdfrwt>
<pdfrwt beam="1">  1       -3 0.10137234E-01 0.12499918E+03</pdfrwt>
<totfact> 0.13732084E+04</totfact>
</mgrwt>
</event>
<event>
 5    1  0.1787806E-056  0.1250001E+03  0.7818608E-02  0.1235069E+00
          3   -1    0    0  501    0  0.00000000000E+00  0.00000000000E+00  0.19723977511E+03  0.19723979703E+03  0.93000000000E-01 0. -1.
         -3   -1    0    0    0  501 -0.00000000000E+00 -0.00000000000E+00 -0.19804483370E+02  0.19804701729E+02  0.93000000000E-01 0.  1.
         25    2    1    2    0    0  0.00000000000E+00  0.00000000000E+00  0.17743529174E+03  0.21704449876E+03  0.12500012675E+03 0.  0.
        -11    1    3    3    0    0 -0.26543135101E+02  0.52438103228E+02  0.51803668437E+02  0.78344832344E+02  0.51100000000E-03 0.  1.
         11    1    3    3    0    0  0.26543135101E+02 -0.52438103228E+02  0.12563162330E+03  0.13869966642E+03  0.51100000000E-03 0. -1.
<mgrwt>
<rscale>  0 0.12500013E+03</rscale>
<asrwt>0</asrwt>
<pdfrwt beam="1">  1        3 0.30344601E-01 0.12500013E+03</pdfrwt>
<pdfrwt beam="2">  1       -3 0.30468619E-02 0.12500013E+03</pdfrwt>
<totfact> 0.11613702E+04</totfact>
</mgrwt>
</event>
<event>
 5    1  0.1787806E-056  0.1250014E+03  0.7818608E-02  0.1235067E+00
         -3   -1    0    0    0  501 -0.00000000000E+00  0.00000000000E+00  0.34604071030E+03  0.34604072279E+03  0.93000000000E-01 0.  1.
          3   -1    0    0  501    0  0.00000000000E+00 -0.00000000000E+00 -0.11288451874E+02  0.11288834958E+02  0.93000000000E-01 0. -1.
         25    2    1    2    0    0  0.00000000000E+00  0.00000000000E+00  0.33475225842E+03  0.35732955775E+03  0.12500135329E+03 0.  0.
        -11    1    3    3    0    0  0.26055178111E+02 -0.56467794404E+02  0.18519385881E+03  0.19535672359E+03  0.51100000000E-03 0.  1.
         11    1    3    3    0    0 -0.26055178111E+02  0.56467794404E+02  0.14955839962E+03  0.16197283417E+03  0.51100000000E-03 0. -1.
<mgrwt>
<rscale>  0 0.12500135E+03</rscale>
<asrwt>0</asrwt>
<pdfrwt beam="2">  1        3 0.17367156E-02 0.12500135E+03</pdfrwt>
<pdfrwt beam="1">  1       -3 0.53237055E-01 0.12500135E+03</pdfrwt>
<totfact> 0.92807493E+03</totfact>
</mgrwt>
</event>
<event>
 5    1  0.1787806E-056  0.1250008E+03  0.7818608E-02  0.1235068E+00
          3   -1    0    0  501    0  0.00000000000E+00  0.00000000000E+00  0.12563886023E+02  0.12564230219E+02  0.93000000000E-01 0. -1.
         -3   -1    0    0    0  501 -0.00000000000E+00 -0.00000000000E+00 -0.31091012570E+03  0.31091013961E+03  0.93000000000E-01 0.  1.
         25    2    1    2    0    0  0.00000000000E+00  0.00000000000E+00 -0.29834623968E+03  0.32347436983E+03  0.12500075682E+03 0.  0.
        -11    1    3    3    0    0 -0.28032558914E+02  0.55712169062E+02 -0.13862108352E+03  0.15200485169E+03  0.51100000000E-03 0. -1.
         11    1    3    3    0    0  0.28032558914E+02 -0.55712169062E+02 -0.15972515615E+03  0.17146951813E+03  0.51100000000E-03 0.  1.
<mgrwt>
<rscale>  0 0.12500076E+03</rscale>
<asrwt>0</asrwt>
<pdfrwt beam="1">  1        3 0.19329333E-02 0.12500076E+03</pdfrwt>
<pdfrwt beam="2">  1       -3 0.47832348E-01 0.12500076E+03</pdfrwt>
<totfact> 0.97696007E+03</totfact>
</mgrwt>
</event>
<event>
 5    1  0.1787806E-056  0.1250011E+03  0.7818608E-02  0.1235068E+00
         -3   -1    0    0    0  501 -0.00000000000E+00  0.00000000000E+00  0.17361661951E+02  0.17361911033E+02  0.93000000000E-01 0. -1.
          3   -1    0    0  501    0  0.00000000000E+00 -0.00000000000E+00 -0.22499501595E+03  0.22499503517E+03  0.93000000000E-01 0.  1.
         25    2    1    2    0    0  0.00000000000E+00  0.00000000000E+00 -0.20763335400E+03  0.24235694620E+03  0.12500111872E+03 0.  0.
        -11    1    3    3    0    0 -0.19981896659E+02  0.59208624301E+02 -0.10153696758E+03  0.11922538811E+03  0.51100000000E-03 0. -1.
         11    1    3    3    0    0  0.19981896659E+02 -0.59208624301E+02 -0.10609638642E+03  0.12313155809E+03  0.51100000000E-03 0.  1.
<mgrwt>
<rscale>  0 0.12500112E+03</rscale>
<asrwt>0</asrwt>
<pdfrwt beam="2">  1        3 0.34614637E-01 0.12500112E+03</pdfrwt>
<pdfrwt beam="1">  1       -3 0.26710457E-02 0.12500112E+03</pdfrwt>
<totfact> 0.11126597E+04</totfact>
</mgrwt>
</event>
<event>
 5    1  0.1787806E-056  0.1250007E+03  0.7818608E-02  0.1235068E+00
          3   -1    0    0  501    0  0.00000000000E+00  0.00000000000E+00  0.16236512649E+02  0.16236778991E+02  0.93000000000E-01 0.  1.
         -3   -1    0    0    0  501 -0.00000000000E+00 -0.00000000000E+00 -0.24058476985E+03  0.24058478783E+03  0.93000000000E-01 0. -1.
         25    2    1    2    0    0  0.00000000000E+00  0.00000000000E+00 -0.22434825721E+03  0.25682156682E+03  0.12500070669E+03 0.  0.
        -11    1    3    3    0    0  0.25630758108E+02 -0.40532354018E+02 -0.19452298797E+03  0.20034719946E+03  0.51100000000E-03 0. -1.
         11    1    3    3    0    0 -0.25630758108E+02  0.40532354018E+02 -0.29825269240E+02  0.56474367362E+02  0.51100000000E-03 0.  1.
<mgrwt>
<rscale>  0 0.12500071E+03</rscale>
<asrwt>0</asrwt>
<pdfrwt beam="1">  1        3 0.24979471E-02 0.12500071E+03</pdfrwt>
<pdfrwt beam="2">  1       -3 0.37013061E-01 0.12500071E+03</pdfrwt>
<totfact> 0.10861536E+04</totfact>
</mgrwt>
</event>
<event>
 5    1  0.1787806E-056  0.1249983E+03  0.7818608E-02  0.1235072E+00
          3   -1    0    0  501    0  0.00000000000E+00  0.00000000000E+00  0.15009037396E+02  0.15009325520E+02  0.93000000000E-01 0. -1.
         -3   -1    0    0    0  501 -0.00000000000E+00 -0.00000000000E+00 -0.26025003587E+03  0.26025005249E+03  0.93000000000E-01 0.  1.
         25    2    1    2    0    0  0.00000000000E+00  0.00000000000E+00 -0.24524099847E+03  0.27525937801E+03  0.12499831138E+03 0.  0.
        -11    1    3    3    0    0 -0.40396713377E+02  0.46056484574E+02 -0.14986350259E+03  0.16190170978E+03  0.51100000000E-03 0.  1.
         11    1    3    3    0    0  0.40396713377E+02 -0.46056484574E+02 -0.95377495887E+02  0.11335766822E+03  0.51100000000E-03 0. -1.
<mgrwt>
<rscale>  0 0.12499831E+03</rscale>
<asrwt>0</asrwt>
<pdfrwt beam="1">  1        3 0.23091063E-02 0.12499831E+03</pdfrwt>
<pdfrwt beam="2">  1       -3 0.40038487E-01 0.12499831E+03</pdfrwt>
<totfact> 0.10541016E+04</totfact>
</mgrwt>
</event>
<event>
 5    1  0.1787806E-056  0.1249981E+03  0.7818608E-02  0.1235072E+00
          3   -1    0    0  501    0  0.00000000000E+00  0.00000000000E+00  0.62573785351E+02  0.62573854462E+02  0.93000000000E-01 0. -1.
         -3   -1    0    0    0  501 -0.00000000000E+00 -0.00000000000E+00 -0.62424247880E+02  0.62424317156E+02  0.93000000000E-01 0.  1.
         25    2    1    2    0    0  0.00000000000E+00  0.00000000000E+00  0.14953747136E+00  0.12499817162E+03  0.12499808217E+03 0.  0.
        -11    1    3    3    0    0 -0.49488015823E+02  0.21661816953E+02 -0.31355050327E+02  0.62461485774E+02  0.51100000000E-03 0.  1.
         11    1    3    3    0    0  0.49488015823E+02 -0.21661816953E+02  0.31504587798E+02  0.62536685844E+02  0.51100000000E-03 0. -1.
<mgrwt>
<rscale>  0 0.12499808E+03</rscale>
<asrwt>0</asrwt>
<pdfrwt beam="1">  1        3 0.96267468E-02 0.12499808E+03</pdfrwt>
<pdfrwt beam="2">  1       -3 0.96037411E-02 0.12499808E+03</pdfrwt>
<totfact> 0.13737064E+04</totfact>
</mgrwt>
</event>
<event>
 5    1  0.1787806E-056  0.1250003E+03  0.7818608E-02  0.1235069E+00
         -3   -1    0    0    0  501 -0.00000000000E+00  0.00000000000E+00  0.86378724574E+02  0.86378774638E+02  0.93000000000E-01 0.  1.
          3   -1    0    0  501    0  0.00000000000E+00 -0.00000000000E+00 -0.45222460161E+02  0.45222555788E+02  0.93000000000E-01 0. -1.
         25    2    1    2    0    0  0.00000000000E+00  0.00000000000E+00  0.41156264413E+02  0.13160133043E+03  0.12500028828E+03 0.  0.
        -11    1    3    3    0    0  0.42832857185E+02 -0.19278035332E+02  0.63986165857E+02  0.79375851002E+02  0.51100000000E-03 0.  1.
         11    1    3    3    0    0 -0.42832857185E+02  0.19278035332E+02 -0.22829901444E+02  0.52225479424E+02  0.51100000000E-03 0. -1.
<mgrwt>
<rscale>  0 0.12500029E+03</rscale>
<asrwt>0</asrwt>
<pdfrwt beam="2">  1        3 0.69573128E-02 0.12500029E+03</pdfrwt>
<pdfrwt beam="1">  1       -3 0.13289046E-01 0.12500029E+03</pdfrwt>
<totfact> 0.13561866E+04</totfact>
</mgrwt>
</event>
<event>
 5    1  0.1787806E-056  0.1249997E+03  0.7818608E-02  0.1235070E+00
          3   -1    0    0  501    0  0.00000000000E+00  0.00000000000E+00  0.12105043317E+03  0.12105046890E+03  0.93000000000E-01 0. -1.
         -3   -1    0    0    0  501 -0.00000000000E+00 -0.00000000000E+00 -0.32269337806E+02  0.32269471819E+02  0.93000000000E-01 0.  1.
         25    2    1    2    0    0  0.00000000000E+00  0.00000000000E+00  0.88781095365E+02  0.15331994072E+03  0.12499968531E+03 0.  0.
        -11    1    3    3    0    0 -0.24576707546E+02 -0.14120139399E+02 -0.23932815268E+02  0.37096799556E+02  0.51100000000E-03 0.  1.
         11    1    3    3    0    0  0.24576707546E+02  0.14120139399E+02  0.11271391063E+03  0.11622314116E+03  0.51100000000E-03 0. -1.
<mgrwt>
<rscale>  0 0.12499969E+03</rscale>
<asrwt>0</asrwt>
<pdfrwt beam="1">  1        3 0.18623156E-01 0.12499969E+03</pdfrwt>
<pdfrwt beam="2">  1       -3 0.49645267E-02 0.12499969E+03</pdfrwt>
<totfact> 0.13014881E+04</totfact>
</mgrwt>
</event>
<event>
 5    1  0.1787806E-056  0.1250005E+03  0.7818608E-02  0.1235068E+00
          3   -1    0    0  501    0  0.00000000000E+00  0.00000000000E+00  0.16951169838E+02  0.16951424951E+02  0.93000000000E-01 0. -1.
         -3   -1    0    0    0  501 -0.00000000000E+00 -0.00000000000E+00 -0.23044119294E+03  0.23044121171E+03  0.93000000000E-01 0.  1.
         25    2    1    2    0    0  0.00000000000E+00  0.00000000000E+00 -0.21349002311E+03  0.24739263666E+03  0.12500050683E+03 0.  0.
        -11    1    3    3    0    0 -0.52229683490E+02  0.34155154038E+02 -0.11353412801E+03  0.12955505628E+03  0.51100000000E-03 0.  1.
         11    1    3    3    0    0  0.52229683490E+02 -0.34155154038E+02 -0.99955895094E+02  0.11783758038E+03  0.51100000000E-03 0. -1.
<mgrwt>
<rscale>  0 0.12500051E+03</rscale>
<asrwt>0</asrwt>
<pdfrwt beam="1">  1        3 0.26078935E-02 0.12500051E+03</pdfrwt>
<pdfrwt beam="2">  1       -3 0.35452510E-01 0.12500051E+03</pdfrwt>
<totfact> 0.11032081E+04</totfact>
</mgrwt>
</event>
<event>
 5    1  0.1787806E-056  0.1250009E+03  0.7818608E-02  0.1235068E+00
          3   -1    0    0  501    0  0.00000000000E+00  0.00000000000E+00  0.16089192197E+03  0.16089194885E+03  0.93000000000E-01 0. -1.
         -3   -1    0    0    0  501 -0.00000000000E+00 -0.00000000000E+00 -0.24278963523E+02  0.24279141639E+02  0.93000000000E-01 0.  1.
         25    2    1    2    0    0  0.00000000000E+00  0.00000000000E+00  0.13661295845E+03  0.18517109049E+03  0.12500092934E+03 0.  0.
        -11    1    3    3    0    0  0.28098031014E+02 -0.53647293102E+02  0.45415946661E+02  0.75697685668E+02  0.51100000000E-03 0.  1.
         11    1    3    3    0    0 -0.28098031014E+02  0.53647293102E+02  0.91197011790E+02  0.10947340482E+03  0.51100000000E-03 0. -1.
<mgrwt>
<rscale>  0 0.12500093E+03</rscale>
<asrwt>0</asrwt>
<pdfrwt beam="1">  1        3 0.24752620E-01 0.12500093E+03</pdfrwt>
<pdfrwt beam="2">  1       -3 0.37352408E-02 0.12500093E+03</pdfrwt>
<totfact> 0.12279616E+04</totfact>
</mgrwt>
</event>
<event>
 5    1  0.1787806E-056  0.1249984E+03  0.7818608E-02  0.1235072E+00
         -3   -1    0    0    0  501 -0.00000000000E+00  0.00000000000E+00  0.36555246707E+02  0.36555365007E+02  0.93000000000E-01 0.  1.
          3   -1    0    0  501    0  0.00000000000E+00 -0.00000000000E+00 -0.10685583970E+03  0.10685588017E+03  0.93000000000E-01 0. -1.
         25    2    1    2    0    0  0.00000000000E+00  0.00000000000E+00 -0.70300592990E+02  0.14341124517E+03  0.12499844746E+03 0.  0.
        -11    1    3    3    0    0  0.27341953013E+02  0.23394857081E+02  0.23477411598E+02  0.42966156309E+02  0.51100000000E-03 0.  1.
         11    1    3    3    0    0 -0.27341953013E+02 -0.23394857081E+02 -0.93778004588E+02  0.10044508887E+03  0.51100000000E-03 0. -1.
<mgrwt>
<rscale>  0 0.12499845E+03</rscale>
<asrwt>0</asrwt>
<pdfrwt beam="2">  1        3 0.16439372E-01 0.12499845E+03</pdfrwt>
<pdfrwt beam="1">  1       -3 0.56238964E-02 0.12499845E+03</pdfrwt>
<totfact> 0.13259539E+04</totfact>
</mgrwt>
</event>
<event>
 5    1  0.1787806E-056  0.1250010E+03  0.7818608E-02  0.1235068E+00
         -3   -1    0    0    0  501 -0.00000000000E+00  0.00000000000E+00  0.23710915628E+02  0.23711098012E+02  0.93000000000E-01 0.  1.
          3   -1    0    0  501    0  0.00000000000E+00 -0.00000000000E+00 -0.16474664701E+03  0.16474667326E+03  0.93000000000E-01 0. -1.
         25    2    1    2    0    0  0.00000000000E+00  0.00000000000E+00 -0.14103573139E+03  0.18845777128E+03  0.12500101610E+03 0.  0.
        -11    1    3    3    0    0 -0.51596411530E+02 -0.25198971048E+02 -0.33308049252E+02  0.66382256439E+02  0.51100000000E-03 0.  1.
         11    1    3    3    0    0  0.51596411530E+02  0.25198971048E+02 -0.10772768213E+03  0.12207551484E+03  0.51100000000E-03 0. -1.
<mgrwt>
<rscale>  0 0.12500102E+03</rscale>
<asrwt>0</asrwt>
<pdfrwt beam="2">  1        3 0.25345653E-01 0.12500102E+03</pdfrwt>
<pdfrwt beam="1">  1       -3 0.36478493E-02 0.12500102E+03</pdfrwt>
<totfact> 0.12207938E+04</totfact>
</mgrwt>
</event>
<event>
 5    1  0.1787806E-056  0.1250018E+03  0.7818608E-02  0.1235067E+00
          3   -1    0    0  501    0  0.00000000000E+00  0.00000000000E+00  0.14412619641E+02  0.14412919688E+02  0.93000000000E-01 0. -1.
         -3   -1    0    0    0  501 -0.00000000000E+00 -0.00000000000E+00 -0.27103435731E+03  0.27103437326E+03  0.93000000000E-01 0.  1.
         25    2    1    2    0    0  0.00000000000E+00  0.00000000000E+00 -0.25662173767E+03  0.28544729295E+03  0.12500176323E+03 0.  0.
        -11    1    3    3    0    0 -0.57495740230E+02 -0.23189090094E+02 -0.11020504667E+03  0.12644621922E+03  0.51100000000E-03 0.  1.
         11    1    3    3    0    0  0.57495740230E+02  0.23189090094E+02 -0.14641669100E+03  0.15900107373E+03  0.51100000000E-03 0. -1.
<mgrwt>
<rscale>  0 0.12500176E+03</rscale>
<asrwt>0</asrwt>
<pdfrwt beam="1">  1        3 0.22173506E-02 0.12500176E+03</pdfrwt>
<pdfrwt beam="2">  1       -3 0.41697614E-01 0.12500176E+03</pdfrwt>
<totfact> 0.10369293E+04</totfact>
</mgrwt>
</event>
<event>
 5    1  0.1787806E-056  0.1250002E+03  0.7818608E-02  0.1235069E+00
         -3   -1    0    0    0  501 -0.00000000000E+00  0.00000000000E+00  0.71050571262E+01  0.71056657511E+01  0.93000000000E-01 0.  1.
          3   -1    0    0  501    0  0.00000000000E+00 -0.00000000000E+00 -0.54976165655E+03  0.54976166442E+03  0.93000000000E-01 0. -1.
         25    2    1    2    0    0  0.00000000000E+00  0.00000000000E+00 -0.54265659942E+03  0.55686733017E+03  0.12500015404E+03 0.  0.
        -11    1    3    3    0    0  0.21394413716E+02  0.58051731309E+02 -0.31080795170E+03  0.31690583347E+03  0.51100000000E-03 0.  1.
         11    1    3    3    0    0 -0.21394413716E+02 -0.58051731309E+02 -0.23184864772E+03  0.23996149670E+03  0.51100000000E-03 0. -1.
<mgrwt>
<rscale>  0 0.12500015E+03</rscale>
<asrwt>0</asrwt>
<pdfrwt beam="2">  1        3 0.84578730E-01 0.12500015E+03</pdfrwt>
<pdfrwt beam="1">  1       -3 0.10931336E-02 0.12500015E+03</pdfrwt>
<totfact> 0.70557705E+03</totfact>
</mgrwt>
</event>
<event>
 5    1  0.1787806E-056  0.1250004E+03  0.7818608E-02  0.1235069E+00
         -3   -1    0    0    0  501 -0.00000000000E+00  0.00000000000E+00  0.89563245905E+02  0.89563294190E+02  0.93000000000E-01 0.  1.
          3   -1    0    0  501    0  0.00000000000E+00 -0.00000000000E+00 -0.43614625344E+02  0.43614724497E+02  0.93000000000E-01 0. -1.
         25    2    1    2    0    0  0.00000000000E+00  0.00000000000E+00  0.45948620561E+02  0.13317801869E+03  0.12500043572E+03 0.  0.
        -11    1    3    3    0    0 -0.87087389902E+01  0.52210144954E+02  0.58383087798E+02  0.78805623607E+02  0.51100000000E-03 0.  1.
         11    1    3    3    0    0  0.87087389902E+01 -0.52210144954E+02 -0.12434467237E+02  0.54372395080E+02  0.51100000000E-03 0. -1.
<mgrwt>
<rscale>  0 0.12500044E+03</rscale>
<asrwt>0</asrwt>
<pdfrwt beam="2">  1        3 0.67099538E-02 0.12500044E+03</pdfrwt>
<pdfrwt beam="1">  1       -3 0.13778972E-01 0.12500044E+03</pdfrwt>
<totfact> 0.13520672E+04</totfact>
</mgrwt>
</event>
<event>
 5    1  0.1787806E-056  0.1250063E+03  0.7818608E-02  0.1235059E+00
         -3   -1    0    0    0  501 -0.00000000000E+00  0.00000000000E+00  0.20246000842E+02  0.20246214438E+02  0.93000000000E-01 0.  1.
          3   -1    0    0  501    0  0.00000000000E+00 -0.00000000000E+00 -0.19295766556E+03  0.19295768797E+03  0.93000000000E-01 0. -1.
         25    2    1    2    0    0  0.00000000000E+00  0.00000000000E+00 -0.17271166472E+03  0.21320390241E+03  0.12500633933E+03 0.  0.
        -11    1    3    3    0    0  0.44243249636E+02 -0.48266901303E+01 -0.16120348603E+03  0.16723434452E+03  0.51100000000E-03 0. -1.
         11    1    3    3    0    0 -0.44243249636E+02  0.48266901303E+01 -0.11508178683E+02  0.45969557893E+02  0.51100000000E-03 0.  1.
<mgrwt>
<rscale>  0 0.12500634E+03</rscale>
<asrwt>0</asrwt>
<pdfrwt beam="2">  1        3 0.29685812E-01 0.12500634E+03</pdfrwt>
<pdfrwt beam="1">  1       -3 0.31147877E-02 0.12500634E+03</pdfrwt>
<totfact> 0.11689071E+04</totfact>
</mgrwt>
</event>
<event>
 5    1  0.1787806E-056  0.1249992E+03  0.7818608E-02  0.1235070E+00
         -3   -1    0    0    0  501 -0.00000000000E+00  0.00000000000E+00  0.12443624530E+02  0.12443972053E+02  0.93000000000E-01 0.  1.
          3   -1    0    0  501    0  0.00000000000E+00 -0.00000000000E+00 -0.31390722628E+03  0.31390724005E+03  0.93000000000E-01 0. -1.
         25    2    1    2    0    0  0.00000000000E+00  0.00000000000E+00 -0.30146360174E+03  0.32635121210E+03  0.12499924186E+03 0.  0.
        -11    1    3    3    0    0 -0.51226803404E+02 -0.30285796889E+02 -0.10086655491E+03  0.11711309397E+03  0.51100000000E-03 0.  1.
         11    1    3    3    0    0  0.51226803404E+02  0.30285796889E+02 -0.20059704684E+03  0.20923811813E+03  0.51100000000E-03 0. -1.
<mgrwt>
<rscale>  0 0.12499924E+03</rscale>
<asrwt>0</asrwt>
<pdfrwt beam="2">  1        3 0.48293441E-01 0.12499924E+03</pdfrwt>
<pdfrwt beam="1">  1       -3 0.19144318E-02 0.12499924E+03</pdfrwt>
<totfact> 0.97309466E+03</totfact>
</mgrwt>
</event>
<event>
 5    1  0.1787806E-056  0.1249995E+03  0.7818608E-02  0.1235070E+00
          3   -1    0    0  501    0  0.00000000000E+00  0.00000000000E+00  0.22954146195E+03  0.22954148079E+03  0.93000000000E-01 0. -1.
         -3   -1    0    0    0  501 -0.00000000000E+00 -0.00000000000E+00 -0.17017328780E+02  0.17017582901E+02  0.93000000000E-01 0.  1.
         25    2    1    2    0    0  0.00000000000E+00  0.00000000000E+00  0.21252413317E+03  0.24655906369E+03  0.12499945883E+03 0.  0.
        -11    1    3    3    0    0  0.50655485823E+02 -0.34044138002E+02  0.79707855887E+02  0.10039085549E+03  0.51100000000E-03 0.  1.
         11    1    3    3    0    0 -0.50655485823E+02  0.34044138002E+02  0.13281627728E+03  0.14616820820E+03  0.51100000000E-03 0. -1.
<mgrwt>
<rscale>  0 0.12499946E+03</rscale>
<asrwt>0</asrwt>
<pdfrwt beam="1">  1        3 0.35314093E-01 0.12499946E+03</pdfrwt>
<pdfrwt beam="2">  1       -3 0.26180715E-02 0.12499946E+03</pdfrwt>
<totfact> 0.11049506E+04</totfact>
</mgrwt>
</event>
<event>
 4    1  0.1787806E-056  0.1249540E+03  0.7818608E-02  0.1235141E+00
         -3   -1    0    0    0  501 -0.00000000000E+00  0.00000000000E+00  0.36717655183E+02  0.36717772960E+02  0.93000000000E-01 0.  1.
          3   -1    0    0  501    0  0.00000000000E+00 -0.00000000000E+00 -0.10630747165E+03  0.10630751233E+03  0.93000000000E-01 0. -1.
        -11    1    1    2    0    0  0.16816359393E+02  0.53316192959E+02 -0.28690079154E+01  0.55978903004E+02  0.51100000000E-03 0.  1.
         11    1    1    2    0    0 -0.16816359393E+02 -0.53316192959E+02 -0.66720808550E+02  0.87046382284E+02  0.51100000000E-03 0. -1.
<mgrwt>
<rscale>  0 0.12495395E+03</rscale>
<asrwt>0</asrwt>
<pdfrwt beam="2">  1        3 0.16355008E-01 0.12495395E+03</pdfrwt>
<pdfrwt beam="1">  1       -3 0.56488823E-02 0.12495395E+03</pdfrwt>
<totfact> 0.13282545E+04</totfact>
</mgrwt>
</event>
<event>
 5    1  0.1787806E-056  0.1249963E+03  0.7818608E-02  0.1235075E+00
          3   -1    0    0  501    0  0.00000000000E+00  0.00000000000E+00  0.73582423700E+02  0.73582482471E+02  0.93000000000E-01 0. -1.
         -3   -1    0    0    0  501 -0.00000000000E+00 -0.00000000000E+00 -0.53083483630E+02  0.53083565096E+02  0.93000000000E-01 0.  1.
         25    2    1    2    0    0  0.00000000000E+00  0.00000000000E+00  0.20498940071E+02  0.12666604757E+03  0.12499632419E+03 0.  0.
        -11    1    3    3    0    0 -0.57263082753E+01  0.61795548536E+02  0.17733230995E+02  0.64544154709E+02  0.51100000000E-03 0.  1.
         11    1    3    3    0    0  0.57263082753E+01 -0.61795548536E+02  0.27657090758E+01  0.62121892858E+02  0.51100000000E-03 0. -1.
<mgrwt>
<rscale>  0 0.12499632E+03</rscale>
<asrwt>0</asrwt>
<pdfrwt beam="1">  1        3 0.11320384E-01 0.12499632E+03</pdfrwt>
<pdfrwt beam="2">  1       -3 0.81667006E-02 0.12499632E+03</pdfrwt>
<totfact> 0.13692897E+04</totfact>
</mgrwt>
</event>
<event>
 5    1  0.1787806E-056  0.1249974E+03  0.7818608E-02  0.1235073E+00
         -3   -1    0    0    0  501 -0.00000000000E+00  0.00000000000E+00  0.23307495976E+03  0.23307497832E+03  0.93000000000E-01 0.  1.
          3   -1    0    0  501    0  0.00000000000E+00 -0.00000000000E+00 -0.16758786806E+02  0.16759044848E+02  0.93000000000E-01 0. -1.
         25    2    1    2    0    0  0.00000000000E+00  0.00000000000E+00  0.21631617296E+03  0.24983402316E+03  0.12499740977E+03 0.  0.
        -11    1    3    3    0    0  0.91087320026E+01  0.47968336836E+02  0.18613757875E+03  0.19243473845E+03  0.51100000000E-03 0.  1.
         11    1    3    3    0    0 -0.91087320026E+01 -0.47968336836E+02  0.30178594202E+02  0.57399284715E+02  0.51100000000E-03 0. -1.
<mgrwt>
<rscale>  0 0.12499741E+03</rscale>
<asrwt>0</asrwt>
<pdfrwt beam="2">  1        3 0.25782963E-02 0.12499741E+03</pdfrwt>
<pdfrwt beam="1">  1       -3 0.35857706E-01 0.12499741E+03</pdfrwt>
<totfact> 0.10988269E+04</totfact>
</mgrwt>
</event>
<event>
 5    1  0.1787806E-056  0.1249953E+03  0.7818608E-02  0.1235077E+00
          3   -1    0    0  501    0  0.00000000000E+00  0.00000000000E+00  0.29004248397E+02  0.29004397496E+02  0.93000000000E-01 0. -1.
         -3   -1    0    0    0  501 -0.00000000000E+00 -0.00000000000E+00 -0.13466788276E+03  0.13466791487E+03  0.93000000000E-01 0.  1.
         25    2    1    2    0    0  0.00000000000E+00  0.00000000000E+00 -0.10566363436E+03  0.16367231237E+03  0.12499528875E+03 0.  0.
        -11    1    3    3    0    0 -0.30653686984E+02 -0.38938327429E+02 -0.10269529884E+03  0.11402704185E+03  0.51100000000E-03 0.  1.
         11    1    3    3    0    0  0.30653686984E+02  0.38938327429E+02 -0.29683355199E+01  0.49645270517E+02  0.51100000000E-03 0. -1.
<mgrwt>
<rscale>  0 0.12499529E+03</rscale>
<asrwt>0</asrwt>
<pdfrwt beam="1">  1        3 0.44622061E-02 0.12499529E+03</pdfrwt>
<pdfrwt beam="2">  1       -3 0.20718149E-01 0.12499529E+03</pdfrwt>
<totfact> 0.12768896E+04</totfact>
</mgrwt>
</event>
<event>
 5    1  0.1787806E-056  0.1249916E+03  0.7818608E-02  0.1235082E+00
         -3   -1    0    0    0  501 -0.00000000000E+00  0.00000000000E+00  0.11902056535E+03  0.11902060168E+03  0.93000000000E-01 0.  1.
          3   -1    0    0  501    0  0.00000000000E+00 -0.00000000000E+00 -0.32815420257E+02  0.32815552039E+02  0.93000000000E-01 0. -1.
         25    2    1    2    0    0  0.00000000000E+00  0.00000000000E+00  0.86205145088E+02  0.15183615372E+03  0.12499156186E+03 0.  0.
        -11    1    3    3    0    0  0.34127588934E+02  0.39116675851E+02  0.85374446761E+02  0.99917980445E+02  0.51100000000E-03 0. -1.
         11    1    3    3    0    0 -0.34127588934E+02 -0.39116675851E+02  0.83069832667E+00  0.51918173274E+02  0.51100000000E-03 0.  1.
<mgrwt>
<rscale>  0 0.12499156E+03</rscale>
<asrwt>0</asrwt>
<pdfrwt beam="2">  1        3 0.50485390E-02 0.12499156E+03</pdfrwt>
<pdfrwt beam="1">  1       -3 0.18310870E-01 0.12499156E+03</pdfrwt>
<totfact> 0.13053412E+04</totfact>
</mgrwt>
</event>
<event>
 5    1  0.1787806E-056  0.1250003E+03  0.7818608E-02  0.1235069E+00
          3   -1    0    0  501    0  0.00000000000E+00  0.00000000000E+00  0.11649358021E+02  0.11649729238E+02  0.93000000000E-01 0. -1.
         -3   -1    0    0    0  501 -0.00000000000E+00 -0.00000000000E+00 -0.33531475480E+03  0.33531476769E+03  0.93000000000E-01 0.  1.
         25    2    1    2    0    0  0.00000000000E+00  0.00000000000E+00 -0.32366539678E+03  0.34696449693E+03  0.12500029224E+03 0.  0.
        -11    1    3    3    0    0  0.34463417574E+02  0.38676427421E+02 -0.25889029642E+03  0.26402230733E+03  0.51100000000E-03 0.  1.
         11    1    3    3    0    0 -0.34463417574E+02 -0.38676427421E+02 -0.64775100355E+02  0.82942189597E+02  0.51100000000E-03 0. -1.
<mgrwt>
<rscale>  0 0.12500029E+03</rscale>
<asrwt>0</asrwt>
<pdfrwt beam="1">  1        3 0.17922387E-02 0.12500029E+03</pdfrwt>
<pdfrwt beam="2">  1       -3 0.51586908E-01 0.12500029E+03</pdfrwt>
<totfact> 0.94263762E+03</totfact>
</mgrwt>
</event>
<event>
 5    1  0.1787806E-056  0.1250015E+03  0.7818608E-02  0.1235067E+00
          3   -1    0    0  501    0  0.00000000000E+00  0.00000000000E+00  0.23147721768E+02  0.23147908589E+02  0.93000000000E-01 0. -1.
         -3   -1    0    0    0  501 -0.00000000000E+00 -0.00000000000E+00 -0.16875618747E+03  0.16875621309E+03  0.93000000000E-01 0.  1.
         25    2    1    2    0    0  0.00000000000E+00  0.00000000000E+00 -0.14560846570E+03  0.19190412168E+03  0.12500146653E+03 0.  0.
        -11    1    3    3    0    0  0.16532992906E+02  0.60183751807E+02 -0.77876909845E+02  0.99800986585E+02  0.51100000000E-03 0.  1.
         11    1    3    3    0    0 -0.16532992906E+02 -0.60183751807E+02 -0.67731555854E+02  0.92103135097E+02  0.51100000000E-03 0. -1.
<mgrwt>
<rscale>  0 0.12500147E+03</rscale>
<asrwt>0</asrwt>
<pdfrwt beam="1">  1        3 0.35612044E-02 0.12500147E+03</pdfrwt>
<pdfrwt beam="2">  1       -3 0.25962506E-01 0.12500147E+03</pdfrwt>
<totfact> 0.12132923E+04</totfact>
</mgrwt>
</event>
<event>
 5    1  0.1787806E-056  0.1249989E+03  0.7818608E-02  0.1235071E+00
          3   -1    0    0  501    0  0.00000000000E+00  0.00000000000E+00  0.61223387571E+01  0.61230450641E+01  0.93000000000E-01 0. -1.
         -3   -1    0    0    0  501 -0.00000000000E+00 -0.00000000000E+00 -0.63798350078E+03  0.63798350756E+03  0.93000000000E-01 0.  1.
         25    2    1    2    0    0  0.00000000000E+00  0.00000000000E+00 -0.63186116203E+03  0.64410655262E+03  0.12499889223E+03 0.  0.
        -11    1    3    3    0    0 -0.58255047009E+02 -0.20099814395E+02 -0.36961174201E+03  0.37471388134E+03  0.51100000000E-03 0.  1.
         11    1    3    3    0    0  0.58255047009E+02  0.20099814395E+02 -0.26224942002E+03  0.26939267128E+03  0.51100000000E-03 0. -1.
<mgrwt>
<rscale>  0 0.12499889E+03</rscale>
<asrwt>0</asrwt>
<pdfrwt beam="1">  1        3 0.94195363E-03 0.12499889E+03</pdfrwt>
<pdfrwt beam="2">  1       -3 0.98151310E-01 0.12499889E+03</pdfrwt>
<totfact> 0.63200442E+03</totfact>
</mgrwt>
</event>
<event>
 5    1  0.1787806E-056  0.1250052E+03  0.7818608E-02  0.1235061E+00
          3   -1    0    0  501    0  0.00000000000E+00  0.00000000000E+00  0.54401799017E+02  0.54401878509E+02  0.93000000000E-01 0. -1.
         -3   -1    0    0    0  501 -0.00000000000E+00 -0.00000000000E+00 -0.71809544667E+02  0.71809604889E+02  0.93000000000E-01 0.  1.
         25    2    1    2    0    0  0.00000000000E+00  0.00000000000E+00 -0.17407745650E+02  0.12621148340E+03  0.12500523562E+03 0.  0.
        -11    1    3    3    0    0 -0.23214163038E+02 -0.48006292801E+02 -0.41623337747E+02  0.67646165889E+02  0.51100000000E-03 0.  1.
         11    1    3    3    0    0  0.23214163038E+02  0.48006292801E+02  0.24215592097E+02  0.58565317509E+02  0.51100000000E-03 0. -1.
<mgrwt>
<rscale>  0 0.12500524E+03</rscale>
<asrwt>0</asrwt>
<pdfrwt beam="1">  1        3 0.83695182E-02 0.12500524E+03</pdfrwt>
<pdfrwt beam="2">  1       -3 0.11047633E-01 0.12500524E+03</pdfrwt>
<totfact> 0.13702380E+04</totfact>
</mgrwt>
</event>
<event>
 5    1  0.1787806E-056  0.1250002E+03  0.7818608E-02  0.1235069E+00
          3   -1    0    0  501    0  0.00000000000E+00  0.00000000000E+00  0.19771367156E+03  0.19771369343E+03  0.93000000000E-01 0. -1.
         -3   -1    0    0    0  501 -0.00000000000E+00 -0.00000000000E+00 -0.19757031698E+02  0.19757250580E+02  0.93000000000E-01 0.  1.
         25    2    1    2    0    0  0.00000000000E+00  0.00000000000E+00  0.17795663986E+03  0.21747094402E+03  0.12500018328E+03 0.  0.
        -11    1    3    3    0    0  0.68811423751E+01  0.61587871073E+02  0.10309568169E+03  0.12028771993E+03  0.51100000000E-03 0.  1.
         11    1    3    3    0    0 -0.68811423751E+01 -0.61587871073E+02  0.74860958180E+02  0.97183224085E+02  0.51100000000E-03 0. -1.
<mgrwt>
<rscale>  0 0.12500018E+03</rscale>
<asrwt>0</asrwt>
<pdfrwt beam="1">  1        3 0.30417508E-01 0.12500018E+03</pdfrwt>
<pdfrwt beam="2">  1       -3 0.30395617E-02 0.12500018E+03</pdfrwt>
<totfact> 0.11605192E+04</totfact>
</mgrwt>
</event>
<event>
 5    1  0.1787806E-056  0.1250044E+03  0.7818608E-02  0.1235062E+00
         -3   -1    0    0    0  501 -0.00000000000E+00  0.00000000000E+00  0.19567286539E+02  0.19567507544E+02  0.93000000000E-01 0.  1.
          3   -1    0    0  501    0  0.00000000000E+00 -0.00000000000E+00 -0.19964451955E+03  0.19964454121E+03  0.93000000000E-01 0. -1.
         25    2    1    2    0    0  0.00000000000E+00  0.00000000000E+00 -0.18007723301E+03  0.21921204875E+03  0.12500444980E+03 0.  0.
        -11    1    3    3    0    0 -0.30729275943E+02 -0.48850154249E+02 -0.47954976492E+02  0.75035363268E+02  0.51100000000E-03 0.  1.
         11    1    3    3    0    0  0.30729275943E+02  0.48850154249E+02 -0.13212225651E+03  0.14417668548E+03  0.51100000000E-03 0. -1.
<mgrwt>
<rscale>  0 0.12500445E+03</rscale>
<asrwt>0</asrwt>
<pdfrwt beam="2">  1        3 0.30714559E-01 0.12500445E+03</pdfrwt>
<pdfrwt beam="1">  1       -3 0.30103706E-02 0.12500445E+03</pdfrwt>
<totfact> 0.11569510E+04</totfact>
</mgrwt>
</event>
<event>
 5    1  0.1787806E-056  0.1250006E+03  0.7818608E-02  0.1235068E+00
         -3   -1    0    0    0  501 -0.00000000000E+00  0.00000000000E+00  0.32311121330E+03  0.32311122669E+03  0.93000000000E-01 0.  1.
          3   -1    0    0  501    0  0.00000000000E+00 -0.00000000000E+00 -0.12089422635E+02  0.12089780339E+02  0.93000000000E-01 0. -1.
         25    2    1    2    0    0  0.00000000000E+00  0.00000000000E+00  0.31102179067E+03  0.33520100703E+03  0.12500064336E+03 0.  0.
        -11    1    3    3    0    0  0.22939756412E+02 -0.54616462262E+02  0.20894800013E+03  0.21718300378E+03  0.51100000000E-03 0.  1.
         11    1    3    3    0    0 -0.22939756412E+02  0.54616462262E+02  0.10207379054E+03  0.11801800324E+03  0.51100000000E-03 0. -1.
<mgrwt>
<rscale>  0 0.12500064E+03</rscale>
<asrwt>0</asrwt>
<pdfrwt beam="2">  1        3 0.18599397E-02 0.12500064E+03</pdfrwt>
<pdfrwt beam="1">  1       -3 0.49709446E-01 0.12500064E+03</pdfrwt>
<totfact> 0.95957751E+03</totfact>
</mgrwt>
</event>
<event>
 5    1  0.1787806E-056  0.1249986E+03  0.7818608E-02  0.1235071E+00
          3   -1    0    0  501    0  0.00000000000E+00  0.00000000000E+00  0.55209077952E+02  0.55209156282E+02  0.93000000000E-01 0.  1.
         -3   -1    0    0    0  501 -0.00000000000E+00 -0.00000000000E+00 -0.70752054450E+02  0.70752115572E+02  0.93000000000E-01 0. -1.
         25    2    1    2    0    0  0.00000000000E+00  0.00000000000E+00 -0.15542976498E+02  0.12596127185E+03  0.12499863155E+03 0.  0.
        -11    1    3    3    0    0  0.50898902133E+02  0.34208477285E+02 -0.19916119719E+02  0.64479221315E+02  0.51100000000E-03 0. -1.
         11    1    3    3    0    0 -0.50898902133E+02 -0.34208477285E+02  0.43731432209E+01  0.61482050538E+02  0.51100000000E-03 0.  1.
<mgrwt>
<rscale>  0 0.12499863E+03</rscale>
<asrwt>0</asrwt>
<pdfrwt beam="1">  1        3 0.84937150E-02 0.12499863E+03</pdfrwt>
<pdfrwt beam="2">  1       -3 0.10884942E-01 0.12499863E+03</pdfrwt>
<totfact> 0.13711122E+04</totfact>
</mgrwt>
</event>
<event>
 5    1  0.1787806E-056  0.1250019E+03  0.7818608E-02  0.1235066E+00
         -3   -1    0    0    0  501 -0.00000000000E+00  0.00000000000E+00  0.21150176948E+02  0.21150381413E+02  0.93000000000E-01 0.  1.
          3   -1    0    0  501    0  0.00000000000E+00 -0.00000000000E+00 -0.18469570572E+03  0.18469572913E+03  0.93000000000E-01 0. -1.
         25    2    1    2    0    0  0.00000000000E+00  0.00000000000E+00 -0.16354552877E+03  0.20584611054E+03  0.12500192497E+03 0.  0.
        -11    1    3    3    0    0 -0.51762459159E+01 -0.35964187968E+02  0.19711300525E+01  0.36388208144E+02  0.51100000000E-03 0.  1.
         11    1    3    3    0    0  0.51762459159E+01  0.35964187968E+02 -0.16551665882E+03  0.16945790240E+03  0.51100000000E-03 0. -1.
<mgrwt>
<rscale>  0 0.12500192E+03</rscale>
<asrwt>0</asrwt>
<pdfrwt beam="2">  1        3 0.28414741E-01 0.12500192E+03</pdfrwt>
<pdfrwt beam="1">  1       -3 0.32538910E-02 0.12500192E+03</pdfrwt>
<totfact> 0.11840198E+04</totfact>
</mgrwt>
</event>
<event>
 4    1  0.1787806E-056  0.1251574E+03  0.7818608E-02  0.1234824E+00
         -3   -1    0    0    0  501 -0.00000000000E+00  0.00000000000E+00  0.18456722308E+02  0.18456956612E+02  0.93000000000E-01 0.  1.
          3   -1    0    0  501    0  0.00000000000E+00 -0.00000000000E+00 -0.21217548483E+03  0.21217550521E+03  0.93000000000E-01 0. -1.
        -11    1    1    2    0    0 -0.92343539363E+01  0.45947344990E+02 -0.20443185595E+02  0.51130770010E+02  0.51100000000E-03 0.  1.
         11    1    1    2    0    0  0.92343539363E+01 -0.45947344990E+02 -0.17327557693E+03  0.17950169181E+03  0.51100000000E-03 0. -1.
<mgrwt>
<rscale>  0 0.12515739E+03</rscale>
<asrwt>0</asrwt>
<pdfrwt beam="2">  1        3 0.32642400E-01 0.12515739E+03</pdfrwt>
<pdfrwt beam="1">  1       -3 0.28395155E-02 0.12515739E+03</pdfrwt>
<totfact> 0.11308187E+04</totfact>
</mgrwt>
</event>
<event>
 5    1  0.1787806E-056  0.1250004E+03  0.7818608E-02  0.1235069E+00
         -3   -1    0    0    0  501 -0.00000000000E+00  0.00000000000E+00  0.11348240994E+03  0.11348244805E+03  0.93000000000E-01 0.  1.
          3   -1    0    0  501    0  0.00000000000E+00 -0.00000000000E+00 -0.34421755264E+02  0.34421880896E+02  0.93000000000E-01 0. -1.
         25    2    1    2    0    0  0.00000000000E+00  0.00000000000E+00  0.79060654676E+02  0.14790432894E+03  0.12500041361E+03 0.  0.
        -11    1    3    3    0    0 -0.51818060718E+02  0.34220924951E+02  0.47904786763E+02  0.78428640917E+02  0.51100000000E-03 0.  1.
         11    1    3    3    0    0  0.51818060718E+02 -0.34220924951E+02  0.31155867913E+02  0.69475688027E+02  0.51100000000E-03 0. -1.
<mgrwt>
<rscale>  0 0.12500041E+03</rscale>
<asrwt>0</asrwt>
<pdfrwt beam="2">  1        3 0.52956672E-02 0.12500041E+03</pdfrwt>
<pdfrwt beam="1">  1       -3 0.17458845E-01 0.12500041E+03</pdfrwt>
<totfact> 0.13147246E+04</totfact>
</mgrwt>
</event>
<event>
 5    1  0.1787806E-056  0.1250007E+03  0.7818608E-02  0.1235068E+00
          3   -1    0    0  501    0  0.00000000000E+00  0.00000000000E+00  0.80357971100E+02  0.80358024915E+02  0.93000000000E-01 0. -1.
         -3   -1    0    0    0  501 -0.00000000000E+00 -0.00000000000E+00 -0.48611047212E+02  0.48611136173E+02  0.93000000000E-01 0.  1.
         25    2    1    2    0    0  0.00000000000E+00  0.00000000000E+00  0.31746923888E+02  0.12896916109E+03  0.12500070934E+03 0.  0.
        -11    1    3    3    0    0 -0.13367522329E+02  0.40533789754E+02  0.62980563758E+02  0.76080419140E+02  0.51100000000E-03 0. -1.
         11    1    3    3    0    0  0.13367522329E+02 -0.40533789754E+02 -0.31233639870E+02  0.52888741948E+02  0.51100000000E-03 0.  1.
<mgrwt>
<rscale>  0 0.12500071E+03</rscale>
<asrwt>0</asrwt>
<pdfrwt beam="1">  1        3 0.12362776E-01 0.12500071E+03</pdfrwt>
<pdfrwt beam="2">  1       -3 0.74786336E-02 0.12500071E+03</pdfrwt>
<totfact> 0.13630595E+04</totfact>
</mgrwt>
</event>
<event>
 5    1  0.2018630E-056  0.1250002E+03  0.7818608E-02  0.1235069E+00
         -3   -1    0    0    0  501 -0.00000000000E+00  0.00000000000E+00  0.71912786624E+02  0.71912846759E+02  0.93000000000E-01 0.  1.
          3   -1    0    0  501    0  0.00000000000E+00 -0.00000000000E+00 -0.54319346032E+02  0.54319425644E+02  0.93000000000E-01 0. -1.
         25    2    1    2    0    0  0.00000000000E+00  0.00000000000E+00  0.17593440592E+02  0.12623227240E+03  0.12500022978E+03 0.  0.
        -11    1    3    3    0    0 -0.38067098553E+02 -0.10631667643E+02  0.57690121713E+02  0.69930583385E+02  0.51100000000E-03 0.  1.
         11    1    3    3    0    0  0.38067098553E+02  0.10631667643E+02 -0.40096681121E+02  0.56301689018E+02  0.51100000000E-03 0. -1.
<mgrwt>
<rscale>  0 0.12500023E+03</rscale>
<asrwt>0</asrwt>
<pdfrwt beam="2">  1        3 0.83568333E-02 0.12500023E+03</pdfrwt>
<pdfrwt beam="1">  1       -3 0.11063516E-01 0.12500023E+03</pdfrwt>
<totfact> 0.13703371E+04</totfact>
</mgrwt>
</event>
<event>
 5    1  0.1787806E-056  0.1249982E+03  0.7818608E-02  0.1235072E+00
          3   -1    0    0  501    0  0.00000000000E+00  0.00000000000E+00  0.17487553432E+03  0.17487555905E+03  0.93000000000E-01 0. -1.
         -3   -1    0    0    0  501 -0.00000000000E+00 -0.00000000000E+00 -0.22336555953E+02  0.22336749558E+02  0.93000000000E-01 0.  1.
         25    2    1    2    0    0  0.00000000000E+00  0.00000000000E+00  0.15253897837E+03  0.19721230861E+03  0.12499821897E+03 0.  0.
        -11    1    3    3    0    0 -0.27043265174E+02  0.51945495390E+02  0.41830836601E+02  0.71968684673E+02  0.51100000000E-03 0.  1.
         11    1    3    3    0    0  0.27043265174E+02 -0.51945495390E+02  0.11070814177E+03  0.12524362393E+03  0.51100000000E-03 0. -1.
<mgrwt>
<rscale>  0 0.12499822E+03</rscale>
<asrwt>0</asrwt>
<pdfrwt beam="1">  1        3 0.26903946E-01 0.12499822E+03</pdfrwt>
<pdfrwt beam="2">  1       -3 0.34364100E-02 0.12499822E+03</pdfrwt>
<totfact> 0.12021383E+04</totfact>
</mgrwt>
</event>
<event>
 5    1  0.1787806E-056  0.1250006E+03  0.7818608E-02  0.1235068E+00
          3   -1    0    0  501    0  0.00000000000E+00  0.00000000000E+00  0.15250127406E+03  0.15250130242E+03  0.93000000000E-01 0. -1.
         -3   -1    0    0    0  501 -0.00000000000E+00 -0.00000000000E+00 -0.25614690674E+02  0.25614859503E+02  0.93000000000E-01 0.  1.
         25    2    1    2    0    0  0.00000000000E+00  0.00000000000E+00  0.12688658339E+03  0.17811616192E+03  0.12500064837E+03 0.  0.
        -11    1    3    3    0    0  0.16258992451E+02  0.57479262580E+02  0.89642877081E+02  0.10772216983E+03  0.51100000000E-03 0. -1.
         11    1    3    3    0    0 -0.16258992451E+02 -0.57479262580E+02  0.37243706307E+02  0.70393992088E+02  0.51100000000E-03 0.  1.
<mgrwt>
<rscale>  0 0.12500065E+03</rscale>
<asrwt>0</asrwt>
<pdfrwt beam="1">  1        3 0.23461750E-01 0.12500065E+03</pdfrwt>
<pdfrwt beam="2">  1       -3 0.39407368E-02 0.12500065E+03</pdfrwt>
<totfact> 0.12436059E+04</totfact>
</mgrwt>
</event>
<event>
 5    1  0.1787806E-056  0.1249980E+03  0.7818608E-02  0.1235072E+00
         -3   -1    0    0    0  501 -0.00000000000E+00  0.00000000000E+00  0.46860575847E+02  0.46860668131E+02  0.93000000000E-01 0.  1.
          3   -1    0    0  501    0  0.00000000000E+00 -0.00000000000E+00 -0.83356145711E+02  0.83356197591E+02  0.93000000000E-01 0. -1.
         25    2    1    2    0    0  0.00000000000E+00  0.00000000000E+00 -0.36495569864E+02  0.13021686572E+03  0.12499802198E+03 0.  0.
        -11    1    3    3    0    0  0.29728063281E+02 -0.49277339905E+02  0.71443025459E+01  0.57991853166E+02  0.51100000000E-03 0.  1.
         11    1    3    3    0    0 -0.29728063281E+02  0.49277339905E+02 -0.43639872410E+02  0.72225012556E+02  0.51100000000E-03 0. -1.
<mgrwt>
<rscale>  0 0.12499802E+03</rscale>
<asrwt>0</asrwt>
<pdfrwt beam="2">  1        3 0.12824033E-01 0.12499802E+03</pdfrwt>
<pdfrwt beam="1">  1       -3 0.72093305E-02 0.12499802E+03</pdfrwt>
<totfact> 0.13598699E+04</totfact>
</mgrwt>
</event>
<event>
 5    1  0.1787806E-056  0.1250035E+03  0.7818608E-02  0.1235064E+00
         -3   -1    0    0    0  501 -0.00000000000E+00  0.00000000000E+00  0.60625177901E+02  0.60625249233E+02  0.93000000000E-01 0.  1.
          3   -1    0    0  501    0  0.00000000000E+00 -0.00000000000E+00 -0.64436244662E+02  0.64436311775E+02  0.93000000000E-01 0. -1.
         25    2    1    2    0    0  0.00000000000E+00  0.00000000000E+00 -0.38110667610E+01  0.12506156101E+03  0.12500347920E+03 0.  0.
        -11    1    3    3    0    0 -0.46540808225E+02 -0.16682344436E+02  0.36349911273E+02  0.61365002207E+02  0.51100000000E-03 0.  1.
         11    1    3    3    0    0  0.46540808225E+02  0.16682344436E+02 -0.40160978034E+02  0.63696558800E+02  0.51100000000E-03 0. -1.
<mgrwt>
<rscale>  0 0.12500348E+03</rscale>
<asrwt>0</asrwt>
<pdfrwt beam="2">  1        3 0.99132790E-02 0.12500348E+03</pdfrwt>
<pdfrwt beam="1">  1       -3 0.93269611E-02 0.12500348E+03</pdfrwt>
<totfact> 0.13733699E+04</totfact>
</mgrwt>
</event>
<event>
 5    1  0.1787806E-056  0.1250010E+03  0.7818608E-02  0.1235068E+00
          3   -1    0    0  501    0  0.00000000000E+00  0.00000000000E+00  0.19456428624E+03  0.19456430847E+03  0.93000000000E-01 0.  1.
         -3   -1    0    0    0  501 -0.00000000000E+00 -0.00000000000E+00 -0.20077091196E+02  0.20077306590E+02  0.93000000000E-01 0. -1.
         25    2    1    2    0    0  0.00000000000E+00  0.00000000000E+00  0.17448719505E+03  0.21464161506E+03  0.12500096672E+03 0.  0.
        -11    1    3    3    0    0 -0.56353130090E+02 -0.18510054718E+02  0.53419695553E+02  0.79824565579E+02  0.51100000000E-03 0. -1.
         11    1    3    3    0    0  0.56353130090E+02  0.18510054718E+02  0.12106749949E+03  0.13481704948E+03  0.51100000000E-03 0.  1.
<mgrwt>
<rscale>  0 0.12500097E+03</rscale>
<asrwt>0</asrwt>
<pdfrwt beam="1">  1        3 0.29932984E-01 0.12500097E+03</pdfrwt>
<pdfrwt beam="2">  1       -3 0.30888017E-02 0.12500097E+03</pdfrwt>
<totfact> 0.11661553E+04</totfact>
</mgrwt>
</event>
<event>
 5    1  0.1787806E-056  0.1250008E+03  0.7818608E-02  0.1235068E+00
         -3   -1    0    0    0  501 -0.00000000000E+00  0.00000000000E+00  0.31381994342E+02  0.31382132144E+02  0.93000000000E-01 0.  1.
          3   -1    0    0  501    0  0.00000000000E+00 -0.00000000000E+00 -0.12447531715E+03  0.12447535189E+03  0.93000000000E-01 0. -1.
         25    2    1    2    0    0  0.00000000000E+00  0.00000000000E+00 -0.93093322811E+02  0.15585748404E+03  0.12500075431E+03 0.  0.
        -11    1    3    3    0    0 -0.61699914626E+02  0.86761975401E+01 -0.52672917348E+02  0.81587940842E+02  0.51100000000E-03 0. -1.
         11    1    3    3    0    0  0.61699914626E+02 -0.86761975401E+01 -0.40420405463E+02  0.74269543197E+02  0.51100000000E-03 0.  1.
<mgrwt>
<rscale>  0 0.12500075E+03</rscale>
<asrwt>0</asrwt>
<pdfrwt beam="2">  1        3 0.19150062E-01 0.12500075E+03</pdfrwt>
<pdfrwt beam="1">  1       -3 0.48280125E-02 0.12500075E+03</pdfrwt>
<totfact> 0.12953200E+04</totfact>
</mgrwt>
</event>
<event>
 5    1  0.1787806E-056  0.1249994E+03  0.7818608E-02  0.1235070E+00
         -3   -1    0    0    0  501 -0.00000000000E+00  0.00000000000E+00  0.14560453924E+02  0.14560750924E+02  0.93000000000E-01 0.  1.
          3   -1    0    0  501    0  0.00000000000E+00 -0.00000000000E+00 -0.26827254087E+03  0.26827255699E+03  0.93000000000E-01 0. -1.
         25    2    1    2    0    0  0.00000000000E+00  0.00000000000E+00 -0.25371208694E+03  0.28283330791E+03  0.12499942801E+03 0.  0.
        -11    1    3    3    0    0  0.41020164907E+02 -0.10446083350E+02 -0.22811292352E+02  0.48084609237E+02  0.51100000000E-03 0.  1.
         11    1    3    3    0    0 -0.41020164907E+02  0.10446083350E+02 -0.23090079459E+03  0.23474869867E+03  0.51100000000E-03 0. -1.
<mgrwt>
<rscale>  0 0.12499943E+03</rscale>
<asrwt>0</asrwt>
<pdfrwt beam="2">  1        3 0.41272719E-01 0.12499943E+03</pdfrwt>
<pdfrwt beam="1">  1       -3 0.22400941E-02 0.12499943E+03</pdfrwt>
<totfact> 0.10416131E+04</totfact>
</mgrwt>
</event>
<event>
 5    1  0.1787806E-056  0.1249999E+03  0.7818608E-02  0.1235069E+00
         -3   -1    0    0    0  501 -0.00000000000E+00  0.00000000000E+00  0.18756135384E+02  0.18756365947E+02  0.93000000000E-01 0.  1.
          3   -1    0    0  501    0  0.00000000000E+00 -0.00000000000E+00 -0.20826349105E+03  0.20826351182E+03  0.93000000000E-01 0. -1.
         25    2    1    2    0    0  0.00000000000E+00  0.00000000000E+00 -0.18950735567E+03  0.22701987776E+03  0.12499994819E+03 0.  0.
        -11    1    3    3    0    0 -0.16203491329E+01  0.50531770605E+02 -0.28019718137E+02  0.57803027399E+02  0.51100000000E-03 0.  1.
         11    1    3    3    0    0  0.16203491329E+01 -0.50531770605E+02 -0.16148763753E+03  0.16921685036E+03  0.51100000000E-03 0. -1.
<mgrwt>
<rscale>  0 0.12499995E+03</rscale>
<asrwt>0</asrwt>
<pdfrwt beam="2">  1        3 0.32040555E-01 0.12499995E+03</pdfrwt>
<pdfrwt beam="1">  1       -3 0.28855788E-02 0.12499995E+03</pdfrwt>
<totfact> 0.11417723E+04</totfact>
</mgrwt>
</event>
<event>
 5    1  0.1787806E-056  0.1250083E+03  0.7818608E-02  0.1235056E+00
          3   -1    0    0  501    0  0.00000000000E+00  0.00000000000E+00  0.23420895775E+02  0.23421080417E+02  0.93000000000E-01 0. -1.
         -3   -1    0    0    0  501 -0.00000000000E+00 -0.00000000000E+00 -0.16680621651E+03  0.16680624243E+03  0.93000000000E-01 0.  1.
         25    2    1    2    0    0  0.00000000000E+00  0.00000000000E+00 -0.14338532073E+03  0.19022732285E+03  0.12500833635E+03 0.  0.
        -11    1    3    3    0    0 -0.43015805553E+02  0.40625109234E+02 -0.41030456883E+02  0.72001787616E+02  0.51100000000E-03 0. -1.
         11    1    3    3    0    0  0.43015805553E+02 -0.40625109234E+02 -0.10235486385E+03  0.11822553524E+03  0.51100000000E-03 0.  1.
<mgrwt>
<rscale>  0 0.12500834E+03</rscale>
<asrwt>0</asrwt>
<pdfrwt beam="1">  1        3 0.36032310E-02 0.12500834E+03</pdfrwt>
<pdfrwt beam="2">  1       -3 0.25662510E-01 0.12500834E+03</pdfrwt>
<totfact> 0.12167154E+04</totfact>
</mgrwt>
</event>
<event>
 5    1  0.1787806E-056  0.1250013E+03  0.7818608E-02  0.1235067E+00
          3   -1    0    0  501    0  0.00000000000E+00  0.00000000000E+00  0.46146307614E+02  0.46146401327E+02  0.93000000000E-01 0. -1.
         -3   -1    0    0    0  501 -0.00000000000E+00 -0.00000000000E+00 -0.84650857122E+02  0.84650908208E+02  0.93000000000E-01 0.  1.
         25    2    1    2    0    0  0.00000000000E+00  0.00000000000E+00 -0.38504549508E+02  0.13079730954E+03  0.12500134339E+03 0.  0.
        -11    1    3    3    0    0  0.52921598922E+02  0.11244094555E+02 -0.51995522549E+02  0.75037721582E+02  0.51100000000E-03 0.  1.
         11    1    3    3    0    0 -0.52921598922E+02 -0.11244094555E+02  0.13490973041E+02  0.55759587953E+02  0.51100000000E-03 0. -1.
<mgrwt>
<rscale>  0 0.12500134E+03</rscale>
<asrwt>0</asrwt>
<pdfrwt beam="1">  1        3 0.70994431E-02 0.12500134E+03</pdfrwt>
<pdfrwt beam="2">  1       -3 0.13023220E-01 0.12500134E+03</pdfrwt>
<totfact> 0.13582631E+04</totfact>
</mgrwt>
</event>
<event>
 5    1  0.1787806E-056  0.1250004E+03  0.7818608E-02  0.1235069E+00
         -3   -1    0    0    0  501 -0.00000000000E+00  0.00000000000E+00  0.32978107046E+02  0.32978238178E+02  0.93000000000E-01 0.  1.
          3   -1    0    0  501    0  0.00000000000E+00 -0.00000000000E+00 -0.11845017496E+03  0.11845021146E+03  0.93000000000E-01 0. -1.
         25    2    1    2    0    0  0.00000000000E+00  0.00000000000E+00 -0.85472067910E+02  0.15142844964E+03  0.12500040387E+03 0.  0.
        -11    1    3    3    0    0 -0.26363790543E+02 -0.56282349569E+02 -0.34744041645E+02  0.71203235564E+02  0.51100000000E-03 0. -1.
         11    1    3    3    0    0  0.26363790543E+02  0.56282349569E+02 -0.50728026265E+02  0.80225214078E+02  0.51100000000E-03 0.  1.
<mgrwt>
<rscale>  0 0.12500040E+03</rscale>
<asrwt>0</asrwt>
<pdfrwt beam="2">  1        3 0.18223116E-01 0.12500040E+03</pdfrwt>
<pdfrwt beam="1">  1       -3 0.50735679E-02 0.12500040E+03</pdfrwt>
<totfact> 0.13060639E+04</totfact>
</mgrwt>
</event>
<event>
 5    1  0.1787806E-056  0.1249990E+03  0.7818608E-02  0.1235071E+00
          3   -1    0    0  501    0  0.00000000000E+00  0.00000000000E+00  0.97303344040E+02  0.97303388484E+02  0.93000000000E-01 0. -1.
         -3   -1    0    0    0  501 -0.00000000000E+00 -0.00000000000E+00 -0.40144315541E+02  0.40144423265E+02  0.93000000000E-01 0.  1.
         25    2    1    2    0    0  0.00000000000E+00  0.00000000000E+00  0.57159028499E+02  0.13744781175E+03  0.12499898566E+03 0.  0.
        -11    1    3    3    0    0  0.31352929998E+02 -0.34710377306E+02  0.74161127693E+02  0.87679469508E+02  0.51100000000E-03 0. -1.
         11    1    3    3    0    0 -0.31352929998E+02  0.34710377306E+02 -0.17002099194E+02  0.49768342241E+02  0.51100000000E-03 0.  1.
<mgrwt>
<rscale>  0 0.12499899E+03</rscale>
<asrwt>0</asrwt>
<pdfrwt beam="1">  1        3 0.14969757E-01 0.12499899E+03</pdfrwt>
<pdfrwt beam="2">  1       -3 0.61760603E-02 0.12499899E+03</pdfrwt>
<totfact> 0.13410763E+04</totfact>
</mgrwt>
</event>
<event>
 5    1  0.1787806E-056  0.1250017E+03  0.7818608E-02  0.1235067E+00
         -3   -1    0    0    0  501 -0.00000000000E+00  0.00000000000E+00  0.10893999946E+02  0.10894396900E+02  0.93000000000E-01 0.  1.
          3   -1    0    0  501    0  0.00000000000E+00 -0.00000000000E+00 -0.35857173837E+03  0.35857175043E+03  0.93000000000E-01 0. -1.
         25    2    1    2    0    0  0.00000000000E+00  0.00000000000E+00 -0.34767773843E+03  0.36946614733E+03  0.12500169690E+03 0.  0.
        -11    1    3    3    0    0  0.25424423186E+02  0.56961370377E+02 -0.18542164369E+03  0.19563278089E+03  0.51100000000E-03 0.  1.
         11    1    3    3    0    0 -0.25424423186E+02 -0.56961370377E+02 -0.16225609473E+03  0.17383336644E+03  0.51100000000E-03 0. -1.
<mgrwt>
<rscale>  0 0.12500170E+03</rscale>
<asrwt>0</asrwt>
<pdfrwt beam="2">  1        3 0.55164905E-01 0.12500170E+03</pdfrwt>
<pdfrwt beam="1">  1       -3 0.16760317E-02 0.12500170E+03</pdfrwt>
<totfact> 0.91202744E+03</totfact>
</mgrwt>
</event>
<event>
 5    1  0.1787806E-056  0.1250011E+03  0.7818608E-02  0.1235068E+00
          3   -1    0    0  501    0  0.00000000000E+00  0.00000000000E+00  0.37359569531E+02  0.37359685284E+02  0.93000000000E-01 0. -1.
         -3   -1    0    0    0  501 -0.00000000000E+00 -0.00000000000E+00 -0.10455972312E+03  0.10455976448E+03  0.93000000000E-01 0.  1.
         25    2    1    2    0    0  0.00000000000E+00  0.00000000000E+00 -0.67200153590E+02  0.14191944976E+03  0.12500107831E+03 0.  0.
        -11    1    3    3    0    0 -0.51243140419E+02  0.20906114335E+02 -0.66571901698E+02  0.86572184635E+02  0.51100000000E-03 0.  1.
         11    1    3    3    0    0  0.51243140419E+02 -0.20906114335E+02 -0.62825189220E+00  0.55347265129E+02  0.51100000000E-03 0. -1.
<mgrwt>
<rscale>  0 0.12500108E+03</rscale>
<asrwt>0</asrwt>
<pdfrwt beam="1">  1        3 0.57476382E-02 0.12500108E+03</pdfrwt>
<pdfrwt beam="2">  1       -3 0.16086123E-01 0.12500108E+03</pdfrwt>
<totfact> 0.13296488E+04</totfact>
</mgrwt>
</event>
<event>
 5    1  0.1787806E-056  0.1250013E+03  0.7818608E-02  0.1235067E+00
          3   -1    0    0  501    0  0.00000000000E+00  0.00000000000E+00  0.11121065866E+03  0.11121069755E+03  0.93000000000E-01 0. -1.
         -3   -1    0    0    0  501 -0.00000000000E+00 -0.00000000000E+00 -0.35125398861E+02  0.35125521977E+02  0.93000000000E-01 0.  1.
         25    2    1    2    0    0  0.00000000000E+00  0.00000000000E+00  0.76085259799E+02  0.14633621952E+03  0.12500128954E+03 0.  0.
        -11    1    3    3    0    0  0.18158968466E+02 -0.59802933675E+02  0.37530220351E+02  0.72901690322E+02  0.51100000000E-03 0.  1.
         11    1    3    3    0    0 -0.18158968466E+02  0.59802933675E+02  0.38555039448E+02  0.73434529201E+02  0.51100000000E-03 0. -1.
<mgrwt>
<rscale>  0 0.12500129E+03</rscale>
<asrwt>0</asrwt>
<pdfrwt beam="1">  1        3 0.17109344E-01 0.12500129E+03</pdfrwt>
<pdfrwt beam="2">  1       -3 0.54039201E-02 0.12500129E+03</pdfrwt>
<totfact> 0.13185668E+04</totfact>
</mgrwt>
</event>
<event>
 5    1  0.1787806E-056  0.1250058E+03  0.7818608E-02  0.1235060E+00
          3   -1    0    0  501    0  0.00000000000E+00  0.00000000000E+00  0.15557814513E+03  0.15557817293E+03  0.93000000000E-01 0. -1.
         -3   -1    0    0    0  501 -0.00000000000E+00 -0.00000000000E+00 -0.25110158053E+02  0.25110330273E+02  0.93000000000E-01 0.  1.
         25    2    1    2    0    0  0.00000000000E+00  0.00000000000E+00  0.13046798708E+03  0.18068850320E+03  0.12500575801E+03 0.  0.
        -11    1    3    3    0    0 -0.61984469715E+02  0.14423417923E+01  0.53810885712E+02  0.82096079426E+02  0.51100000000E-03 0. -1.
         11    1    3    3    0    0  0.61984469715E+02 -0.14423417923E+01  0.76657101367E+02  0.98592423776E+02  0.51100000000E-03 0.  1.
<mgrwt>
<rscale>  0 0.12500576E+03</rscale>
<asrwt>0</asrwt>
<pdfrwt beam="1">  1        3 0.23935115E-01 0.12500576E+03</pdfrwt>
<pdfrwt beam="2">  1       -3 0.38631166E-02 0.12500576E+03</pdfrwt>
<totfact> 0.12377215E+04</totfact>
</mgrwt>
</event>
<event>
 5    1  0.1787806E-056  0.1250001E+03  0.7818608E-02  0.1235069E+00
         -3   -1    0    0    0  501 -0.00000000000E+00  0.00000000000E+00  0.11960061993E+03  0.11960065609E+03  0.93000000000E-01 0.  1.
          3   -1    0    0  501    0  0.00000000000E+00 -0.00000000000E+00 -0.32660708486E+02  0.32660840893E+02  0.93000000000E-01 0. -1.
         25    2    1    2    0    0  0.00000000000E+00  0.00000000000E+00  0.86939911445E+02  0.15226149698E+03  0.12500006104E+03 0.  0.
        -11    1    3    3    0    0  0.49995938019E+02  0.85494003535E+01  0.87952273915E+02  0.10152974220E+03  0.51100000000E-03 0.  1.
         11    1    3    3    0    0 -0.49995938019E+02 -0.85494003535E+01 -0.10123624696E+01  0.50731754778E+02  0.51100000000E-03 0. -1.
<mgrwt>
<rscale>  0 0.12500006E+03</rscale>
<asrwt>0</asrwt>
<pdfrwt beam="2">  1        3 0.50247373E-02 0.12500006E+03</pdfrwt>
<pdfrwt beam="1">  1       -3 0.18400109E-01 0.12500006E+03</pdfrwt>
<totfact> 0.13040562E+04</totfact>
</mgrwt>
</event>
<event>
 5    1  0.1787806E-056  0.1250064E+03  0.7818608E-02  0.1235059E+00
          3   -1    0    0  501    0  0.00000000000E+00  0.00000000000E+00  0.31632642055E+02  0.31632778765E+02  0.93000000000E-01 0. -1.
         -3   -1    0    0    0  501 -0.00000000000E+00 -0.00000000000E+00 -0.12350023368E+03  0.12350026869E+03  0.93000000000E-01 0.  1.
         25    2    1    2    0    0  0.00000000000E+00  0.00000000000E+00 -0.91867591620E+02  0.15513304746E+03  0.12500643193E+03 0.  0.
        -11    1    3    3    0    0 -0.59488724315E+02 -0.26018656522E+01 -0.69511955981E+02  0.91529175950E+02  0.51100000000E-03 0.  1.
         11    1    3    3    0    0  0.59488724315E+02  0.26018656522E+01 -0.22355635639E+02  0.63603871506E+02  0.51100000000E-03 0. -1.
<mgrwt>
<rscale>  0 0.12500643E+03</rscale>
<asrwt>0</asrwt>
<pdfrwt beam="1">  1        3 0.48665736E-02 0.12500643E+03</pdfrwt>
<pdfrwt beam="2">  1       -3 0.19000049E-01 0.12500643E+03</pdfrwt>
<totfact> 0.12969095E+04</totfact>
</mgrwt>
</event>
<event>
 5    1  0.1787806E-056  0.1249985E+03  0.7818608E-02  0.1235072E+00
         -3   -1    0    0    0  501 -0.00000000000E+00  0.00000000000E+00  0.28561475732E+03  0.28561477246E+03  0.93000000000E-01 0.  1.
          3   -1    0    0  501    0  0.00000000000E+00 -0.00000000000E+00 -0.13676137890E+02  0.13676454094E+02  0.93000000000E-01 0. -1.
         25    2    1    2    0    0  0.00000000000E+00  0.00000000000E+00  0.27193861943E+03  0.29929122655E+03  0.12499850221E+03 0.  0.
        -11    1    3    3    0    0  0.51600749773E+02 -0.59407881201E+01  0.21919612455E+03  0.22526622330E+03  0.51100000000E-03 0.  1.
         11    1    3    3    0    0 -0.51600749773E+02  0.59407881201E+01  0.52742494876E+02  0.74025003253E+02  0.51100000000E-03 0. -1.
<mgrwt>
<rscale>  0 0.12499850E+03</rscale>
<asrwt>0</asrwt>
<pdfrwt beam="2">  1        3 0.21040465E-02 0.12499850E+03</pdfrwt>
<pdfrwt beam="1">  1       -3 0.43940761E-01 0.12499850E+03</pdfrwt>
<totfact> 0.10144927E+04</totfact>
</mgrwt>
</event>
<event>
 5    1  0.1787806E-056  0.1249992E+03  0.7818608E-02  0.1235070E+00
         -3   -1    0    0    0  501 -0.00000000000E+00  0.00000000000E+00  0.29175979392E+03  0.29175980874E+03  0.93000000000E-01 0.  1.
          3   -1    0    0  501    0  0.00000000000E+00 -0.00000000000E+00 -0.13388243697E+02  0.13388566701E+02  0.93000000000E-01 0. -1.
         25    2    1    2    0    0  0.00000000000E+00  0.00000000000E+00  0.27837155022E+03  0.30514837544E+03  0.12499924425E+03 0.  0.
        -11    1    3    3    0    0  0.17142331170E+02  0.53098535500E+02  0.20792581974E+03  0.21528228098E+03  0.51100000000E-03 0.  1.
         11    1    3    3    0    0 -0.17142331170E+02 -0.53098535500E+02  0.70445730487E+02  0.89866094464E+02  0.51100000000E-03 0. -1.
<mgrwt>
<rscale>  0 0.12499924E+03</rscale>
<asrwt>0</asrwt>
<pdfrwt beam="2">  1        3 0.20597559E-02 0.12499924E+03</pdfrwt>
<pdfrwt beam="1">  1       -3 0.44886145E-01 0.12499924E+03</pdfrwt>
<totfact> 0.10051896E+04</totfact>
</mgrwt>
</event>
<event>
 5    1  0.1787806E-056  0.1250017E+03  0.7818608E-02  0.1235067E+00
          3   -1    0    0  501    0  0.00000000000E+00  0.00000000000E+00  0.20675481511E+03  0.20675483603E+03  0.93000000000E-01 0. -1.
         -3   -1    0    0    0  501 -0.00000000000E+00 -0.00000000000E+00 -0.18893537789E+02  0.18893766675E+02  0.93000000000E-01 0.  1.
         25    2    1    2    0    0  0.00000000000E+00  0.00000000000E+00  0.18786127732E+03  0.22564860270E+03  0.12500172953E+03 0.  0.
        -11    1    3    3    0    0 -0.36257607486E+02 -0.50906255749E+02  0.92946665627E+02  0.11200510536E+03  0.51100000000E-03 0.  1.
         11    1    3    3    0    0  0.36257607486E+02  0.50906255749E+02  0.94914611696E+02  0.11364349734E+03  0.51100000000E-03 0. -1.
<mgrwt>
<rscale>  0 0.12500173E+03</rscale>
<asrwt>0</asrwt>
<pdfrwt beam="1">  1        3 0.31808455E-01 0.12500173E+03</pdfrwt>
<pdfrwt beam="2">  1       -3 0.29067171E-02 0.12500173E+03</pdfrwt>
<totfact> 0.11443898E+04</totfact>
</mgrwt>
</event>
<event>
 5    1  0.1787806E-056  0.1249991E+03  0.7818608E-02  0.1235071E+00
         -3   -1    0    0    0  501 -0.00000000000E+00  0.00000000000E+00  0.30298540581E+02  0.30298683310E+02  0.93000000000E-01 0. -1.
          3   -1    0    0  501    0  0.00000000000E+00 -0.00000000000E+00 -0.12892308434E+03  0.12892311789E+03  0.93000000000E-01 0.  1.
         25    2    1    2    0    0  0.00000000000E+00  0.00000000000E+00 -0.98624543764E+02  0.15922180120E+03  0.12499912537E+03 0.  0.
        -11    1    3    3    0    0 -0.48506936204E+02  0.34225525406E+02 -0.24420124570E+02  0.64192304317E+02  0.51100000000E-03 0. -1.
         11    1    3    3    0    0  0.48506936204E+02 -0.34225525406E+02 -0.74204419194E+02  0.95029496881E+02  0.51100000000E-03 0.  1.
<mgrwt>
<rscale>  0 0.12499913E+03</rscale>
<asrwt>0</asrwt>
<pdfrwt beam="2">  1        3 0.19834334E-01 0.12499913E+03</pdfrwt>
<pdfrwt beam="1">  1       -3 0.46613276E-02 0.12499913E+03</pdfrwt>
<totfact> 0.12873066E+04</totfact>
</mgrwt>
</event>
<event>
 5    1  0.1787806E-056  0.1249859E+03  0.7818608E-02  0.1235091E+00
          3   -1    0    0  501    0  0.00000000000E+00  0.00000000000E+00  0.41507784184E+02  0.41507888369E+02  0.93000000000E-01 0.  1.
         -3   -1    0    0    0  501 -0.00000000000E+00 -0.00000000000E+00 -0.94087418651E+02  0.94087464614E+02  0.93000000000E-01 0. -1.
         25    2    1    2    0    0  0.00000000000E+00  0.00000000000E+00 -0.52579634468E+02  0.13559535298E+03  0.12498592637E+03 0.  0.
        -11    1    3    3    0    0  0.55859060802E+02 -0.27645466764E+02 -0.31245253150E+02  0.69719239461E+02  0.51100000000E-03 0. -1.
         11    1    3    3    0    0 -0.55859060802E+02  0.27645466764E+02 -0.21334381318E+02  0.65876113522E+02  0.51100000000E-03 0.  1.
<mgrwt>
<rscale>  0 0.12498593E+03</rscale>
<asrwt>0</asrwt>
<pdfrwt beam="1">  1        3 0.63858245E-02 0.12498593E+03</pdfrwt>
<pdfrwt beam="2">  1       -3 0.14474999E-01 0.12498593E+03</pdfrwt>
<totfact> 0.13462492E+04</totfact>
</mgrwt>
</event>
<event>
 4    1  0.1787806E-056  0.1250664E+03  0.7818608E-02  0.1234966E+00
          3   -1    0    0  501    0  0.00000000000E+00  0.00000000000E+00  0.95260913806E+02  0.95260959203E+02  0.93000000000E-01 0. -1.
         -3   -1    0    0    0  501 -0.00000000000E+00 -0.00000000000E+00 -0.41049274638E+02  0.41049379987E+02  0.93000000000E-01 0.  1.
        -11    1    1    2    0    0  0.61444899095E+02 -0.59247345781E+01  0.37995238173E+02  0.72485972635E+02  0.51100000000E-03 0.  1.
         11    1    1    2    0    0 -0.61444899095E+02  0.59247345781E+01  0.16216400995E+02  0.63824366555E+02  0.51100000000E-03 0. -1.
<mgrwt>
<rscale>  0 0.12506641E+03</rscale>
<asrwt>0</asrwt>
<pdfrwt beam="1">  1        3 0.14655537E-01 0.12506641E+03</pdfrwt>
<pdfrwt beam="2">  1       -3 0.63152846E-02 0.12506641E+03</pdfrwt>
<totfact> 0.13419521E+04</totfact>
</mgrwt>
</event>
<event>
 5    1  0.1787806E-056  0.1250117E+03  0.7818608E-02  0.1235051E+00
         -3   -1    0    0    0  501 -0.00000000000E+00  0.00000000000E+00  0.10475232396E+03  0.10475236524E+03  0.93000000000E-01 0.  1.
          3   -1    0    0  501    0  0.00000000000E+00 -0.00000000000E+00 -0.37297202370E+02  0.37297318317E+02  0.93000000000E-01 0. -1.
         25    2    1    2    0    0  0.00000000000E+00  0.00000000000E+00  0.67455121589E+02  0.14204968356E+03  0.12501167614E+03 0.  0.
        -11    1    3    3    0    0  0.26726310231E+02  0.46961983604E+02 -0.19754329563E+01  0.54070564064E+02  0.51100000000E-03 0.  1.
         11    1    3    3    0    0 -0.26726310231E+02 -0.46961983604E+02  0.69430554545E+02  0.87979119496E+02  0.51100000000E-03 0. -1.
<mgrwt>
<rscale>  0 0.12501168E+03</rscale>
<asrwt>0</asrwt>
<pdfrwt beam="2">  1        3 0.57380433E-02 0.12501168E+03</pdfrwt>
<pdfrwt beam="1">  1       -3 0.16115754E-01 0.12501168E+03</pdfrwt>
<totfact> 0.13290028E+04</totfact>
</mgrwt>
</event>
<event>
 5    1  0.1787806E-056  0.1250091E+03  0.7818608E-02  0.1235055E+00
          3   -1    0    0  501    0  0.00000000000E+00  0.00000000000E+00  0.30052318114E+02  0.30052462013E+02  0.93000000000E-01 0. -1.
         -3   -1    0    0    0  501 -0.00000000000E+00 -0.00000000000E+00 -0.13000007421E+03  0.13000010748E+03  0.93000000000E-01 0.  1.
         25    2    1    2    0    0  0.00000000000E+00  0.00000000000E+00 -0.99947756096E+02  0.16005256949E+03  0.12500908387E+03 0.  0.
        -11    1    3    3    0    0 -0.53252325614E+02 -0.12898859549E+02 -0.11465444604E+02  0.55978988747E+02  0.51100000000E-03 0. -1.
         11    1    3    3    0    0  0.53252325614E+02  0.12898859549E+02 -0.88482311492E+02  0.10407358074E+03  0.51100000000E-03 0.  1.
<mgrwt>
<rscale>  0 0.12500908E+03</rscale>
<asrwt>0</asrwt>
<pdfrwt beam="1">  1        3 0.46234473E-02 0.12500908E+03</pdfrwt>
<pdfrwt beam="2">  1       -3 0.20000025E-01 0.12500908E+03</pdfrwt>
<totfact> 0.12850436E+04</totfact>
</mgrwt>
</event>
<event>
 5    1  0.1787806E-056  0.1250077E+03  0.7818608E-02  0.1235057E+00
         -3   -1    0    0    0  501 -0.00000000000E+00  0.00000000000E+00  0.39844169449E+02  0.39844277984E+02  0.93000000000E-01 0.  1.
          3   -1    0    0  501    0  0.00000000000E+00 -0.00000000000E+00 -0.98050017343E+02  0.98050061448E+02  0.93000000000E-01 0. -1.
         25    2    1    2    0    0  0.00000000000E+00  0.00000000000E+00 -0.58205847893E+02  0.13789433943E+03  0.12500771224E+03 0.  0.
        -11    1    3    3    0    0  0.57007089042E+02 -0.10039667088E+02 -0.55116338908E+02  0.79927554268E+02  0.51100000000E-03 0. -1.
         11    1    3    3    0    0 -0.57007089042E+02  0.10039667088E+02 -0.30895089853E+01  0.57966785165E+02  0.51100000000E-03 0.  1.
<mgrwt>
<rscale>  0 0.12500771E+03</rscale>
<asrwt>0</asrwt>
<pdfrwt beam="2">  1        3 0.15084630E-01 0.12500771E+03</pdfrwt>
<pdfrwt beam="1">  1       -3 0.61298840E-02 0.12500771E+03</pdfrwt>
<totfact> 0.13396705E+04</totfact>
</mgrwt>
</event>
<event>
 5    1  0.1787806E-056  0.1249998E+03  0.7818608E-02  0.1235070E+00
          3   -1    0    0  501    0  0.00000000000E+00  0.00000000000E+00  0.16176249430E+02  0.16176516765E+02  0.93000000000E-01 0. -1.
         -3   -1    0    0    0  501 -0.00000000000E+00 -0.00000000000E+00 -0.24147758841E+03  0.24147760632E+03  0.93000000000E-01 0.  1.
         25    2    1    2    0    0  0.00000000000E+00  0.00000000000E+00 -0.22530133898E+03  0.25765412309E+03  0.12499981518E+03 0.  0.
        -11    1    3    3    0    0 -0.34468569425E+02  0.16797967057E+02 -0.21438440317E+03  0.21778642359E+03  0.51100000000E-03 0.  1.
         11    1    3    3    0    0  0.34468569425E+02 -0.16797967057E+02 -0.10916935810E+02  0.39867699497E+02  0.51100000000E-03 0. -1.
<mgrwt>
<rscale>  0 0.12499982E+03</rscale>
<asrwt>0</asrwt>
<pdfrwt beam="1">  1        3 0.24886759E-02 0.12499982E+03</pdfrwt>
<pdfrwt beam="2">  1       -3 0.37150418E-01 0.12499982E+03</pdfrwt>
<totfact> 0.10846909E+04</totfact>
</mgrwt>
</event>
<event>
 5    1  0.1787806E-056  0.1249955E+03  0.7818608E-02  0.1235076E+00
          3   -1    0    0  501    0  0.00000000000E+00  0.00000000000E+00  0.24769506670E+02  0.24769681259E+02  0.93000000000E-01 0.  1.
         -3   -1    0    0    0  501 -0.00000000000E+00 -0.00000000000E+00 -0.15769178753E+03  0.15769181496E+03  0.93000000000E-01 0. -1.
         25    2    1    2    0    0  0.00000000000E+00  0.00000000000E+00 -0.13292228086E+03  0.18246149621E+03  0.12499545932E+03 0.  0.
        -11    1    3    3    0    0 -0.13876502190E+02  0.60915146380E+02 -0.68883543618E+02  0.92995456626E+02  0.51100000000E-03 0. -1.
         11    1    3    3    0    0  0.13876502190E+02 -0.60915146380E+02 -0.64038737244E+02  0.89466039588E+02  0.51100000000E-03 0.  1.
<mgrwt>
<rscale>  0 0.12499546E+03</rscale>
<asrwt>0</asrwt>
<pdfrwt beam="1">  1        3 0.38107090E-02 0.12499546E+03</pdfrwt>
<pdfrwt beam="2">  1       -3 0.24260290E-01 0.12499546E+03</pdfrwt>
<totfact> 0.12340410E+04</totfact>
</mgrwt>
</event>
<event>
 5    1  0.1787806E-056  0.1250002E+03  0.7818608E-02  0.1235069E+00
         -3   -1    0    0    0  501 -0.00000000000E+00  0.00000000000E+00  0.19256109606E+03  0.19256111851E+03  0.93000000000E-01 0.  1.
          3   -1    0    0  501    0  0.00000000000E+00 -0.00000000000E+00 -0.20285708270E+02  0.20285921448E+02  0.93000000000E-01 0. -1.
         25    2    1    2    0    0  0.00000000000E+00  0.00000000000E+00  0.17227538779E+03  0.21284703996E+03  0.12500021273E+03 0.  0.
        -11    1    3    3    0    0  0.48986491677E+02 -0.38370046252E+02  0.96114039708E+02  0.11449823337E+03  0.51100000000E-03 0.  1.
         11    1    3    3    0    0 -0.48986491677E+02  0.38370046252E+02  0.76161348080E+02  0.98348806591E+02  0.51100000000E-03 0. -1.
<mgrwt>
<rscale>  0 0.12500021E+03</rscale>
<asrwt>0</asrwt>
<pdfrwt beam="2">  1        3 0.31208964E-02 0.12500021E+03</pdfrwt>
<pdfrwt beam="1">  1       -3 0.29624801E-01 0.12500021E+03</pdfrwt>
<totfact> 0.11696854E+04</totfact>
</mgrwt>
</event>
<event>
 5    1  0.1787806E-056  0.1250008E+03  0.7818608E-02  0.1235068E+00
         -3   -1    0    0    0  501 -0.00000000000E+00  0.00000000000E+00  0.42558713257E+03  0.42558714273E+03  0.93000000000E-01 0.  1.
          3   -1    0    0  501    0  0.00000000000E+00 -0.00000000000E+00 -0.91783745814E+01  0.91788457311E+01  0.93000000000E-01 0. -1.
         25    2    1    2    0    0  0.00000000000E+00  0.00000000000E+00  0.41640875799E+03  0.43476598846E+03  0.12500084397E+03 0.  0.
        -11    1    3    3    0    0  0.26098876855E+02 -0.56663391313E+02  0.22140810815E+03  0.23002921911E+03  0.51100000000E-03 0.  1.
         11    1    3    3    0    0 -0.26098876855E+02  0.56663391313E+02  0.19500064984E+03  0.20473676935E+03  0.51100000000E-03 0. -1.
<mgrwt>
<rscale>  0 0.12500084E+03</rscale>
<asrwt>0</asrwt>
<pdfrwt beam="2">  1        3 0.14120946E-02 0.12500084E+03</pdfrwt>
<pdfrwt beam="1">  1       -3 0.65474983E-01 0.12500084E+03</pdfrwt>
<totfact> 0.82978678E+03</totfact>
</mgrwt>
</event>
<event>
 5    1  0.1787806E-056  0.1250000E+03  0.7818608E-02  0.1235069E+00
          3   -1    0    0  501    0  0.00000000000E+00  0.00000000000E+00  0.11075497704E+03  0.11075501608E+03  0.93000000000E-01 0. -1.
         -3   -1    0    0    0  501 -0.00000000000E+00 -0.00000000000E+00 -0.35269164425E+02  0.35269287039E+02  0.93000000000E-01 0.  1.
         25    2    1    2    0    0  0.00000000000E+00  0.00000000000E+00  0.75485812613E+02  0.14602430312E+03  0.12499995679E+03 0.  0.
        -11    1    3    3    0    0 -0.55917569956E+02  0.11715008557E+02  0.81381838332E+01  0.57708284429E+02  0.51100000000E-03 0. -1.
         11    1    3    3    0    0  0.55917569956E+02 -0.11715008557E+02  0.67347628780E+02  0.88316018694E+02  0.51100000000E-03 0.  1.
<mgrwt>
<rscale>  0 0.12499996E+03</rscale>
<asrwt>0</asrwt>
<pdfrwt beam="1">  1        3 0.17039239E-01 0.12499996E+03</pdfrwt>
<pdfrwt beam="2">  1       -3 0.54260378E-02 0.12499996E+03</pdfrwt>
<totfact> 0.13193814E+04</totfact>
</mgrwt>
</event>
<event>
 5    1  0.1787806E-056  0.1249988E+03  0.7818608E-02  0.1235071E+00
         -3   -1    0    0    0  501 -0.00000000000E+00  0.00000000000E+00  0.30830795374E+02  0.30830935639E+02  0.93000000000E-01 0.  1.
          3   -1    0    0  501    0  0.00000000000E+00 -0.00000000000E+00 -0.12669678100E+03  0.12669681513E+03  0.93000000000E-01 0. -1.
         25    2    1    2    0    0  0.00000000000E+00  0.00000000000E+00 -0.95865985624E+02  0.15752775077E+03  0.12499882025E+03 0.  0.
        -11    1    3    3    0    0 -0.18212669429E+02  0.56810435679E+02 -0.24455767567E+02  0.64476441413E+02  0.51100000000E-03 0. -1.
         11    1    3    3    0    0  0.18212669429E+02 -0.56810435679E+02 -0.71410218057E+02  0.93051309356E+02  0.51100000000E-03 0.  1.
<mgrwt>
<rscale>  0 0.12499882E+03</rscale>
<asrwt>0</asrwt>
<pdfrwt beam="2">  1        3 0.19491826E-01 0.12499882E+03</pdfrwt>
<pdfrwt beam="1">  1       -3 0.47432128E-02 0.12499882E+03</pdfrwt>
<totfact> 0.12913629E+04</totfact>
</mgrwt>
</event>
<event>
 5    1  0.1787806E-056  0.1249989E+03  0.7818608E-02  0.1235071E+00
         -3   -1    0    0    0  501 -0.00000000000E+00  0.00000000000E+00  0.28596741446E+03  0.28596742958E+03  0.93000000000E-01 0.  1.
          3   -1    0    0  501    0  0.00000000000E+00 -0.00000000000E+00 -0.13659355951E+02  0.13659672543E+02  0.93000000000E-01 0. -1.
         25    2    1    2    0    0  0.00000000000E+00  0.00000000000E+00  0.27230805851E+03  0.29962710212E+03  0.12499888639E+03 0.  0.
        -11    1    3    3    0    0 -0.58750166940E+01  0.61464458144E+02  0.11294047950E+03  0.12871653874E+03  0.51100000000E-03 0.  1.
         11    1    3    3    0    0  0.58750166940E+01 -0.61464458144E+02  0.15936757901E+03  0.17091056338E+03  0.51100000000E-03 0. -1.
<mgrwt>
<rscale>  0 0.12499889E+03</rscale>
<asrwt>0</asrwt>
<pdfrwt beam="2">  1        3 0.21014647E-02 0.12499889E+03</pdfrwt>
<pdfrwt beam="1">  1       -3 0.43995016E-01 0.12499889E+03</pdfrwt>
<totfact> 0.10139477E+04</totfact>
</mgrwt>
</event>
<event>
 5    1  0.1787806E-056  0.1250081E+03  0.7818608E-02  0.1235057E+00
          3   -1    0    0  501    0  0.00000000000E+00  0.00000000000E+00  0.24591996938E+02  0.24592172787E+02  0.93000000000E-01 0. -1.
         -3   -1    0    0    0  501 -0.00000000000E+00 -0.00000000000E+00 -0.15886226250E+03  0.15886228972E+03  0.93000000000E-01 0.  1.
         25    2    1    2    0    0  0.00000000000E+00  0.00000000000E+00 -0.13427026556E+03  0.18345446251E+03  0.12500814214E+03 0.  0.
        -11    1    3    3    0    0  0.46394483374E+02 -0.41811288792E+02 -0.70767684930E+02  0.94385895072E+02  0.51100000000E-03 0.  1.
         11    1    3    3    0    0 -0.46394483374E+02  0.41811288792E+02 -0.63502580629E+02  0.89068567434E+02  0.51100000000E-03 0. -1.
<mgrwt>
<rscale>  0 0.12500814E+03</rscale>
<asrwt>0</asrwt>
<pdfrwt beam="1">  1        3 0.37833999E-02 0.12500814E+03</pdfrwt>
<pdfrwt beam="2">  1       -3 0.24440363E-01 0.12500814E+03</pdfrwt>
<totfact> 0.12314967E+04</totfact>
</mgrwt>
</event>
<event>
 5    1  0.1787806E-056  0.1250038E+03  0.7818608E-02  0.1235063E+00
          3   -1    0    0  501    0  0.00000000000E+00  0.00000000000E+00  0.13511532774E+03  0.13511535974E+03  0.93000000000E-01 0. -1.
         -3   -1    0    0    0  501 -0.00000000000E+00 -0.00000000000E+00 -0.28912123957E+02  0.28912273530E+02  0.93000000000E-01 0.  1.
         25    2    1    2    0    0  0.00000000000E+00  0.00000000000E+00  0.10620320378E+03  0.16402763327E+03  0.12500377588E+03 0.  0.
        -11    1    3    3    0    0  0.54880209021E+02  0.13870795887E+02  0.18328802065E+02  0.59499422738E+02  0.51100000000E-03 0.  1.
         11    1    3    3    0    0 -0.54880209021E+02 -0.13870795887E+02  0.87874401716E+02  0.10452821054E+03  0.51100000000E-03 0. -1.
<mgrwt>
<rscale>  0 0.12500378E+03</rscale>
<asrwt>0</asrwt>
<pdfrwt beam="1">  1        3 0.20786987E-01 0.12500378E+03</pdfrwt>
<pdfrwt beam="2">  1       -3 0.44480331E-02 0.12500378E+03</pdfrwt>
<totfact> 0.12758165E+04</totfact>
</mgrwt>
</event>
<event>
 5    1  0.1787806E-056  0.1250016E+03  0.7818608E-02  0.1235067E+00
         -3   -1    0    0    0  501 -0.00000000000E+00  0.00000000000E+00  0.73623165559E+02  0.73623224298E+02  0.93000000000E-01 0.  1.
          3   -1    0    0  501    0  0.00000000000E+00 -0.00000000000E+00 -0.53058611693E+02  0.53058693197E+02  0.93000000000E-01 0. -1.
         25    2    1    2    0    0  0.00000000000E+00  0.00000000000E+00  0.20564553867E+02  0.12668191749E+03  0.12500162937E+03 0.  0.
        -11    1    3    3    0    0  0.19951805583E+02 -0.59096842833E+02  0.14315783872E+02  0.63995726786E+02  0.51100000000E-03 0.  1.
         11    1    3    3    0    0 -0.19951805583E+02  0.59096842833E+02  0.62487699945E+01  0.62686190708E+02  0.51100000000E-03 0. -1.
<mgrwt>
<rscale>  0 0.12500163E+03</rscale>
<asrwt>0</asrwt>
<pdfrwt beam="2">  1        3 0.81628742E-02 0.12500163E+03</pdfrwt>
<pdfrwt beam="1">  1       -3 0.11326652E-01 0.12500163E+03</pdfrwt>
<totfact> 0.13690941E+04</totfact>
</mgrwt>
</event>
<event>
 5    1  0.1787806E-056  0.1250009E+03  0.7818608E-02  0.1235068E+00
          3   -1    0    0  501    0  0.00000000000E+00  0.00000000000E+00  0.28863715773E+02  0.28863865598E+02  0.93000000000E-01 0. -1.
         -3   -1    0    0    0  501 -0.00000000000E+00 -0.00000000000E+00 -0.13533571742E+03  0.13533574937E+03  0.93000000000E-01 0.  1.
         25    2    1    2    0    0  0.00000000000E+00  0.00000000000E+00 -0.10647200164E+03  0.16419961497E+03  0.12500090568E+03 0.  0.
        -11    1    3    3    0    0 -0.50990218425E+02  0.33388638071E+02 -0.71414032424E+02  0.93886993532E+02  0.51100000000E-03 0.  1.
         11    1    3    3    0    0  0.50990218425E+02 -0.33388638071E+02 -0.35057969220E+02  0.70312621437E+02  0.51100000000E-03 0. -1.
<mgrwt>
<rscale>  0 0.12500091E+03</rscale>
<asrwt>0</asrwt>
<pdfrwt beam="1">  1        3 0.44405857E-02 0.12500091E+03</pdfrwt>
<pdfrwt beam="2">  1       -3 0.20820893E-01 0.12500091E+03</pdfrwt>
<totfact> 0.12754911E+04</totfact>
</mgrwt>
</event>
<event>
 5    1  0.1787806E-056  0.1250004E+03  0.7818608E-02  0.1235069E+00
          3   -1    0    0  501    0  0.00000000000E+00  0.00000000000E+00  0.55529498518E+03  0.55529499297E+03  0.93000000000E-01 0. -1.
         -3   -1    0    0    0  501 -0.00000000000E+00 -0.00000000000E+00 -0.70342784640E+01  0.70348932123E+01  0.93000000000E-01 0.  1.
         25    2    1    2    0    0  0.00000000000E+00  0.00000000000E+00  0.54826070672E+03  0.56232988618E+03  0.12500039345E+03 0.  0.
        -11    1    3    3    0    0 -0.48774454456E+02 -0.38617909532E+02  0.30111619645E+03  0.30747561547E+03  0.51100000000E-03 0.  1.
         11    1    3    3    0    0  0.48774454456E+02  0.38617909532E+02  0.24714451026E+03  0.25485427071E+03  0.51100000000E-03 0. -1.
<mgrwt>
<rscale>  0 0.12500039E+03</rscale>
<asrwt>0</asrwt>
<pdfrwt beam="1">  1        3 0.85430071E-01 0.12500039E+03</pdfrwt>
<pdfrwt beam="2">  1       -3 0.10822442E-02 0.12500039E+03</pdfrwt>
<totfact> 0.70068309E+03</totfact>
</mgrwt>
</event>
<event>
 5    1  0.1787806E-056  0.1250211E+03  0.7818608E-02  0.1235036E+00
         -3   -1    0    0    0  501 -0.00000000000E+00  0.00000000000E+00  0.41100214152E+02  0.41100319370E+02  0.93000000000E-01 0.  1.
          3   -1    0    0  501    0  0.00000000000E+00 -0.00000000000E+00 -0.95073982751E+02  0.95074028236E+02  0.93000000000E-01 0. -1.
         25    2    1    2    0    0  0.00000000000E+00  0.00000000000E+00 -0.53973768599E+02  0.13617434761E+03  0.12502113921E+03 0.  0.
        -11    1    3    3    0    0 -0.55115748143E+02  0.70231082173E+01  0.42128976975E+01  0.55720895988E+02  0.51100000000E-03 0.  1.
         11    1    3    3    0    0  0.55115748143E+02 -0.70231082173E+01 -0.58186666296E+02  0.80453451619E+02  0.51100000000E-03 0. -1.
<mgrwt>
<rscale>  0 0.12502114E+03</rscale>
<asrwt>0</asrwt>
<pdfrwt beam="2">  1        3 0.14626778E-01 0.12502114E+03</pdfrwt>
<pdfrwt beam="1">  1       -3 0.63231215E-02 0.12502114E+03</pdfrwt>
<totfact> 0.13436715E+04</totfact>
</mgrwt>
</event>
<event>
 5    1  0.1787806E-056  0.1249981E+03  0.7818608E-02  0.1235072E+00
         -3   -1    0    0    0  501 -0.00000000000E+00  0.00000000000E+00  0.87682876528E+02  0.87682925848E+02  0.93000000000E-01 0.  1.
          3   -1    0    0  501    0  0.00000000000E+00 -0.00000000000E+00 -0.44548268501E+02  0.44548365576E+02  0.93000000000E-01 0. -1.
         25    2    1    2    0    0  0.00000000000E+00  0.00000000000E+00  0.43134608027E+02  0.13223129142E+03  0.12499808007E+03 0.  0.
        -11    1    3    3    0    0 -0.42728457245E+02 -0.23185689458E+02  0.63119149920E+02  0.79670096906E+02  0.51100000000E-03 0.  1.
         11    1    3    3    0    0  0.42728457245E+02  0.23185689458E+02 -0.19984541892E+02  0.52561194518E+02  0.51100000000E-03 0. -1.
<mgrwt>
<rscale>  0 0.12499808E+03</rscale>
<asrwt>0</asrwt>
<pdfrwt beam="2">  1        3 0.68535910E-02 0.12499808E+03</pdfrwt>
<pdfrwt beam="1">  1       -3 0.13489685E-01 0.12499808E+03</pdfrwt>
<totfact> 0.13546068E+04</totfact>
</mgrwt>
</event>
<event>
 5    1  0.1787806E-056  0.1249943E+03  0.7818608E-02  0.1235078E+00
          3   -1    0    0  501    0  0.00000000000E+00  0.00000000000E+00  0.91974244639E+01  0.91978946379E+01  0.93000000000E-01 0. -1.
         -3   -1    0    0    0  501 -0.00000000000E+00 -0.00000000000E+00 -0.42466120490E+03  0.42466121508E+03  0.93000000000E-01 0.  1.
         25    2    1    2    0    0  0.00000000000E+00  0.00000000000E+00 -0.41546378043E+03  0.43385910972E+03  0.12499429681E+03 0.  0.
        -11    1    3    3    0    0  0.10187394912E+02 -0.61651047860E+02 -0.21162632058E+03  0.22065886404E+03  0.51100000000E-03 0.  1.
         11    1    3    3    0    0 -0.10187394912E+02  0.61651047860E+02 -0.20383745986E+03  0.21320024568E+03  0.51100000000E-03 0. -1.
<mgrwt>
<rscale>  0 0.12499430E+03</rscale>
<asrwt>0</asrwt>
<pdfrwt beam="1">  1        3 0.14150257E-02 0.12499430E+03</pdfrwt>
<pdfrwt beam="2">  1       -3 0.65332515E-01 0.12499430E+03</pdfrwt>
<totfact> 0.83096306E+03</totfact>
</mgrwt>
</event>
<event>
 5    1  0.1787806E-056  0.1249992E+03  0.7818608E-02  0.1235071E+00
          3   -1    0    0  501    0  0.00000000000E+00  0.00000000000E+00  0.30809327516E+03  0.30809328919E+03  0.93000000000E-01 0. -1.
         -3   -1    0    0    0  501 -0.00000000000E+00 -0.00000000000E+00 -0.12678437623E+02  0.12678778709E+02  0.93000000000E-01 0.  1.
         25    2    1    2    0    0  0.00000000000E+00  0.00000000000E+00  0.29541483753E+03  0.32077206790E+03  0.12499917324E+03 0.  0.
        -11    1    3    3    0    0  0.55522556380E+02 -0.39566522448E+01  0.74772020124E+02  0.93216223682E+02  0.51100000000E-03 0.  1.
         11    1    3    3    0    0 -0.55522556380E+02  0.39566522448E+01  0.22064281741E+03  0.22755584422E+03  0.51100000000E-03 0. -1.
<mgrwt>
<rscale>  0 0.12499917E+03</rscale>
<asrwt>0</asrwt>
<pdfrwt beam="1">  1        3 0.47398985E-01 0.12499917E+03</pdfrwt>
<pdfrwt beam="2">  1       -3 0.19505565E-02 0.12499917E+03</pdfrwt>
<totfact> 0.98146977E+03</totfact>
</mgrwt>
</event>
<event>
 5    1  0.1787806E-056  0.1250015E+03  0.7818608E-02  0.1235067E+00
         -3   -1    0    0    0  501 -0.00000000000E+00  0.00000000000E+00  0.18892092940E+02  0.18892321844E+02  0.93000000000E-01 0.  1.
          3   -1    0    0  501    0  0.00000000000E+00 -0.00000000000E+00 -0.20676989969E+03  0.20676992061E+03  0.93000000000E-01 0. -1.
         25    2    1    2    0    0  0.00000000000E+00  0.00000000000E+00 -0.18787780675E+03  0.22566224245E+03  0.12500150958E+03 0.  0.
        -11    1    3    3    0    0  0.26835169145E+02 -0.43215847824E+02 -0.28384543000E+02  0.58253052175E+02  0.51100000000E-03 0.  1.
         11    1    3    3    0    0 -0.26835169145E+02  0.43215847824E+02 -0.15949326375E+03  0.16740919028E+03  0.51100000000E-03 0. -1.
<mgrwt>
<rscale>  0 0.12500151E+03</rscale>
<asrwt>0</asrwt>
<pdfrwt beam="2">  1        3 0.31810772E-01 0.12500151E+03</pdfrwt>
<pdfrwt beam="1">  1       -3 0.29064952E-02 0.12500151E+03</pdfrwt>
<totfact> 0.11443690E+04</totfact>
</mgrwt>
</event>
<event>
 5    1  0.1787806E-056  0.1250020E+03  0.7818608E-02  0.1235066E+00
         -3   -1    0    0    0  501 -0.00000000000E+00  0.00000000000E+00  0.68904600285E+02  0.68904663045E+02  0.93000000000E-01 0.  1.
          3   -1    0    0  501    0  0.00000000000E+00 -0.00000000000E+00 -0.56692400632E+02  0.56692476912E+02  0.93000000000E-01 0. -1.
         25    2    1    2    0    0  0.00000000000E+00  0.00000000000E+00  0.12212199652E+02  0.12559713996E+03  0.12500201496E+03 0.  0.
        -11    1    3    3    0    0 -0.53922241423E+01 -0.53471211865E+02  0.38166151374E+02  0.65915868275E+02  0.51100000000E-03 0.  1.
         11    1    3    3    0    0  0.53922241423E+01  0.53471211865E+02 -0.25953951722E+02  0.59681271683E+02  0.51100000000E-03 0. -1.
<mgrwt>
<rscale>  0 0.12500201E+03</rscale>
<asrwt>0</asrwt>
<pdfrwt beam="2">  1        3 0.87219186E-02 0.12500201E+03</pdfrwt>
<pdfrwt beam="1">  1       -3 0.10600718E-01 0.12500201E+03</pdfrwt>
<totfact> 0.13719870E+04</totfact>
</mgrwt>
</event>
<event>
 5    1  0.1787806E-056  0.1249962E+03  0.7818608E-02  0.1235075E+00
         -3   -1    0    0    0  501 -0.00000000000E+00  0.00000000000E+00  0.82391547982E+02  0.82391600470E+02  0.93000000000E-01 0.  1.
          3   -1    0    0  501    0  0.00000000000E+00 -0.00000000000E+00 -0.47407789876E+02  0.47407881095E+02  0.93000000000E-01 0. -1.
         25    2    1    2    0    0  0.00000000000E+00  0.00000000000E+00  0.34983758107E+02  0.12979948156E+03  0.12499616827E+03 0.  0.
        -11    1    3    3    0    0  0.10773512736E+02 -0.61480061816E+02  0.20799225240E+02  0.65791141869E+02  0.51100000000E-03 0.  1.
         11    1    3    3    0    0 -0.10773512736E+02  0.61480061816E+02  0.14184532867E+02  0.64008339695E+02  0.51100000000E-03 0. -1.
<mgrwt>
<rscale>  0 0.12499617E+03</rscale>
<asrwt>0</asrwt>
<pdfrwt beam="2">  1        3 0.72935172E-02 0.12499617E+03</pdfrwt>
<pdfrwt beam="1">  1       -3 0.12675634E-01 0.12499617E+03</pdfrwt>
<totfact> 0.13610359E+04</totfact>
</mgrwt>
</event>
<event>
 5    1  0.1787806E-056  0.1249997E+03  0.7818608E-02  0.1235070E+00
         -3   -1    0    0    0  501 -0.00000000000E+00  0.00000000000E+00  0.53470089126E+02  0.53470170003E+02  0.93000000000E-01 0.  1.
          3   -1    0    0  501    0  0.00000000000E+00 -0.00000000000E+00 -0.73054324874E+02  0.73054384069E+02  0.93000000000E-01 0. -1.
         25    2    1    2    0    0  0.00000000000E+00  0.00000000000E+00 -0.19584235748E+02  0.12652455407E+03  0.12499968197E+03 0.  0.
        -11    1    3    3    0    0 -0.55312894255E+02  0.32703643840E+01  0.19474589763E+02  0.58732199012E+02  0.51100000000E-03 0.  1.
         11    1    3    3    0    0  0.55312894255E+02 -0.32703643840E+01 -0.39058825511E+02  0.67792355060E+02  0.51100000000E-03 0. -1.
<mgrwt>
<rscale>  0 0.12499968E+03</rscale>
<asrwt>0</asrwt>
<pdfrwt beam="2">  1        3 0.11239138E-01 0.12499968E+03</pdfrwt>
<pdfrwt beam="1">  1       -3 0.82261784E-02 0.12499968E+03</pdfrwt>
<totfact> 0.13695634E+04</totfact>
</mgrwt>
</event>
<event>
 5    1  0.1787806E-056  0.1250002E+03  0.7818608E-02  0.1235069E+00
          3   -1    0    0  501    0  0.00000000000E+00  0.00000000000E+00  0.41439805533E+03  0.41439806576E+03  0.93000000000E-01 0. -1.
         -3   -1    0    0    0  501 -0.00000000000E+00 -0.00000000000E+00 -0.94261186398E+01  0.94265774070E+01  0.93000000000E-01 0.  1.
         25    2    1    2    0    0  0.00000000000E+00  0.00000000000E+00  0.40497193669E+03  0.42382464317E+03  0.12500023461E+03 0.  0.
        -11    1    3    3    0    0  0.52207047201E+02  0.27860822219E+02  0.27067507945E+03  0.27706822233E+03  0.51100000000E-03 0. -1.
         11    1    3    3    0    0 -0.52207047201E+02 -0.27860822219E+02  0.13429685724E+03  0.14675642084E+03  0.51100000000E-03 0.  1.
<mgrwt>
<rscale>  0 0.12500023E+03</rscale>
<asrwt>0</asrwt>
<pdfrwt beam="1">  1        3 0.63753598E-01 0.12500023E+03</pdfrwt>
<pdfrwt beam="2">  1       -3 0.14502078E-02 0.12500023E+03</pdfrwt>
<totfact> 0.84336445E+03</totfact>
</mgrwt>
</event>
<event>
 5    1  0.1787806E-056  0.1249997E+03  0.7818608E-02  0.1235070E+00
         -3   -1    0    0    0  501 -0.00000000000E+00  0.00000000000E+00  0.45738946818E+02  0.45739041365E+02  0.93000000000E-01 0. -1.
          3   -1    0    0  501    0  0.00000000000E+00 -0.00000000000E+00 -0.85402495822E+02  0.85402546459E+02  0.93000000000E-01 0.  1.
         25    2    1    2    0    0  0.00000000000E+00  0.00000000000E+00 -0.39663549005E+02  0.13114158782E+03  0.12499967575E+03 0.  0.
        -11    1    3    3    0    0  0.61324020189E+02  0.79930373719E+01 -0.10348516694E+02  0.62702598803E+02  0.51100000000E-03 0. -1.
         11    1    3    3    0    0 -0.61324020189E+02 -0.79930373719E+01 -0.29315032311E+02  0.68438989021E+02  0.51100000000E-03 0.  1.
<mgrwt>
<rscale>  0 0.12499968E+03</rscale>
<asrwt>0</asrwt>
<pdfrwt beam="2">  1        3 0.13138857E-01 0.12499968E+03</pdfrwt>
<pdfrwt beam="1">  1       -3 0.70367722E-02 0.12499968E+03</pdfrwt>
<totfact> 0.13573926E+04</totfact>
</mgrwt>
</event>
<event>
 5    1  0.1787806E-056  0.1250027E+03  0.7818608E-02  0.1235065E+00
          3   -1    0    0  501    0  0.00000000000E+00  0.00000000000E+00  0.61186913266E+02  0.61186983942E+02  0.93000000000E-01 0. -1.
         -3   -1    0    0    0  501 -0.00000000000E+00 -0.00000000000E+00 -0.63843903210E+02  0.63843970945E+02  0.93000000000E-01 0.  1.
         25    2    1    2    0    0  0.00000000000E+00  0.00000000000E+00 -0.26569899440E+01  0.12503095489E+03  0.12500272031E+03 0.  0.
        -11    1    3    3    0    0 -0.31888393258E+02  0.53243437960E+02 -0.87252116532E+01  0.62672662533E+02  0.51100000000E-03 0.  1.
         11    1    3    3    0    0  0.31888393258E+02 -0.53243437960E+02  0.60682217092E+01  0.62358292354E+02  0.51100000000E-03 0. -1.
<mgrwt>
<rscale>  0 0.12500272E+03</rscale>
<asrwt>0</asrwt>
<pdfrwt beam="1">  1        3 0.94133819E-02 0.12500272E+03</pdfrwt>
<pdfrwt beam="2">  1       -3 0.98221496E-02 0.12500272E+03</pdfrwt>
<totfact> 0.13734763E+04</totfact>
</mgrwt>
</event>
<event>
 5    1  0.1787806E-056  0.1250005E+03  0.7818608E-02  0.1235068E+00
          3   -1    0    0  501    0  0.00000000000E+00  0.00000000000E+00  0.13656067443E+03  0.13656070610E+03  0.93000000000E-01 0. -1.
         -3   -1    0    0    0  501 -0.00000000000E+00 -0.00000000000E+00 -0.28604630812E+02  0.28604781993E+02  0.93000000000E-01 0.  1.
         25    2    1    2    0    0  0.00000000000E+00  0.00000000000E+00  0.10795604362E+03  0.16516548809E+03  0.12500052441E+03 0.  0.
        -11    1    3    3    0    0  0.39295551020E+02 -0.31554606346E+02  0.51348087327E+01  0.50657672396E+02  0.51100000000E-03 0.  1.
         11    1    3    3    0    0 -0.39295551020E+02  0.31554606346E+02  0.10282123489E+03  0.11450781570E+03  0.51100000000E-03 0. -1.
<mgrwt>
<rscale>  0 0.12500052E+03</rscale>
<asrwt>0</asrwt>
<pdfrwt beam="1">  1        3 0.21009349E-01 0.12500052E+03</pdfrwt>
<pdfrwt beam="2">  1       -3 0.44007264E-02 0.12500052E+03</pdfrwt>
<totfact> 0.12732476E+04</totfact>
</mgrwt>
</event>
<event>
 5    1  0.1787806E-056  0.1249987E+03  0.7818608E-02  0.1235071E+00
         -3   -1    0    0    0  501 -0.00000000000E+00  0.00000000000E+00  0.96831254404E+02  0.96831299064E+02  0.93000000000E-01 0.  1.
          3   -1    0    0  501    0  0.00000000000E+00 -0.00000000000E+00 -0.40339836482E+02  0.40339943684E+02  0.93000000000E-01 0. -1.
         25    2    1    2    0    0  0.00000000000E+00  0.00000000000E+00  0.56491417922E+02  0.13717124275E+03  0.12499867815E+03 0.  0.
        -11    1    3    3    0    0  0.52446125770E+02  0.33971700725E+02  0.26904016557E+02  0.68033070381E+02  0.51100000000E-03 0.  1.
         11    1    3    3    0    0 -0.52446125770E+02 -0.33971700725E+02  0.29587401365E+02  0.69138172366E+02  0.51100000000E-03 0. -1.
<mgrwt>
<rscale>  0 0.12499868E+03</rscale>
<asrwt>0</asrwt>
<pdfrwt beam="2">  1        3 0.62061403E-02 0.12499868E+03</pdfrwt>
<pdfrwt beam="1">  1       -3 0.14897128E-01 0.12499868E+03</pdfrwt>
<totfact> 0.13418133E+04</totfact>
</mgrwt>
</event>
<event>
 5    1  0.1787806E-056  0.1249994E+03  0.7818608E-02  0.1235070E+00
          3   -1    0    0  501    0  0.00000000000E+00  0.00000000000E+00  0.39497403876E+02  0.39497513364E+02  0.93000000000E-01 0. -1.
         -3   -1    0    0    0  501 -0.00000000000E+00 -0.00000000000E+00 -0.98897620955E+02  0.98897664682E+02  0.93000000000E-01 0.  1.
         25    2    1    2    0    0  0.00000000000E+00  0.00000000000E+00 -0.59400217079E+02  0.13839517805E+03  0.12499935807E+03 0.  0.
        -11    1    3    3    0    0 -0.34365888859E+02 -0.51531733389E+02 -0.20458345459E+02  0.65230957086E+02  0.51100000000E-03 0.  1.
         11    1    3    3    0    0  0.34365888859E+02  0.51531733389E+02 -0.38941871620E+02  0.73164220960E+02  0.51100000000E-03 0. -1.
<mgrwt>
<rscale>  0 0.12499936E+03</rscale>
<asrwt>0</asrwt>
<pdfrwt beam="1">  1        3 0.60765355E-02 0.12499936E+03</pdfrwt>
<pdfrwt beam="2">  1       -3 0.15215030E-01 0.12499936E+03</pdfrwt>
<totfact> 0.13386591E+04</totfact>
</mgrwt>
</event>
<event>
 5    1  0.1787806E-056  0.1249963E+03  0.7818608E-02  0.1235075E+00
          3   -1    0    0  501    0  0.00000000000E+00  0.00000000000E+00  0.69660927207E+02  0.69660989287E+02  0.93000000000E-01 0. -1.
         -3   -1    0    0    0  501 -0.00000000000E+00 -0.00000000000E+00 -0.56071734394E+02  0.56071811518E+02  0.93000000000E-01 0.  1.
         25    2    1    2    0    0  0.00000000000E+00  0.00000000000E+00  0.13589192813E+02  0.12573280080E+03  0.12499628409E+03 0.  0.
        -11    1    3    3    0    0 -0.60927012486E+02  0.13862531980E+02  0.81241697695E+01  0.63010100604E+02  0.51100000000E-03 0.  1.
         11    1    3    3    0    0  0.60927012486E+02 -0.13862531980E+02  0.54650230439E+01  0.62722700201E+02  0.51100000000E-03 0. -1.
<mgrwt>
<rscale>  0 0.12499628E+03</rscale>
<asrwt>0</asrwt>
<pdfrwt beam="1">  1        3 0.10717076E-01 0.12499628E+03</pdfrwt>
<pdfrwt beam="2">  1       -3 0.86264314E-02 0.12499628E+03</pdfrwt>
<totfact> 0.13717914E+04</totfact>
</mgrwt>
</event>
<event>
 5    1  0.1787806E-056  0.1250023E+03  0.7818608E-02  0.1235066E+00
         -3   -1    0    0    0  501 -0.00000000000E+00  0.00000000000E+00  0.18612886149E+03  0.18612888473E+03  0.93000000000E-01 0.  1.
          3   -1    0    0  501    0  0.00000000000E+00 -0.00000000000E+00 -0.20987447045E+02  0.20987653096E+02  0.93000000000E-01 0. -1.
         25    2    1    2    0    0  0.00000000000E+00  0.00000000000E+00  0.16514141445E+03  0.20711653782E+03  0.12500229387E+03 0.  0.
        -11    1    3    3    0    0  0.52059128135E+02  0.24419435504E+02  0.12315403970E+03  0.13591680966E+03  0.51100000000E-03 0.  1.
         11    1    3    3    0    0 -0.52059128135E+02 -0.24419435504E+02  0.41987374748E+02  0.71199728166E+02  0.51100000000E-03 0. -1.
<mgrwt>
<rscale>  0 0.12500229E+03</rscale>
<asrwt>0</asrwt>
<pdfrwt beam="2">  1        3 0.32288556E-02 0.12500229E+03</pdfrwt>
<pdfrwt beam="1">  1       -3 0.28635227E-01 0.12500229E+03</pdfrwt>
<totfact> 0.11813086E+04</totfact>
</mgrwt>
</event>
<event>
 5    1  0.1787806E-056  0.1249999E+03  0.7818608E-02  0.1235069E+00
         -3   -1    0    0    0  501 -0.00000000000E+00  0.00000000000E+00  0.16408366877E+02  0.16408630430E+02  0.93000000000E-01 0.  1.
          3   -1    0    0  501    0  0.00000000000E+00 -0.00000000000E+00 -0.23806199469E+03  0.23806201285E+03  0.93000000000E-01 0. -1.
         25    2    1    2    0    0  0.00000000000E+00  0.00000000000E+00 -0.22165362781E+03  0.25447064328E+03  0.12499991028E+03 0.  0.
        -11    1    3    3    0    0  0.34553172687E+02 -0.49573248955E+02 -0.14332364587E+03  0.15554130069E+03  0.51100000000E-03 0.  1.
         11    1    3    3    0    0 -0.34553172687E+02  0.49573248955E+02 -0.78329981940E+02  0.98929342592E+02  0.51100000000E-03 0. -1.
<mgrwt>
<rscale>  0 0.12499991E+03</rscale>
<asrwt>0</asrwt>
<pdfrwt beam="2">  1        3 0.36624942E-01 0.12499991E+03</pdfrwt>
<pdfrwt beam="1">  1       -3 0.25243860E-02 0.12499991E+03</pdfrwt>
<totfact> 0.10905916E+04</totfact>
</mgrwt>
</event>
<event>
 5    1  0.1787806E-056  0.1249904E+03  0.7818608E-02  0.1235084E+00
          3   -1    0    0  501    0  0.00000000000E+00  0.00000000000E+00  0.30208539071E+03  0.30208540503E+03  0.93000000000E-01 0. -1.
         -3   -1    0    0    0  501 -0.00000000000E+00 -0.00000000000E+00 -0.12928773818E+02  0.12929108300E+02  0.93000000000E-01 0.  1.
         25    2    1    2    0    0  0.00000000000E+00  0.00000000000E+00  0.28915661690E+03  0.31501451333E+03  0.12499037768E+03 0.  0.
        -11    1    3    3    0    0  0.37059689692E+02  0.49290494896E+02  0.17011629397E+03  0.18094896231E+03  0.51100000000E-03 0. -1.
         11    1    3    3    0    0 -0.37059689692E+02 -0.49290494896E+02  0.11904032293E+03  0.13406555102E+03  0.51100000000E-03 0.  1.
<mgrwt>
<rscale>  0 0.12499038E+03</rscale>
<asrwt>0</asrwt>
<pdfrwt beam="1">  1        3 0.46474699E-01 0.12499038E+03</pdfrwt>
<pdfrwt beam="2">  1       -3 0.19890691E-02 0.12499038E+03</pdfrwt>
<totfact> 0.99042788E+03</totfact>
</mgrwt>
</event>
<event>
 5    1  0.1927373E-056  0.1249995E+03  0.7818608E-02  0.1235070E+00
          3   -1    0    0  501    0  0.00000000000E+00  0.00000000000E+00  0.26265368131E+02  0.26265532777E+02  0.93000000000E-01 0.  1.
         -3   -1    0    0    0  501 -0.00000000000E+00 -0.00000000000E+00 -0.14872051993E+03  0.14872054901E+03  0.93000000000E-01 0. -1.
         25    2    1    2    0    0  0.00000000000E+00  0.00000000000E+00 -0.12245515180E+03  0.17498608179E+03  0.12499945847E+03 0.  0.
        -11    1    3    3    0    0  0.15117127262E+02  0.58416829169E+02 -0.84023204942E+02  0.10344540800E+03  0.51100000000E-03 0. -1.
         11    1    3    3    0    0 -0.15117127262E+02 -0.58416829169E+02 -0.38431946861E+02  0.71540673792E+02  0.51100000000E-03 0.  1.
<mgrwt>
<rscale>  0 0.12499946E+03</rscale>
<asrwt>0</asrwt>
<pdfrwt beam="1">  1        3 0.40408409E-02 0.12499946E+03</pdfrwt>
<pdfrwt beam="2">  1       -3 0.22880094E-01 0.12499946E+03</pdfrwt>
<totfact> 0.12506696E+04</totfact>
</mgrwt>
</event>
<event>
 5    1  0.1787806E-056  0.1249993E+03  0.7818608E-02  0.1235070E+00
          3   -1    0    0  501    0  0.00000000000E+00  0.00000000000E+00  0.66317024508E+03  0.66317025160E+03  0.93000000000E-01 0. -1.
         -3   -1    0    0    0  501 -0.00000000000E+00 -0.00000000000E+00 -0.58898305377E+01  0.58905647236E+01  0.93000000000E-01 0.  1.
         25    2    1    2    0    0  0.00000000000E+00  0.00000000000E+00  0.65728041454E+03  0.66906081633E+03  0.12499933040E+03 0.  0.
        -11    1    3    3    0    0 -0.86963485847E+01  0.61620584260E+02  0.35961331547E+03  0.36495816136E+03  0.51100000000E-03 0.  1.
         11    1    3    3    0    0  0.86963485847E+01 -0.61620584260E+02  0.29766709908E+03  0.30410265497E+03  0.51100000000E-03 0. -1.
<mgrwt>
<rscale>  0 0.12499933E+03</rscale>
<asrwt>0</asrwt>
<pdfrwt beam="1">  1        3 0.10202618E+00 0.12499933E+03</pdfrwt>
<pdfrwt beam="2">  1       -3 0.90618536E-03 0.12499933E+03</pdfrwt>
<totfact> 0.61444106E+03</totfact>
</mgrwt>
</event>
<event>
 5    1  0.1787806E-056  0.1249978E+03  0.7818608E-02  0.1235073E+00
         -3   -1    0    0    0  501 -0.00000000000E+00  0.00000000000E+00  0.14867433173E+03  0.14867436082E+03  0.93000000000E-01 0.  1.
          3   -1    0    0  501    0  0.00000000000E+00 -0.00000000000E+00 -0.26272842484E+02  0.26273007083E+02  0.93000000000E-01 0. -1.
         25    2    1    2    0    0  0.00000000000E+00  0.00000000000E+00  0.12240148925E+03  0.17494736790E+03  0.12499782784E+03 0.  0.
        -11    1    3    3    0    0  0.30878810590E+02  0.35260715668E+02  0.11906541545E+03  0.12795855645E+03  0.51100000000E-03 0.  1.
         11    1    3    3    0    0 -0.30878810590E+02 -0.35260715668E+02  0.33360737995E+01  0.46988811451E+02  0.51100000000E-03 0. -1.
<mgrwt>
<rscale>  0 0.12499783E+03</rscale>
<asrwt>0</asrwt>
<pdfrwt beam="2">  1        3 0.40419907E-02 0.12499783E+03</pdfrwt>
<pdfrwt beam="1">  1       -3 0.22872989E-01 0.12499783E+03</pdfrwt>
<totfact> 0.12508032E+04</totfact>
</mgrwt>
</event>
<event>
 5    1  0.1787806E-056  0.1249991E+03  0.7818608E-02  0.1235071E+00
         -3   -1    0    0    0  501 -0.00000000000E+00  0.00000000000E+00  0.32204007068E+03  0.32204008411E+03  0.93000000000E-01 0.  1.
          3   -1    0    0  501    0  0.00000000000E+00 -0.00000000000E+00 -0.12129329998E+02  0.12129686525E+02  0.93000000000E-01 0. -1.
         25    2    1    2    0    0  0.00000000000E+00  0.00000000000E+00  0.30991074069E+03  0.33416977064E+03  0.12499907366E+03 0.  0.
        -11    1    3    3    0    0  0.62397061768E+02  0.12097657957E+01  0.16395606392E+03  0.17543217420E+03  0.51100000000E-03 0. -1.
         11    1    3    3    0    0 -0.62397061768E+02 -0.12097657957E+01  0.14595467677E+03  0.15873759643E+03  0.51100000000E-03 0.  1.
<mgrwt>
<rscale>  0 0.12499907E+03</rscale>
<asrwt>0</asrwt>
<pdfrwt beam="2">  1        3 0.18660793E-02 0.12499907E+03</pdfrwt>
<pdfrwt beam="1">  1       -3 0.49544651E-01 0.12499907E+03</pdfrwt>
<totfact> 0.96111997E+03</totfact>
</mgrwt>
</event>
<event>
 5    1  0.1787806E-056  0.1250008E+03  0.7818608E-02  0.1235068E+00
         -3   -1    0    0    0  501 -0.00000000000E+00  0.00000000000E+00  0.11195114259E+03  0.11195118122E+03  0.93000000000E-01 0.  1.
          3   -1    0    0  501    0  0.00000000000E+00 -0.00000000000E+00 -0.34892780180E+02  0.34892904117E+02  0.93000000000E-01 0. -1.
         25    2    1    2    0    0  0.00000000000E+00  0.00000000000E+00  0.77058362413E+02  0.14684408534E+03  0.12500077672E+03 0.  0.
        -11    1    3    3    0    0  0.51105630474E+02  0.34638668323E+02  0.49959624966E+02  0.79420318158E+02  0.51100000000E-03 0.  1.
         11    1    3    3    0    0 -0.51105630474E+02 -0.34638668323E+02  0.27098737447E+02  0.67423767181E+02  0.51100000000E-03 0. -1.
<mgrwt>
<rscale>  0 0.12500078E+03</rscale>
<asrwt>0</asrwt>
<pdfrwt beam="2">  1        3 0.53681325E-02 0.12500078E+03</pdfrwt>
<pdfrwt beam="1">  1       -3 0.17223265E-01 0.12500078E+03</pdfrwt>
<totfact> 0.13173375E+04</totfact>
</mgrwt>
</event>
<event>
 5    1  0.1787806E-056  0.1249999E+03  0.7818608E-02  0.1235069E+00
         -3   -1    0    0    0  501 -0.00000000000E+00  0.00000000000E+00  0.14896313871E+03  0.14896316775E+03  0.93000000000E-01 0.  1.
          3   -1    0    0  501    0  0.00000000000E+00 -0.00000000000E+00 -0.26222761527E+02  0.26222926441E+02  0.93000000000E-01 0. -1.
         25    2    1    2    0    0  0.00000000000E+00  0.00000000000E+00  0.12274037719E+03  0.17518609419E+03  0.12499986962E+03 0.  0.
        -11    1    3    3    0    0 -0.25546468365E+02  0.56036233124E+02  0.76305128957E+02  0.98056892537E+02  0.51100000000E-03 0.  1.
         11    1    3    3    0    0  0.25546468365E+02 -0.56036233124E+02  0.46435248230E+02  0.77129201649E+02  0.51100000000E-03 0. -1.
<mgrwt>
<rscale>  0 0.12499987E+03</rscale>
<asrwt>0</asrwt>
<pdfrwt beam="2">  1        3 0.40342859E-02 0.12499987E+03</pdfrwt>
<pdfrwt beam="1">  1       -3 0.22917421E-01 0.12499987E+03</pdfrwt>
<totfact> 0.12502049E+04</totfact>
</mgrwt>
</event>
<event>
 5    1  0.1787806E-056  0.1250281E+03  0.7818608E-02  0.1235025E+00
         -3   -1    0    0    0  501 -0.00000000000E+00  0.00000000000E+00  0.43517015026E+02  0.43517114401E+02  0.93000000000E-01 0.  1.
          3   -1    0    0  501    0  0.00000000000E+00 -0.00000000000E+00 -0.89803933521E+02  0.89803981675E+02  0.93000000000E-01 0. -1.
         25    2    1    2    0    0  0.00000000000E+00  0.00000000000E+00 -0.46286918494E+02  0.13332109608E+03  0.12502814017E+03 0.  0.
        -11    1    3    3    0    0 -0.60319422452E+02 -0.15158754280E+02 -0.16417265781E+02  0.64325322947E+02  0.51100000000E-03 0. -1.
         11    1    3    3    0    0  0.60319422452E+02  0.15158754280E+02 -0.29869652713E+02  0.68995773129E+02  0.51100000000E-03 0.  1.
<mgrwt>
<rscale>  0 0.12502814E+03</rscale>
<asrwt>0</asrwt>
<pdfrwt beam="2">  1        3 0.13816001E-01 0.12502814E+03</pdfrwt>
<pdfrwt beam="1">  1       -3 0.66949368E-02 0.12502814E+03</pdfrwt>
<totfact> 0.13508320E+04</totfact>
</mgrwt>
</event>
<event>
 5    1  0.1787806E-056  0.1250004E+03  0.7818608E-02  0.1235069E+00
         -3   -1    0    0    0  501 -0.00000000000E+00  0.00000000000E+00  0.24414400945E+03  0.24414402716E+03  0.93000000000E-01 0.  1.
          3   -1    0    0  501    0  0.00000000000E+00 -0.00000000000E+00 -0.15999716245E+02  0.15999986529E+02  0.93000000000E-01 0. -1.
         25    2    1    2    0    0  0.00000000000E+00  0.00000000000E+00  0.22814429320E+03  0.26014401369E+03  0.12500035735E+03 0.  0.
        -11    1    3    3    0    0 -0.48298629715E+02  0.32768130316E+02  0.67547271812E+02  0.89270050556E+02  0.51100000000E-03 0.  1.
         11    1    3    3    0    0  0.48298629715E+02 -0.32768130316E+02  0.16059702139E+03  0.17087396313E+03  0.51100000000E-03 0. -1.
<mgrwt>
<rscale>  0 0.12500036E+03</rscale>
<asrwt>0</asrwt>
<pdfrwt beam="2">  1        3 0.24615169E-02 0.12500036E+03</pdfrwt>
<pdfrwt beam="1">  1       -3 0.37560640E-01 0.12500036E+03</pdfrwt>
<totfact> 0.10802586E+04</totfact>
</mgrwt>
</event>
<event>
 5    1  0.1787806E-056  0.1250008E+03  0.7818608E-02  0.1235068E+00
         -3   -1    0    0    0  501 -0.00000000000E+00  0.00000000000E+00  0.18382737131E+02  0.18382972377E+02  0.93000000000E-01 0.  1.
          3   -1    0    0  501    0  0.00000000000E+00 -0.00000000000E+00 -0.21249670413E+03  0.21249672448E+03  0.93000000000E-01 0. -1.
         25    2    1    2    0    0  0.00000000000E+00  0.00000000000E+00 -0.19411396700E+03  0.23087969685E+03  0.12500080894E+03 0.  0.
        -11    1    3    3    0    0 -0.47323243735E+02 -0.33723115110E+02 -0.54552807521E+02  0.79704119711E+02  0.51100000000E-03 0.  1.
         11    1    3    3    0    0  0.47323243735E+02  0.33723115110E+02 -0.13956115947E+03  0.15117557714E+03  0.51100000000E-03 0. -1.
<mgrwt>
<rscale>  0 0.12500081E+03</rscale>
<asrwt>0</asrwt>
<pdfrwt beam="2">  1        3 0.32691819E-01 0.12500081E+03</pdfrwt>
<pdfrwt beam="1">  1       -3 0.28281332E-02 0.12500081E+03</pdfrwt>
<totfact> 0.11343106E+04</totfact>
</mgrwt>
</event>
<event>
 5    1  0.1787806E-056  0.1249991E+03  0.7818608E-02  0.1235071E+00
         -3   -1    0    0    0  501 -0.00000000000E+00  0.00000000000E+00  0.84796631774E+02  0.84796682772E+02  0.93000000000E-01 0.  1.
          3   -1    0    0  501    0  0.00000000000E+00 -0.00000000000E+00 -0.46065346310E+02  0.46065440187E+02  0.93000000000E-01 0. -1.
         25    2    1    2    0    0  0.00000000000E+00  0.00000000000E+00  0.38731285464E+02  0.13086212296E+03  0.12499913100E+03 0.  0.
        -11    1    3    3    0    0 -0.18609697576E+02  0.52889963742E+02 -0.95434499136E+01  0.56874832263E+02  0.51100000000E-03 0. -1.
         11    1    3    3    0    0  0.18609697576E+02 -0.52889963742E+02  0.48274735378E+02  0.73987290696E+02  0.51100000000E-03 0.  1.
<mgrwt>
<rscale>  0 0.12499913E+03</rscale>
<asrwt>0</asrwt>
<pdfrwt beam="2">  1        3 0.70869875E-02 0.12499913E+03</pdfrwt>
<pdfrwt beam="1">  1       -3 0.13045647E-01 0.12499913E+03</pdfrwt>
<totfact> 0.13581606E+04</totfact>
</mgrwt>
</event>
<event>
 5    1  0.1787806E-056  0.1249882E+03  0.7818608E-02  0.1235088E+00
         -3   -1    0    0    0  501 -0.00000000000E+00  0.00000000000E+00  0.17001357980E+02  0.17001612340E+02  0.93000000000E-01 0.  1.
          3   -1    0    0  501    0  0.00000000000E+00 -0.00000000000E+00 -0.22971579951E+03  0.22971581833E+03  0.93000000000E-01 0. -1.
         25    2    1    2    0    0  0.00000000000E+00  0.00000000000E+00 -0.21271444153E+03  0.24671743067E+03  0.12498822730E+03 0.  0.
        -11    1    3    3    0    0  0.14242365224E+02  0.55791270419E+02 -0.58410601635E+02  0.82020175602E+02  0.51100000000E-03 0.  1.
         11    1    3    3    0    0 -0.14242365224E+02 -0.55791270419E+02 -0.15430383989E+03  0.16469725507E+03  0.51100000000E-03 0. -1.
<mgrwt>
<rscale>  0 0.12498823E+03</rscale>
<asrwt>0</asrwt>
<pdfrwt beam="2">  1        3 0.35340911E-01 0.12498823E+03</pdfrwt>
<pdfrwt beam="1">  1       -3 0.26156147E-02 0.12498823E+03</pdfrwt>
<totfact> 0.11049376E+04</totfact>
</mgrwt>
</event>
<event>
 5    1  0.1787806E-056  0.1249984E+03  0.7818608E-02  0.1235072E+00
          3   -1    0    0  501    0  0.00000000000E+00  0.00000000000E+00  0.11482922975E+02  0.11483299572E+02  0.93000000000E-01 0. -1.
         -3   -1    0    0    0  501 -0.00000000000E+00 -0.00000000000E+00 -0.34016449772E+03  0.34016451043E+03  0.93000000000E-01 0.  1.
         25    2    1    2    0    0  0.00000000000E+00  0.00000000000E+00 -0.32868157475E+03  0.35164781001E+03  0.12499841881E+03 0.  0.
        -11    1    3    3    0    0 -0.27035636380E+02  0.52375040117E+02 -0.10586368578E+03  0.12116596234E+03  0.51100000000E-03 0. -1.
         11    1    3    3    0    0  0.27035636380E+02 -0.52375040117E+02 -0.22281788897E+03  0.23048184767E+03  0.51100000000E-03 0.  1.
<mgrwt>
<rscale>  0 0.12499842E+03</rscale>
<asrwt>0</asrwt>
<pdfrwt beam="1">  1        3 0.17666337E-02 0.12499842E+03</pdfrwt>
<pdfrwt beam="2">  1       -3 0.52333022E-01 0.12499842E+03</pdfrwt>
<totfact> 0.93606198E+03</totfact>
</mgrwt>
</event>
<event>
 5    1  0.1787806E-056  0.1249993E+03  0.7818608E-02  0.1235070E+00
         -3   -1    0    0    0  501 -0.00000000000E+00  0.00000000000E+00  0.19265094906E+02  0.19265319378E+02  0.93000000000E-01 0. -1.
          3   -1    0    0  501    0  0.00000000000E+00 -0.00000000000E+00 -0.20275951479E+03  0.20275953611E+03  0.93000000000E-01 0.  1.
         25    2    1    2    0    0  0.00000000000E+00  0.00000000000E+00 -0.18349441988E+03  0.22202485549E+03  0.12499933731E+03 0.  0.
        -11    1    3    3    0    0 -0.18654596182E+01  0.62466136166E+02 -0.93244369993E+02  0.11224976901E+03  0.51100000000E-03 0. -1.
         11    1    3    3    0    0  0.18654596182E+01 -0.62466136166E+02 -0.90250049887E+02  0.10977508648E+03  0.51100000000E-03 0.  1.
<mgrwt>
<rscale>  0 0.12499934E+03</rscale>
<asrwt>0</asrwt>
<pdfrwt beam="2">  1        3 0.31193789E-01 0.12499934E+03</pdfrwt>
<pdfrwt beam="1">  1       -3 0.29638798E-02 0.12499934E+03</pdfrwt>
<totfact> 0.11515344E+04</totfact>
</mgrwt>
</event>
<event>
 5    1  0.1787806E-056  0.1250003E+03  0.7818608E-02  0.1235069E+00
          3   -1    0    0  501    0  0.00000000000E+00  0.00000000000E+00  0.45169706813E+02  0.45169802552E+02  0.93000000000E-01 0. -1.
         -3   -1    0    0    0  501 -0.00000000000E+00 -0.00000000000E+00 -0.86479642101E+02  0.86479692107E+02  0.93000000000E-01 0.  1.
         25    2    1    2    0    0  0.00000000000E+00  0.00000000000E+00 -0.41309935287E+02  0.13164949466E+03  0.12500031476E+03 0.  0.
        -11    1    3    3    0    0 -0.53545842269E+02  0.13042852991E+02 -0.51701785010E+02  0.75566843337E+02  0.51100000000E-03 0.  1.
         11    1    3    3    0    0  0.53545842269E+02 -0.13042852991E+02  0.10391849723E+02  0.56082651322E+02  0.51100000000E-03 0. -1.
<mgrwt>
<rscale>  0 0.12500031E+03</rscale>
<asrwt>0</asrwt>
<pdfrwt beam="1">  1        3 0.69491969E-02 0.12500031E+03</pdfrwt>
<pdfrwt beam="2">  1       -3 0.13304571E-01 0.12500031E+03</pdfrwt>
<totfact> 0.13560597E+04</totfact>
</mgrwt>
</event>
<event>
 5    1  0.1787806E-056  0.1249990E+03  0.7818608E-02  0.1235071E+00
          3   -1    0    0  501    0  0.00000000000E+00  0.00000000000E+00  0.10815144111E+03  0.10815148109E+03  0.93000000000E-01 0. -1.
         -3   -1    0    0    0  501 -0.00000000000E+00 -0.00000000000E+00 -0.36117665197E+02  0.36117784930E+02  0.93000000000E-01 0.  1.
         25    2    1    2    0    0  0.00000000000E+00  0.00000000000E+00  0.72033775909E+02  0.14426926602E+03  0.12499902498E+03 0.  0.
        -11    1    3    3    0    0 -0.14528400666E+02 -0.60763034771E+02  0.38005347574E+02  0.73127472710E+02  0.51100000000E-03 0.  1.
         11    1    3    3    0    0  0.14528400666E+02  0.60763034771E+02  0.34028428335E+02  0.71141793312E+02  0.51100000000E-03 0. -1.
<mgrwt>
<rscale>  0 0.12499902E+03</rscale>
<asrwt>0</asrwt>
<pdfrwt beam="1">  1        3 0.16638696E-01 0.12499902E+03</pdfrwt>
<pdfrwt beam="2">  1       -3 0.55565761E-02 0.12499902E+03</pdfrwt>
<totfact> 0.13237863E+04</totfact>
</mgrwt>
</event>
<event>
 5    1  0.1787806E-056  0.1250005E+03  0.7818608E-02  0.1235068E+00
          3   -1    0    0  501    0  0.00000000000E+00  0.00000000000E+00  0.23476367233E+03  0.23476369075E+03  0.93000000000E-01 0. -1.
         -3   -1    0    0    0  501 -0.00000000000E+00 -0.00000000000E+00 -0.16639068688E+02  0.16639328586E+02  0.93000000000E-01 0.  1.
         25    2    1    2    0    0  0.00000000000E+00  0.00000000000E+00  0.21812460364E+03  0.25140301934E+03  0.12500054167E+03 0.  0.
        -11    1    3    3    0    0 -0.45936800776E+02 -0.30274107112E+02  0.16871010413E+03  0.17745368540E+03  0.51100000000E-03 0.  1.
         11    1    3    3    0    0  0.45936800776E+02  0.30274107112E+02  0.49414499511E+02  0.73949333933E+02  0.51100000000E-03 0. -1.
<mgrwt>
<rscale>  0 0.12500054E+03</rscale>
<asrwt>0</asrwt>
<pdfrwt beam="1">  1        3 0.36117508E-01 0.12500054E+03</pdfrwt>
<pdfrwt beam="2">  1       -3 0.25598782E-02 0.12500054E+03</pdfrwt>
<totfact> 0.10961021E+04</totfact>
</mgrwt>
</event>
<event>
 5    1  0.1787806E-056  0.1250078E+03  0.7818608E-02  0.1235057E+00
          3   -1    0    0  501    0  0.00000000000E+00  0.00000000000E+00  0.16008916694E+03  0.16008919395E+03  0.93000000000E-01 0. -1.
         -3   -1    0    0    0  501 -0.00000000000E+00 -0.00000000000E+00 -0.24403378448E+02  0.24403555657E+02  0.93000000000E-01 0.  1.
         25    2    1    2    0    0  0.00000000000E+00  0.00000000000E+00  0.13568578849E+03  0.18449274961E+03  0.12500776560E+03 0.  0.
        -11    1    3    3    0    0 -0.65883516780E+01  0.60672709746E+02  0.47924311995E+02  0.77597189164E+02  0.51100000000E-03 0.  1.
         11    1    3    3    0    0  0.65883516780E+01 -0.60672709746E+02  0.87761476497E+02  0.10689556045E+03  0.51100000000E-03 0. -1.
<mgrwt>
<rscale>  0 0.12500777E+03</rscale>
<asrwt>0</asrwt>
<pdfrwt beam="1">  1        3 0.24629119E-01 0.12500777E+03</pdfrwt>
<pdfrwt beam="2">  1       -3 0.37543815E-02 0.12500777E+03</pdfrwt>
<totfact> 0.12292611E+04</totfact>
</mgrwt>
</event>
<event>
 5    1  0.1787806E-056  0.1250000E+03  0.7818608E-02  0.1235069E+00
         -3   -1    0    0    0  501 -0.00000000000E+00  0.00000000000E+00  0.13402627411E+03  0.13402630638E+03  0.93000000000E-01 0.  1.
          3   -1    0    0  501    0  0.00000000000E+00 -0.00000000000E+00 -0.29145304861E+02  0.29145453238E+02  0.93000000000E-01 0. -1.
         25    2    1    2    0    0  0.00000000000E+00  0.00000000000E+00  0.10488096925E+03  0.16317175961E+03  0.12500002170E+03 0.  0.
        -11    1    3    3    0    0 -0.13472511139E+02  0.50731633864E+02  0.81530122147E+01  0.53119477024E+02  0.51100000000E-03 0. -1.
         11    1    3    3    0    0  0.13472511139E+02 -0.50731633864E+02  0.96727957036E+02  0.11005228259E+03  0.51100000000E-03 0.  1.
<mgrwt>
<rscale>  0 0.12500002E+03</rscale>
<asrwt>0</asrwt>
<pdfrwt beam="2">  1        3 0.44839069E-02 0.12500002E+03</pdfrwt>
<pdfrwt beam="1">  1       -3 0.20619441E-01 0.12500002E+03</pdfrwt>
<totfact> 0.12779301E+04</totfact>
</mgrwt>
</event>
<event>
 5    1  0.1787806E-056  0.1250024E+03  0.7818608E-02  0.1235065E+00
          3   -1    0    0  501    0  0.00000000000E+00  0.00000000000E+00  0.97887442396E+01  0.97891860125E+01  0.93000000000E-01 0. -1.
         -3   -1    0    0    0  501 -0.00000000000E+00 -0.00000000000E+00 -0.39906139694E+03  0.39906140777E+03  0.93000000000E-01 0.  1.
         25    2    1    2    0    0  0.00000000000E+00  0.00000000000E+00 -0.38927265270E+03  0.40885059379E+03  0.12500243958E+03 0.  0.
        -11    1    3    3    0    0 -0.49268624484E+02  0.38010115617E+02 -0.17549865489E+03  0.18620403893E+03  0.51100000000E-03 0.  1.
         11    1    3    3    0    0  0.49268624484E+02 -0.38010115617E+02 -0.21377399781E+03  0.22264655486E+03  0.51100000000E-03 0. -1.
<mgrwt>
<rscale>  0 0.12500244E+03</rscale>
<asrwt>0</asrwt>
<pdfrwt beam="1">  1        3 0.15059958E-02 0.12500244E+03</pdfrwt>
<pdfrwt beam="2">  1       -3 0.61394083E-01 0.12500244E+03</pdfrwt>
<totfact> 0.86076385E+03</totfact>
</mgrwt>
</event>
<event>
 5    1  0.1787806E-056  0.1249979E+03  0.7818608E-02  0.1235073E+00
          3   -1    0    0  501    0  0.00000000000E+00  0.00000000000E+00  0.21774136803E+02  0.21774335409E+02  0.93000000000E-01 0. -1.
         -3   -1    0    0    0  501 -0.00000000000E+00 -0.00000000000E+00 -0.17939166159E+03  0.17939168570E+03  0.93000000000E-01 0.  1.
         25    2    1    2    0    0  0.00000000000E+00  0.00000000000E+00 -0.15761752479E+03  0.20116602111E+03  0.12499793569E+03 0.  0.
        -11    1    3    3    0    0 -0.32889832562E+02  0.51161312815E+02 -0.10195774965E+03  0.11872069629E+03  0.51100000000E-03 0. -1.
         11    1    3    3    0    0  0.32889832562E+02 -0.51161312815E+02 -0.55659775147E+02  0.82445324819E+02  0.51100000000E-03 0.  1.
<mgrwt>
<rscale>  0 0.12499794E+03</rscale>
<asrwt>0</asrwt>
<pdfrwt beam="1">  1        3 0.33498845E-02 0.12499794E+03</pdfrwt>
<pdfrwt beam="2">  1       -3 0.27598733E-01 0.12499794E+03</pdfrwt>
<totfact> 0.11937646E+04</totfact>
</mgrwt>
</event>
<event>
 5    1  0.1787806E-056  0.1250004E+03  0.7818608E-02  0.1235069E+00
          3   -1    0    0  501    0  0.00000000000E+00  0.00000000000E+00  0.10108387114E+02  0.10108814918E+02  0.93000000000E-01 0. -1.
         -3   -1    0    0    0  501 -0.00000000000E+00 -0.00000000000E+00 -0.38643057082E+03  0.38643058201E+03  0.93000000000E-01 0.  1.
         25    2    1    2    0    0  0.00000000000E+00  0.00000000000E+00 -0.37632218370E+03  0.39653939692E+03  0.12500042947E+03 0.  0.
        -11    1    3    3    0    0 -0.48601393171E+02 -0.31402417924E+02 -0.11322017389E+03  0.12714957745E+03  0.51100000000E-03 0. -1.
         11    1    3    3    0    0  0.48601393171E+02  0.31402417924E+02 -0.26310200981E+03  0.26938981947E+03  0.51100000000E-03 0.  1.
<mgrwt>
<rscale>  0 0.12500043E+03</rscale>
<asrwt>0</asrwt>
<pdfrwt beam="1">  1        3 0.15551705E-02 0.12500043E+03</pdfrwt>
<pdfrwt beam="2">  1       -3 0.59450879E-01 0.12500043E+03</pdfrwt>
<totfact> 0.87617055E+03</totfact>
</mgrwt>
</event>
<event>
 5    1  0.1787806E-056  0.1250035E+03  0.7818608E-02  0.1235064E+00
          3   -1    0    0  501    0  0.00000000000E+00  0.00000000000E+00  0.12808612395E+03  0.12808615771E+03  0.93000000000E-01 0. -1.
         -3   -1    0    0    0  501 -0.00000000000E+00 -0.00000000000E+00 -0.30498645261E+02  0.30498787054E+02  0.93000000000E-01 0.  1.
         25    2    1    2    0    0  0.00000000000E+00  0.00000000000E+00  0.97587478689E+02  0.15858494477E+03  0.12500347479E+03 0.  0.
        -11    1    3    3    0    0  0.10263421098E+02  0.60550326838E+02  0.63522436465E+02  0.88355983541E+02  0.51100000000E-03 0.  1.
         11    1    3    3    0    0 -0.10263421098E+02 -0.60550326838E+02  0.34065042224E+02  0.70228961225E+02  0.51100000000E-03 0. -1.
<mgrwt>
<rscale>  0 0.12500347E+03</rscale>
<asrwt>0</asrwt>
<pdfrwt beam="1">  1        3 0.19705571E-01 0.12500347E+03</pdfrwt>
<pdfrwt beam="2">  1       -3 0.46921128E-02 0.12500347E+03</pdfrwt>
<totfact> 0.12886994E+04</totfact>
</mgrwt>
</event>
<event>
 5    1  0.1787806E-056  0.1249989E+03  0.7818608E-02  0.1235071E+00
          3   -1    0    0  501    0  0.00000000000E+00  0.00000000000E+00  0.27571710430E+02  0.27571867276E+02  0.93000000000E-01 0.  1.
         -3   -1    0    0    0  501 -0.00000000000E+00 -0.00000000000E+00 -0.14167287515E+03  0.14167290567E+03  0.93000000000E-01 0. -1.
         25    2    1    2    0    0  0.00000000000E+00  0.00000000000E+00 -0.11410116472E+03  0.16924477295E+03  0.12499886952E+03 0.  0.
        -11    1    3    3    0    0  0.42387429048E+02  0.45891272320E+02 -0.54526116045E+02  0.82920445896E+02  0.51100000000E-03 0. -1.
         11    1    3    3    0    0 -0.42387429048E+02 -0.45891272320E+02 -0.59575048673E+02  0.86324327053E+02  0.51100000000E-03 0.  1.
<mgrwt>
<rscale>  0 0.12499887E+03</rscale>
<asrwt>0</asrwt>
<pdfrwt beam="1">  1        3 0.42418161E-02 0.12499887E+03</pdfrwt>
<pdfrwt beam="2">  1       -3 0.21795841E-01 0.12499887E+03</pdfrwt>
<totfact> 0.12638203E+04</totfact>
</mgrwt>
</event>
<event>
 5    1  0.1787806E-056  0.1249993E+03  0.7818608E-02  0.1235070E+00
          3   -1    0    0  501    0  0.00000000000E+00  0.00000000000E+00  0.78291572629E+02  0.78291627865E+02  0.93000000000E-01 0. -1.
         -3   -1    0    0    0  501 -0.00000000000E+00 -0.00000000000E+00 -0.49892956270E+02  0.49893042945E+02  0.93000000000E-01 0.  1.
         25    2    1    2    0    0  0.00000000000E+00  0.00000000000E+00  0.28398616359E+02  0.12818467081E+03  0.12499931368E+03 0.  0.
        -11    1    3    3    0    0 -0.38236943421E+02 -0.27183819352E+02  0.56545463888E+02  0.73473895795E+02  0.51100000000E-03 0. -1.
         11    1    3    3    0    0  0.38236943421E+02  0.27183819352E+02 -0.28146847528E+02  0.54710775015E+02  0.51100000000E-03 0.  1.
<mgrwt>
<rscale>  0 0.12499931E+03</rscale>
<asrwt>0</asrwt>
<pdfrwt beam="1">  1        3 0.12044868E-01 0.12499931E+03</pdfrwt>
<pdfrwt beam="2">  1       -3 0.76758503E-02 0.12499931E+03</pdfrwt>
<totfact> 0.13651695E+04</totfact>
</mgrwt>
</event>
<event>
 5    1  0.1787806E-056  0.1249991E+03  0.7818608E-02  0.1235071E+00
          3   -1    0    0  501    0  0.00000000000E+00  0.00000000000E+00  0.10716747821E+03  0.10716751857E+03  0.93000000000E-01 0. -1.
         -3   -1    0    0    0  501 -0.00000000000E+00 -0.00000000000E+00 -0.36449320187E+02  0.36449438831E+02  0.93000000000E-01 0.  1.
         25    2    1    2    0    0  0.00000000000E+00  0.00000000000E+00  0.70718158027E+02  0.14361695740E+03  0.12499909031E+03 0.  0.
        -11    1    3    3    0    0 -0.49672611965E+02  0.25639826392E+02  0.32415399620E+01  0.55993541220E+02  0.51100000000E-03 0.  1.
         11    1    3    3    0    0  0.49672611965E+02 -0.25639826392E+02  0.67476618065E+02  0.87623416177E+02  0.51100000000E-03 0. -1.
<mgrwt>
<rscale>  0 0.12499909E+03</rscale>
<asrwt>0</asrwt>
<pdfrwt beam="1">  1        3 0.16487316E-01 0.12499909E+03</pdfrwt>
<pdfrwt beam="2">  1       -3 0.56076001E-02 0.12499909E+03</pdfrwt>
<totfact> 0.13254185E+04</totfact>
</mgrwt>
</event>
<event>
 5    1  0.1787806E-056  0.1249809E+03  0.7818608E-02  0.1235099E+00
         -3   -1    0    0    0  501 -0.00000000000E+00  0.00000000000E+00  0.91430762289E+02  0.91430809587E+02  0.93000000000E-01 0.  1.
          3   -1    0    0  501    0  0.00000000000E+00 -0.00000000000E+00 -0.42710426716E+02  0.42710527967E+02  0.93000000000E-01 0. -1.
         25    2    1    2    0    0  0.00000000000E+00  0.00000000000E+00  0.48720335573E+02  0.13414133755E+03  0.12498090791E+03 0.  0.
        -11    1    3    3    0    0  0.37410126333E+02  0.49516796589E+02  0.32219890428E+02  0.69925331863E+02  0.51100000000E-03 0. -1.
         11    1    3    3    0    0 -0.37410126333E+02 -0.49516796589E+02  0.16500445146E+02  0.64216005692E+02  0.51100000000E-03 0.  1.
<mgrwt>
<rscale>  0 0.12498091E+03</rscale>
<asrwt>0</asrwt>
<pdfrwt beam="2">  1        3 0.65708465E-02 0.12498091E+03</pdfrwt>
<pdfrwt beam="1">  1       -3 0.14066282E-01 0.12498091E+03</pdfrwt>
<totfact> 0.13501606E+04</totfact>
</mgrwt>
</event>
<event>
 5    1  0.1787806E-056  0.1250003E+03  0.7818608E-02  0.1235069E+00
         -3   -1    0    0    0  501 -0.00000000000E+00  0.00000000000E+00  0.17755254304E+02  0.17755497864E+02  0.93000000000E-01 0.  1.
          3   -1    0    0  501    0  0.00000000000E+00 -0.00000000000E+00 -0.22000472670E+03  0.22000474636E+03  0.93000000000E-01 0. -1.
         25    2    1    2    0    0  0.00000000000E+00  0.00000000000E+00 -0.20224947239E+03  0.23776024422E+03  0.12500033859E+03 0.  0.
        -11    1    3    3    0    0 -0.37068429918E+02  0.48235987097E+02 -0.12839100640E+03  0.14207402814E+03  0.51100000000E-03 0.  1.
         11    1    3    3    0    0  0.37068429918E+02 -0.48235987097E+02 -0.73858465994E+02  0.95686216077E+02  0.51100000000E-03 0. -1.
<mgrwt>
<rscale>  0 0.12500034E+03</rscale>
<asrwt>0</asrwt>
<pdfrwt beam="2">  1        3 0.33846899E-01 0.12500034E+03</pdfrwt>
<pdfrwt beam="1">  1       -3 0.27315980E-02 0.12500034E+03</pdfrwt>
<totfact> 0.11212627E+04</totfact>
</mgrwt>
</event>
<event>
 5    1  0.1787806E-056  0.1249761E+03  0.7818608E-02  0.1235107E+00
          3   -1    0    0  501    0  0.00000000000E+00  0.00000000000E+00  0.32538900010E+02  0.32539032912E+02  0.93000000000E-01 0. -1.
         -3   -1    0    0    0  501 -0.00000000000E+00 -0.00000000000E+00 -0.12000235570E+03  0.12000239174E+03  0.93000000000E-01 0.  1.
         25    2    1    2    0    0  0.00000000000E+00  0.00000000000E+00 -0.87463455692E+02  0.15254142465E+03  0.12497611833E+03 0.  0.
        -11    1    3    3    0    0  0.33609334641E+02 -0.28485302177E+02 -0.97820200679E+02  0.10728369623E+03  0.51100000000E-03 0.  1.
         11    1    3    3    0    0 -0.33609334641E+02  0.28485302177E+02  0.10356744986E+02  0.45257728424E+02  0.51100000000E-03 0. -1.
<mgrwt>
<rscale>  0 0.12497612E+03</rscale>
<asrwt>0</asrwt>
<pdfrwt beam="1">  1        3 0.50059977E-02 0.12497612E+03</pdfrwt>
<pdfrwt beam="2">  1       -3 0.18461914E-01 0.12497612E+03</pdfrwt>
<totfact> 0.13040784E+04</totfact>
</mgrwt>
</event>
<event>
 5    1  0.1787806E-056  0.1250001E+03  0.7818608E-02  0.1235069E+00
          3   -1    0    0  501    0  0.00000000000E+00  0.00000000000E+00  0.96335835802E+02  0.96335880692E+02  0.93000000000E-01 0. -1.
         -3   -1    0    0    0  501 -0.00000000000E+00 -0.00000000000E+00 -0.40548242510E+02  0.40548349161E+02  0.93000000000E-01 0.  1.
         25    2    1    2    0    0  0.00000000000E+00  0.00000000000E+00  0.55787593292E+02  0.13688422985E+03  0.12500014727E+03 0.  0.
        -11    1    3    3    0    0 -0.23656751657E+02 -0.56217509217E+02  0.12950611330E+02  0.62351973310E+02  0.51100000000E-03 0.  1.
         11    1    3    3    0    0  0.23656751657E+02  0.56217509217E+02  0.42836981962E+02  0.74532256543E+02  0.51100000000E-03 0. -1.
<mgrwt>
<rscale>  0 0.12500015E+03</rscale>
<asrwt>0</asrwt>
<pdfrwt beam="1">  1        3 0.14820909E-01 0.12500015E+03</pdfrwt>
<pdfrwt beam="2">  1       -3 0.62382029E-02 0.12500015E+03</pdfrwt>
<totfact> 0.13424848E+04</totfact>
</mgrwt>
</event>
<event>
 5    1  0.1787806E-056  0.1249902E+03  0.7818608E-02  0.1235085E+00
         -3   -1    0    0    0  501 -0.00000000000E+00  0.00000000000E+00  0.63289412856E+02  0.63289481185E+02  0.93000000000E-01 0.  1.
          3   -1    0    0  501    0  0.00000000000E+00 -0.00000000000E+00 -0.61710636196E+02  0.61710706273E+02  0.93000000000E-01 0. -1.
         25    2    1    2    0    0  0.00000000000E+00  0.00000000000E+00  0.15787766603E+01  0.12500018746E+03  0.12499021693E+03 0.  0.
        -11    1    3    3    0    0 -0.17502549439E+02 -0.44780965397E+02  0.40717057882E+02  0.63004387955E+02  0.51100000000E-03 0.  1.
         11    1    3    3    0    0  0.17502549439E+02  0.44780965397E+02 -0.39138281221E+02  0.61995799503E+02  0.51100000000E-03 0. -1.
<mgrwt>
<rscale>  0 0.12499022E+03</rscale>
<asrwt>0</asrwt>
<pdfrwt beam="2">  1        3 0.94939547E-02 0.12499022E+03</pdfrwt>
<pdfrwt beam="1">  1       -3 0.97368433E-02 0.12499022E+03</pdfrwt>
<totfact> 0.13739457E+04</totfact>
</mgrwt>
</event>
<event>
 5    1  0.1787806E-056  0.1249990E+03  0.7818608E-02  0.1235071E+00
         -3   -1    0    0    0  501 -0.00000000000E+00  0.00000000000E+00  0.36720607188E+02  0.36720724955E+02  0.93000000000E-01 0.  1.
          3   -1    0    0  501    0  0.00000000000E+00 -0.00000000000E+00 -0.10637566906E+03  0.10637570971E+03  0.93000000000E-01 0. -1.
         25    2    1    2    0    0  0.00000000000E+00  0.00000000000E+00 -0.69655061871E+02  0.14309643467E+03  0.12499904788E+03 0.  0.
        -11    1    3    3    0    0  0.46338676820E+02 -0.28277544812E+02 -0.70284276730E+02  0.88807500053E+02  0.51100000000E-03 0. -1.
         11    1    3    3    0    0 -0.46338676820E+02  0.28277544812E+02  0.62921485887E+00  0.54288934614E+02  0.51100000000E-03 0.  1.
<mgrwt>
<rscale>  0 0.12499905E+03</rscale>
<asrwt>0</asrwt>
<pdfrwt beam="2">  1        3 0.16365500E-01 0.12499905E+03</pdfrwt>
<pdfrwt beam="1">  1       -3 0.56493364E-02 0.12499905E+03</pdfrwt>
<totfact> 0.13267267E+04</totfact>
</mgrwt>
</event>
<event>
 5    1  0.1787806E-056  0.1249998E+03  0.7818608E-02  0.1235070E+00
          3   -1    0    0  501    0  0.00000000000E+00  0.00000000000E+00  0.31578442312E+02  0.31578579256E+02  0.93000000000E-01 0. -1.
         -3   -1    0    0    0  501 -0.00000000000E+00 -0.00000000000E+00 -0.12369917072E+03  0.12369920568E+03  0.93000000000E-01 0.  1.
         25    2    1    2    0    0  0.00000000000E+00  0.00000000000E+00 -0.92120728404E+02  0.15527778493E+03  0.12499984757E+03 0.  0.
        -11    1    3    3    0    0  0.42899573804E+02  0.45249044323E+02 -0.51387611360E+02  0.80799356719E+02  0.51100000000E-03 0.  1.
         11    1    3    3    0    0 -0.42899573804E+02 -0.45249044323E+02 -0.40733117044E+02  0.74478428212E+02  0.51100000000E-03 0. -1.
<mgrwt>
<rscale>  0 0.12499985E+03</rscale>
<asrwt>0</asrwt>
<pdfrwt beam="1">  1        3 0.48582352E-02 0.12499985E+03</pdfrwt>
<pdfrwt beam="2">  1       -3 0.19030655E-01 0.12499985E+03</pdfrwt>
<totfact> 0.12967520E+04</totfact>
</mgrwt>
</event>
<event>
 5    1  0.1787806E-056  0.1249966E+03  0.7818608E-02  0.1235075E+00
          3   -1    0    0  501    0  0.00000000000E+00  0.00000000000E+00  0.20540976038E+02  0.20541186567E+02  0.93000000000E-01 0. -1.
         -3   -1    0    0    0  501 -0.00000000000E+00 -0.00000000000E+00 -0.19015726043E+03  0.19015728317E+03  0.93000000000E-01 0.  1.
         25    2    1    2    0    0  0.00000000000E+00  0.00000000000E+00 -0.16961628439E+03  0.21069846974E+03  0.12499664483E+03 0.  0.
        -11    1    3    3    0    0  0.18996973526E+02 -0.34842679769E+02 -0.34225589221E+01  0.39832288994E+02  0.51100000000E-03 0. -1.
         11    1    3    3    0    0 -0.18996973526E+02  0.34842679769E+02 -0.16619372547E+03  0.17086618075E+03  0.51100000000E-03 0.  1.
<mgrwt>
<rscale>  0 0.12499664E+03</rscale>
<asrwt>0</asrwt>
<pdfrwt beam="1">  1        3 0.31601682E-02 0.12499664E+03</pdfrwt>
<pdfrwt beam="2">  1       -3 0.29254980E-01 0.12499664E+03</pdfrwt>
<totfact> 0.11741346E+04</totfact>
</mgrwt>
</event>
<event>
 5    1  0.1787806E-056  0.1249997E+03  0.7818608E-02  0.1235070E+00
         -3   -1    0    0    0  501 -0.00000000000E+00  0.00000000000E+00  0.20603386631E+03  0.20603388730E+03  0.93000000000E-01 0.  1.
          3   -1    0    0  501    0  0.00000000000E+00 -0.00000000000E+00 -0.18959029927E+02  0.18959258022E+02  0.93000000000E-01 0. -1.
         25    2    1    2    0    0  0.00000000000E+00  0.00000000000E+00  0.18707483638E+03  0.22499314532E+03  0.12499968413E+03 0.  0.
        -11    1    3    3    0    0 -0.18288168543E+01 -0.42897560656E+02  0.11789476931E+02  0.44525689752E+02  0.51100000000E-03 0. -1.
         11    1    3    3    0    0  0.18288168543E+01  0.42897560656E+02  0.17528535945E+03  0.18046745557E+03  0.51100000000E-03 0.  1.
<mgrwt>
<rscale>  0 0.12499968E+03</rscale>
<asrwt>0</asrwt>
<pdfrwt beam="2">  1        3 0.29167931E-02 0.12499968E+03</pdfrwt>
<pdfrwt beam="1">  1       -3 0.31697536E-01 0.12499968E+03</pdfrwt>
<totfact> 0.11455870E+04</totfact>
</mgrwt>
</event>
<event>
 5    1  0.1787806E-056  0.1250047E+03  0.7818608E-02  0.1235062E+00
         -3   -1    0    0    0  501 -0.00000000000E+00  0.00000000000E+00  0.10771655245E+03  0.10771659260E+03  0.93000000000E-01 0.  1.
          3   -1    0    0  501    0  0.00000000000E+00 -0.00000000000E+00 -0.36266797877E+02  0.36266917118E+02  0.93000000000E-01 0. -1.
         25    2    1    2    0    0  0.00000000000E+00  0.00000000000E+00  0.71449754576E+02  0.14398350972E+03  0.12500473448E+03 0.  0.
        -11    1    3    3    0    0  0.38574231055E+02 -0.48082850799E+02  0.47617935662E+02  0.77893514745E+02  0.51100000000E-03 0.  1.
         11    1    3    3    0    0 -0.38574231055E+02  0.48082850799E+02  0.23831818914E+02  0.66089994972E+02  0.51100000000E-03 0. -1.
<mgrwt>
<rscale>  0 0.12500473E+03</rscale>
<asrwt>0</asrwt>
<pdfrwt beam="2">  1        3 0.55795196E-02 0.12500473E+03</pdfrwt>
<pdfrwt beam="1">  1       -3 0.16571790E-01 0.12500473E+03</pdfrwt>
<totfact> 0.13243486E+04</totfact>
</mgrwt>
</event>
<event>
 5    1  0.1787806E-056  0.1249980E+03  0.7818608E-02  0.1235072E+00
          3   -1    0    0  501    0  0.00000000000E+00  0.00000000000E+00  0.15330351192E+03  0.15330354013E+03  0.93000000000E-01 0. -1.
         -3   -1    0    0    0  501 -0.00000000000E+00 -0.00000000000E+00 -0.25479576830E+02  0.25479746554E+02  0.93000000000E-01 0.  1.
         25    2    1    2    0    0  0.00000000000E+00  0.00000000000E+00  0.12782393509E+03  0.17878328669E+03  0.12499802085E+03 0.  0.
        -11    1    3    3    0    0  0.43845285783E+02 -0.44538885401E+02  0.63811791727E+02  0.89320021059E+02  0.51100000000E-03 0.  1.
         11    1    3    3    0    0 -0.43845285783E+02  0.44538885401E+02  0.64012143367E+02  0.89463265629E+02  0.51100000000E-03 0. -1.
<mgrwt>
<rscale>  0 0.12499802E+03</rscale>
<asrwt>0</asrwt>
<pdfrwt beam="1">  1        3 0.23585171E-01 0.12499802E+03</pdfrwt>
<pdfrwt beam="2">  1       -3 0.39199501E-02 0.12499802E+03</pdfrwt>
<totfact> 0.12421854E+04</totfact>
</mgrwt>
</event>
<event>
 5    1  0.1787806E-056  0.1250042E+03  0.7818608E-02  0.1235063E+00
         -3   -1    0    0    0  501 -0.00000000000E+00  0.00000000000E+00  0.48440041807E+03  0.48440042699E+03  0.93000000000E-01 0.  1.
          3   -1    0    0  501    0  0.00000000000E+00 -0.00000000000E+00 -0.80643585386E+01  0.80648947693E+01  0.93000000000E-01 0. -1.
         25    2    1    2    0    0  0.00000000000E+00  0.00000000000E+00  0.47633605953E+03  0.49246532176E+03  0.12500420606E+03 0.  0.
        -11    1    3    3    0    0 -0.59188759216E+02  0.18308211296E+02  0.27065784186E+03  0.27765836415E+03  0.51100000000E-03 0.  1.
         11    1    3    3    0    0  0.59188759216E+02 -0.18308211296E+02  0.20567821766E+03  0.21480695762E+03  0.51100000000E-03 0. -1.
<mgrwt>
<rscale>  0 0.12500421E+03</rscale>
<asrwt>0</asrwt>
<pdfrwt beam="2">  1        3 0.12407126E-02 0.12500421E+03</pdfrwt>
<pdfrwt beam="1">  1       -3 0.74523175E-01 0.12500421E+03</pdfrwt>
<totfact> 0.76659127E+03</totfact>
</mgrwt>
</event>
<event>
 5    1  0.1787806E-056  0.1249995E+03  0.7818608E-02  0.1235070E+00
          3   -1    0    0  501    0  0.00000000000E+00  0.00000000000E+00  0.33062442967E+03  0.33062444275E+03  0.93000000000E-01 0. -1.
         -3   -1    0    0    0  501 -0.00000000000E+00 -0.00000000000E+00 -0.11814466056E+02  0.11814832084E+02  0.93000000000E-01 0.  1.
         25    2    1    2    0    0  0.00000000000E+00  0.00000000000E+00  0.31880996362E+03  0.34243927484E+03  0.12499945620E+03 0.  0.
        -11    1    3    3    0    0 -0.37656248478E+02 -0.47005002743E+02  0.20514380333E+03  0.21380234652E+03  0.51100000000E-03 0.  1.
         11    1    3    3    0    0  0.37656248478E+02  0.47005002743E+02  0.11366616029E+03  0.12863692832E+03  0.51100000000E-03 0. -1.
<mgrwt>
<rscale>  0 0.12499946E+03</rscale>
<asrwt>0</asrwt>
<pdfrwt beam="1">  1        3 0.50865323E-01 0.12499946E+03</pdfrwt>
<pdfrwt beam="2">  1       -3 0.18176394E-02 0.12499946E+03</pdfrwt>
<totfact> 0.94957744E+03</totfact>
</mgrwt>
</event>
<event>
 5    1  0.1787806E-056  0.1249996E+03  0.7818608E-02  0.1235070E+00
         -3   -1    0    0    0  501 -0.00000000000E+00  0.00000000000E+00  0.68377831021E+02  0.68377894266E+02  0.93000000000E-01 0.  1.
          3   -1    0    0  501    0  0.00000000000E+00 -0.00000000000E+00 -0.57126973326E+02  0.57127049026E+02  0.93000000000E-01 0. -1.
         25    2    1    2    0    0  0.00000000000E+00  0.00000000000E+00  0.11250857695E+02  0.12550494329E+03  0.12499963597E+03 0.  0.
        -11    1    3    3    0    0  0.60428689267E+02  0.46544365072E+01 -0.96985415979E+01  0.61378758338E+02  0.51100000000E-03 0. -1.
         11    1    3    3    0    0 -0.60428689267E+02 -0.46544365072E+01  0.20949399293E+02  0.64126184954E+02  0.51100000000E-03 0.  1.
<mgrwt>
<rscale>  0 0.12499964E+03</rscale>
<asrwt>0</asrwt>
<pdfrwt beam="2">  1        3 0.87887758E-02 0.12499964E+03</pdfrwt>
<pdfrwt beam="1">  1       -3 0.10519677E-01 0.12499964E+03</pdfrwt>
<totfact> 0.13723096E+04</totfact>
</mgrwt>
</event>
<event>
 5    1  0.1787806E-056  0.1250005E+03  0.7818608E-02  0.1235068E+00
          3   -1    0    0  501    0  0.00000000000E+00  0.00000000000E+00  0.31237755152E+03  0.31237756537E+03  0.93000000000E-01 0. -1.
         -3   -1    0    0    0  501 -0.00000000000E+00 -0.00000000000E+00 -0.12504815935E+02  0.12505161757E+02  0.93000000000E-01 0.  1.
         25    2    1    2    0    0  0.00000000000E+00  0.00000000000E+00  0.29987273559E+03  0.32488272712E+03  0.12500051534E+03 0.  0.
        -11    1    3    3    0    0 -0.58380758885E+02 -0.14037834680E+02  0.10485137831E+03  0.12082708862E+03  0.51100000000E-03 0.  1.
         11    1    3    3    0    0  0.58380758885E+02  0.14037834680E+02  0.19502135728E+03  0.20405563850E+03  0.51100000000E-03 0. -1.
<mgrwt>
<rscale>  0 0.12500052E+03</rscale>
<asrwt>0</asrwt>
<pdfrwt beam="1">  1        3 0.48058107E-01 0.12500052E+03</pdfrwt>
<pdfrwt beam="2">  1       -3 0.19238457E-02 0.12500052E+03</pdfrwt>
<totfact> 0.97525981E+03</totfact>
</mgrwt>
</event>
<event>
 5    1  0.1787806E-056  0.1250013E+03  0.7818608E-02  0.1235067E+00
          3   -1    0    0  501    0  0.00000000000E+00  0.00000000000E+00  0.54127419657E+02  0.54127499552E+02  0.93000000000E-01 0. -1.
         -3   -1    0    0    0  501 -0.00000000000E+00 -0.00000000000E+00 -0.72169064599E+02  0.72169124521E+02  0.93000000000E-01 0.  1.
         25    2    1    2    0    0  0.00000000000E+00  0.00000000000E+00 -0.18041644942E+02  0.12629662407E+03  0.12500134519E+03 0.  0.
        -11    1    3    3    0    0 -0.95998586132E+01 -0.61666770224E+02 -0.56115068215E+01  0.62661286648E+02  0.51100000000E-03 0.  1.
         11    1    3    3    0    0  0.95998586132E+01  0.61666770224E+02 -0.12430138121E+02  0.63635337425E+02  0.51100000000E-03 0. -1.
<mgrwt>
<rscale>  0 0.12500135E+03</rscale>
<asrwt>0</asrwt>
<pdfrwt beam="1">  1        3 0.83273061E-02 0.12500135E+03</pdfrwt>
<pdfrwt beam="2">  1       -3 0.11102944E-01 0.12500135E+03</pdfrwt>
<totfact> 0.13701306E+04</totfact>
</mgrwt>
</event>
<event>
 5    1  0.1787806E-056  0.1249994E+03  0.7818608E-02  0.1235070E+00
          3   -1    0    0  501    0  0.00000000000E+00  0.00000000000E+00  0.25656658609E+02  0.25656827161E+02  0.93000000000E-01 0. -1.
         -3   -1    0    0    0  501 -0.00000000000E+00 -0.00000000000E+00 -0.15224883815E+03  0.15224886655E+03  0.93000000000E-01 0.  1.
         25    2    1    2    0    0  0.00000000000E+00  0.00000000000E+00 -0.12659217954E+03  0.17790569371E+03  0.12499942374E+03 0.  0.
        -11    1    3    3    0    0  0.32315257216E+02  0.41849391831E+02 -0.15865980136E+02  0.55203050383E+02  0.51100000000E-03 0. -1.
         11    1    3    3    0    0 -0.32315257216E+02 -0.41849391831E+02 -0.11072619941E+03  0.12270264333E+03  0.51100000000E-03 0.  1.
<mgrwt>
<rscale>  0 0.12499942E+03</rscale>
<asrwt>0</asrwt>
<pdfrwt beam="1">  1        3 0.39471935E-02 0.12499942E+03</pdfrwt>
<pdfrwt beam="2">  1       -3 0.23422913E-01 0.12499942E+03</pdfrwt>
<totfact> 0.12440847E+04</totfact>
</mgrwt>
</event>
<event>
 5    1  0.1787806E-056  0.1250043E+03  0.7818608E-02  0.1235063E+00
         -3   -1    0    0    0  501 -0.00000000000E+00  0.00000000000E+00  0.59930545816E+01  0.59937761234E+01  0.93000000000E-01 0.  1.
          3   -1    0    0  501    0  0.00000000000E+00 -0.00000000000E+00 -0.65180090197E+03  0.65180090860E+03  0.93000000000E-01 0. -1.
         25    2    1    2    0    0  0.00000000000E+00  0.00000000000E+00 -0.64580784739E+03  0.65779468473E+03  0.12500428596E+03 0.  0.
        -11    1    3    3    0    0 -0.18467496207E+01 -0.62432343321E+02 -0.31077817324E+03  0.31699255660E+03  0.51100000000E-03 0.  1.
         11    1    3    3    0    0  0.18467496207E+01  0.62432343321E+02 -0.33502967414E+03  0.34080212812E+03  0.51100000000E-03 0. -1.
<mgrwt>
<rscale>  0 0.12500429E+03</rscale>
<asrwt>0</asrwt>
<pdfrwt beam="2">  1        3 0.10027706E+00 0.12500429E+03</pdfrwt>
<pdfrwt beam="1">  1       -3 0.92206493E-03 0.12500429E+03</pdfrwt>
<totfact> 0.62278689E+03</totfact>
</mgrwt>
</event>
<event>
 5    1  0.1787806E-056  0.1250002E+03  0.7818608E-02  0.1235069E+00
          3   -1    0    0  501    0  0.00000000000E+00  0.00000000000E+00  0.18621155150E+02  0.18621387385E+02  0.93000000000E-01 0. -1.
         -3   -1    0    0    0  501 -0.00000000000E+00 -0.00000000000E+00 -0.20977402178E+03  0.20977404239E+03  0.93000000000E-01 0.  1.
         25    2    1    2    0    0  0.00000000000E+00  0.00000000000E+00 -0.19115286663E+03  0.22839542978E+03  0.12500021569E+03 0.  0.
        -11    1    3    3    0    0  0.55599060662E+01  0.54979790171E+02 -0.14892743608E+03  0.15884920869E+03  0.51100000000E-03 0.  1.
         11    1    3    3    0    0 -0.55599060662E+01 -0.54979790171E+02 -0.42225430546E+02  0.69546221089E+02  0.51100000000E-03 0. -1.
<mgrwt>
<rscale>  0 0.12500022E+03</rscale>
<asrwt>0</asrwt>
<pdfrwt beam="1">  1        3 0.28648127E-02 0.12500022E+03</pdfrwt>
<pdfrwt beam="2">  1       -3 0.32272944E-01 0.12500022E+03</pdfrwt>
<totfact> 0.11389641E+04</totfact>
</mgrwt>
</event>
<event>
 5    1  0.1787806E-056  0.1250030E+03  0.7818608E-02  0.1235065E+00
          3   -1    0    0  501    0  0.00000000000E+00  0.00000000000E+00  0.14853468194E+03  0.14853471105E+03  0.93000000000E-01 0. -1.
         -3   -1    0    0    0  501 -0.00000000000E+00 -0.00000000000E+00 -0.26299725177E+02  0.26299889607E+02  0.93000000000E-01 0.  1.
         25    2    1    2    0    0  0.00000000000E+00  0.00000000000E+00  0.12223495676E+03  0.17483460066E+03  0.12500301170E+03 0.  0.
        -11    1    3    3    0    0  0.26955637162E+02  0.55329297992E+02  0.45892129229E+02  0.76772554448E+02  0.51100000000E-03 0.  1.
         11    1    3    3    0    0 -0.26955637162E+02 -0.55329297992E+02  0.76342827530E+02  0.98062046208E+02  0.51100000000E-03 0. -1.
<mgrwt>
<rscale>  0 0.12500301E+03</rscale>
<asrwt>0</asrwt>
<pdfrwt beam="1">  1        3 0.22851505E-01 0.12500301E+03</pdfrwt>
<pdfrwt beam="2">  1       -3 0.40461264E-02 0.12500301E+03</pdfrwt>
<totfact> 0.12509350E+04</totfact>
</mgrwt>
</event>
<event>
 5    1  0.1787806E-056  0.1250034E+03  0.7818608E-02  0.1235064E+00
         -3   -1    0    0    0  501 -0.00000000000E+00  0.00000000000E+00  0.25394495165E+03  0.25394496868E+03  0.93000000000E-01 0.  1.
          3   -1    0    0  501    0  0.00000000000E+00 -0.00000000000E+00 -0.15382957994E+02  0.15383239114E+02  0.93000000000E-01 0. -1.
         25    2    1    2    0    0  0.00000000000E+00  0.00000000000E+00  0.23856199366E+03  0.26932820780E+03  0.12500343474E+03 0.  0.
        -11    1    3    3    0    0 -0.54720848511E+02 -0.26055068692E+02  0.15218502956E+03  0.16380940476E+03  0.51100000000E-03 0.  1.
         11    1    3    3    0    0  0.54720848511E+02  0.26055068692E+02  0.86376964100E+02  0.10551880303E+03  0.51100000000E-03 0. -1.
<mgrwt>
<rscale>  0 0.12500343E+03</rscale>
<asrwt>0</asrwt>
<pdfrwt beam="2">  1        3 0.23666317E-02 0.12500343E+03</pdfrwt>
<pdfrwt beam="1">  1       -3 0.39068479E-01 0.12500343E+03</pdfrwt>
<totfact> 0.10641407E+04</totfact>
</mgrwt>
</event>
<event>
 5    1  0.1787806E-056  0.1249976E+03  0.7818608E-02  0.1235073E+00
         -3   -1    0    0    0  501 -0.00000000000E+00  0.00000000000E+00  0.11610137813E+02  0.11610510283E+02  0.93000000000E-01 0.  1.
          3   -1    0    0  501    0  0.00000000000E+00 -0.00000000000E+00 -0.33643277807E+03  0.33643279092E+03  0.93000000000E-01 0. -1.
         25    2    1    2    0    0  0.00000000000E+00  0.00000000000E+00 -0.32482264025E+03  0.34804330120E+03  0.12499756754E+03 0.  0.
        -11    1    3    3    0    0  0.59935634271E+02 -0.78912963274E+00 -0.11313490311E+03  0.12803284455E+03  0.51100000000E-03 0.  1.
         11    1    3    3    0    0 -0.59935634271E+02  0.78912963274E+00 -0.21168773714E+03  0.22001045666E+03  0.51100000000E-03 0. -1.
<mgrwt>
<rscale>  0 0.12499757E+03</rscale>
<asrwt>0</asrwt>
<pdfrwt beam="2">  1        3 0.51758911E-01 0.12499757E+03</pdfrwt>
<pdfrwt beam="1">  1       -3 0.17862049E-02 0.12499757E+03</pdfrwt>
<totfact> 0.94164035E+03</totfact>
</mgrwt>
</event>
<event>
 5    1  0.1787806E-056  0.1250024E+03  0.7818608E-02  0.1235065E+00
         -3   -1    0    0    0  501 -0.00000000000E+00  0.00000000000E+00  0.46054296540E+03  0.46054297479E+03  0.93000000000E-01 0.  1.
          3   -1    0    0  501    0  0.00000000000E+00 -0.00000000000E+00 -0.84819005518E+01  0.84824103868E+01  0.93000000000E-01 0. -1.
         25    2    1    2    0    0  0.00000000000E+00  0.00000000000E+00  0.45206106485E+03  0.46902538518E+03  0.12500242233E+03 0.  0.
        -11    1    3    3    0    0 -0.39251292588E+02 -0.48459416101E+02  0.21036907633E+03  0.21941770042E+03  0.51100000000E-03 0.  1.
         11    1    3    3    0    0  0.39251292588E+02  0.48459416101E+02  0.24169198851E+03  0.24960768476E+03  0.51100000000E-03 0. -1.
<mgrwt>
<rscale>  0 0.12500242E+03</rscale>
<asrwt>0</asrwt>
<pdfrwt beam="2">  1        3 0.13049477E-02 0.12500242E+03</pdfrwt>
<pdfrwt beam="1">  1       -3 0.70852803E-01 0.12500242E+03</pdfrwt>
<totfact> 0.79134514E+03</totfact>
</mgrwt>
</event>
<event>
 5    1  0.1787806E-056  0.1250092E+03  0.7818608E-02  0.1235055E+00
         -3   -1    0    0    0  501 -0.00000000000E+00  0.00000000000E+00  0.79308312893E+01  0.79313765476E+01  0.93000000000E-01 0.  1.
          3   -1    0    0  501    0  0.00000000000E+00 -0.00000000000E+00 -0.49259442421E+03  0.49259443299E+03  0.93000000000E-01 0. -1.
         25    2    1    2    0    0  0.00000000000E+00  0.00000000000E+00 -0.48466359292E+03  0.50052580953E+03  0.12500915050E+03 0.  0.
        -11    1    3    3    0    0 -0.34772897092E+02  0.51872399332E+02 -0.23179781879E+03  0.24006276051E+03  0.51100000000E-03 0.  1.
         11    1    3    3    0    0  0.34772897092E+02 -0.51872399332E+02 -0.25286577412E+03  0.26046304903E+03  0.51100000000E-03 0. -1.
<mgrwt>
<rscale>  0 0.12500915E+03</rscale>
<asrwt>0</asrwt>
<pdfrwt beam="2">  1        3 0.75783776E-01 0.12500915E+03</pdfrwt>
<pdfrwt beam="1">  1       -3 0.12201709E-02 0.12500915E+03</pdfrwt>
<totfact> 0.75917466E+03</totfact>
</mgrwt>
</event>
<event>
 4    1  0.1787806E-056  0.1249008E+03  0.7818608E-02  0.1235224E+00
          3   -1    0    0  501    0  0.00000000000E+00  0.00000000000E+00  0.14507931040E+02  0.14508229115E+02  0.93000000000E-01 0. -1.
         -3   -1    0    0    0  501 -0.00000000000E+00 -0.00000000000E+00 -0.26881890190E+03  0.26881891799E+03  0.93000000000E-01 0.  1.
        -11    1    1    2    0    0 -0.47545707400E+02  0.30848003853E+02 -0.18664934459E+03  0.19506453155E+03  0.51100000000E-03 0.  1.
         11    1    1    2    0    0  0.47545707400E+02 -0.30848003853E+02 -0.67661626275E+02  0.88262615553E+02  0.51100000000E-03 0. -1.
<mgrwt>
<rscale>  0 0.12490077E+03</rscale>
<asrwt>0</asrwt>
<pdfrwt beam="1">  1        3 0.22320138E-02 0.12490077E+03</pdfrwt>
<pdfrwt beam="2">  1       -3 0.41356774E-01 0.12490077E+03</pdfrwt>
<totfact> 0.10427959E+04</totfact>
</mgrwt>
</event>
<event>
 4    1  0.1787806E-056  0.1249125E+03  0.7818608E-02  0.1235206E+00
         -3   -1    0    0    0  501 -0.00000000000E+00  0.00000000000E+00  0.17804638874E+03  0.17804641303E+03  0.93000000000E-01 0.  1.
          3   -1    0    0  501    0  0.00000000000E+00 -0.00000000000E+00 -0.21908676549E+02  0.21908873936E+02  0.93000000000E-01 0. -1.
        -11    1    1    2    0    0  0.60697786707E+02 -0.87421912383E+01  0.59119198098E+02  0.85180554135E+02  0.51100000000E-03 0.  1.
         11    1    1    2    0    0 -0.60697786707E+02  0.87421912383E+01  0.97018514090E+02  0.11477473283E+03  0.51100000000E-03 0. -1.
<mgrwt>
<rscale>  0 0.12491250E+03</rscale>
<asrwt>0</asrwt>
<pdfrwt beam="2">  1        3 0.33705829E-02 0.12491250E+03</pdfrwt>
<pdfrwt beam="1">  1       -3 0.27391768E-01 0.12491250E+03</pdfrwt>
<totfact> 0.11985974E+04</totfact>
</mgrwt>
</event>
<event>
 5    1  0.1787806E-056  0.1249999E+03  0.7818608E-02  0.1235069E+00
          3   -1    0    0  501    0  0.00000000000E+00  0.00000000000E+00  0.34137642958E+02  0.34137769636E+02  0.93000000000E-01 0. -1.
         -3   -1    0    0    0  501 -0.00000000000E+00 -0.00000000000E+00 -0.11442600504E+03  0.11442604283E+03  0.93000000000E-01 0.  1.
         25    2    1    2    0    0  0.00000000000E+00  0.00000000000E+00 -0.80288362084E+02  0.14856381247E+03  0.12499994116E+03 0.  0.
        -11    1    3    3    0    0  0.18022684186E+02 -0.50428405743E+02 -0.78443109865E+02  0.94979801730E+02  0.51100000000E-03 0.  1.
         11    1    3    3    0    0 -0.18022684186E+02  0.50428405743E+02 -0.18452522193E+01  0.53584010741E+02  0.51100000000E-03 0. -1.
<mgrwt>
<rscale>  0 0.12499994E+03</rscale>
<asrwt>0</asrwt>
<pdfrwt beam="1">  1        3 0.52519578E-02 0.12499994E+03</pdfrwt>
<pdfrwt beam="2">  1       -3 0.17604013E-01 0.12499994E+03</pdfrwt>
<totfact> 0.13131117E+04</totfact>
</mgrwt>
</event>
<event>
 5    1  0.1787806E-056  0.1249799E+03  0.7818608E-02  0.1235101E+00
         -3   -1    0    0    0  501 -0.00000000000E+00  0.00000000000E+00  0.80586087665E+02  0.80586141328E+02  0.93000000000E-01 0.  1.
          3   -1    0    0  501    0  0.00000000000E+00 -0.00000000000E+00 -0.48457333441E+02  0.48457422685E+02  0.93000000000E-01 0. -1.
         25    2    1    2    0    0  0.00000000000E+00  0.00000000000E+00  0.32128754224E+02  0.12904356401E+03  0.12497993665E+03 0.  0.
        -11    1    3    3    0    0  0.28549707156E+02  0.55461237853E+02  0.19922370136E+02  0.65482329792E+02  0.51100000000E-03 0. -1.
         11    1    3    3    0    0 -0.28549707156E+02 -0.55461237853E+02  0.12206384088E+02  0.63561234221E+02  0.51100000000E-03 0.  1.
<mgrwt>
<rscale>  0 0.12497994E+03</rscale>
<asrwt>0</asrwt>
<pdfrwt beam="2">  1        3 0.74549853E-02 0.12497994E+03</pdfrwt>
<pdfrwt beam="1">  1       -3 0.12397871E-01 0.12497994E+03</pdfrwt>
<totfact> 0.13635183E+04</totfact>
</mgrwt>
</event>
<event>
 5    1  0.3115977E-056  0.1249988E+03  0.7818608E-02  0.1235071E+00
         -3   -1    0    0    0  501 -0.00000000000E+00  0.00000000000E+00  0.80870776189E+02  0.80870829663E+02  0.93000000000E-01 0.  1.
          3   -1    0    0  501    0  0.00000000000E+00 -0.00000000000E+00 -0.48301327130E+02  0.48301416662E+02  0.93000000000E-01 0. -1.
         25    2    1    2    0    0  0.00000000000E+00  0.00000000000E+00  0.32569449059E+02  0.12917224632E+03  0.12499880083E+03 0.  0.
        -11    1    3    3    0    0  0.46119602353E+02 -0.35063040440E+01  0.59722224692E+02  0.75538440623E+02  0.51100000000E-03 0.  1.
         11    1    3    3    0    0 -0.46119602353E+02  0.35063040440E+01 -0.27152775633E+02  0.53633805702E+02  0.51100000000E-03 0. -1.
<mgrwt>
<rscale>  0 0.12499880E+03</rscale>
<asrwt>0</asrwt>
<pdfrwt beam="2">  1        3 0.74309844E-02 0.12499880E+03</pdfrwt>
<pdfrwt beam="1">  1       -3 0.12441669E-01 0.12499880E+03</pdfrwt>
<totfact> 0.13625999E+04</totfact>
</mgrwt>
</event>
<event>
 4    1  0.1787806E-056  0.1251462E+03  0.7818608E-02  0.1234841E+00
         -3   -1    0    0    0  501 -0.00000000000E+00  0.00000000000E+00  0.10378746649E+02  0.10379163309E+02  0.93000000000E-01 0.  1.
          3   -1    0    0  501    0  0.00000000000E+00 -0.00000000000E+00 -0.37724328900E+03  0.37724330046E+03  0.93000000000E-01 0. -1.
        -11    1    1    2    0    0  0.29142846220E+02 -0.44045544047E+02 -0.79493935658E+02  0.95438992256E+02  0.51100000000E-03 0.  1.
         11    1    1    2    0    0 -0.29142846220E+02  0.44045544047E+02 -0.28737060669E+03  0.29218347151E+03  0.51100000000E-03 0. -1.
<mgrwt>
<rscale>  0 0.12514624E+03</rscale>
<asrwt>0</asrwt>
<pdfrwt beam="2">  1        3 0.58037451E-01 0.12514624E+03</pdfrwt>
<pdfrwt beam="1">  1       -3 0.15967635E-02 0.12514624E+03</pdfrwt>
<totfact> 0.88529169E+03</totfact>
</mgrwt>
</event>
<event>
 5    1  0.1787806E-056  0.1250121E+03  0.7818608E-02  0.1235050E+00
          3   -1    0    0  501    0  0.00000000000E+00  0.00000000000E+00  0.16675231845E+02  0.16675491180E+02  0.93000000000E-01 0. -1.
         -3   -1    0    0    0  501 -0.00000000000E+00 -0.00000000000E+00 -0.23429780101E+03  0.23429781947E+03  0.93000000000E-01 0.  1.
         25    2    1    2    0    0  0.00000000000E+00  0.00000000000E+00 -0.21762256917E+03  0.25097331065E+03  0.12501207960E+03 0.  0.
        -11    1    3    3    0    0  0.48916941791E+02  0.32286021277E+02 -0.65206734253E+02  0.87676522263E+02  0.51100000000E-03 0.  1.
         11    1    3    3    0    0 -0.48916941791E+02 -0.32286021277E+02 -0.15241583491E+03  0.16329678838E+03  0.51100000000E-03 0. -1.
<mgrwt>
<rscale>  0 0.12501208E+03</rscale>
<asrwt>0</asrwt>
<pdfrwt beam="1">  1        3 0.25654418E-02 0.12501208E+03</pdfrwt>
<pdfrwt beam="2">  1       -3 0.36045834E-01 0.12501208E+03</pdfrwt>
<totfact> 0.10963976E+04</totfact>
</mgrwt>
</event>
<event>
 5    1  0.1787806E-056  0.1250018E+03  0.7818608E-02  0.1235066E+00
          3   -1    0    0  501    0  0.00000000000E+00  0.00000000000E+00  0.48233132763E+02  0.48233222421E+02  0.93000000000E-01 0. -1.
         -3   -1    0    0    0  501 -0.00000000000E+00 -0.00000000000E+00 -0.80989039403E+02  0.80989092799E+02  0.93000000000E-01 0.  1.
         25    2    1    2    0    0  0.00000000000E+00  0.00000000000E+00 -0.32755906640E+02  0.12922231522E+03  0.12500182931E+03 0.  0.
        -11    1    3    3    0    0  0.21655819026E+02 -0.23896330754E+02 -0.71723942486E+02  0.78640530563E+02  0.51100000000E-03 0.  1.
         11    1    3    3    0    0 -0.21655819026E+02  0.23896330754E+02  0.38968035846E+02  0.50581784658E+02  0.51100000000E-03 0. -1.
<mgrwt>
<rscale>  0 0.12500183E+03</rscale>
<asrwt>0</asrwt>
<pdfrwt beam="1">  1        3 0.74204930E-02 0.12500183E+03</pdfrwt>
<pdfrwt beam="2">  1       -3 0.12459863E-01 0.12500183E+03</pdfrwt>
<totfact> 0.13623753E+04</totfact>
</mgrwt>
</event>
<event>
 5    1  0.1787806E-056  0.1250015E+03  0.7818608E-02  0.1235067E+00
         -3   -1    0    0    0  501 -0.00000000000E+00  0.00000000000E+00  0.29123970243E+03  0.29123971728E+03  0.93000000000E-01 0.  1.
          3   -1    0    0  501    0  0.00000000000E+00 -0.00000000000E+00 -0.13412634084E+02  0.13412956500E+02  0.93000000000E-01 0. -1.
         25    2    1    2    0    0  0.00000000000E+00  0.00000000000E+00  0.27782706834E+03  0.30465267378E+03  0.12500148693E+03 0.  0.
        -11    1    3    3    0    0  0.37848769965E+02  0.19705303563E+02  0.25021385796E+03  0.25382632466E+03  0.51100000000E-03 0.  1.
         11    1    3    3    0    0 -0.37848769965E+02 -0.19705303563E+02  0.27613210386E+02  0.50826349116E+02  0.51100000000E-03 0. -1.
<mgrwt>
<rscale>  0 0.12500149E+03</rscale>
<asrwt>0</asrwt>
<pdfrwt beam="2">  1        3 0.20635080E-02 0.12500149E+03</pdfrwt>
<pdfrwt beam="1">  1       -3 0.44806136E-01 0.12500149E+03</pdfrwt>
<totfact> 0.10059199E+04</totfact>
</mgrwt>
</event>
<event>
 5    1  0.1787806E-056  0.1250083E+03  0.7818608E-02  0.1235056E+00
         -3   -1    0    0    0  501 -0.00000000000E+00  0.00000000000E+00  0.54264519095E+03  0.54264519892E+03  0.93000000000E-01 0.  1.
          3   -1    0    0  501    0  0.00000000000E+00 -0.00000000000E+00 -0.71991872746E+01  0.71997879424E+01  0.93000000000E-01 0. -1.
         25    2    1    2    0    0  0.00000000000E+00  0.00000000000E+00  0.53544600368E+03  0.54984498686E+03  0.12500834662E+03 0.  0.
        -11    1    3    3    0    0 -0.51129870075E+02  0.34321791279E+02  0.31479331284E+03  0.32076015772E+03  0.51100000000E-03 0.  1.
         11    1    3    3    0    0  0.51129870075E+02 -0.34321791279E+02  0.22065269084E+03  0.22908482915E+03  0.51100000000E-03 0. -1.
<mgrwt>
<rscale>  0 0.12500835E+03</rscale>
<asrwt>0</asrwt>
<pdfrwt beam="2">  1        3 0.11076141E-02 0.12500835E+03</pdfrwt>
<pdfrwt beam="1">  1       -3 0.83483925E-01 0.12500835E+03</pdfrwt>
<totfact> 0.71079809E+03</totfact>
</mgrwt>
</event>
<event>
 5    1  0.1787806E-056  0.1249993E+03  0.7818608E-02  0.1235070E+00
          3   -1    0    0  501    0  0.00000000000E+00  0.00000000000E+00  0.15076496958E+02  0.15076783792E+02  0.93000000000E-01 0. -1.
         -3   -1    0    0    0  501 -0.00000000000E+00 -0.00000000000E+00 -0.25908985666E+03  0.25908987335E+03  0.93000000000E-01 0.  1.
         25    2    1    2    0    0  0.00000000000E+00  0.00000000000E+00 -0.24401335970E+03  0.27416665714E+03  0.12499934470E+03 0.  0.
        -11    1    3    3    0    0 -0.59352735982E+02  0.19254570583E+02 -0.12983027843E+03  0.14404647498E+03  0.51100000000E-03 0.  1.
         11    1    3    3    0    0  0.59352735982E+02 -0.19254570583E+02 -0.11418308127E+03  0.13012018216E+03  0.51100000000E-03 0. -1.
<mgrwt>
<rscale>  0 0.12499934E+03</rscale>
<asrwt>0</asrwt>
<pdfrwt beam="1">  1        3 0.23194846E-02 0.12499934E+03</pdfrwt>
<pdfrwt beam="2">  1       -3 0.39859998E-01 0.12499934E+03</pdfrwt>
<totfact> 0.10559380E+04</totfact>
</mgrwt>
</event>
<event>
 5    1  0.1787806E-056  0.1250011E+03  0.7818608E-02  0.1235067E+00
         -3   -1    0    0    0  501 -0.00000000000E+00  0.00000000000E+00  0.13322288822E+03  0.13322292068E+03  0.93000000000E-01 0.  1.
          3   -1    0    0  501    0  0.00000000000E+00 -0.00000000000E+00 -0.29321590688E+02  0.29321738172E+02  0.93000000000E-01 0. -1.
         25    2    1    2    0    0  0.00000000000E+00  0.00000000000E+00  0.10390129753E+03  0.16254465885E+03  0.12500114597E+03 0.  0.
        -11    1    3    3    0    0  0.33452349466E+02 -0.51331511492E+02  0.68000190737E+02  0.91531468345E+02  0.51100000000E-03 0.  1.
         11    1    3    3    0    0 -0.33452349466E+02  0.51331511492E+02  0.35901106797E+02  0.71013190510E+02  0.51100000000E-03 0. -1.
<mgrwt>
<rscale>  0 0.12500115E+03</rscale>
<asrwt>0</asrwt>
<pdfrwt beam="2">  1        3 0.45110278E-02 0.12500115E+03</pdfrwt>
<pdfrwt beam="1">  1       -3 0.20495843E-01 0.12500115E+03</pdfrwt>
<totfact> 0.12793744E+04</totfact>
</mgrwt>
</event>
<event>
 5    1  0.1787806E-056  0.1250008E+03  0.7818608E-02  0.1235068E+00
         -3   -1    0    0    0  501 -0.00000000000E+00  0.00000000000E+00  0.47531973881E+02  0.47532064862E+02  0.93000000000E-01 0.  1.
          3   -1    0    0  501    0  0.00000000000E+00 -0.00000000000E+00 -0.82182320731E+02  0.82182373352E+02  0.93000000000E-01 0. -1.
         25    2    1    2    0    0  0.00000000000E+00  0.00000000000E+00 -0.34650346850E+02  0.12971443821E+03  0.12500075577E+03 0.  0.
        -11    1    3    3    0    0 -0.34664170868E+02  0.51626225490E+02 -0.23840907918E+02  0.66597753648E+02  0.51100000000E-03 0.  1.
         11    1    3    3    0    0  0.34664170868E+02 -0.51626225490E+02 -0.10809438932E+02  0.63116684566E+02  0.51100000000E-03 0. -1.
<mgrwt>
<rscale>  0 0.12500076E+03</rscale>
<asrwt>0</asrwt>
<pdfrwt beam="2">  1        3 0.12643445E-01 0.12500076E+03</pdfrwt>
<pdfrwt beam="1">  1       -3 0.73126224E-02 0.12500076E+03</pdfrwt>
<totfact> 0.13611015E+04</totfact>
</mgrwt>
</event>
<event>
 5    1  0.1787806E-056  0.1249995E+03  0.7818608E-02  0.1235070E+00
         -3   -1    0    0    0  501 -0.00000000000E+00  0.00000000000E+00  0.53991982615E+02  0.53992062710E+02  0.93000000000E-01 0.  1.
          3   -1    0    0  501    0  0.00000000000E+00 -0.00000000000E+00 -0.72347946820E+02  0.72348006593E+02  0.93000000000E-01 0. -1.
         25    2    1    2    0    0  0.00000000000E+00  0.00000000000E+00 -0.18355964204E+02  0.12634006930E+03  0.12499948676E+03 0.  0.
        -11    1    3    3    0    0 -0.53490215911E+02 -0.32278167289E+02 -0.10967461696E+02  0.63430028362E+02  0.51100000000E-03 0.  1.
         11    1    3    3    0    0  0.53490215911E+02  0.32278167289E+02 -0.73885025083E+01  0.62910040942E+02  0.51100000000E-03 0. -1.
<mgrwt>
<rscale>  0 0.12499949E+03</rscale>
<asrwt>0</asrwt>
<pdfrwt beam="2">  1        3 0.11130464E-01 0.12499949E+03</pdfrwt>
<pdfrwt beam="1">  1       -3 0.83064696E-02 0.12499949E+03</pdfrwt>
<totfact> 0.13700624E+04</totfact>
</mgrwt>
</event>
<event>
 5    1  0.1787806E-056  0.1250015E+03  0.7818608E-02  0.1235067E+00
         -3   -1    0    0    0  501 -0.00000000000E+00  0.00000000000E+00  0.74318019525E+02  0.74318077714E+02  0.93000000000E-01 0.  1.
          3   -1    0    0  501    0  0.00000000000E+00 -0.00000000000E+00 -0.52562444868E+02  0.52562527142E+02  0.93000000000E-01 0. -1.
         25    2    1    2    0    0  0.00000000000E+00  0.00000000000E+00  0.21755574656E+02  0.12688060486E+03  0.12500153143E+03 0.  0.
        -11    1    3    3    0    0 -0.30816824302E+02  0.44617998627E+02  0.42423963258E+02  0.68849365431E+02  0.51100000000E-03 0.  1.
         11    1    3    3    0    0  0.30816824302E+02 -0.44617998627E+02 -0.20668388601E+02  0.58031239425E+02  0.51100000000E-03 0. -1.
<mgrwt>
<rscale>  0 0.12500153E+03</rscale>
<asrwt>0</asrwt>
<pdfrwt beam="2">  1        3 0.80865408E-02 0.12500153E+03</pdfrwt>
<pdfrwt beam="1">  1       -3 0.11433552E-01 0.12500153E+03</pdfrwt>
<totfact> 0.13685685E+04</totfact>
</mgrwt>
</event>
<event>
 5    1  0.1787806E-056  0.1250004E+03  0.7818608E-02  0.1235069E+00
          3   -1    0    0  501    0  0.00000000000E+00  0.00000000000E+00  0.53943003497E+02  0.53943083665E+02  0.93000000000E-01 0. -1.
         -3   -1    0    0    0  501 -0.00000000000E+00 -0.00000000000E+00 -0.72414648193E+02  0.72414707912E+02  0.93000000000E-01 0.  1.
         25    2    1    2    0    0  0.00000000000E+00  0.00000000000E+00 -0.18471644696E+02  0.12635779158E+03  0.12500035934E+03 0.  0.
        -11    1    3    3    0    0 -0.48411593263E+02 -0.27938432260E+02  0.19032732725E+02  0.59046450145E+02  0.51100000000E-03 0. -1.
         11    1    3    3    0    0  0.48411593263E+02  0.27938432260E+02 -0.37504377421E+02  0.67311341432E+02  0.51100000000E-03 0.  1.
<mgrwt>
<rscale>  0 0.12500036E+03</rscale>
<asrwt>0</asrwt>
<pdfrwt beam="1">  1        3 0.82989343E-02 0.12500036E+03</pdfrwt>
<pdfrwt beam="2">  1       -3 0.11140726E-01 0.12500036E+03</pdfrwt>
<totfact> 0.13699977E+04</totfact>
</mgrwt>
</event>
<event>
 5    1  0.1787806E-056  0.1250037E+03  0.7818608E-02  0.1235063E+00
          3   -1    0    0  501    0  0.00000000000E+00  0.00000000000E+00  0.23943515859E+02  0.23943696471E+02  0.93000000000E-01 0.  1.
         -3   -1    0    0    0  501 -0.00000000000E+00 -0.00000000000E+00 -0.16315334853E+03  0.16315337504E+03  0.93000000000E-01 0. -1.
         25    2    1    2    0    0  0.00000000000E+00  0.00000000000E+00 -0.13920983267E+03  0.18709707151E+03  0.12500374656E+03 0.  0.
        -11    1    3    3    0    0  0.57171150103E+02 -0.20294233035E+01 -0.10728646221E+03  0.12158554165E+03  0.51100000000E-03 0. -1.
         11    1    3    3    0    0 -0.57171150103E+02  0.20294233035E+01 -0.31923370457E+02  0.65511529860E+02  0.51100000000E-03 0.  1.
<mgrwt>
<rscale>  0 0.12500375E+03</rscale>
<asrwt>0</asrwt>
<pdfrwt beam="1">  1        3 0.36836339E-02 0.12500375E+03</pdfrwt>
<pdfrwt beam="2">  1       -3 0.25100530E-01 0.12500375E+03</pdfrwt>
<totfact> 0.12236314E+04</totfact>
</mgrwt>
</event>
<event>
 5    1  0.1787806E-056  0.1250006E+03  0.7818608E-02  0.1235068E+00
          3   -1    0    0  501    0  0.00000000000E+00  0.00000000000E+00  0.53285795431E+03  0.53285796242E+03  0.93000000000E-01 0. -1.
         -3   -1    0    0    0  501 -0.00000000000E+00 -0.00000000000E+00 -0.73305144668E+01  0.73311043744E+01  0.93000000000E-01 0.  1.
         25    2    1    2    0    0  0.00000000000E+00  0.00000000000E+00  0.52552743984E+03  0.54018906680E+03  0.12500055145E+03 0.  0.
        -11    1    3    3    0    0 -0.36053698613E+02 -0.48958388872E+02  0.32531223483E+03  0.33094537790E+03  0.51100000000E-03 0. -1.
         11    1    3    3    0    0  0.36053698613E+02  0.48958388872E+02  0.20021520501E+03  0.20924368889E+03  0.51100000000E-03 0.  1.
<mgrwt>
<rscale>  0 0.12500055E+03</rscale>
<asrwt>0</asrwt>
<pdfrwt beam="1">  1        3 0.81978211E-01 0.12500055E+03</pdfrwt>
<pdfrwt beam="2">  1       -3 0.11278172E-02 0.12500055E+03</pdfrwt>
<totfact> 0.72084050E+03</totfact>
</mgrwt>
</event>
<event>
 5    1  0.1787806E-056  0.1249989E+03  0.7818608E-02  0.1235071E+00
         -3   -1    0    0    0  501 -0.00000000000E+00  0.00000000000E+00  0.24506866462E+02  0.24507042922E+02  0.93000000000E-01 0.  1.
          3   -1    0    0  501    0  0.00000000000E+00 -0.00000000000E+00 -0.15939041670E+03  0.15939044384E+03  0.93000000000E-01 0. -1.
         25    2    1    2    0    0  0.00000000000E+00  0.00000000000E+00 -0.13488355024E+03  0.18389748676E+03  0.12499885403E+03 0.  0.
        -11    1    3    3    0    0 -0.15298176796E+02  0.53955169432E+02 -0.26857528905E+02  0.62181358789E+02  0.51100000000E-03 0.  1.
         11    1    3    3    0    0  0.15298176796E+02 -0.53955169432E+02 -0.10802602134E+03  0.12171612797E+03  0.51100000000E-03 0. -1.
<mgrwt>
<rscale>  0 0.12499885E+03</rscale>
<asrwt>0</asrwt>
<pdfrwt beam="2">  1        3 0.24521618E-01 0.12499885E+03</pdfrwt>
<pdfrwt beam="1">  1       -3 0.37703029E-02 0.12499885E+03</pdfrwt>
<totfact> 0.12308157E+04</totfact>
</mgrwt>
</event>
<event>
 5    1  0.1787806E-056  0.1249999E+03  0.7818608E-02  0.1235069E+00
          3   -1    0    0  501    0  0.00000000000E+00  0.00000000000E+00  0.24838386016E+02  0.24838560121E+02  0.93000000000E-01 0.  1.
         -3   -1    0    0    0  501 -0.00000000000E+00 -0.00000000000E+00 -0.15726577297E+03  0.15726580047E+03  0.93000000000E-01 0. -1.
         25    2    1    2    0    0  0.00000000000E+00  0.00000000000E+00 -0.13242738696E+03  0.18210436059E+03  0.12499994132E+03 0.  0.
        -11    1    3    3    0    0 -0.58008506729E+02  0.65940303906E+01 -0.98717070936E+02  0.11468883199E+03  0.51100000000E-03 0. -1.
         11    1    3    3    0    0  0.58008506729E+02 -0.65940303906E+01 -0.33710316023E+02  0.67415528599E+02  0.51100000000E-03 0.  1.
<mgrwt>
<rscale>  0 0.12499994E+03</rscale>
<asrwt>0</asrwt>
<pdfrwt beam="1">  1        3 0.38213058E-02 0.12499994E+03</pdfrwt>
<pdfrwt beam="2">  1       -3 0.24194749E-01 0.12499994E+03</pdfrwt>
<totfact> 0.12347074E+04</totfact>
</mgrwt>
</event>
<event>
 5    1  0.1787806E-056  0.1250025E+03  0.7818608E-02  0.1235065E+00
          3   -1    0    0  501    0  0.00000000000E+00  0.00000000000E+00  0.63243455714E+02  0.63243524092E+02  0.93000000000E-01 0. -1.
         -3   -1    0    0    0  501 -0.00000000000E+00 -0.00000000000E+00 -0.61767660207E+02  0.61767730219E+02  0.93000000000E-01 0.  1.
         25    2    1    2    0    0  0.00000000000E+00  0.00000000000E+00  0.14757955071E+01  0.12501125431E+03  0.12500254290E+03 0.  0.
        -11    1    3    3    0    0  0.20519044351E+02 -0.58295926972E+02 -0.85881288126E+01  0.62395530603E+02  0.51100000000E-03 0.  1.
         11    1    3    3    0    0 -0.20519044351E+02  0.58295926972E+02  0.10063924320E+02  0.62615723708E+02  0.51100000000E-03 0. -1.
<mgrwt>
<rscale>  0 0.12500254E+03</rscale>
<asrwt>0</asrwt>
<pdfrwt beam="1">  1        3 0.97297731E-02 0.12500254E+03</pdfrwt>
<pdfrwt beam="2">  1       -3 0.95027276E-02 0.12500254E+03</pdfrwt>
<totfact> 0.13735330E+04</totfact>
</mgrwt>
</event>
<event>
 5    1  0.1787806E-056  0.1249875E+03  0.7818608E-02  0.1235089E+00
         -3   -1    0    0    0  501 -0.00000000000E+00  0.00000000000E+00  0.37339130994E+02  0.37339246811E+02  0.93000000000E-01 0.  1.
          3   -1    0    0  501    0  0.00000000000E+00 -0.00000000000E+00 -0.10459418580E+03  0.10459422715E+03  0.93000000000E-01 0. -1.
         25    2    1    2    0    0  0.00000000000E+00  0.00000000000E+00 -0.67255054809E+02  0.14193347396E+03  0.12498747390E+03 0.  0.
        -11    1    3    3    0    0 -0.14435042698E+02 -0.60318392842E+02 -0.24920631165E+02  0.66840981670E+02  0.51100000000E-03 0.  1.
         11    1    3    3    0    0  0.14435042698E+02  0.60318392842E+02 -0.42334423643E+02  0.75092492289E+02  0.51100000000E-03 0. -1.
<mgrwt>
<rscale>  0 0.12498747E+03</rscale>
<asrwt>0</asrwt>
<pdfrwt beam="2">  1        3 0.16091425E-01 0.12498747E+03</pdfrwt>
<pdfrwt beam="1">  1       -3 0.57444938E-02 0.12498747E+03</pdfrwt>
<totfact> 0.13300027E+04</totfact>
</mgrwt>
</event>
<event>
 5    1  0.1787806E-056  0.1249994E+03  0.7818608E-02  0.1235070E+00
          3   -1    0    0  501    0  0.00000000000E+00  0.00000000000E+00  0.26666753672E+02  0.26666915840E+02  0.93000000000E-01 0. -1.
         -3   -1    0    0    0  501 -0.00000000000E+00 -0.00000000000E+00 -0.14648181443E+03  0.14648184395E+03  0.93000000000E-01 0.  1.
         25    2    1    2    0    0  0.00000000000E+00  0.00000000000E+00 -0.11981506076E+03  0.17314875979E+03  0.12499937693E+03 0.  0.
        -11    1    3    3    0    0  0.46883116847E+02 -0.39272793487E+02 -0.77745517381E+02  0.98917867075E+02  0.51100000000E-03 0.  1.
         11    1    3    3    0    0 -0.46883116847E+02  0.39272793487E+02 -0.42069543379E+02  0.74230892720E+02  0.51100000000E-03 0. -1.
<mgrwt>
<rscale>  0 0.12499938E+03</rscale>
<asrwt>0</asrwt>
<pdfrwt beam="1">  1        3 0.41025923E-02 0.12499938E+03</pdfrwt>
<pdfrwt beam="2">  1       -3 0.22535678E-01 0.12499938E+03</pdfrwt>
<totfact> 0.12548486E+04</totfact>
</mgrwt>
</event>
<event>
 5    1  0.1787806E-056  0.1250019E+03  0.7818608E-02  0.1235066E+00
          3   -1    0    0  501    0  0.00000000000E+00  0.00000000000E+00  0.52116778989E+02  0.52116861966E+02  0.93000000000E-01 0. -1.
         -3   -1    0    0    0  501 -0.00000000000E+00 -0.00000000000E+00 -0.74953933770E+02  0.74953991465E+02  0.93000000000E-01 0.  1.
         25    2    1    2    0    0  0.00000000000E+00  0.00000000000E+00 -0.22837154781E+02  0.12707085343E+03  0.12500186460E+03 0.  0.
        -11    1    3    3    0    0 -0.53207212488E+02 -0.30881770309E+02 -0.22631807629E+02  0.65550666777E+02  0.51100000000E-03 0.  1.
         11    1    3    3    0    0  0.53207212488E+02  0.30881770309E+02 -0.20534715157E+00  0.61520186653E+02  0.51100000000E-03 0. -1.
<mgrwt>
<rscale>  0 0.12500186E+03</rscale>
<asrwt>0</asrwt>
<pdfrwt beam="1">  1        3 0.80179768E-02 0.12500186E+03</pdfrwt>
<pdfrwt beam="2">  1       -3 0.11531385E-01 0.12500186E+03</pdfrwt>
<totfact> 0.13680526E+04</totfact>
</mgrwt>
</event>
<event>
 5    1  0.1787806E-056  0.1249997E+03  0.7818608E-02  0.1235070E+00
         -3   -1    0    0    0  501 -0.00000000000E+00  0.00000000000E+00  0.16681995896E+03  0.16681998489E+03  0.93000000000E-01 0.  1.
          3   -1    0    0  501    0  0.00000000000E+00 -0.00000000000E+00 -0.23415748534E+02  0.23415933217E+02  0.93000000000E-01 0. -1.
         25    2    1    2    0    0  0.00000000000E+00  0.00000000000E+00  0.14340421043E+03  0.19023591810E+03  0.12499974787E+03 0.  0.
        -11    1    3    3    0    0  0.29113791165E+01  0.54781867015E+02  0.11727516792E+03  0.12947198189E+03  0.51100000000E-03 0.  1.
         11    1    3    3    0    0 -0.29113791165E+01 -0.54781867015E+02  0.26129042508E+02  0.60763936217E+02  0.51100000000E-03 0. -1.
<mgrwt>
<rscale>  0 0.12499975E+03</rscale>
<asrwt>0</asrwt>
<pdfrwt beam="2">  1        3 0.36024391E-02 0.12499975E+03</pdfrwt>
<pdfrwt beam="1">  1       -3 0.25664625E-01 0.12499975E+03</pdfrwt>
<totfact> 0.12169313E+04</totfact>
</mgrwt>
</event>
<event>
 5    1  0.1787806E-056  0.1250003E+03  0.7818608E-02  0.1235069E+00
         -3   -1    0    0    0  501 -0.00000000000E+00  0.00000000000E+00  0.68811666890E+02  0.68811729735E+02  0.93000000000E-01 0.  1.
          3   -1    0    0  501    0  0.00000000000E+00 -0.00000000000E+00 -0.56767415536E+02  0.56767491716E+02  0.93000000000E-01 0. -1.
         25    2    1    2    0    0  0.00000000000E+00  0.00000000000E+00  0.12044251353E+02  0.12557922145E+03  0.12500030748E+03 0.  0.
        -11    1    3    3    0    0 -0.19792576618E+02  0.55973939376E+02  0.25643098081E+02  0.64671450099E+02  0.51100000000E-03 0.  1.
         11    1    3    3    0    0  0.19792576618E+02 -0.55973939376E+02 -0.13598846728E+02  0.60907771352E+02  0.51100000000E-03 0. -1.
<mgrwt>
<rscale>  0 0.12500031E+03</rscale>
<asrwt>0</asrwt>
<pdfrwt beam="2">  1        3 0.87334593E-02 0.12500031E+03</pdfrwt>
<pdfrwt beam="1">  1       -3 0.10586421E-01 0.12500031E+03</pdfrwt>
<totfact> 0.13720882E+04</totfact>
</mgrwt>
</event>
<event>
 5    1  0.1787806E-056  0.1250007E+03  0.7818608E-02  0.1235068E+00
          3   -1    0    0  501    0  0.00000000000E+00  0.00000000000E+00  0.98327271693E+02  0.98327315673E+02  0.93000000000E-01 0. -1.
         -3   -1    0    0    0  501 -0.00000000000E+00 -0.00000000000E+00 -0.39727371673E+02  0.39727480527E+02  0.93000000000E-01 0.  1.
         25    2    1    2    0    0  0.00000000000E+00  0.00000000000E+00  0.58599900020E+02  0.13805479620E+03  0.12500071389E+03 0.  0.
        -11    1    3    3    0    0 -0.79263280790E+00 -0.57670951284E+02  0.55891952493E+02  0.80314863149E+02  0.51100000000E-03 0. -1.
         11    1    3    3    0    0  0.79263280790E+00  0.57670951284E+02  0.27079475264E+01  0.57739933052E+02  0.51100000000E-03 0.  1.
<mgrwt>
<rscale>  0 0.12500071E+03</rscale>
<asrwt>0</asrwt>
<pdfrwt beam="1">  1        3 0.15127284E-01 0.12500071E+03</pdfrwt>
<pdfrwt beam="2">  1       -3 0.61119151E-02 0.12500071E+03</pdfrwt>
<totfact> 0.13394705E+04</totfact>
</mgrwt>
</event>
<event>
 5    1  0.1787806E-056  0.1250007E+03  0.7818608E-02  0.1235068E+00
         -3   -1    0    0    0  501 -0.00000000000E+00  0.00000000000E+00  0.17360871617E+03  0.17360874108E+03  0.93000000000E-01 0.  1.
          3   -1    0    0  501    0  0.00000000000E+00 -0.00000000000E+00 -0.22500435392E+02  0.22500627588E+02  0.93000000000E-01 0. -1.
         25    2    1    2    0    0  0.00000000000E+00  0.00000000000E+00  0.15110828078E+03  0.19610936867E+03  0.12500068783E+03 0.  0.
        -11    1    3    3    0    0 -0.10565067032E+02 -0.56029373075E+02  0.35390497735E+02  0.67107366352E+02  0.51100000000E-03 0. -1.
         11    1    3    3    0    0  0.10565067032E+02  0.56029373075E+02  0.11571778304E+03  0.12900200231E+03  0.51100000000E-03 0.  1.
<mgrwt>
<rscale>  0 0.12500069E+03</rscale>
<asrwt>0</asrwt>
<pdfrwt beam="2">  1        3 0.34616220E-02 0.12500069E+03</pdfrwt>
<pdfrwt beam="1">  1       -3 0.26709051E-01 0.12500069E+03</pdfrwt>
<totfact> 0.12043401E+04</totfact>
</mgrwt>
</event>
<event>
 5    1  0.1787806E-056  0.1250002E+03  0.7818608E-02  0.1235069E+00
         -3   -1    0    0    0  501 -0.00000000000E+00  0.00000000000E+00  0.19883725515E+02  0.19883943003E+02  0.93000000000E-01 0.  1.
          3   -1    0    0  501    0  0.00000000000E+00 -0.00000000000E+00 -0.19645392692E+03  0.19645394893E+03  0.93000000000E-01 0. -1.
         25    2    1    2    0    0  0.00000000000E+00  0.00000000000E+00 -0.17657020140E+03  0.21633789193E+03  0.12500018985E+03 0.  0.
        -11    1    3    3    0    0 -0.58298442249E+02  0.28590563333E+01 -0.49609489452E+02  0.76602767677E+02  0.51100000000E-03 0.  1.
         11    1    3    3    0    0  0.58298442249E+02 -0.28590563333E+01 -0.12696071195E+03  0.13973512426E+03  0.51100000000E-03 0. -1.
<mgrwt>
<rscale>  0 0.12500019E+03</rscale>
<asrwt>0</asrwt>
<pdfrwt beam="2">  1        3 0.30223698E-01 0.12500019E+03</pdfrwt>
<pdfrwt beam="1">  1       -3 0.30590533E-02 0.12500019E+03</pdfrwt>
<totfact> 0.11627786E+04</totfact>
</mgrwt>
</event>
<event>
 5    1  0.1787806E-056  0.1249995E+03  0.7818608E-02  0.1235070E+00
          3   -1    0    0  501    0  0.00000000000E+00  0.00000000000E+00  0.24260734228E+03  0.24260736010E+03  0.93000000000E-01 0. -1.
         -3   -1    0    0    0  501 -0.00000000000E+00 -0.00000000000E+00 -0.16100839770E+02  0.16101108356E+02  0.93000000000E-01 0.  1.
         25    2    1    2    0    0  0.00000000000E+00  0.00000000000E+00  0.22650650251E+03  0.25870846846E+03  0.12499950390E+03 0.  0.
        -11    1    3    3    0    0  0.56210860182E+02  0.27266735452E+02  0.11688748006E+03  0.13253610323E+03  0.51100000000E-03 0.  1.
         11    1    3    3    0    0 -0.56210860182E+02 -0.27266735452E+02  0.10961902244E+03  0.12617236523E+03  0.51100000000E-03 0. -1.
<mgrwt>
<rscale>  0 0.12499950E+03</rscale>
<asrwt>0</asrwt>
<pdfrwt beam="1">  1        3 0.37324227E-01 0.12499950E+03</pdfrwt>
<pdfrwt beam="2">  1       -3 0.24770744E-02 0.12499950E+03</pdfrwt>
<totfact> 0.10830440E+04</totfact>
</mgrwt>
</event>
<event>
 5    1  0.1787806E-056  0.1250016E+03  0.7818608E-02  0.1235067E+00
         -3   -1    0    0    0  501 -0.00000000000E+00  0.00000000000E+00  0.47007716705E+02  0.47007808701E+02  0.93000000000E-01 0.  1.
          3   -1    0    0  501    0  0.00000000000E+00 -0.00000000000E+00 -0.83100011494E+02  0.83100063534E+02  0.93000000000E-01 0. -1.
         25    2    1    2    0    0  0.00000000000E+00  0.00000000000E+00 -0.36092294789E+02  0.13010787223E+03  0.12500161869E+03 0.  0.
        -11    1    3    3    0    0  0.55605894863E+02 -0.27468688792E+02 -0.26095539406E+02  0.67286860416E+02  0.51100000000E-03 0.  1.
         11    1    3    3    0    0 -0.55605894863E+02  0.27468688792E+02 -0.99967553836E+01  0.62821011819E+02  0.51100000000E-03 0. -1.
<mgrwt>
<rscale>  0 0.12500162E+03</rscale>
<asrwt>0</asrwt>
<pdfrwt beam="2">  1        3 0.12784628E-01 0.12500162E+03</pdfrwt>
<pdfrwt beam="1">  1       -3 0.72319675E-02 0.12500162E+03</pdfrwt>
<totfact> 0.13600447E+04</totfact>
</mgrwt>
</event>
<event>
 5    1  0.1787806E-056  0.1250008E+03  0.7818608E-02  0.1235068E+00
         -3   -1    0    0    0  501 -0.00000000000E+00  0.00000000000E+00  0.18079403892E+02  0.18079643085E+02  0.93000000000E-01 0.  1.
          3   -1    0    0  501    0  0.00000000000E+00 -0.00000000000E+00 -0.21606189923E+03  0.21606191925E+03  0.93000000000E-01 0. -1.
         25    2    1    2    0    0  0.00000000000E+00  0.00000000000E+00 -0.19798249534E+03  0.23414156233E+03  0.12500081100E+03 0.  0.
        -11    1    3    3    0    0  0.41210568176E+02  0.35831828878E+02 -0.15593132716E+03  0.16521746179E+03  0.51100000000E-03 0. -1.
         11    1    3    3    0    0 -0.41210568176E+02 -0.35831828878E+02 -0.42051168182E+02  0.68924100545E+02  0.51100000000E-03 0.  1.
<mgrwt>
<rscale>  0 0.12500081E+03</rscale>
<asrwt>0</asrwt>
<pdfrwt beam="2">  1        3 0.33240310E-01 0.12500081E+03</pdfrwt>
<pdfrwt beam="1">  1       -3 0.27814668E-02 0.12500081E+03</pdfrwt>
<totfact> 0.11280873E+04</totfact>
</mgrwt>
</event>
<event>
 5    1  0.1787806E-056  0.1250034E+03  0.7818608E-02  0.1235064E+00
         -3   -1    0    0    0  501 -0.00000000000E+00  0.00000000000E+00  0.65447111548E+03  0.65447112209E+03  0.93000000000E-01 0.  1.
          3   -1    0    0  501    0  0.00000000000E+00 -0.00000000000E+00 -0.59685178551E+01  0.59692423628E+01  0.93000000000E-01 0. -1.
         25    2    1    2    0    0  0.00000000000E+00  0.00000000000E+00  0.64850259763E+03  0.66044036445E+03  0.12500342343E+03 0.  0.
        -11    1    3    3    0    0  0.39078247558E+02 -0.48710172595E+02  0.33790003560E+03  0.34362221175E+03  0.51100000000E-03 0.  1.
         11    1    3    3    0    0 -0.39078247558E+02  0.48710172595E+02  0.31060256202E+03  0.31681815270E+03  0.51100000000E-03 0. -1.
<mgrwt>
<rscale>  0 0.12500342E+03</rscale>
<asrwt>0</asrwt>
<pdfrwt beam="2">  1        3 0.91828988E-03 0.12500342E+03</pdfrwt>
<pdfrwt beam="1">  1       -3 0.10068791E+00 0.12500342E+03</pdfrwt>
<totfact> 0.61955906E+03</totfact>
</mgrwt>
</event>
<event>
 5    1  0.1787806E-056  0.1249996E+03  0.7818608E-02  0.1235070E+00
         -3   -1    0    0    0  501 -0.00000000000E+00  0.00000000000E+00  0.23271538991E+03  0.23271540849E+03  0.93000000000E-01 0.  1.
          3   -1    0    0  501    0  0.00000000000E+00 -0.00000000000E+00 -0.16785260308E+02  0.16785517942E+02  0.93000000000E-01 0. -1.
         25    2    1    2    0    0  0.00000000000E+00  0.00000000000E+00  0.21593012960E+03  0.24950092644E+03  0.12499956569E+03 0.  0.
        -11    1    3    3    0    0  0.37952282049E+02 -0.23261956053E+02  0.20396465723E+02  0.48964376095E+02  0.51100000000E-03 0. -1.
         11    1    3    3    0    0 -0.37952282049E+02  0.23261956053E+02  0.19553366388E+03  0.20053655034E+03  0.51100000000E-03 0.  1.
<mgrwt>
<rscale>  0 0.12499957E+03</rscale>
<asrwt>0</asrwt>
<pdfrwt beam="2">  1        3 0.25823693E-02 0.12499957E+03</pdfrwt>
<pdfrwt beam="1">  1       -3 0.35802385E-01 0.12499957E+03</pdfrwt>
<totfact> 0.10993803E+04</totfact>
</mgrwt>
</event>
<event>
 5    1  0.1787806E-056  0.1249989E+03  0.7818608E-02  0.1235071E+00
         -3   -1    0    0    0  501 -0.00000000000E+00  0.00000000000E+00  0.17639085586E+02  0.17639330750E+02  0.93000000000E-01 0.  1.
          3   -1    0    0  501    0  0.00000000000E+00 -0.00000000000E+00 -0.22144854567E+03  0.22144856520E+03  0.93000000000E-01 0. -1.
         25    2    1    2    0    0  0.00000000000E+00  0.00000000000E+00 -0.20380946009E+03  0.23908789595E+03  0.12499890387E+03 0.  0.
        -11    1    3    3    0    0 -0.57636528395E+02  0.21077291949E+02 -0.12453309220E+03  0.13883339906E+03  0.51100000000E-03 0. -1.
         11    1    3    3    0    0  0.57636528395E+02 -0.21077291949E+02 -0.79276367887E+02  0.10025449689E+03  0.51100000000E-03 0.  1.
<mgrwt>
<rscale>  0 0.12499890E+03</rscale>
<asrwt>0</asrwt>
<pdfrwt beam="2">  1        3 0.34069025E-01 0.12499890E+03</pdfrwt>
<pdfrwt beam="1">  1       -3 0.27137260E-02 0.12499890E+03</pdfrwt>
<totfact> 0.11188079E+04</totfact>
</mgrwt>
</event>
<event>
 5    1  0.1787806E-056  0.1250019E+03  0.7818608E-02  0.1235066E+00
         -3   -1    0    0    0  501 -0.00000000000E+00  0.00000000000E+00  0.27714079069E+02  0.27714235108E+02  0.93000000000E-01 0. -1.
          3   -1    0    0  501    0  0.00000000000E+00 -0.00000000000E+00 -0.14095196889E+03  0.14095199957E+03  0.93000000000E-01 0.  1.
         25    2    1    2    0    0  0.00000000000E+00  0.00000000000E+00 -0.11323788982E+03  0.16866623468E+03  0.12500191610E+03 0.  0.
        -11    1    3    3    0    0  0.58446784957E+02 -0.18498387695E+02 -0.40195421996E+02  0.73306813932E+02  0.51100000000E-03 0. -1.
         11    1    3    3    0    0 -0.58446784957E+02  0.18498387695E+02 -0.73042467826E+02  0.95359420748E+02  0.51100000000E-03 0.  1.
<mgrwt>
<rscale>  0 0.12500192E+03</rscale>
<asrwt>0</asrwt>
<pdfrwt beam="2">  1        3 0.21684932E-01 0.12500192E+03</pdfrwt>
<pdfrwt beam="1">  1       -3 0.42637189E-02 0.12500192E+03</pdfrwt>
<totfact> 0.12650804E+04</totfact>
</mgrwt>
</event>
<event>
 5    1  0.1787806E-056  0.1249990E+03  0.7818608E-02  0.1235071E+00
         -3   -1    0    0    0  501 -0.00000000000E+00  0.00000000000E+00  0.17962992035E+03  0.17962994443E+03  0.93000000000E-01 0.  1.
          3   -1    0    0  501    0  0.00000000000E+00 -0.00000000000E+00 -0.21745634174E+02  0.21745833040E+02  0.93000000000E-01 0. -1.
         25    2    1    2    0    0  0.00000000000E+00  0.00000000000E+00  0.15788428618E+03  0.20137577747E+03  0.12499902371E+03 0.  0.
        -11    1    3    3    0    0 -0.22854281122E+02  0.56000221457E+02  0.53579671260E+02  0.80802995869E+02  0.51100000000E-03 0.  1.
         11    1    3    3    0    0  0.22854281122E+02 -0.56000221457E+02  0.10430461492E+03  0.12057278160E+03  0.51100000000E-03 0. -1.
<mgrwt>
<rscale>  0 0.12499902E+03</rscale>
<asrwt>0</asrwt>
<pdfrwt beam="2">  1        3 0.33454993E-02 0.12499902E+03</pdfrwt>
<pdfrwt beam="1">  1       -3 0.27635390E-01 0.12499902E+03</pdfrwt>
<totfact> 0.11932967E+04</totfact>
</mgrwt>
</event>
<event>
 5    1  0.1787806E-056  0.1250048E+03  0.7818608E-02  0.1235062E+00
          3   -1    0    0  501    0  0.00000000000E+00  0.00000000000E+00  0.60275152713E+02  0.60275224458E+02  0.93000000000E-01 0. -1.
         -3   -1    0    0    0  501 -0.00000000000E+00 -0.00000000000E+00 -0.64811779126E+02  0.64811845850E+02  0.93000000000E-01 0.  1.
         25    2    1    2    0    0  0.00000000000E+00  0.00000000000E+00 -0.45366264138E+01  0.12508707031E+03  0.12500477663E+03 0.  0.
        -11    1    3    3    0    0 -0.11863403429E+02 -0.39985491898E+02  0.44313042685E+02  0.60854134251E+02  0.51100000000E-03 0. -1.
         11    1    3    3    0    0  0.11863403429E+02  0.39985491898E+02 -0.48849669099E+02  0.64232936057E+02  0.51100000000E-03 0.  1.
<mgrwt>
<rscale>  0 0.12500478E+03</rscale>
<asrwt>0</asrwt>
<pdfrwt beam="1">  1        3 0.92731111E-02 0.12500478E+03</pdfrwt>
<pdfrwt beam="2">  1       -3 0.99710536E-02 0.12500478E+03</pdfrwt>
<totfact> 0.13732643E+04</totfact>
</mgrwt>
</event>
<event>
 5    1  0.1787806E-056  0.1249983E+03  0.7818608E-02  0.1235072E+00
         -3   -1    0    0    0  501 -0.00000000000E+00  0.00000000000E+00  0.15524519882E+03  0.15524522668E+03  0.93000000000E-01 0.  1.
          3   -1    0    0  501    0  0.00000000000E+00 -0.00000000000E+00 -0.25161001975E+02  0.25161173847E+02  0.93000000000E-01 0. -1.
         25    2    1    2    0    0  0.00000000000E+00  0.00000000000E+00  0.13008419685E+03  0.18040640052E+03  0.12499828431E+03 0.  0.
        -11    1    3    3    0    0  0.37297315459E+02  0.50004675387E+02  0.59530112638E+02  0.86228716863E+02  0.51100000000E-03 0.  1.
         11    1    3    3    0    0 -0.37297315459E+02 -0.50004675387E+02  0.70554084209E+02  0.94177683661E+02  0.51100000000E-03 0. -1.
<mgrwt>
<rscale>  0 0.12499828E+03</rscale>
<asrwt>0</asrwt>
<pdfrwt beam="2">  1        3 0.38709388E-02 0.12499828E+03</pdfrwt>
<pdfrwt beam="1">  1       -3 0.23883892E-01 0.12499828E+03</pdfrwt>
<totfact> 0.12385247E+04</totfact>
</mgrwt>
</event>
<event>
 5    1  0.1787806E-056  0.1250000E+03  0.7818608E-02  0.1235069E+00
         -3   -1    0    0    0  501 -0.00000000000E+00  0.00000000000E+00  0.87129467038E+01  0.87134430201E+01  0.93000000000E-01 0.  1.
          3   -1    0    0  501    0  0.00000000000E+00 -0.00000000000E+00 -0.44831352634E+03  0.44831353599E+03  0.93000000000E-01 0. -1.
         25    2    1    2    0    0  0.00000000000E+00  0.00000000000E+00 -0.43960057964E+03  0.45702697901E+03  0.12499995969E+03 0.  0.
        -11    1    3    3    0    0 -0.59186126227E+02  0.15027142052E+02 -0.17109775759E+03  0.18166798064E+03  0.51100000000E-03 0.  1.
         11    1    3    3    0    0  0.59186126227E+02 -0.15027142052E+02 -0.26850282205E+03  0.27535899837E+03  0.51100000000E-03 0. -1.
<mgrwt>
<rscale>  0 0.12499996E+03</rscale>
<asrwt>0</asrwt>
<pdfrwt beam="2">  1        3 0.68971333E-01 0.12499996E+03</pdfrwt>
<pdfrwt beam="1">  1       -3 0.13404926E-02 0.12499996E+03</pdfrwt>
<totfact> 0.80530519E+03</totfact>
</mgrwt>
</event>
<event>
 5    1  0.1787806E-056  0.1249984E+03  0.7818608E-02  0.1235072E+00
          3   -1    0    0  501    0  0.00000000000E+00  0.00000000000E+00  0.60632336702E+02  0.60632408026E+02  0.93000000000E-01 0. -1.
         -3   -1    0    0    0  501 -0.00000000000E+00 -0.00000000000E+00 -0.64423371321E+02  0.64423438448E+02  0.93000000000E-01 0.  1.
         25    2    1    2    0    0  0.00000000000E+00  0.00000000000E+00 -0.37910346189E+01  0.12505584647E+03  0.12499837116E+03 0.  0.
        -11    1    3    3    0    0 -0.34016702077E+02 -0.48320051561E+02 -0.22256405649E+02  0.63145158134E+02  0.51100000000E-03 0.  1.
         11    1    3    3    0    0  0.34016702077E+02  0.48320051561E+02  0.18465371030E+02  0.61910688339E+02  0.51100000000E-03 0. -1.
<mgrwt>
<rscale>  0 0.12499837E+03</rscale>
<asrwt>0</asrwt>
<pdfrwt beam="1">  1        3 0.93280625E-02 0.12499837E+03</pdfrwt>
<pdfrwt beam="2">  1       -3 0.99112985E-02 0.12499837E+03</pdfrwt>
<totfact> 0.13735456E+04</totfact>
</mgrwt>
</event>
<event>
 5    1  0.1787806E-056  0.1250164E+03  0.7818608E-02  0.1235044E+00
         -3   -1    0    0    0  501 -0.00000000000E+00  0.00000000000E+00  0.29695615286E+03  0.29695616742E+03  0.93000000000E-01 0.  1.
          3   -1    0    0  501    0  0.00000000000E+00 -0.00000000000E+00 -0.13157564875E+02  0.13157893541E+02  0.93000000000E-01 0. -1.
         25    2    1    2    0    0  0.00000000000E+00  0.00000000000E+00  0.28379858798E+03  0.31011406096E+03  0.12501636799E+03 0.  0.
        -11    1    3    3    0    0  0.38536275475E+02 -0.46593354000E+02  0.10257686195E+03  0.11907139779E+03  0.51100000000E-03 0.  1.
         11    1    3    3    0    0 -0.38536275475E+02  0.46593354000E+02  0.18122172603E+03  0.19104266317E+03  0.51100000000E-03 0. -1.
<mgrwt>
<rscale>  0 0.12501637E+03</rscale>
<asrwt>0</asrwt>
<pdfrwt beam="2">  1        3 0.20242674E-02 0.12501637E+03</pdfrwt>
<pdfrwt beam="1">  1       -3 0.45685584E-01 0.12501637E+03</pdfrwt>
<totfact> 0.99704344E+03</totfact>
</mgrwt>
</event>
<event>
 5    1  0.1787806E-056  0.1250002E+03  0.7818608E-02  0.1235069E+00
         -3   -1    0    0    0  501 -0.00000000000E+00  0.00000000000E+00  0.76100330309E+02  0.76100387136E+02  0.93000000000E-01 0.  1.
          3   -1    0    0  501    0  0.00000000000E+00 -0.00000000000E+00 -0.51330324832E+02  0.51330409080E+02  0.93000000000E-01 0. -1.
         25    2    1    2    0    0  0.00000000000E+00  0.00000000000E+00  0.24770005477E+02  0.12743079622E+03  0.12500021861E+03 0.  0.
        -11    1    3    3    0    0  0.30401589768E+02 -0.43725251246E+02  0.45733611050E+02  0.70197702504E+02  0.51100000000E-03 0.  1.
         11    1    3    3    0    0 -0.30401589768E+02  0.43725251246E+02 -0.20963605573E+02  0.57233093712E+02  0.51100000000E-03 0. -1.
<mgrwt>
<rscale>  0 0.12500022E+03</rscale>
<asrwt>0</asrwt>
<pdfrwt beam="2">  1        3 0.78969839E-02 0.12500022E+03</pdfrwt>
<pdfrwt beam="1">  1       -3 0.11707754E-01 0.12500022E+03</pdfrwt>
<totfact> 0.13671487E+04</totfact>
</mgrwt>
</event>
<event>
 5    1  0.1787806E-056  0.1250026E+03  0.7818608E-02  0.1235065E+00
         -3   -1    0    0    0  501 -0.00000000000E+00  0.00000000000E+00  0.14817957147E+03  0.14817960065E+03  0.93000000000E-01 0.  1.
          3   -1    0    0  501    0  0.00000000000E+00 -0.00000000000E+00 -0.26362589171E+02  0.26362753210E+02  0.93000000000E-01 0. -1.
         25    2    1    2    0    0  0.00000000000E+00  0.00000000000E+00  0.12181698230E+03  0.17454235386E+03  0.12500262444E+03 0.  0.
        -11    1    3    3    0    0  0.12109345409E+02 -0.27739059294E+02  0.13726405743E+03  0.14056142116E+03  0.51100000000E-03 0.  1.
         11    1    3    3    0    0 -0.12109345409E+02  0.27739059294E+02 -0.15447075132E+02  0.33980932700E+02  0.51100000000E-03 0. -1.
<mgrwt>
<rscale>  0 0.12500262E+03</rscale>
<asrwt>0</asrwt>
<pdfrwt beam="2">  1        3 0.40557978E-02 0.12500262E+03</pdfrwt>
<pdfrwt beam="1">  1       -3 0.22796872E-01 0.12500262E+03</pdfrwt>
<totfact> 0.12515870E+04</totfact>
</mgrwt>
</event>
<event>
 5    1  0.1787806E-056  0.1250004E+03  0.7818608E-02  0.1235069E+00
          3   -1    0    0  501    0  0.00000000000E+00  0.00000000000E+00  0.47338793075E+02  0.47338884427E+02  0.93000000000E-01 0.  1.
         -3   -1    0    0    0  501 -0.00000000000E+00 -0.00000000000E+00 -0.82517258504E+02  0.82517310911E+02  0.93000000000E-01 0. -1.
         25    2    1    2    0    0  0.00000000000E+00  0.00000000000E+00 -0.35178465429E+02  0.12985619534E+03  0.12500042815E+03 0.  0.
        -11    1    3    3    0    0  0.40616646224E+02  0.44863618104E+02 -0.13679066859E+01  0.60533687719E+02  0.51100000000E-03 0. -1.
         11    1    3    3    0    0 -0.40616646224E+02 -0.44863618104E+02 -0.33810558743E+02  0.69322507619E+02  0.51100000000E-03 0.  1.
<mgrwt>
<rscale>  0 0.12500043E+03</rscale>
<asrwt>0</asrwt>
<pdfrwt beam="1">  1        3 0.72829023E-02 0.12500043E+03</pdfrwt>
<pdfrwt beam="2">  1       -3 0.12694974E-01 0.12500043E+03</pdfrwt>
<totfact> 0.13607565E+04</totfact>
</mgrwt>
</event>
<event>
 5    1  0.1787806E-056  0.1250054E+03  0.7818608E-02  0.1235061E+00
          3   -1    0    0  501    0  0.00000000000E+00  0.00000000000E+00  0.72404204650E+02  0.72404264377E+02  0.93000000000E-01 0. -1.
         -3   -1    0    0    0  501 -0.00000000000E+00 -0.00000000000E+00 -0.53955123289E+02  0.53955203439E+02  0.93000000000E-01 0.  1.
         25    2    1    2    0    0  0.00000000000E+00  0.00000000000E+00  0.18449081360E+02  0.12635946782E+03  0.12500538590E+03 0.  0.
        -11    1    3    3    0    0  0.53058371674E+02  0.32990879940E+02  0.10974670964E+02  0.63435261227E+02  0.51100000000E-03 0.  1.
         11    1    3    3    0    0 -0.53058371674E+02 -0.32990879940E+02  0.74744103960E+01  0.62924206589E+02  0.51100000000E-03 0. -1.
<mgrwt>
<rscale>  0 0.12500539E+03</rscale>
<asrwt>0</asrwt>
<pdfrwt beam="1">  1        3 0.11139119E-01 0.12500539E+03</pdfrwt>
<pdfrwt beam="2">  1       -3 0.83007990E-02 0.12500539E+03</pdfrwt>
<totfact> 0.13698282E+04</totfact>
</mgrwt>
</event>
<event>
 5    1  0.1787806E-056  0.1249982E+03  0.7818608E-02  0.1235072E+00
          3   -1    0    0  501    0  0.00000000000E+00  0.00000000000E+00  0.12428786962E+02  0.12429134899E+02  0.93000000000E-01 0. -1.
         -3   -1    0    0    0  501 -0.00000000000E+00 -0.00000000000E+00 -0.31427660002E+03  0.31427661378E+03  0.93000000000E-01 0.  1.
         25    2    1    2    0    0  0.00000000000E+00  0.00000000000E+00 -0.30184781306E+03  0.32670574868E+03  0.12499817587E+03 0.  0.
        -11    1    3    3    0    0 -0.37148428125E+01 -0.56535824829E+02 -0.21987943506E+03  0.22706180989E+03  0.51100000000E-03 0.  1.
         11    1    3    3    0    0  0.37148428125E+01  0.56535824829E+02 -0.81968377998E+02  0.99643938792E+02  0.51100000000E-03 0. -1.
<mgrwt>
<rscale>  0 0.12499818E+03</rscale>
<asrwt>0</asrwt>
<pdfrwt beam="1">  1        3 0.19121491E-02 0.12499818E+03</pdfrwt>
<pdfrwt beam="2">  1       -3 0.48350268E-01 0.12499818E+03</pdfrwt>
<totfact> 0.97217519E+03</totfact>
</mgrwt>
</event>
<event>
 5    1  0.1787806E-056  0.1249981E+03  0.7818608E-02  0.1235072E+00
          3   -1    0    0  501    0  0.00000000000E+00  0.00000000000E+00  0.71385894676E+02  0.71385955255E+02  0.93000000000E-01 0.  1.
         -3   -1    0    0    0  501 -0.00000000000E+00 -0.00000000000E+00 -0.54718428733E+02  0.54718507765E+02  0.93000000000E-01 0. -1.
         25    2    1    2    0    0  0.00000000000E+00  0.00000000000E+00  0.16667465943E+02  0.12610446302E+03  0.12499812468E+03 0.  0.
        -11    1    3    3    0    0  0.15024463249E+02  0.60664810216E+02  0.87606789169E+01  0.63108661765E+02  0.51100000000E-03 0. -1.
         11    1    3    3    0    0 -0.15024463249E+02 -0.60664810216E+02  0.79067870265E+01  0.62995801255E+02  0.51100000000E-03 0.  1.
<mgrwt>
<rscale>  0 0.12499812E+03</rscale>
<asrwt>0</asrwt>
<pdfrwt beam="1">  1        3 0.10982456E-01 0.12499812E+03</pdfrwt>
<pdfrwt beam="2">  1       -3 0.84182306E-02 0.12499812E+03</pdfrwt>
<totfact> 0.13707354E+04</totfact>
</mgrwt>
</event>
<event>
 5    1  0.1787806E-056  0.1249990E+03  0.7818608E-02  0.1235071E+00
          3   -1    0    0  501    0  0.00000000000E+00  0.00000000000E+00  0.35909071151E+02  0.35909191580E+02  0.93000000000E-01 0. -1.
         -3   -1    0    0    0  501 -0.00000000000E+00 -0.00000000000E+00 -0.10877956967E+03  0.10877960943E+03  0.93000000000E-01 0.  1.
         25    2    1    2    0    0  0.00000000000E+00  0.00000000000E+00 -0.72870498520E+02  0.14468880101E+03  0.12499895832E+03 0.  0.
        -11    1    3    3    0    0  0.55177386434E+02  0.27828697175E+02 -0.47244561439E+02  0.77788359964E+02  0.51100000000E-03 0.  1.
         11    1    3    3    0    0 -0.55177386434E+02 -0.27828697175E+02 -0.25625937080E+02  0.66900441042E+02  0.51100000000E-03 0. -1.
<mgrwt>
<rscale>  0 0.12499896E+03</rscale>
<asrwt>0</asrwt>
<pdfrwt beam="1">  1        3 0.55244848E-02 0.12499896E+03</pdfrwt>
<pdfrwt beam="2">  1       -3 0.16735331E-01 0.12499896E+03</pdfrwt>
<totfact> 0.13227561E+04</totfact>
</mgrwt>
</event>
<event>
 5    1  0.1787806E-056  0.1250012E+03  0.7818608E-02  0.1235067E+00
          3   -1    0    0  501    0  0.00000000000E+00  0.00000000000E+00  0.14992917419E+02  0.14993205852E+02  0.93000000000E-01 0. -1.
         -3   -1    0    0    0  501 -0.00000000000E+00 -0.00000000000E+00 -0.26054185273E+03  0.26054186932E+03  0.93000000000E-01 0.  1.
         25    2    1    2    0    0  0.00000000000E+00  0.00000000000E+00 -0.24554893531E+03  0.27553507518E+03  0.12500119208E+03 0.  0.
        -11    1    3    3    0    0  0.19472230926E+02 -0.56103978961E+02 -0.16571513437E+03  0.17603502490E+03  0.51100000000E-03 0.  1.
         11    1    3    3    0    0 -0.19472230926E+02  0.56103978961E+02 -0.79833800941E+02  0.99500050279E+02  0.51100000000E-03 0. -1.
<mgrwt>
<rscale>  0 0.12500119E+03</rscale>
<asrwt>0</asrwt>
<pdfrwt beam="1">  1        3 0.23066263E-02 0.12500119E+03</pdfrwt>
<pdfrwt beam="2">  1       -3 0.40083382E-01 0.12500119E+03</pdfrwt>
<totfact> 0.10535653E+04</totfact>
</mgrwt>
</event>
<event>
 5    1  0.1787806E-056  0.1250007E+03  0.7818608E-02  0.1235068E+00
          3   -1    0    0  501    0  0.00000000000E+00  0.00000000000E+00  0.17532864459E+02  0.17533111108E+02  0.93000000000E-01 0.  1.
         -3   -1    0    0    0  501 -0.00000000000E+00 -0.00000000000E+00 -0.22279652305E+03  0.22279654246E+03  0.93000000000E-01 0. -1.
         25    2    1    2    0    0  0.00000000000E+00  0.00000000000E+00 -0.20526365859E+03  0.24032965357E+03  0.12500069138E+03 0.  0.
        -11    1    3    3    0    0  0.57413332870E+02  0.22304305180E+02 -0.12302621182E+03  0.13758350779E+03  0.51100000000E-03 0. -1.
         11    1    3    3    0    0 -0.57413332870E+02 -0.22304305180E+02 -0.82237446778E+02  0.10274614578E+03  0.51100000000E-03 0.  1.
<mgrwt>
<rscale>  0 0.12500069E+03</rscale>
<asrwt>0</asrwt>
<pdfrwt beam="1">  1        3 0.26973844E-02 0.12500069E+03</pdfrwt>
<pdfrwt beam="2">  1       -3 0.34276407E-01 0.12500069E+03</pdfrwt>
<totfact> 0.11162709E+04</totfact>
</mgrwt>
</event>
<event>
 5    1  0.1787806E-056  0.1250020E+03  0.7818608E-02  0.1235066E+00
         -3   -1    0    0    0  501 -0.00000000000E+00  0.00000000000E+00  0.62750648909E+02  0.62750717824E+02  0.93000000000E-01 0.  1.
          3   -1    0    0  501    0  0.00000000000E+00 -0.00000000000E+00 -0.62252222967E+02  0.62252292434E+02  0.93000000000E-01 0. -1.
         25    2    1    2    0    0  0.00000000000E+00  0.00000000000E+00  0.49842594169E+00  0.12500301026E+03  0.12500201657E+03 0.  0.
        -11    1    3    3    0    0 -0.21756394672E+02  0.12108853154E+02 -0.57078470155E+02  0.62272921799E+02  0.51100000000E-03 0. -1.
         11    1    3    3    0    0  0.21756394672E+02 -0.12108853154E+02  0.57576896097E+02  0.62730088460E+02  0.51100000000E-03 0.  1.
<mgrwt>
<rscale>  0 0.12500202E+03</rscale>
<asrwt>0</asrwt>
<pdfrwt beam="2">  1        3 0.95772758E-02 0.12500202E+03</pdfrwt>
<pdfrwt beam="1">  1       -3 0.96539566E-02 0.12500202E+03</pdfrwt>
<totfact> 0.13735717E+04</totfact>
</mgrwt>
</event>
<event>
 5    1  0.1787806E-056  0.1249679E+03  0.7818608E-02  0.1235120E+00
          3   -1    0    0  501    0  0.00000000000E+00  0.00000000000E+00  0.56310615302E+02  0.56310692100E+02  0.93000000000E-01 0. -1.
         -3   -1    0    0    0  501 -0.00000000000E+00 -0.00000000000E+00 -0.69333869507E+02  0.69333931879E+02  0.93000000000E-01 0.  1.
         25    2    1    2    0    0  0.00000000000E+00  0.00000000000E+00 -0.13023254205E+02  0.12564462398E+03  0.12496786141E+03 0.  0.
        -11    1    3    3    0    0 -0.45377200659E+02 -0.41070209986E+02 -0.19165056020E+02  0.64133858923E+02  0.51100000000E-03 0.  1.
         11    1    3    3    0    0  0.45377200659E+02  0.41070209986E+02  0.61418018155E+01  0.61510765055E+02  0.51100000000E-03 0. -1.
<mgrwt>
<rscale>  0 0.12496786E+03</rscale>
<asrwt>0</asrwt>
<pdfrwt beam="1">  1        3 0.86631823E-02 0.12496786E+03</pdfrwt>
<pdfrwt beam="2">  1       -3 0.10666760E-01 0.12496786E+03</pdfrwt>
<totfact> 0.13729159E+04</totfact>
</mgrwt>
</event>
<event>
 5    1  0.1787806E-056  0.1250038E+03  0.7818608E-02  0.1235063E+00
         -3   -1    0    0    0  501 -0.00000000000E+00  0.00000000000E+00  0.10540418255E+03  0.10540422358E+03  0.93000000000E-01 0.  1.
          3   -1    0    0  501    0  0.00000000000E+00 -0.00000000000E+00 -0.37061877276E+02  0.37061993959E+02  0.93000000000E-01 0. -1.
         25    2    1    2    0    0  0.00000000000E+00  0.00000000000E+00  0.68342305279E+02  0.14246621754E+03  0.12500380974E+03 0.  0.
        -11    1    3    3    0    0  0.45364440304E+02  0.42844907290E+02  0.38259718102E+02  0.73194429804E+02  0.51100000000E-03 0.  1.
         11    1    3    3    0    0 -0.45364440304E+02 -0.42844907290E+02  0.30082587177E+02  0.69271787737E+02  0.51100000000E-03 0. -1.
<mgrwt>
<rscale>  0 0.12500381E+03</rscale>
<asrwt>0</asrwt>
<pdfrwt beam="2">  1        3 0.57018394E-02 0.12500381E+03</pdfrwt>
<pdfrwt beam="1">  1       -3 0.16216040E-01 0.12500381E+03</pdfrwt>
<totfact> 0.13281881E+04</totfact>
</mgrwt>
</event>
<event>
 5    1  0.1787806E-056  0.1249973E+03  0.7818608E-02  0.1235074E+00
          3   -1    0    0  501    0  0.00000000000E+00  0.00000000000E+00  0.87235799889E+02  0.87235849461E+02  0.93000000000E-01 0.  1.
         -3   -1    0    0    0  501 -0.00000000000E+00 -0.00000000000E+00 -0.44776010699E+02  0.44776107280E+02  0.93000000000E-01 0. -1.
         25    2    1    2    0    0  0.00000000000E+00  0.00000000000E+00  0.42459789189E+02  0.13201195674E+03  0.12499729207E+03 0.  0.
        -11    1    3    3    0    0  0.60186700059E+02 -0.15130528266E+02  0.29041532015E+02  0.68518481679E+02  0.51100000000E-03 0. -1.
         11    1    3    3    0    0 -0.60186700059E+02  0.15130528266E+02  0.13418257174E+02  0.63493475062E+02  0.51100000000E-03 0.  1.
<mgrwt>
<rscale>  0 0.12499729E+03</rscale>
<asrwt>0</asrwt>
<pdfrwt beam="1">  1        3 0.13420903E-01 0.12499729E+03</pdfrwt>
<pdfrwt beam="2">  1       -3 0.68886284E-02 0.12499729E+03</pdfrwt>
<totfact> 0.13551857E+04</totfact>
</mgrwt>
</event>
<event>
 5    1  0.1787806E-056  0.1250149E+03  0.7818608E-02  0.1235046E+00
         -3   -1    0    0    0  501 -0.00000000000E+00  0.00000000000E+00  0.38851044798E+02  0.38851156107E+02  0.93000000000E-01 0.  1.
          3   -1    0    0  501    0  0.00000000000E+00 -0.00000000000E+00 -0.10056799828E+03  0.10056804128E+03  0.93000000000E-01 0. -1.
         25    2    1    2    0    0  0.00000000000E+00  0.00000000000E+00 -0.61716953482E+02  0.13941919739E+03  0.12501492012E+03 0.  0.
        -11    1    3    3    0    0  0.21255074163E+02  0.57755028607E+02 -0.18654017569E+02  0.64307028222E+02  0.51100000000E-03 0.  1.
         11    1    3    3    0    0 -0.21255074163E+02 -0.57755028607E+02 -0.43062935913E+02  0.75112169166E+02  0.51100000000E-03 0. -1.
<mgrwt>
<rscale>  0 0.12501492E+03</rscale>
<asrwt>0</asrwt>
<pdfrwt beam="2">  1        3 0.15472011E-01 0.12501492E+03</pdfrwt>
<pdfrwt beam="1">  1       -3 0.59770957E-02 0.12501492E+03</pdfrwt>
<totfact> 0.13355559E+04</totfact>
</mgrwt>
</event>
<event>
 5    1  0.1787806E-056  0.1250012E+03  0.7818608E-02  0.1235067E+00
          3   -1    0    0  501    0  0.00000000000E+00  0.00000000000E+00  0.56177500150E+02  0.56177577129E+02  0.93000000000E-01 0. -1.
         -3   -1    0    0    0  501 -0.00000000000E+00 -0.00000000000E+00 -0.69535240917E+02  0.69535303108E+02  0.93000000000E-01 0.  1.
         25    2    1    2    0    0  0.00000000000E+00  0.00000000000E+00 -0.13357740767E+02  0.12571288024E+03  0.12500119607E+03 0.  0.
        -11    1    3    3    0    0  0.13191885910E+01  0.60535382773E+02  0.89029505045E+01  0.61200779031E+02  0.51100000000E-03 0.  1.
         11    1    3    3    0    0 -0.13191885910E+01 -0.60535382773E+02 -0.22260691271E+02  0.64512101207E+02  0.51100000000E-03 0. -1.
<mgrwt>
<rscale>  0 0.12500120E+03</rscale>
<asrwt>0</asrwt>
<pdfrwt beam="1">  1        3 0.86427031E-02 0.12500120E+03</pdfrwt>
<pdfrwt beam="2">  1       -3 0.10697740E-01 0.12500120E+03</pdfrwt>
<totfact> 0.13717003E+04</totfact>
</mgrwt>
</event>
<event>
 5    1  0.1787806E-056  0.1249998E+03  0.7818608E-02  0.1235070E+00
          3   -1    0    0  501    0  0.00000000000E+00  0.00000000000E+00  0.84492369751E+01  0.84497487809E+01  0.93000000000E-01 0. -1.
         -3   -1    0    0    0  501 -0.00000000000E+00 -0.00000000000E+00 -0.46230381509E+03  0.46230382445E+03  0.93000000000E-01 0.  1.
         25    2    1    2    0    0  0.00000000000E+00  0.00000000000E+00 -0.45385457812E+03  0.47075357323E+03  0.12499979451E+03 0.  0.
        -11    1    3    3    0    0  0.54605873273E+01  0.60584286961E+02 -0.28097524379E+03  0.28748454126E+03  0.51100000000E-03 0.  1.
         11    1    3    3    0    0 -0.54605873273E+01 -0.60584286961E+02 -0.17287933433E+03  0.18326903197E+03  0.51100000000E-03 0. -1.
<mgrwt>
<rscale>  0 0.12499979E+03</rscale>
<asrwt>0</asrwt>
<pdfrwt beam="1">  1        3 0.12999231E-02 0.12499979E+03</pdfrwt>
<pdfrwt beam="2">  1       -3 0.71123684E-01 0.12499979E+03</pdfrwt>
<totfact> 0.78952662E+03</totfact>
</mgrwt>
</event>
<event>
 5    1  0.1787806E-056  0.1249987E+03  0.7818608E-02  0.1235071E+00
          3   -1    0    0  501    0  0.00000000000E+00  0.00000000000E+00  0.15715842949E+03  0.15715845701E+03  0.93000000000E-01 0. -1.
         -3   -1    0    0    0  501 -0.00000000000E+00 -0.00000000000E+00 -0.24854870623E+02  0.24855044613E+02  0.93000000000E-01 0.  1.
         25    2    1    2    0    0  0.00000000000E+00  0.00000000000E+00  0.13230355887E+03  0.18201350162E+03  0.12499873233E+03 0.  0.
        -11    1    3    3    0    0  0.52821218466E+02 -0.31400201753E+02  0.49541957223E+02  0.78933258618E+02  0.51100000000E-03 0.  1.
         11    1    3    3    0    0 -0.52821218466E+02  0.31400201753E+02  0.82761601644E+02  0.10308024300E+03  0.51100000000E-03 0. -1.
<mgrwt>
<rscale>  0 0.12499873E+03</rscale>
<asrwt>0</asrwt>
<pdfrwt beam="1">  1        3 0.24178236E-01 0.12499873E+03</pdfrwt>
<pdfrwt beam="2">  1       -3 0.38238417E-02 0.12499873E+03</pdfrwt>
<totfact> 0.12349772E+04</totfact>
</mgrwt>
</event>
<event>
 5    1  0.1787806E-056  0.1249994E+03  0.7818608E-02  0.1235070E+00
          3   -1    0    0  501    0  0.00000000000E+00  0.00000000000E+00  0.93924088154E+01  0.93928692292E+01  0.93000000000E-01 0. -1.
         -3   -1    0    0    0  501 -0.00000000000E+00 -0.00000000000E+00 -0.41587939210E+03  0.41587940249E+03  0.93000000000E-01 0.  1.
         25    2    1    2    0    0  0.00000000000E+00  0.00000000000E+00 -0.40648698328E+03  0.42527227172E+03  0.12499935008E+03 0.  0.
        -11    1    3    3    0    0 -0.46059296650E+02  0.37291827767E+02 -0.27078116321E+03  0.27719050773E+03  0.51100000000E-03 0.  1.
         11    1    3    3    0    0  0.46059296650E+02 -0.37291827767E+02 -0.13570582007E+03  0.14808176399E+03  0.51100000000E-03 0. -1.
<mgrwt>
<rscale>  0 0.12499935E+03</rscale>
<asrwt>0</asrwt>
<pdfrwt beam="1">  1        3 0.14450225E-02 0.12499935E+03</pdfrwt>
<pdfrwt beam="2">  1       -3 0.63981467E-01 0.12499935E+03</pdfrwt>
<totfact> 0.84096905E+03</totfact>
</mgrwt>
</event>
<event>
 5    1  0.1787806E-056  0.1250160E+03  0.7818608E-02  0.1235044E+00
          3   -1    0    0  501    0  0.00000000000E+00  0.00000000000E+00  0.55703954250E+02  0.55704031883E+02  0.93000000000E-01 0. -1.
         -3   -1    0    0    0  501 -0.00000000000E+00 -0.00000000000E+00 -0.70142982277E+02  0.70143043929E+02  0.93000000000E-01 0.  1.
         25    2    1    2    0    0  0.00000000000E+00  0.00000000000E+00 -0.14439028027E+02  0.12584707581E+03  0.12501600282E+03 0.  0.
        -11    1    3    3    0    0  0.94749081819E+01 -0.59021845639E+02  0.11174837797E+02  0.60813067245E+02  0.51100000000E-03 0.  1.
         11    1    3    3    0    0 -0.94749081819E+01  0.59021845639E+02 -0.25613865824E+02  0.65034008568E+02  0.51100000000E-03 0. -1.
<mgrwt>
<rscale>  0 0.12501600E+03</rscale>
<asrwt>0</asrwt>
<pdfrwt beam="1">  1        3 0.85698498E-02 0.12501600E+03</pdfrwt>
<pdfrwt beam="2">  1       -3 0.10791239E-01 0.12501600E+03</pdfrwt>
<totfact> 0.13708816E+04</totfact>
</mgrwt>
</event>
<event>
 5    1  0.1787806E-056  0.1250023E+03  0.7818608E-02  0.1235066E+00
         -3   -1    0    0    0  501 -0.00000000000E+00  0.00000000000E+00  0.20744532062E+02  0.20744740525E+02  0.93000000000E-01 0.  1.
          3   -1    0    0  501    0  0.00000000000E+00 -0.00000000000E+00 -0.18830846302E+03  0.18830848598E+03  0.93000000000E-01 0. -1.
         25    2    1    2    0    0  0.00000000000E+00  0.00000000000E+00 -0.16756393096E+03  0.20905322651E+03  0.12500232220E+03 0.  0.
        -11    1    3    3    0    0  0.54260511175E+02 -0.26992535062E+02 -0.58221387284E+02  0.84038859818E+02  0.51100000000E-03 0.  1.
         11    1    3    3    0    0 -0.54260511175E+02  0.26992535062E+02 -0.10934254367E+03  0.12501436669E+03  0.51100000000E-03 0. -1.
<mgrwt>
<rscale>  0 0.12500232E+03</rscale>
<asrwt>0</asrwt>
<pdfrwt beam="2">  1        3 0.28970549E-01 0.12500232E+03</pdfrwt>
<pdfrwt beam="1">  1       -3 0.31914844E-02 0.12500232E+03</pdfrwt>
<totfact> 0.11774319E+04</totfact>
</mgrwt>
</event>
<event>
 5    1  0.1787806E-056  0.1250004E+03  0.7818608E-02  0.1235069E+00
         -3   -1    0    0    0  501 -0.00000000000E+00  0.00000000000E+00  0.47847729977E+02  0.47847820357E+02  0.93000000000E-01 0.  1.
          3   -1    0    0  501    0  0.00000000000E+00 -0.00000000000E+00 -0.81639471376E+02  0.81639524346E+02  0.93000000000E-01 0. -1.
         25    2    1    2    0    0  0.00000000000E+00  0.00000000000E+00 -0.33791741399E+02  0.12948734470E+03  0.12500036261E+03 0.  0.
        -11    1    3    3    0    0  0.41099062044E+02 -0.31424194678E+02  0.19429372560E+02  0.55264033787E+02  0.51100000000E-03 0.  1.
         11    1    3    3    0    0 -0.41099062044E+02  0.31424194678E+02 -0.53221113960E+02  0.74223310916E+02  0.51100000000E-03 0. -1.
<mgrwt>
<rscale>  0 0.12500036E+03</rscale>
<asrwt>0</asrwt>
<pdfrwt beam="2">  1        3 0.12559930E-01 0.12500036E+03</pdfrwt>
<pdfrwt beam="1">  1       -3 0.73612003E-02 0.12500036E+03</pdfrwt>
<totfact> 0.13617091E+04</totfact>
</mgrwt>
</event>
<event>
 5    1  0.1787806E-056  0.1249971E+03  0.7818608E-02  0.1235074E+00
         -3   -1    0    0    0  501 -0.00000000000E+00  0.00000000000E+00  0.72608815995E+02  0.72608875554E+02  0.93000000000E-01 0.  1.
          3   -1    0    0  501    0  0.00000000000E+00 -0.00000000000E+00 -0.53795968968E+02  0.53796049355E+02  0.93000000000E-01 0. -1.
         25    2    1    2    0    0  0.00000000000E+00  0.00000000000E+00  0.18812847027E+02  0.12640492491E+03  0.12499712728E+03 0.  0.
        -11    1    3    3    0    0 -0.60671291191E+02 -0.14821808364E+02  0.70610617527E+01  0.62853402225E+02  0.51100000000E-03 0. -1.
         11    1    3    3    0    0  0.60671291191E+02  0.14821808364E+02  0.11751785275E+02  0.63551522683E+02  0.51100000000E-03 0.  1.
<mgrwt>
<rscale>  0 0.12499713E+03</rscale>
<asrwt>0</asrwt>
<pdfrwt beam="2">  1        3 0.82763137E-02 0.12499713E+03</pdfrwt>
<pdfrwt beam="1">  1       -3 0.11170598E-01 0.12499713E+03</pdfrwt>
<totfact> 0.13699718E+04</totfact>
</mgrwt>
</event>
<event>
 5    1  0.1787806E-056  0.1249999E+03  0.7818608E-02  0.1235069E+00
         -3   -1    0    0    0  501 -0.00000000000E+00  0.00000000000E+00  0.33908588267E+02  0.33908715801E+02  0.93000000000E-01 0.  1.
          3   -1    0    0  501    0  0.00000000000E+00 -0.00000000000E+00 -0.11519896698E+03  0.11519900451E+03  0.93000000000E-01 0. -1.
         25    2    1    2    0    0  0.00000000000E+00  0.00000000000E+00 -0.81290378708E+02  0.14910772032E+03  0.12499994635E+03 0.  0.
        -11    1    3    3    0    0  0.96940369553E+00 -0.60221850527E+02 -0.60556902306E+02  0.85409305357E+02  0.51100000000E-03 0. -1.
         11    1    3    3    0    0 -0.96940369553E+00  0.60221850527E+02 -0.20733476402E+02  0.63698414960E+02  0.51100000000E-03 0.  1.
<mgrwt>
<rscale>  0 0.12499995E+03</rscale>
<asrwt>0</asrwt>
<pdfrwt beam="2">  1        3 0.17722931E-01 0.12499995E+03</pdfrwt>
<pdfrwt beam="1">  1       -3 0.52167186E-02 0.12499995E+03</pdfrwt>
<totfact> 0.13117592E+04</totfact>
</mgrwt>
</event>
<event>
 5    1  0.1787806E-056  0.1250032E+03  0.7818608E-02  0.1235064E+00
         -3   -1    0    0    0  501 -0.00000000000E+00  0.00000000000E+00  0.33164013104E+02  0.33164143501E+02  0.93000000000E-01 0.  1.
          3   -1    0    0  501    0  0.00000000000E+00 -0.00000000000E+00 -0.11779147500E+03  0.11779151171E+03  0.93000000000E-01 0. -1.
         25    2    1    2    0    0  0.00000000000E+00  0.00000000000E+00 -0.84627461897E+02  0.15095565522E+03  0.12500321010E+03 0.  0.
        -11    1    3    3    0    0  0.25327649202E+01  0.38436376582E+02 -0.10175339013E+03  0.10880037843E+03  0.51100000000E-03 0. -1.
         11    1    3    3    0    0 -0.25327649202E+01 -0.38436376582E+02  0.17125928234E+02  0.42155276787E+02  0.51100000000E-03 0.  1.
<mgrwt>
<rscale>  0 0.12500321E+03</rscale>
<asrwt>0</asrwt>
<pdfrwt beam="2">  1        3 0.18121778E-01 0.12500321E+03</pdfrwt>
<pdfrwt beam="1">  1       -3 0.51021688E-02 0.12500321E+03</pdfrwt>
<totfact> 0.13071351E+04</totfact>
</mgrwt>
</event>
<event>
 5    1  0.1787806E-056  0.1250017E+03  0.7818608E-02  0.1235067E+00
          3   -1    0    0  501    0  0.00000000000E+00  0.00000000000E+00  0.13099944560E+03  0.13099947861E+03  0.93000000000E-01 0. -1.
         -3   -1    0    0    0  501 -0.00000000000E+00 -0.00000000000E+00 -0.29819551716E+02  0.29819696738E+02  0.93000000000E-01 0.  1.
         25    2    1    2    0    0  0.00000000000E+00  0.00000000000E+00  0.10117989388E+03  0.16081917535E+03  0.12500174492E+03 0.  0.
        -11    1    3    3    0    0 -0.50860050733E+02  0.35612200435E+02  0.41367589417E+02  0.74607312208E+02  0.51100000000E-03 0.  1.
         11    1    3    3    0    0  0.50860050733E+02 -0.35612200435E+02  0.59812304463E+02  0.86211863139E+02  0.51100000000E-03 0. -1.
<mgrwt>
<rscale>  0 0.12500174E+03</rscale>
<asrwt>0</asrwt>
<pdfrwt beam="1">  1        3 0.20153774E-01 0.12500174E+03</pdfrwt>
<pdfrwt beam="2">  1       -3 0.45876371E-02 0.12500174E+03</pdfrwt>
<totfact> 0.12834358E+04</totfact>
</mgrwt>
</event>
<event>
 5    1  0.1787806E-056  0.1249998E+03  0.7818608E-02  0.1235070E+00
         -3   -1    0    0    0  501 -0.00000000000E+00  0.00000000000E+00  0.14253662755E+02  0.14253966148E+02  0.93000000000E-01 0.  1.
          3   -1    0    0  501    0  0.00000000000E+00 -0.00000000000E+00 -0.27404845416E+03  0.27404846994E+03  0.93000000000E-01 0. -1.
         25    2    1    2    0    0  0.00000000000E+00  0.00000000000E+00 -0.25979479141E+03  0.28830243609E+03  0.12499984405E+03 0.  0.
        -11    1    3    3    0    0  0.46958422882E+02 -0.37134838032E+02 -0.88500450145E+02  0.10684764551E+03  0.51100000000E-03 0.  1.
         11    1    3    3    0    0 -0.46958422882E+02  0.37134838032E+02 -0.17129434126E+03  0.18145479058E+03  0.51100000000E-03 0. -1.
<mgrwt>
<rscale>  0 0.12499984E+03</rscale>
<asrwt>0</asrwt>
<pdfrwt beam="2">  1        3 0.42161322E-01 0.12499984E+03</pdfrwt>
<pdfrwt beam="1">  1       -3 0.21928959E-02 0.12499984E+03</pdfrwt>
<totfact> 0.10325683E+04</totfact>
</mgrwt>
</event>
<event>
 5    1  0.1787806E-056  0.1249955E+03  0.7818608E-02  0.1235076E+00
         -3   -1    0    0    0  501 -0.00000000000E+00  0.00000000000E+00  0.79300448410E+02  0.79300502943E+02  0.93000000000E-01 0.  1.
          3   -1    0    0  501    0  0.00000000000E+00 -0.00000000000E+00 -0.49255240996E+02  0.49255328793E+02  0.93000000000E-01 0. -1.
         25    2    1    2    0    0  0.00000000000E+00  0.00000000000E+00  0.30045207415E+02  0.12855583174E+03  0.12499554946E+03 0.  0.
        -11    1    3    3    0    0  0.28259736530E+02  0.55660429823E+02  0.11890253411E+02  0.63545843950E+02  0.51100000000E-03 0.  1.
         11    1    3    3    0    0 -0.28259736530E+02 -0.55660429823E+02  0.18154954004E+02  0.65009987787E+02  0.51100000000E-03 0. -1.
<mgrwt>
<rscale>  0 0.12499555E+03</rscale>
<asrwt>0</asrwt>
<pdfrwt beam="2">  1        3 0.75777404E-02 0.12499555E+03</pdfrwt>
<pdfrwt beam="1">  1       -3 0.12200080E-01 0.12499555E+03</pdfrwt>
<totfact> 0.13643211E+04</totfact>
</mgrwt>
</event>
<event>
 5    1  0.1787806E-056  0.1250003E+03  0.7818608E-02  0.1235069E+00
          3   -1    0    0  501    0  0.00000000000E+00  0.00000000000E+00  0.13245577735E+02  0.13245904217E+02  0.93000000000E-01 0. -1.
         -3   -1    0    0    0  501 -0.00000000000E+00 -0.00000000000E+00 -0.29490738559E+03  0.29490740026E+03  0.93000000000E-01 0.  1.
         25    2    1    2    0    0  0.00000000000E+00  0.00000000000E+00 -0.28166180786E+03  0.30815330448E+03  0.12500034021E+03 0.  0.
        -11    1    3    3    0    0  0.20525454075E+02 -0.56304616724E+02 -0.18456803818E+03  0.19405376793E+03  0.51100000000E-03 0.  1.
         11    1    3    3    0    0 -0.20525454075E+02  0.56304616724E+02 -0.97093769674E+02  0.11409953654E+03  0.51100000000E-03 0. -1.
<mgrwt>
<rscale>  0 0.12500034E+03</rscale>
<asrwt>0</asrwt>
<pdfrwt beam="1">  1        3 0.20378077E-02 0.12500034E+03</pdfrwt>
<pdfrwt beam="2">  1       -3 0.45370388E-01 0.12500034E+03</pdfrwt>
<totfact> 0.10004542E+04</totfact>
</mgrwt>
</event>
<event>
 5    1  0.1787806E-056  0.1249973E+03  0.7818608E-02  0.1235074E+00
         -3   -1    0    0    0  501 -0.00000000000E+00  0.00000000000E+00  0.23200813421E+02  0.23200999815E+02  0.93000000000E-01 0.  1.
          3   -1    0    0  501    0  0.00000000000E+00 -0.00000000000E+00 -0.16835874294E+03  0.16835876863E+03  0.93000000000E-01 0. -1.
         25    2    1    2    0    0  0.00000000000E+00  0.00000000000E+00 -0.14515792952E+03  0.19155976845E+03  0.12499728150E+03 0.  0.
        -11    1    3    3    0    0  0.57558298537E+02 -0.24284639359E+02 -0.75395892740E+02  0.97914463087E+02  0.51100000000E-03 0. -1.
         11    1    3    3    0    0 -0.57558298537E+02  0.24284639359E+02 -0.69762036784E+02  0.93645305359E+02  0.51100000000E-03 0.  1.
<mgrwt>
<rscale>  0 0.12499728E+03</rscale>
<asrwt>0</asrwt>
<pdfrwt beam="2">  1        3 0.25901361E-01 0.12499728E+03</pdfrwt>
<pdfrwt beam="1">  1       -3 0.35693723E-02 0.12499728E+03</pdfrwt>
<totfact> 0.12142003E+04</totfact>
</mgrwt>
</event>
<event>
 5    1  0.1806394E-056  0.1250084E+03  0.7818608E-02  0.1235056E+00
         -3   -1    0    0    0  501 -0.00000000000E+00  0.00000000000E+00  0.55789718045E+02  0.55789795560E+02  0.93000000000E-01 0.  1.
          3   -1    0    0  501    0  0.00000000000E+00 -0.00000000000E+00 -0.70026580722E+02  0.70026642477E+02  0.93000000000E-01 0. -1.
         25    2    1    2    0    0  0.00000000000E+00  0.00000000000E+00 -0.14236862677E+02  0.12581643804E+03  0.12500835101E+03 0.  0.
        -11    1    3    3    0    0 -0.38178078047E+02  0.45233021429E+02 -0.27327574244E+02  0.65195001230E+02  0.51100000000E-03 0.  1.
         11    1    3    3    0    0  0.38178078047E+02 -0.45233021429E+02  0.13090711568E+02  0.60621436807E+02  0.51100000000E-03 0. -1.
<mgrwt>
<rscale>  0 0.12500835E+03</rscale>
<asrwt>0</asrwt>
<pdfrwt beam="2">  1        3 0.10773331E-01 0.12500835E+03</pdfrwt>
<pdfrwt beam="1">  1       -3 0.85830442E-02 0.12500835E+03</pdfrwt>
<totfact> 0.13711929E+04</totfact>
</mgrwt>
</event>
<event>
 5    1  0.1787806E-056  0.1249876E+03  0.7818608E-02  0.1235089E+00
          3   -1    0    0  501    0  0.00000000000E+00  0.00000000000E+00  0.35815309183E+02  0.35815429927E+02  0.93000000000E-01 0. -1.
         -3   -1    0    0    0  501 -0.00000000000E+00 -0.00000000000E+00 -0.10904451834E+03  0.10904455800E+03  0.93000000000E-01 0.  1.
         25    2    1    2    0    0  0.00000000000E+00  0.00000000000E+00 -0.73229209161E+02  0.14485998793E+03  0.12498759550E+03 0.  0.
        -11    1    3    3    0    0 -0.50022737206E+02 -0.32200522428E+02 -0.14431827147E+02  0.61216219397E+02  0.51100000000E-03 0.  1.
         11    1    3    3    0    0  0.50022737206E+02  0.32200522428E+02 -0.58797382013E+02  0.83643768531E+02  0.51100000000E-03 0. -1.
<mgrwt>
<rscale>  0 0.12498760E+03</rscale>
<asrwt>0</asrwt>
<pdfrwt beam="1">  1        3 0.55100600E-02 0.12498760E+03</pdfrwt>
<pdfrwt beam="2">  1       -3 0.16776092E-01 0.12498760E+03</pdfrwt>
<totfact> 0.13226670E+04</totfact>
</mgrwt>
</event>
<event>
 5    1  0.1787806E-056  0.1250168E+03  0.7818608E-02  0.1235043E+00
         -3   -1    0    0    0  501 -0.00000000000E+00  0.00000000000E+00  0.41950400346E+02  0.41950503431E+02  0.93000000000E-01 0.  1.
          3   -1    0    0  501    0  0.00000000000E+00 -0.00000000000E+00 -0.93140648376E+02  0.93140694806E+02  0.93000000000E-01 0. -1.
         25    2    1    2    0    0  0.00000000000E+00  0.00000000000E+00 -0.51190248030E+02  0.13509119824E+03  0.12501676027E+03 0.  0.
        -11    1    3    3    0    0 -0.12186973641E+02 -0.58501768291E+02 -0.45411950485E+02  0.75054809751E+02  0.51100000000E-03 0. -1.
         11    1    3    3    0    0  0.12186973641E+02  0.58501768291E+02 -0.57782975449E+01  0.60036388486E+02  0.51100000000E-03 0.  1.
<mgrwt>
<rscale>  0 0.12501676E+03</rscale>
<asrwt>0</asrwt>
<pdfrwt beam="2">  1        3 0.14329342E-01 0.12501676E+03</pdfrwt>
<pdfrwt beam="1">  1       -3 0.64539193E-02 0.12501676E+03</pdfrwt>
<totfact> 0.13465939E+04</totfact>
</mgrwt>
</event>
<event>
 5    1  0.1787806E-056  0.1249978E+03  0.7818608E-02  0.1235073E+00
          3   -1    0    0  501    0  0.00000000000E+00  0.00000000000E+00  0.23718200599E+03  0.23718202422E+03  0.93000000000E-01 0. -1.
         -3   -1    0    0    0  501 -0.00000000000E+00 -0.00000000000E+00 -0.16468702064E+02  0.16468964651E+02  0.93000000000E-01 0.  1.
         25    2    1    2    0    0  0.00000000000E+00  0.00000000000E+00  0.22071330392E+03  0.25365098887E+03  0.12499784649E+03 0.  0.
        -11    1    3    3    0    0 -0.58686690545E+02  0.18062254394E+02  0.86714211108E+02  0.10625312743E+03  0.51100000000E-03 0.  1.
         11    1    3    3    0    0  0.58686690545E+02 -0.18062254394E+02  0.13399909282E+03  0.14739786144E+03  0.51100000000E-03 0. -1.
<mgrwt>
<rscale>  0 0.12499785E+03</rscale>
<asrwt>0</asrwt>
<pdfrwt beam="1">  1        3 0.36489560E-01 0.12499785E+03</pdfrwt>
<pdfrwt beam="2">  1       -3 0.25336681E-02 0.12499785E+03</pdfrwt>
<totfact> 0.10921139E+04</totfact>
</mgrwt>
</event>
<event>
 5    1  0.1787806E-056  0.1249997E+03  0.7818608E-02  0.1235070E+00
         -3   -1    0    0    0  501 -0.00000000000E+00  0.00000000000E+00  0.90697649880E+01  0.90702417795E+01  0.93000000000E-01 0.  1.
          3   -1    0    0  501    0  0.00000000000E+00 -0.00000000000E+00 -0.43067521173E+03  0.43067522177E+03  0.93000000000E-01 0. -1.
         25    2    1    2    0    0  0.00000000000E+00  0.00000000000E+00 -0.42160544674E+03  0.43974546355E+03  0.12499967996E+03 0.  0.
        -11    1    3    3    0    0 -0.14393496400E+02  0.60646823773E+02 -0.22693178429E+03  0.23533644999E+03  0.51100000000E-03 0.  1.
         11    1    3    3    0    0  0.14393496400E+02 -0.60646823773E+02 -0.19467366245E+03  0.20440901356E+03  0.51100000000E-03 0. -1.
<mgrwt>
<rscale>  0 0.12499968E+03</rscale>
<asrwt>0</asrwt>
<pdfrwt beam="2">  1        3 0.66257746E-01 0.12499968E+03</pdfrwt>
<pdfrwt beam="1">  1       -3 0.13953862E-02 0.12499968E+03</pdfrwt>
<totfact> 0.82478377E+03</totfact>
</mgrwt>
</event>
<event>
 5    1  0.1972798E-056  0.1249945E+03  0.7818608E-02  0.1235078E+00
          3   -1    0    0  501    0  0.00000000000E+00  0.00000000000E+00  0.41187807412E+03  0.41187808462E+03  0.93000000000E-01 0. -1.
         -3   -1    0    0    0  501 -0.00000000000E+00 -0.00000000000E+00 -0.94829166580E+01  0.94833726776E+01  0.93000000000E-01 0.  1.
         25    2    1    2    0    0  0.00000000000E+00  0.00000000000E+00  0.40239515747E+03  0.42136145730E+03  0.12499445966E+03 0.  0.
        -11    1    3    3    0    0  0.56033632806E+02 -0.14321055332E+02  0.28104523237E+03  0.28693428388E+03  0.51100000000E-03 0. -1.
         11    1    3    3    0    0 -0.56033632806E+02  0.14321055332E+02  0.12134992510E+03  0.13442717342E+03  0.51100000000E-03 0.  1.
<mgrwt>
<rscale>  0 0.12499446E+03</rscale>
<asrwt>0</asrwt>
<pdfrwt beam="1">  1        3 0.63365887E-01 0.12499446E+03</pdfrwt>
<pdfrwt beam="2">  1       -3 0.14589463E-02 0.12499446E+03</pdfrwt>
<totfact> 0.84640775E+03</totfact>
</mgrwt>
</event>
<event>
 5    1  0.1787806E-056  0.1250057E+03  0.7818608E-02  0.1235060E+00
          3   -1    0    0  501    0  0.00000000000E+00  0.00000000000E+00  0.32259724787E+03  0.32259726127E+03  0.93000000000E-01 0. -1.
         -3   -1    0    0    0  501 -0.00000000000E+00 -0.00000000000E+00 -0.12109668203E+02  0.12110025310E+02  0.93000000000E-01 0.  1.
         25    2    1    2    0    0  0.00000000000E+00  0.00000000000E+00  0.31048757966E+03  0.33470728658E+03  0.12500572213E+03 0.  0.
        -11    1    3    3    0    0  0.39478724978E+02 -0.48285157836E+02  0.14434077759E+03  0.15723958238E+03  0.51100000000E-03 0.  1.
         11    1    3    3    0    0 -0.39478724978E+02  0.48285157836E+02  0.16614680208E+03  0.17746770420E+03  0.51100000000E-03 0. -1.
<mgrwt>
<rscale>  0 0.12500572E+03</rscale>
<asrwt>0</asrwt>
<pdfrwt beam="1">  1        3 0.49630377E-01 0.12500572E+03</pdfrwt>
<pdfrwt beam="2">  1       -3 0.18630543E-02 0.12500572E+03</pdfrwt>
<totfact> 0.96062830E+03</totfact>
</mgrwt>
</event>
<event>
 5    1  0.1787806E-056  0.1250004E+03  0.7818608E-02  0.1235069E+00
         -3   -1    0    0    0  501 -0.00000000000E+00  0.00000000000E+00  0.86979705317E+01  0.86984677024E+01  0.93000000000E-01 0.  1.
          3   -1    0    0  501    0  0.00000000000E+00 -0.00000000000E+00 -0.44908880444E+03  0.44908881407E+03  0.93000000000E-01 0. -1.
         25    2    1    2    0    0  0.00000000000E+00  0.00000000000E+00 -0.44039083391E+03  0.45778728177E+03  0.12500043505E+03 0.  0.
        -11    1    3    3    0    0  0.22419227466E+02  0.50938855860E+02 -0.11603648921E+03  0.12869287325E+03  0.51100000000E-03 0.  1.
         11    1    3    3    0    0 -0.22419227466E+02 -0.50938855860E+02 -0.32435434470E+03  0.32909440852E+03  0.51100000000E-03 0. -1.
<mgrwt>
<rscale>  0 0.12500044E+03</rscale>
<asrwt>0</asrwt>
<pdfrwt beam="2">  1        3 0.69090606E-01 0.12500044E+03</pdfrwt>
<pdfrwt beam="1">  1       -3 0.13381887E-02 0.12500044E+03</pdfrwt>
<totfact> 0.80445640E+03</totfact>
</mgrwt>
</event>
<event>
 5    1  0.1787806E-056  0.1250015E+03  0.7818608E-02  0.1235067E+00
          3   -1    0    0  501    0  0.00000000000E+00  0.00000000000E+00  0.84243472670E+02  0.84243524003E+02  0.93000000000E-01 0. -1.
         -3   -1    0    0    0  501 -0.00000000000E+00 -0.00000000000E+00 -0.46369551343E+02  0.46369644605E+02  0.93000000000E-01 0.  1.
         25    2    1    2    0    0  0.00000000000E+00  0.00000000000E+00  0.37873921326E+02  0.13061316861E+03  0.12500146358E+03 0.  0.
        -11    1    3    3    0    0 -0.16489080694E+02 -0.39234161637E+02 -0.28890529229E+02  0.51438039434E+02  0.51100000000E-03 0.  1.
         11    1    3    3    0    0  0.16489080694E+02  0.39234161637E+02  0.66764450555E+02  0.79175129174E+02  0.51100000000E-03 0. -1.
<mgrwt>
<rscale>  0 0.12500146E+03</rscale>
<asrwt>0</asrwt>
<pdfrwt beam="1">  1        3 0.12960545E-01 0.12500146E+03</pdfrwt>
<pdfrwt beam="2">  1       -3 0.71337883E-02 0.12500146E+03</pdfrwt>
<totfact> 0.13587262E+04</totfact>
</mgrwt>
</event>
<event>
 5    1  0.1787806E-056  0.1250007E+03  0.7818608E-02  0.1235068E+00
         -3   -1    0    0    0  501 -0.00000000000E+00  0.00000000000E+00  0.82618419897E+02  0.82618472240E+02  0.93000000000E-01 0.  1.
          3   -1    0    0  501    0  0.00000000000E+00 -0.00000000000E+00 -0.47281061950E+02  0.47281153414E+02  0.93000000000E-01 0. -1.
         25    2    1    2    0    0  0.00000000000E+00  0.00000000000E+00  0.35337357947E+02  0.12989962565E+03  0.12500073551E+03 0.  0.
        -11    1    3    3    0    0  0.24763065599E+02  0.47543972712E+02 -0.15725703886E+02  0.55865342763E+02  0.51100000000E-03 0. -1.
         11    1    3    3    0    0 -0.24763065599E+02 -0.47543972712E+02  0.51063061833E+02  0.74034282890E+02  0.51100000000E-03 0.  1.
<mgrwt>
<rscale>  0 0.12500074E+03</rscale>
<asrwt>0</asrwt>
<pdfrwt beam="2">  1        3 0.72740206E-02 0.12500074E+03</pdfrwt>
<pdfrwt beam="1">  1       -3 0.12710537E-01 0.12500074E+03</pdfrwt>
<totfact> 0.13606334E+04</totfact>
</mgrwt>
</event>
<event>
 5    1  0.1787806E-056  0.1250174E+03  0.7818608E-02  0.1235042E+00
         -3   -1    0    0    0  501 -0.00000000000E+00  0.00000000000E+00  0.99775193609E+01  0.99779527758E+01  0.93000000000E-01 0.  1.
          3   -1    0    0  501    0  0.00000000000E+00 -0.00000000000E+00 -0.39160505639E+03  0.39160506743E+03  0.93000000000E-01 0. -1.
         25    2    1    2    0    0  0.00000000000E+00  0.00000000000E+00 -0.38162753703E+03  0.40158302021E+03  0.12501737920E+03 0.  0.
        -11    1    3    3    0    0  0.42341288136E+02 -0.45418241134E+02 -0.21391829311E+03  0.22274792353E+03  0.51100000000E-03 0. -1.
         11    1    3    3    0    0 -0.42341288136E+02  0.45418241134E+02 -0.16770924392E+03  0.17883509668E+03  0.51100000000E-03 0.  1.
<mgrwt>
<rscale>  0 0.12501738E+03</rscale>
<asrwt>0</asrwt>
<pdfrwt beam="2">  1        3 0.60246954E-01 0.12501738E+03</pdfrwt>
<pdfrwt beam="1">  1       -3 0.15350375E-02 0.12501738E+03</pdfrwt>
<totfact> 0.87012430E+03</totfact>
</mgrwt>
</event>
<event>
 5    1  0.1787806E-056  0.1250014E+03  0.7818608E-02  0.1235067E+00
         -3   -1    0    0    0  501 -0.00000000000E+00  0.00000000000E+00  0.69472071343E+01  0.69478295867E+01  0.93000000000E-01 0.  1.
          3   -1    0    0  501    0  0.00000000000E+00 -0.00000000000E+00 -0.56226270670E+03  0.56226271439E+03  0.93000000000E-01 0. -1.
         25    2    1    2    0    0  0.00000000000E+00  0.00000000000E+00 -0.55531549957E+03  0.56921054398E+03  0.12500135726E+03 0.  0.
        -11    1    3    3    0    0  0.57130100482E+02 -0.22985017554E+02 -0.32631465801E+03  0.33207441251E+03  0.51100000000E-03 0.  1.
         11    1    3    3    0    0 -0.57130100482E+02  0.22985017554E+02 -0.22900084156E+03  0.23713613147E+03  0.51100000000E-03 0. -1.
<mgrwt>
<rscale>  0 0.12500136E+03</rscale>
<asrwt>0</asrwt>
<pdfrwt beam="2">  1        3 0.86501967E-01 0.12500136E+03</pdfrwt>
<pdfrwt beam="1">  1       -3 0.10688500E-02 0.12500136E+03</pdfrwt>
<totfact> 0.69458242E+03</totfact>
</mgrwt>
</event>
<event>
 5    1  0.1787806E-056  0.1250006E+03  0.7818608E-02  0.1235068E+00
          3   -1    0    0  501    0  0.00000000000E+00  0.00000000000E+00  0.28831005922E+02  0.28831155917E+02  0.93000000000E-01 0. -1.
         -3   -1    0    0    0  501 -0.00000000000E+00 -0.00000000000E+00 -0.13548867145E+03  0.13548870337E+03  0.93000000000E-01 0.  1.
         25    2    1    2    0    0  0.00000000000E+00  0.00000000000E+00 -0.10665766553E+03  0.16431985929E+03  0.12500063416E+03 0.  0.
        -11    1    3    3    0    0 -0.30236387493E+02 -0.49374088330E+02 -0.22380970682E+02  0.62072115929E+02  0.51100000000E-03 0. -1.
         11    1    3    3    0    0  0.30236387493E+02  0.49374088330E+02 -0.84276694847E+02  0.10224774336E+03  0.51100000000E-03 0.  1.
<mgrwt>
<rscale>  0 0.12500063E+03</rscale>
<asrwt>0</asrwt>
<pdfrwt beam="1">  1        3 0.44355535E-02 0.12500063E+03</pdfrwt>
<pdfrwt beam="2">  1       -3 0.20844425E-01 0.12500063E+03</pdfrwt>
<totfact> 0.12752171E+04</totfact>
</mgrwt>
</event>
<event>
 5    1  0.1787806E-056  0.1250003E+03  0.7818608E-02  0.1235069E+00
         -3   -1    0    0    0  501 -0.00000000000E+00  0.00000000000E+00  0.41226053495E+02  0.41226158392E+02  0.93000000000E-01 0. -1.
          3   -1    0    0  501    0  0.00000000000E+00 -0.00000000000E+00 -0.94752218674E+02  0.94752264314E+02  0.93000000000E-01 0.  1.
         25    2    1    2    0    0  0.00000000000E+00  0.00000000000E+00 -0.53526165180E+02  0.13597842271E+03  0.12500032433E+03 0.  0.
        -11    1    3    3    0    0 -0.51485983286E+02  0.34523117790E+02 -0.35439677492E+02  0.71404641851E+02  0.51100000000E-03 0. -1.
         11    1    3    3    0    0  0.51485983286E+02 -0.34523117790E+02 -0.18086487688E+02  0.64573780856E+02  0.51100000000E-03 0.  1.
<mgrwt>
<rscale>  0 0.12500032E+03</rscale>
<asrwt>0</asrwt>
<pdfrwt beam="2">  1        3 0.14577276E-01 0.12500032E+03</pdfrwt>
<pdfrwt beam="1">  1       -3 0.63424814E-02 0.12500032E+03</pdfrwt>
<totfact> 0.13448062E+04</totfact>
</mgrwt>
</event>
<event>
 5    1  0.1787806E-056  0.1250037E+03  0.7818608E-02  0.1235063E+00
          3   -1    0    0  501    0  0.00000000000E+00  0.00000000000E+00  0.17714925470E+02  0.17715169585E+02  0.93000000000E-01 0. -1.
         -3   -1    0    0    0  501 -0.00000000000E+00 -0.00000000000E+00 -0.22051755908E+03  0.22051757869E+03  0.93000000000E-01 0.  1.
         25    2    1    2    0    0  0.00000000000E+00  0.00000000000E+00 -0.20280263361E+03  0.23823274828E+03  0.12500373655E+03 0.  0.
        -11    1    3    3    0    0 -0.51394773626E+02  0.19439701091E+02 -0.15816612165E+03  0.16743908377E+03  0.51100000000E-03 0.  1.
         11    1    3    3    0    0  0.51394773626E+02 -0.19439701091E+02 -0.44636511963E+02  0.70793664512E+02  0.51100000000E-03 0. -1.
<mgrwt>
<rscale>  0 0.12500374E+03</rscale>
<asrwt>0</asrwt>
<pdfrwt beam="1">  1        3 0.27253936E-02 0.12500374E+03</pdfrwt>
<pdfrwt beam="2">  1       -3 0.33925797E-01 0.12500374E+03</pdfrwt>
<totfact> 0.11201243E+04</totfact>
</mgrwt>
</event>
<event>
 5    1  0.2735803E-056  0.1249988E+03  0.7818608E-02  0.1235071E+00
         -3   -1    0    0    0  501 -0.00000000000E+00  0.00000000000E+00  0.82536013937E+02  0.82536066333E+02  0.93000000000E-01 0.  1.
          3   -1    0    0  501    0  0.00000000000E+00 -0.00000000000E+00 -0.47326808662E+02  0.47326900037E+02  0.93000000000E-01 0. -1.
         25    2    1    2    0    0  0.00000000000E+00  0.00000000000E+00  0.35209205276E+02  0.12986296637E+03  0.12499880759E+03 0.  0.
        -11    1    3    3    0    0  0.18186056568E+02 -0.39032636202E+02  0.64665167451E+02  0.77690818146E+02  0.51100000000E-03 0.  1.
         11    1    3    3    0    0 -0.18186056568E+02  0.39032636202E+02 -0.29455962176E+02  0.52172148224E+02  0.51100000000E-03 0. -1.
<mgrwt>
<rscale>  0 0.12499881E+03</rscale>
<asrwt>0</asrwt>
<pdfrwt beam="2">  1        3 0.72810587E-02 0.12499881E+03</pdfrwt>
<pdfrwt beam="1">  1       -3 0.12697859E-01 0.12499881E+03</pdfrwt>
<totfact> 0.13607886E+04</totfact>
</mgrwt>
</event>
<event>
 5    1  0.1787806E-056  0.1249994E+03  0.7818608E-02  0.1235070E+00
         -3   -1    0    0    0  501 -0.00000000000E+00  0.00000000000E+00  0.68550788976E+02  0.68550852060E+02  0.93000000000E-01 0.  1.
          3   -1    0    0  501    0  0.00000000000E+00 -0.00000000000E+00 -0.56982641853E+02  0.56982717745E+02  0.93000000000E-01 0. -1.
         25    2    1    2    0    0  0.00000000000E+00  0.00000000000E+00  0.11568147122E+02  0.12553356981E+03  0.12499942048E+03 0.  0.
        -11    1    3    3    0    0 -0.39010860578E+02  0.37391826645E+02 -0.25754228330E+02  0.59860472935E+02  0.51100000000E-03 0.  1.
         11    1    3    3    0    0  0.39010860578E+02 -0.37391826645E+02  0.37322375452E+02  0.65673096870E+02  0.51100000000E-03 0. -1.
<mgrwt>
<rscale>  0 0.12499942E+03</rscale>
<asrwt>0</asrwt>
<pdfrwt beam="2">  1        3 0.87665710E-02 0.12499942E+03</pdfrwt>
<pdfrwt beam="1">  1       -3 0.10546286E-01 0.12499942E+03</pdfrwt>
<totfact> 0.13722389E+04</totfact>
</mgrwt>
</event>
<event>
 5    1  0.1787806E-056  0.1250016E+03  0.7818608E-02  0.1235067E+00
         -3   -1    0    0    0  501 -0.00000000000E+00  0.00000000000E+00  0.59488239678E+02  0.59488312373E+02  0.93000000000E-01 0.  1.
          3   -1    0    0  501    0  0.00000000000E+00 -0.00000000000E+00 -0.65665821398E+02  0.65665887254E+02  0.93000000000E-01 0. -1.
         25    2    1    2    0    0  0.00000000000E+00  0.00000000000E+00 -0.61775817203E+01  0.12515419963E+03  0.12500164466E+03 0.  0.
        -11    1    3    3    0    0 -0.13237587299E+02  0.55961545173E+02  0.21424236957E+02  0.61367142553E+02  0.51100000000E-03 0.  1.
         11    1    3    3    0    0  0.13237587299E+02 -0.55961545173E+02 -0.27601818677E+02  0.63787057074E+02  0.51100000000E-03 0. -1.
<mgrwt>
<rscale>  0 0.12500164E+03</rscale>
<asrwt>0</asrwt>
<pdfrwt beam="2">  1        3 0.10102445E-01 0.12500164E+03</pdfrwt>
<pdfrwt beam="1">  1       -3 0.91520475E-02 0.12500164E+03</pdfrwt>
<totfact> 0.13731806E+04</totfact>
</mgrwt>
</event>
<event>
 5    1  0.1787806E-056  0.1249898E+03  0.7818608E-02  0.1235085E+00
          3   -1    0    0  501    0  0.00000000000E+00  0.00000000000E+00  0.33711968995E+03  0.33711970278E+03  0.93000000000E-01 0. -1.
         -3   -1    0    0    0  501 -0.00000000000E+00 -0.00000000000E+00 -0.11585046080E+02  0.11585419357E+02  0.93000000000E-01 0.  1.
         25    2    1    2    0    0  0.00000000000E+00  0.00000000000E+00  0.32553464387E+03  0.34870512214E+03  0.12498983096E+03 0.  0.
        -11    1    3    3    0    0  0.30170532103E+02 -0.51527908954E+02  0.11130744948E+03  0.12631205294E+03  0.51100000000E-03 0.  1.
         11    1    3    3    0    0 -0.30170532103E+02  0.51527908954E+02  0.21422719439E+03  0.22239306920E+03  0.51100000000E-03 0. -1.
<mgrwt>
<rscale>  0 0.12498983E+03</rscale>
<asrwt>0</asrwt>
<pdfrwt beam="1">  1        3 0.51864602E-01 0.12498983E+03</pdfrwt>
<pdfrwt beam="2">  1       -3 0.17823443E-02 0.12498983E+03</pdfrwt>
<totfact> 0.94086712E+03</totfact>
</mgrwt>
</event>
<event>
 5    1  0.1787806E-056  0.1249994E+03  0.7818608E-02  0.1235070E+00
          3   -1    0    0  501    0  0.00000000000E+00  0.00000000000E+00  0.41764959977E+03  0.41764961013E+03  0.93000000000E-01 0. -1.
         -3   -1    0    0    0  501 -0.00000000000E+00 -0.00000000000E+00 -0.93526020689E+01  0.93530644422E+01  0.93000000000E-01 0.  1.
         25    2    1    2    0    0  0.00000000000E+00  0.00000000000E+00  0.40829699770E+03  0.42700267457E+03  0.12499938302E+03 0.  0.
        -11    1    3    3    0    0  0.19274540630E+02 -0.52634137977E+02  0.10970563310E+03  0.12319572367E+03  0.51100000000E-03 0.  1.
         11    1    3    3    0    0 -0.19274540630E+02  0.52634137977E+02  0.29859136460E+03  0.30380695090E+03  0.51100000000E-03 0. -1.
<mgrwt>
<rscale>  0 0.12499938E+03</rscale>
<asrwt>0</asrwt>
<pdfrwt beam="1">  1        3 0.64253830E-01 0.12499938E+03</pdfrwt>
<pdfrwt beam="2">  1       -3 0.14388980E-02 0.12499938E+03</pdfrwt>
<totfact> 0.83961739E+03</totfact>
</mgrwt>
</event>
<event>
 5    1  0.1787806E-056  0.1249974E+03  0.7818608E-02  0.1235073E+00
          3   -1    0    0  501    0  0.00000000000E+00  0.00000000000E+00  0.41725740857E+02  0.41725844498E+02  0.93000000000E-01 0. -1.
         -3   -1    0    0    0  501 -0.00000000000E+00 -0.00000000000E+00 -0.93613206304E+02  0.93613252500E+02  0.93000000000E-01 0.  1.
         25    2    1    2    0    0  0.00000000000E+00  0.00000000000E+00 -0.51887465447E+02  0.13533909700E+03  0.12499744840E+03 0.  0.
        -11    1    3    3    0    0  0.16855108031E+02 -0.24564045162E+02 -0.85431157084E+02  0.90476348193E+02  0.51100000000E-03 0.  1.
         11    1    3    3    0    0 -0.16855108031E+02  0.24564045162E+02  0.33543691637E+02  0.44862748805E+02  0.51100000000E-03 0. -1.
<mgrwt>
<rscale>  0 0.12499745E+03</rscale>
<asrwt>0</asrwt>
<pdfrwt beam="1">  1        3 0.64193563E-02 0.12499745E+03</pdfrwt>
<pdfrwt beam="2">  1       -3 0.14402043E-01 0.12499745E+03</pdfrwt>
<totfact> 0.13465601E+04</totfact>
</mgrwt>
</event>
<event>
 5    1  0.1787806E-056  0.1250004E+03  0.7818608E-02  0.1235069E+00
         -3   -1    0    0    0  501 -0.00000000000E+00  0.00000000000E+00  0.19603178066E+02  0.19603398667E+02  0.93000000000E-01 0.  1.
          3   -1    0    0  501    0  0.00000000000E+00 -0.00000000000E+00 -0.19926593186E+03  0.19926595356E+03  0.93000000000E-01 0. -1.
         25    2    1    2    0    0  0.00000000000E+00  0.00000000000E+00 -0.17966275379E+03  0.21886935222E+03  0.12500035297E+03 0.  0.
        -11    1    3    3    0    0 -0.11834667658E+02 -0.60983619542E+02 -0.77800573732E+02  0.99558979928E+02  0.51100000000E-03 0. -1.
         11    1    3    3    0    0  0.11834667658E+02  0.60983619542E+02 -0.10186218006E+03  0.11931037230E+03  0.51100000000E-03 0.  1.
<mgrwt>
<rscale>  0 0.12500035E+03</rscale>
<asrwt>0</asrwt>
<pdfrwt beam="2">  1        3 0.30656314E-01 0.12500035E+03</pdfrwt>
<pdfrwt beam="1">  1       -3 0.30158923E-02 0.12500035E+03</pdfrwt>
<totfact> 0.11577363E+04</totfact>
</mgrwt>
</event>
<event>
 5    1  0.1787806E-056  0.1250006E+03  0.7818608E-02  0.1235068E+00
         -3   -1    0    0    0  501 -0.00000000000E+00  0.00000000000E+00  0.43183068757E+03  0.43183069758E+03  0.93000000000E-01 0.  1.
          3   -1    0    0  501    0  0.00000000000E+00 -0.00000000000E+00 -0.90456281885E+01  0.90461062522E+01  0.93000000000E-01 0. -1.
         25    2    1    2    0    0  0.00000000000E+00  0.00000000000E+00  0.42278505938E+03  0.44087680383E+03  0.12500059890E+03 0.  0.
        -11    1    3    3    0    0 -0.53244387911E+02  0.25085259193E+02  0.28554779818E+03  0.29155064760E+03  0.51100000000E-03 0.  1.
         11    1    3    3    0    0  0.53244387911E+02 -0.25085259193E+02  0.13723726120E+03  0.14932615623E+03  0.51100000000E-03 0. -1.
<mgrwt>
<rscale>  0 0.12500060E+03</rscale>
<asrwt>0</asrwt>
<pdfrwt beam="2">  1        3 0.13916726E-02 0.12500060E+03</pdfrwt>
<pdfrwt beam="1">  1       -3 0.66435533E-01 0.12500060E+03</pdfrwt>
<totfact> 0.82273262E+03</totfact>
</mgrwt>
</event>
<event>
 5    1  0.1787806E-056  0.1249910E+03  0.7818608E-02  0.1235083E+00
          3   -1    0    0  501    0  0.00000000000E+00  0.00000000000E+00  0.40807974700E+02  0.40808080672E+02  0.93000000000E-01 0. -1.
         -3   -1    0    0    0  501 -0.00000000000E+00 -0.00000000000E+00 -0.95708744147E+02  0.95708789331E+02  0.93000000000E-01 0.  1.
         25    2    1    2    0    0  0.00000000000E+00  0.00000000000E+00 -0.54900769447E+02  0.13651687000E+03  0.12499104492E+03 0.  0.
        -11    1    3    3    0    0  0.37737370066E+02 -0.31221454014E+02 -0.69847423367E+02  0.85308562533E+02  0.51100000000E-03 0.  1.
         11    1    3    3    0    0 -0.37737370066E+02  0.31221454014E+02  0.14946653920E+02  0.51208307470E+02  0.51100000000E-03 0. -1.
<mgrwt>
<rscale>  0 0.12499104E+03</rscale>
<asrwt>0</asrwt>
<pdfrwt beam="1">  1        3 0.62781616E-02 0.12499104E+03</pdfrwt>
<pdfrwt beam="2">  1       -3 0.14724434E-01 0.12499104E+03</pdfrwt>
<totfact> 0.13437229E+04</totfact>
</mgrwt>
</event>
<event>
 5    1  0.1787806E-056  0.1249988E+03  0.7818608E-02  0.1235071E+00
          3   -1    0    0  501    0  0.00000000000E+00  0.00000000000E+00  0.52239578751E+02  0.52239661533E+02  0.93000000000E-01 0. -1.
         -3   -1    0    0    0  501 -0.00000000000E+00 -0.00000000000E+00 -0.74774097555E+02  0.74774155389E+02  0.93000000000E-01 0.  1.
         25    2    1    2    0    0  0.00000000000E+00  0.00000000000E+00 -0.22534518805E+02  0.12701381692E+03  0.12499882060E+03 0.  0.
        -11    1    3    3    0    0  0.40990277896E+02  0.21437433776E+02 -0.53973445624E+02  0.71083748366E+02  0.51100000000E-03 0.  1.
         11    1    3    3    0    0 -0.40990277896E+02 -0.21437433776E+02  0.31438926819E+02  0.55930068556E+02  0.51100000000E-03 0. -1.
<mgrwt>
<rscale>  0 0.12499882E+03</rscale>
<asrwt>0</asrwt>
<pdfrwt beam="1">  1        3 0.80368691E-02 0.12499882E+03</pdfrwt>
<pdfrwt beam="2">  1       -3 0.11503718E-01 0.12499882E+03</pdfrwt>
<totfact> 0.13682981E+04</totfact>
</mgrwt>
</event>
<event>
 5    1  0.2005161E-056  0.1249970E+03  0.7818608E-02  0.1235074E+00
         -3   -1    0    0    0  501 -0.00000000000E+00  0.00000000000E+00  0.46932689190E+02  0.46932781333E+02  0.93000000000E-01 0.  1.
          3   -1    0    0  501    0  0.00000000000E+00 -0.00000000000E+00 -0.83226737662E+02  0.83226789623E+02  0.93000000000E-01 0. -1.
         25    2    1    2    0    0  0.00000000000E+00  0.00000000000E+00 -0.36294048472E+02  0.13015957096E+03  0.12499702379E+03 0.  0.
        -11    1    3    3    0    0 -0.60080008878E+02  0.57385766303E+01 -0.12430990683E+01  0.60366249048E+02  0.51100000000E-03 0.  1.
         11    1    3    3    0    0  0.60080008878E+02 -0.57385766303E+01 -0.35050949403E+02  0.69793321908E+02  0.51100000000E-03 0. -1.
<mgrwt>
<rscale>  0 0.12499702E+03</rscale>
<asrwt>0</asrwt>
<pdfrwt beam="2">  1        3 0.12804125E-01 0.12499702E+03</pdfrwt>
<pdfrwt beam="1">  1       -3 0.72204248E-02 0.12499702E+03</pdfrwt>
<totfact> 0.13600505E+04</totfact>
</mgrwt>
</event>
<event>
 5    1  0.1787806E-056  0.1249958E+03  0.7818608E-02  0.1235076E+00
         -3   -1    0    0    0  501 -0.00000000000E+00  0.00000000000E+00  0.73561344824E+02  0.73561403612E+02  0.93000000000E-01 0.  1.
          3   -1    0    0  501    0  0.00000000000E+00 -0.00000000000E+00 -0.53098240119E+02  0.53098321563E+02  0.93000000000E-01 0. -1.
         25    2    1    2    0    0  0.00000000000E+00  0.00000000000E+00  0.20463104704E+02  0.12665972517E+03  0.12499578924E+03 0.  0.
        -11    1    3    3    0    0 -0.28170009933E+02 -0.48207353398E+02  0.38685388506E+02  0.67926855259E+02  0.51100000000E-03 0.  1.
         11    1    3    3    0    0  0.28170009933E+02  0.48207353398E+02 -0.18222283801E+02  0.58732869915E+02  0.51100000000E-03 0. -1.
<mgrwt>
<rscale>  0 0.12499579E+03</rscale>
<asrwt>0</asrwt>
<pdfrwt beam="2">  1        3 0.81689708E-02 0.12499579E+03</pdfrwt>
<pdfrwt beam="1">  1       -3 0.11317141E-01 0.12499579E+03</pdfrwt>
<totfact> 0.13693337E+04</totfact>
</mgrwt>
</event>
<event>
 5    1  0.1787806E-056  0.1249965E+03  0.7818608E-02  0.1235075E+00
          3   -1    0    0  501    0  0.00000000000E+00  0.00000000000E+00  0.61313542024E+02  0.61313612555E+02  0.93000000000E-01 0. -1.
         -3   -1    0    0    0  501 -0.00000000000E+00 -0.00000000000E+00 -0.63705722017E+02  0.63705789899E+02  0.93000000000E-01 0.  1.
         25    2    1    2    0    0  0.00000000000E+00  0.00000000000E+00 -0.23921799927E+01  0.12501940245E+03  0.12499651381E+03 0.  0.
        -11    1    3    3    0    0  0.53788124538E+02 -0.17358338162E+02  0.25483836682E+02  0.61999194973E+02  0.51100000000E-03 0. -1.
         11    1    3    3    0    0 -0.53788124538E+02  0.17358338162E+02 -0.27876016675E+02  0.63020207481E+02  0.51100000000E-03 0.  1.
<mgrwt>
<rscale>  0 0.12499651E+03</rscale>
<asrwt>0</asrwt>
<pdfrwt beam="1">  1        3 0.94328632E-02 0.12499651E+03</pdfrwt>
<pdfrwt beam="2">  1       -3 0.98008910E-02 0.12499651E+03</pdfrwt>
<totfact> 0.13736995E+04</totfact>
</mgrwt>
</event>
<event>
 5    1  0.1787806E-056  0.1249979E+03  0.7818608E-02  0.1235073E+00
         -3   -1    0    0    0  501 -0.00000000000E+00  0.00000000000E+00  0.16853542634E+03  0.16853545200E+03  0.93000000000E-01 0.  1.
          3   -1    0    0  501    0  0.00000000000E+00 -0.00000000000E+00 -0.23176704453E+02  0.23176891041E+02  0.93000000000E-01 0. -1.
         25    2    1    2    0    0  0.00000000000E+00  0.00000000000E+00  0.14535872189E+03  0.19171234304E+03  0.12499785776E+03 0.  0.
        -11    1    3    3    0    0 -0.18623489008E+02 -0.58858171787E+02  0.57730664468E+02  0.84521880889E+02  0.51100000000E-03 0.  1.
         11    1    3    3    0    0  0.18623489008E+02  0.58858171787E+02  0.87628057418E+02  0.10719046215E+03  0.51100000000E-03 0. -1.
<mgrwt>
<rscale>  0 0.12499786E+03</rscale>
<asrwt>0</asrwt>
<pdfrwt beam="2">  1        3 0.35656633E-02 0.12499786E+03</pdfrwt>
<pdfrwt beam="1">  1       -3 0.25928543E-01 0.12499786E+03</pdfrwt>
<totfact> 0.12138026E+04</totfact>
</mgrwt>
</event>
<event>
 5    1  0.1787806E-056  0.1250107E+03  0.7818608E-02  0.1235053E+00
          3   -1    0    0  501    0  0.00000000000E+00  0.00000000000E+00  0.10814600648E+03  0.10814604647E+03  0.93000000000E-01 0.  1.
         -3   -1    0    0    0  501 -0.00000000000E+00 -0.00000000000E+00 -0.36126240586E+02  0.36126360291E+02  0.93000000000E-01 0. -1.
         25    2    1    2    0    0  0.00000000000E+00  0.00000000000E+00  0.72019765896E+02  0.14427240676E+03  0.12501072223E+03 0.  0.
        -11    1    3    3    0    0 -0.51615793316E+02 -0.34326971689E+02  0.45270545614E+02  0.76759060738E+02  0.51100000000E-03 0. -1.
         11    1    3    3    0    0  0.51615793316E+02  0.34326971689E+02  0.26749220282E+02  0.67513346021E+02  0.51100000000E-03 0.  1.
<mgrwt>
<rscale>  0 0.12501072E+03</rscale>
<asrwt>0</asrwt>
<pdfrwt beam="1">  1        3 0.16637859E-01 0.12501072E+03</pdfrwt>
<pdfrwt beam="2">  1       -3 0.55578956E-02 0.12501072E+03</pdfrwt>
<totfact> 0.13234297E+04</totfact>
</mgrwt>
</event>
<event>
 5    1  0.1787806E-056  0.1249971E+03  0.7818608E-02  0.1235074E+00
         -3   -1    0    0    0  501 -0.00000000000E+00  0.00000000000E+00  0.23545417742E+03  0.23545419578E+03  0.93000000000E-01 0.  1.
          3   -1    0    0  501    0  0.00000000000E+00 -0.00000000000E+00 -0.16589344498E+02  0.16589605176E+02  0.93000000000E-01 0. -1.
         25    2    1    2    0    0  0.00000000000E+00  0.00000000000E+00  0.21886483292E+03  0.25204380096E+03  0.12499705002E+03 0.  0.
        -11    1    3    3    0    0 -0.10926440928E+02 -0.59169272612E+02  0.75351371408E+02  0.96427273663E+02  0.51100000000E-03 0.  1.
         11    1    3    3    0    0  0.10926440928E+02  0.59169272612E+02  0.14351346151E+03  0.15561652730E+03  0.51100000000E-03 0. -1.
<mgrwt>
<rscale>  0 0.12499705E+03</rscale>
<asrwt>0</asrwt>
<pdfrwt beam="2">  1        3 0.25522282E-02 0.12499705E+03</pdfrwt>
<pdfrwt beam="1">  1       -3 0.36223743E-01 0.12499705E+03</pdfrwt>
<totfact> 0.10948268E+04</totfact>
</mgrwt>
</event>
<event>
 5    1  0.1787806E-056  0.1249982E+03  0.7818608E-02  0.1235072E+00
          3   -1    0    0  501    0  0.00000000000E+00  0.00000000000E+00  0.95759440215E+02  0.95759485375E+02  0.93000000000E-01 0. -1.
         -3   -1    0    0    0  501 -0.00000000000E+00 -0.00000000000E+00 -0.40791033544E+02  0.40791139560E+02  0.93000000000E-01 0.  1.
         25    2    1    2    0    0  0.00000000000E+00  0.00000000000E+00  0.54968406671E+02  0.13655062494E+03  0.12499818974E+03 0.  0.
        -11    1    3    3    0    0  0.25842073934E+02 -0.46962174590E+02 -0.76244790541E+01  0.54142324558E+02  0.51100000000E-03 0.  1.
         11    1    3    3    0    0 -0.25842073934E+02  0.46962174590E+02  0.62592885725E+02  0.82408300378E+02  0.51100000000E-03 0. -1.
<mgrwt>
<rscale>  0 0.12499819E+03</rscale>
<asrwt>0</asrwt>
<pdfrwt beam="1">  1        3 0.14732233E-01 0.12499819E+03</pdfrwt>
<pdfrwt beam="2">  1       -3 0.62755554E-02 0.12499819E+03</pdfrwt>
<totfact> 0.13434001E+04</totfact>
</mgrwt>
</event>
<event>
 5    1  0.1787806E-056  0.1249995E+03  0.7818608E-02  0.1235070E+00
         -3   -1    0    0    0  501 -0.00000000000E+00  0.00000000000E+00  0.20734345680E+03  0.20734347765E+03  0.93000000000E-01 0.  1.
          3   -1    0    0  501    0  0.00000000000E+00 -0.00000000000E+00 -0.18839227852E+02  0.18839457398E+02  0.93000000000E-01 0. -1.
         25    2    1    2    0    0  0.00000000000E+00  0.00000000000E+00  0.18850422894E+03  0.22618293505E+03  0.12499950311E+03 0.  0.
        -11    1    3    3    0    0 -0.41867181680E+02  0.24751004152E+02  0.16527806427E+03  0.17228555261E+03  0.51100000000E-03 0.  1.
         11    1    3    3    0    0  0.41867181680E+02 -0.24751004152E+02  0.23226164673E+02  0.53897382442E+02  0.51100000000E-03 0. -1.
<mgrwt>
<rscale>  0 0.12499950E+03</rscale>
<asrwt>0</asrwt>
<pdfrwt beam="2">  1        3 0.28983621E-02 0.12499950E+03</pdfrwt>
<pdfrwt beam="1">  1       -3 0.31899012E-01 0.12499950E+03</pdfrwt>
<totfact> 0.11432731E+04</totfact>
</mgrwt>
</event>
<event>
 5    1  0.1787806E-056  0.1250009E+03  0.7818608E-02  0.1235068E+00
          3   -1    0    0  501    0  0.00000000000E+00  0.00000000000E+00  0.84151131232E+02  0.84151182622E+02  0.93000000000E-01 0. -1.
         -3   -1    0    0    0  501 -0.00000000000E+00 -0.00000000000E+00 -0.46419986847E+02  0.46420080007E+02  0.93000000000E-01 0.  1.
         25    2    1    2    0    0  0.00000000000E+00  0.00000000000E+00  0.37731144385E+02  0.13057126263E+03  0.12500086147E+03 0.  0.
        -11    1    3    3    0    0 -0.36859657618E+02 -0.50310453130E+02  0.23112178122E+02  0.66512771944E+02  0.51100000000E-03 0. -1.
         11    1    3    3    0    0  0.36859657618E+02  0.50310453130E+02  0.14618966264E+02  0.64058490685E+02  0.51100000000E-03 0.  1.
<mgrwt>
<rscale>  0 0.12500086E+03</rscale>
<asrwt>0</asrwt>
<pdfrwt beam="1">  1        3 0.12946339E-01 0.12500086E+03</pdfrwt>
<pdfrwt beam="2">  1       -3 0.71415477E-02 0.12500086E+03</pdfrwt>
<totfact> 0.13588549E+04</totfact>
</mgrwt>
</event>
<event>
 5    1  0.1787806E-056  0.1250003E+03  0.7818608E-02  0.1235069E+00
          3   -1    0    0  501    0  0.00000000000E+00  0.00000000000E+00  0.56196102209E+03  0.56196102978E+03  0.93000000000E-01 0. -1.
         -3   -1    0    0    0  501 -0.00000000000E+00 -0.00000000000E+00 -0.69508236201E+01  0.69514457487E+01  0.93000000000E-01 0.  1.
         25    2    1    2    0    0  0.00000000000E+00  0.00000000000E+00  0.55501019847E+03  0.56891247553E+03  0.12500033765E+03 0.  0.
        -11    1    3    3    0    0 -0.54888532346E+02 -0.24419552177E+02  0.19904248770E+03  0.20791098437E+03  0.51100000000E-03 0. -1.
         11    1    3    3    0    0  0.54888532346E+02  0.24419552177E+02  0.35596771076E+03  0.36100149116E+03  0.51100000000E-03 0.  1.
<mgrwt>
<rscale>  0 0.12500034E+03</rscale>
<asrwt>0</asrwt>
<pdfrwt beam="1">  1        3 0.86455607E-01 0.12500034E+03</pdfrwt>
<pdfrwt beam="2">  1       -3 0.10694057E-02 0.12500034E+03</pdfrwt>
<totfact> 0.69485975E+03</totfact>
</mgrwt>
</event>
<event>
 5    1  0.1787806E-056  0.1250000E+03  0.7818608E-02  0.1235069E+00
          3   -1    0    0  501    0  0.00000000000E+00  0.00000000000E+00  0.19363919332E+03  0.19363921565E+03  0.93000000000E-01 0. -1.
         -3   -1    0    0    0  501 -0.00000000000E+00 -0.00000000000E+00 -0.20172707196E+02  0.20172921568E+02  0.93000000000E-01 0.  1.
         25    2    1    2    0    0  0.00000000000E+00  0.00000000000E+00  0.17346648612E+03  0.21381213722E+03  0.12500003286E+03 0.  0.
        -11    1    3    3    0    0  0.29886009259E+02  0.43976353876E+02  0.30542483012E+02  0.61318321229E+02  0.51100000000E-03 0.  1.
         11    1    3    3    0    0 -0.29886009259E+02 -0.43976353876E+02  0.14292400311E+03  0.15249381599E+03  0.51100000000E-03 0. -1.
<mgrwt>
<rscale>  0 0.12500003E+03</rscale>
<asrwt>0</asrwt>
<pdfrwt beam="1">  1        3 0.29790664E-01 0.12500003E+03</pdfrwt>
<pdfrwt beam="2">  1       -3 0.31035116E-02 0.12500003E+03</pdfrwt>
<totfact> 0.11678470E+04</totfact>
</mgrwt>
</event>
<event>
 5    1  0.1787806E-056  0.1249993E+03  0.7818608E-02  0.1235070E+00
          3   -1    0    0  501    0  0.00000000000E+00  0.00000000000E+00  0.62009012056E+03  0.62009012754E+03  0.93000000000E-01 0. -1.
         -3   -1    0    0    0  501 -0.00000000000E+00 -0.00000000000E+00 -0.62990702132E+01  0.62997567057E+01  0.93000000000E-01 0.  1.
         25    2    1    2    0    0  0.00000000000E+00  0.00000000000E+00  0.61379105035E+03  0.62638988424E+03  0.12499933437E+03 0.  0.
        -11    1    3    3    0    0  0.19294366670E+02 -0.58635937093E+02  0.35593380329E+03  0.36124689345E+03  0.51100000000E-03 0.  1.
         11    1    3    3    0    0 -0.19294366670E+02  0.58635937093E+02  0.25785724706E+03  0.26514299079E+03  0.51100000000E-03 0. -1.
<mgrwt>
<rscale>  0 0.12499933E+03</rscale>
<asrwt>0</asrwt>
<pdfrwt beam="1">  1        3 0.95398561E-01 0.12499933E+03</pdfrwt>
<pdfrwt beam="2">  1       -3 0.96914079E-03 0.12499933E+03</pdfrwt>
<totfact> 0.64698384E+03</totfact>
</mgrwt>
</event>
<event>
 5    1  0.1787806E-056  0.1250000E+03  0.7818608E-02  0.1235069E+00
         -3   -1    0    0    0  501 -0.00000000000E+00  0.00000000000E+00  0.23090436150E+02  0.23090623434E+02  0.93000000000E-01 0.  1.
          3   -1    0    0  501    0  0.00000000000E+00 -0.00000000000E+00 -0.16917087758E+03  0.16917090315E+03  0.93000000000E-01 0. -1.
         25    2    1    2    0    0  0.00000000000E+00  0.00000000000E+00 -0.14608044143E+03  0.19226152658E+03  0.12499999693E+03 0.  0.
        -11    1    3    3    0    0  0.43497993452E+02 -0.40427936115E+02 -0.43066896648E+02  0.73357010844E+02  0.51100000000E-03 0.  1.
         11    1    3    3    0    0 -0.43497993452E+02  0.40427936115E+02 -0.10301354479E+03  0.11890451574E+03  0.51100000000E-03 0. -1.
<mgrwt>
<rscale>  0 0.12500000E+03</rscale>
<asrwt>0</asrwt>
<pdfrwt beam="2">  1        3 0.26026304E-01 0.12500000E+03</pdfrwt>
<pdfrwt beam="1">  1       -3 0.35523913E-02 0.12500000E+03</pdfrwt>
<totfact> 0.12126206E+04</totfact>
</mgrwt>
</event>
<event>
 5    1  0.1787806E-056  0.1250027E+03  0.7818608E-02  0.1235065E+00
          3   -1    0    0  501    0  0.00000000000E+00  0.00000000000E+00  0.20170940560E+03  0.20170942704E+03  0.93000000000E-01 0. -1.
         -3   -1    0    0    0  501 -0.00000000000E+00 -0.00000000000E+00 -0.19366420553E+02  0.19366643851E+02  0.93000000000E-01 0.  1.
         25    2    1    2    0    0  0.00000000000E+00  0.00000000000E+00  0.18234298505E+03  0.22107607089E+03  0.12500265967E+03 0.  0.
        -11    1    3    3    0    0  0.40079191351E+02  0.47955168269E+02  0.90086322063E+02  0.10964298959E+03  0.51100000000E-03 0. -1.
         11    1    3    3    0    0 -0.40079191351E+02 -0.47955168269E+02  0.92256662984E+02  0.11143308130E+03  0.51100000000E-03 0.  1.
<mgrwt>
<rscale>  0 0.12500266E+03</rscale>
<asrwt>0</asrwt>
<pdfrwt beam="1">  1        3 0.31032235E-01 0.12500266E+03</pdfrwt>
<pdfrwt beam="2">  1       -3 0.29794681E-02 0.12500266E+03</pdfrwt>
<totfact> 0.11533153E+04</totfact>
</mgrwt>
</event>
<event>
 5    1  0.1787806E-056  0.1249921E+03  0.7818608E-02  0.1235082E+00
         -3   -1    0    0    0  501 -0.00000000000E+00  0.00000000000E+00  0.28189399827E+02  0.28189553235E+02  0.93000000000E-01 0.  1.
          3   -1    0    0  501    0  0.00000000000E+00 -0.00000000000E+00 -0.13855350495E+03  0.13855353617E+03  0.93000000000E-01 0. -1.
         25    2    1    2    0    0  0.00000000000E+00  0.00000000000E+00 -0.11036410513E+03  0.16674308940E+03  0.12499208840E+03 0.  0.
        -11    1    3    3    0    0 -0.22226227160E+02  0.58290120317E+02 -0.60175714112E+02  0.86676755070E+02  0.51100000000E-03 0.  1.
         11    1    3    3    0    0  0.22226227160E+02 -0.58290120317E+02 -0.50188391016E+02  0.80066334332E+02  0.51100000000E-03 0. -1.
<mgrwt>
<rscale>  0 0.12499209E+03</rscale>
<asrwt>0</asrwt>
<pdfrwt beam="2">  1        3 0.21315938E-01 0.12499209E+03</pdfrwt>
<pdfrwt beam="1">  1       -3 0.43368450E-02 0.12499209E+03</pdfrwt>
<totfact> 0.12698141E+04</totfact>
</mgrwt>
</event>
<event>
 5    1  0.1787806E-056  0.1250005E+03  0.7818608E-02  0.1235068E+00
         -3   -1    0    0    0  501 -0.00000000000E+00  0.00000000000E+00  0.57721502108E+03  0.57721502857E+03  0.93000000000E-01 0.  1.
          3   -1    0    0  501    0  0.00000000000E+00 -0.00000000000E+00 -0.67671401848E+01  0.67677791986E+01  0.93000000000E-01 0. -1.
         25    2    1    2    0    0  0.00000000000E+00  0.00000000000E+00  0.57044788089E+03  0.58398280777E+03  0.12500053981E+03 0.  0.
        -11    1    3    3    0    0 -0.47681522850E+02 -0.39444777469E+02  0.32618340944E+03  0.33200155826E+03  0.51100000000E-03 0. -1.
         11    1    3    3    0    0  0.47681522850E+02  0.39444777469E+02  0.24426447145E+03  0.25198124951E+03  0.51100000000E-03 0.  1.
<mgrwt>
<rscale>  0 0.12500054E+03</rscale>
<asrwt>0</asrwt>
<pdfrwt beam="2">  1        3 0.10411480E-02 0.12500054E+03</pdfrwt>
<pdfrwt beam="1">  1       -3 0.88802383E-01 0.12500054E+03</pdfrwt>
<totfact> 0.68070571E+03</totfact>
</mgrwt>
</event>
<event>
 5    1  0.1787806E-056  0.1249976E+03  0.7818608E-02  0.1235073E+00
          3   -1    0    0  501    0  0.00000000000E+00  0.00000000000E+00  0.14538299865E+03  0.14538302840E+03  0.93000000000E-01 0. -1.
         -3   -1    0    0    0  501 -0.00000000000E+00 -0.00000000000E+00 -0.26867542235E+02  0.26867703191E+02  0.93000000000E-01 0.  1.
         25    2    1    2    0    0  0.00000000000E+00  0.00000000000E+00  0.11851545642E+03  0.17225073159E+03  0.12499760447E+03 0.  0.
        -11    1    3    3    0    0 -0.65659305147E+01  0.57360348421E+02  0.92237908799E+02  0.10881706132E+03  0.51100000000E-03 0.  1.
         11    1    3    3    0    0  0.65659305147E+01 -0.57360348421E+02  0.26277547616E+02  0.63433670266E+02  0.51100000000E-03 0. -1.
<mgrwt>
<rscale>  0 0.12499760E+03</rscale>
<asrwt>0</asrwt>
<pdfrwt beam="1">  1        3 0.22366629E-01 0.12499760E+03</pdfrwt>
<pdfrwt beam="2">  1       -3 0.41334828E-02 0.12499760E+03</pdfrwt>
<totfact> 0.12569666E+04</totfact>
</mgrwt>
</event>
<event>
 5    1  0.1787806E-056  0.1249996E+03  0.7818608E-02  0.1235070E+00
          3   -1    0    0  501    0  0.00000000000E+00  0.00000000000E+00  0.13144467255E+03  0.13144470545E+03  0.93000000000E-01 0. -1.
         -3   -1    0    0    0  501 -0.00000000000E+00 -0.00000000000E+00 -0.29717546812E+02  0.29717692332E+02  0.93000000000E-01 0.  1.
         25    2    1    2    0    0  0.00000000000E+00  0.00000000000E+00  0.10172712574E+03  0.16116239778E+03  0.12499964139E+03 0.  0.
        -11    1    3    3    0    0  0.18814945753E+02  0.39270695913E+02  0.10866745347E+03  0.11706752404E+03  0.51100000000E-03 0. -1.
         11    1    3    3    0    0 -0.18814945753E+02 -0.39270695913E+02 -0.69403277301E+01  0.44094873743E+02  0.51100000000E-03 0.  1.
<mgrwt>
<rscale>  0 0.12499964E+03</rscale>
<asrwt>0</asrwt>
<pdfrwt beam="1">  1        3 0.20222271E-01 0.12499964E+03</pdfrwt>
<pdfrwt beam="2">  1       -3 0.45719439E-02 0.12499964E+03</pdfrwt>
<totfact> 0.12826838E+04</totfact>
</mgrwt>
</event>
<event>
 5    1  0.2078729E-056  0.1249993E+03  0.7818608E-02  0.1235070E+00
         -3   -1    0    0    0  501 -0.00000000000E+00  0.00000000000E+00  0.10740884533E+03  0.10740888559E+03  0.93000000000E-01 0.  1.
          3   -1    0    0  501    0  0.00000000000E+00 -0.00000000000E+00 -0.36367551030E+02  0.36367669941E+02  0.93000000000E-01 0. -1.
         25    2    1    2    0    0  0.00000000000E+00  0.00000000000E+00  0.71041294301E+02  0.14377655553E+03  0.12499932970E+03 0.  0.
        -11    1    3    3    0    0 -0.57381268730E+02 -0.16744879141E+02  0.56516693956E+02  0.82262614075E+02  0.51100000000E-03 0.  1.
         11    1    3    3    0    0  0.57381268730E+02  0.16744879141E+02  0.14524600346E+02  0.61513941460E+02  0.51100000000E-03 0. -1.
<mgrwt>
<rscale>  0 0.12499933E+03</rscale>
<asrwt>0</asrwt>
<pdfrwt beam="2">  1        3 0.55950201E-02 0.12499933E+03</pdfrwt>
<pdfrwt beam="1">  1       -3 0.16524450E-01 0.12499933E+03</pdfrwt>
<totfact> 0.13250285E+04</totfact>
</mgrwt>
</event>
<event>
 5    1  0.1787806E-056  0.1249999E+03  0.7818608E-02  0.1235069E+00
         -3   -1    0    0    0  501 -0.00000000000E+00  0.00000000000E+00  0.19515377056E+02  0.19515598650E+02  0.93000000000E-01 0.  1.
          3   -1    0    0  501    0  0.00000000000E+00 -0.00000000000E+00 -0.20016089788E+03  0.20016091949E+03  0.93000000000E-01 0. -1.
         25    2    1    2    0    0  0.00000000000E+00  0.00000000000E+00 -0.18064552083E+03  0.21967651814E+03  0.12499987371E+03 0.  0.
        -11    1    3    3    0    0 -0.15416547559E+02 -0.49050346257E+02 -0.15276997826E+03  0.16119017545E+03  0.51100000000E-03 0. -1.
         11    1    3    3    0    0  0.15416547559E+02  0.49050346257E+02 -0.27875542572E+02  0.58486342684E+02  0.51100000000E-03 0.  1.
<mgrwt>
<rscale>  0 0.12499987E+03</rscale>
<asrwt>0</asrwt>
<pdfrwt beam="2">  1        3 0.30794002E-01 0.12499987E+03</pdfrwt>
<pdfrwt beam="1">  1       -3 0.30023846E-02 0.12499987E+03</pdfrwt>
<totfact> 0.11561502E+04</totfact>
</mgrwt>
</event>
<event>
 5    1  0.1787806E-056  0.1250202E+03  0.7818608E-02  0.1235038E+00
          3   -1    0    0  501    0  0.00000000000E+00  0.00000000000E+00  0.38067353104E+03  0.38067354240E+03  0.93000000000E-01 0. -1.
         -3   -1    0    0    0  501 -0.00000000000E+00 -0.00000000000E+00 -0.10264505531E+02  0.10264926828E+02  0.93000000000E-01 0.  1.
         25    2    1    2    0    0  0.00000000000E+00  0.00000000000E+00  0.37040902550E+03  0.39093846922E+03  0.12502016055E+03 0.  0.
        -11    1    3    3    0    0 -0.45470687676E+02 -0.28398660551E+02  0.84680093481E+02  0.10022367780E+03  0.51100000000E-03 0.  1.
         11    1    3    3    0    0  0.45470687676E+02  0.28398660551E+02  0.28572893202E+03  0.29071479143E+03  0.51100000000E-03 0. -1.
<mgrwt>
<rscale>  0 0.12502016E+03</rscale>
<asrwt>0</asrwt>
<pdfrwt beam="1">  1        3 0.58565187E-01 0.12502016E+03</pdfrwt>
<pdfrwt beam="2">  1       -3 0.15791881E-02 0.12502016E+03</pdfrwt>
<totfact> 0.88351636E+03</totfact>
</mgrwt>
</event>
<event>
 5    1  0.1787806E-056  0.1249974E+03  0.7818608E-02  0.1235073E+00
         -3   -1    0    0    0  501 -0.00000000000E+00  0.00000000000E+00  0.30309913999E+03  0.30309915426E+03  0.93000000000E-01 0.  1.
          3   -1    0    0  501    0  0.00000000000E+00 -0.00000000000E+00 -0.12886971837E+02  0.12887307404E+02  0.93000000000E-01 0. -1.
         25    2    1    2    0    0  0.00000000000E+00  0.00000000000E+00  0.29021216816E+03  0.31598646166E+03  0.12499736561E+03 0.  0.
        -11    1    3    3    0    0 -0.57808738782E+02 -0.23744620279E+02  0.14676006389E+03  0.15951229929E+03  0.51100000000E-03 0. -1.
         11    1    3    3    0    0  0.57808738782E+02  0.23744620279E+02  0.14345210426E+03  0.15647416237E+03  0.51100000000E-03 0.  1.
<mgrwt>
<rscale>  0 0.12499737E+03</rscale>
<asrwt>0</asrwt>
<pdfrwt beam="2">  1        3 0.19826380E-02 0.12499737E+03</pdfrwt>
<pdfrwt beam="1">  1       -3 0.46630663E-01 0.12499737E+03</pdfrwt>
<totfact> 0.98840201E+03</totfact>
</mgrwt>
</event>
<event>
 5    1  0.1787806E-056  0.1249974E+03  0.7818608E-02  0.1235073E+00
         -3   -1    0    0    0  501 -0.00000000000E+00  0.00000000000E+00  0.15124155777E+03  0.15124158637E+03  0.93000000000E-01 0.  1.
          3   -1    0    0  501    0  0.00000000000E+00 -0.00000000000E+00 -0.25826694028E+02  0.25826861470E+02  0.93000000000E-01 0. -1.
         25    2    1    2    0    0  0.00000000000E+00  0.00000000000E+00  0.12541486375E+03  0.17706844784E+03  0.12499738866E+03 0.  0.
        -11    1    3    3    0    0 -0.18765183202E+02  0.59447348892E+02  0.56377471138E+02  0.84050809890E+02  0.51100000000E-03 0.  1.
         11    1    3    3    0    0  0.18765183202E+02 -0.59447348892E+02  0.69037392608E+02  0.93017637948E+02  0.51100000000E-03 0. -1.
<mgrwt>
<rscale>  0 0.12499739E+03</rscale>
<asrwt>0</asrwt>
<pdfrwt beam="2">  1        3 0.39733526E-02 0.12499739E+03</pdfrwt>
<pdfrwt beam="1">  1       -3 0.23267947E-01 0.12499739E+03</pdfrwt>
<totfact> 0.12460239E+04</totfact>
</mgrwt>
</event>
<event>
 5    1  0.1787806E-056  0.1249992E+03  0.7818608E-02  0.1235071E+00
         -3   -1    0    0    0  501 -0.00000000000E+00  0.00000000000E+00  0.22846113892E+02  0.22846303179E+02  0.93000000000E-01 0. -1.
          3   -1    0    0  501    0  0.00000000000E+00 -0.00000000000E+00 -0.17097778549E+03  0.17097781078E+03  0.93000000000E-01 0.  1.
         25    2    1    2    0    0  0.00000000000E+00  0.00000000000E+00 -0.14813167160E+03  0.19382411396E+03  0.12499918009E+03 0.  0.
        -11    1    3    3    0    0  0.43538388666E+02 -0.44767593018E+02 -0.70121666276E+02  0.93897693016E+02  0.51100000000E-03 0. -1.
         11    1    3    3    0    0 -0.43538388666E+02  0.44767593018E+02 -0.78010005321E+02  0.99926420944E+02  0.51100000000E-03 0.  1.
<mgrwt>
<rscale>  0 0.12499918E+03</rscale>
<asrwt>0</asrwt>
<pdfrwt beam="2">  1        3 0.26304290E-01 0.12499918E+03</pdfrwt>
<pdfrwt beam="1">  1       -3 0.35148034E-02 0.12499918E+03</pdfrwt>
<totfact> 0.12093018E+04</totfact>
</mgrwt>
</event>
<event>
 5    1  0.1787806E-056  0.1250003E+03  0.7818608E-02  0.1235069E+00
          3   -1    0    0  501    0  0.00000000000E+00  0.00000000000E+00  0.19747435827E+03  0.19747438017E+03  0.93000000000E-01 0. -1.
         -3   -1    0    0    0  501 -0.00000000000E+00 -0.00000000000E+00 -0.19781009634E+02  0.19781228251E+02  0.93000000000E-01 0.  1.
         25    2    1    2    0    0  0.00000000000E+00  0.00000000000E+00  0.17769334863E+03  0.21725560842E+03  0.12500029296E+03 0.  0.
        -11    1    3    3    0    0 -0.36631563974E+02  0.48608387133E+02  0.64167625349E+02  0.88442811591E+02  0.51100000000E-03 0.  1.
         11    1    3    3    0    0  0.36631563974E+02 -0.48608387133E+02  0.11352572329E+03  0.12881279683E+03  0.51100000000E-03 0. -1.
<mgrwt>
<rscale>  0 0.12500029E+03</rscale>
<asrwt>0</asrwt>
<pdfrwt beam="1">  1        3 0.30380688E-01 0.12500029E+03</pdfrwt>
<pdfrwt beam="2">  1       -3 0.30432508E-02 0.12500029E+03</pdfrwt>
<totfact> 0.11609452E+04</totfact>
</mgrwt>
</event>
<event>
 5    1  0.1787806E-056  0.1250007E+03  0.7818608E-02  0.1235068E+00
          3   -1    0    0  501    0  0.00000000000E+00  0.00000000000E+00  0.32778580321E+03  0.32778581640E+03  0.93000000000E-01 0. -1.
         -3   -1    0    0    0  501 -0.00000000000E+00 -0.00000000000E+00 -0.11917020628E+02  0.11917383507E+02  0.93000000000E-01 0.  1.
         25    2    1    2    0    0  0.00000000000E+00  0.00000000000E+00  0.31586878258E+03  0.33970319991E+03  0.12500070487E+03 0.  0.
        -11    1    3    3    0    0  0.50967641055E+02 -0.36138743349E+02  0.15356516285E+03  0.16578892740E+03  0.51100000000E-03 0.  1.
         11    1    3    3    0    0 -0.50967641055E+02  0.36138743349E+02  0.16230361973E+03  0.17391427251E+03  0.51100000000E-03 0. -1.
<mgrwt>
<rscale>  0 0.12500070E+03</rscale>
<asrwt>0</asrwt>
<pdfrwt beam="1">  1        3 0.50428609E-01 0.12500070E+03</pdfrwt>
<pdfrwt beam="2">  1       -3 0.18334169E-02 0.12500070E+03</pdfrwt>
<totfact> 0.95348488E+03</totfact>
</mgrwt>
</event>
<event>
 5    1  0.1787806E-056  0.1250034E+03  0.7818608E-02  0.1235064E+00
          3   -1    0    0  501    0  0.00000000000E+00  0.00000000000E+00  0.16121918026E+03  0.16121920708E+03  0.93000000000E-01 0. -1.
         -3   -1    0    0    0  501 -0.00000000000E+00 -0.00000000000E+00 -0.24230632293E+02  0.24230810764E+02  0.93000000000E-01 0.  1.
         25    2    1    2    0    0  0.00000000000E+00  0.00000000000E+00  0.13698854796E+03  0.18545001784E+03  0.12500338733E+03 0.  0.
        -11    1    3    3    0    0  0.42097432009E+02 -0.46031538057E+02  0.62678901938E+02  0.88429299591E+02  0.51100000000E-03 0.  1.
         11    1    3    3    0    0 -0.42097432009E+02  0.46031538057E+02  0.74309646024E+02  0.97020718252E+02  0.51100000000E-03 0. -1.
<mgrwt>
<rscale>  0 0.12500339E+03</rscale>
<asrwt>0</asrwt>
<pdfrwt beam="1">  1        3 0.24802966E-01 0.12500339E+03</pdfrwt>
<pdfrwt beam="2">  1       -3 0.37278054E-02 0.12500339E+03</pdfrwt>
<totfact> 0.12272829E+04</totfact>
</mgrwt>
</event>
<event>
 5    1  0.1867727E-056  0.1250009E+03  0.7818608E-02  0.1235068E+00
         -3   -1    0    0    0  501 -0.00000000000E+00  0.00000000000E+00  0.48160150875E+02  0.48160240669E+02  0.93000000000E-01 0.  1.
          3   -1    0    0  501    0  0.00000000000E+00 -0.00000000000E+00 -0.81110560315E+02  0.81110613631E+02  0.93000000000E-01 0. -1.
         25    2    1    2    0    0  0.00000000000E+00  0.00000000000E+00 -0.32950409440E+02  0.12927085430E+03  0.12500089715E+03 0.  0.
        -11    1    3    3    0    0 -0.54055446862E+02 -0.27085126623E+02 -0.10048472281E+00  0.60461603659E+02  0.51100000000E-03 0.  1.
         11    1    3    3    0    0  0.54055446862E+02  0.27085126623E+02 -0.32849924717E+02  0.68809250641E+02  0.51100000000E-03 0. -1.
<mgrwt>
<rscale>  0 0.12500090E+03</rscale>
<asrwt>0</asrwt>
<pdfrwt beam="2">  1        3 0.12478559E-01 0.12500090E+03</pdfrwt>
<pdfrwt beam="1">  1       -3 0.74092650E-02 0.12500090E+03</pdfrwt>
<totfact> 0.13622609E+04</totfact>
</mgrwt>
</event>
<event>
 5    1  0.1787806E-056  0.1250109E+03  0.7818608E-02  0.1235052E+00
          3   -1    0    0  501    0  0.00000000000E+00  0.00000000000E+00  0.30275379673E+02  0.30275522511E+02  0.93000000000E-01 0. -1.
         -3   -1    0    0    0  501 -0.00000000000E+00 -0.00000000000E+00 -0.12904609360E+03  0.12904612711E+03  0.93000000000E-01 0.  1.
         25    2    1    2    0    0  0.00000000000E+00  0.00000000000E+00 -0.98770713928E+02  0.15932164962E+03  0.12501093596E+03 0.  0.
        -11    1    3    3    0    0  0.36265353860E+02  0.28991196071E+02 -0.10271922929E+03  0.11272491032E+03  0.51100000000E-03 0.  1.
         11    1    3    3    0    0 -0.36265353860E+02 -0.28991196071E+02  0.39485153586E+01  0.46596739307E+02  0.51100000000E-03 0. -1.
<mgrwt>
<rscale>  0 0.12501094E+03</rscale>
<asrwt>0</asrwt>
<pdfrwt beam="1">  1        3 0.46577644E-02 0.12501094E+03</pdfrwt>
<pdfrwt beam="2">  1       -3 0.19853258E-01 0.12501094E+03</pdfrwt>
<totfact> 0.12867290E+04</totfact>
</mgrwt>
</event>
<event>
 5    1  0.1787806E-056  0.1250002E+03  0.7818608E-02  0.1235069E+00
          3   -1    0    0  501    0  0.00000000000E+00  0.00000000000E+00  0.12302774850E+03  0.12302778365E+03  0.93000000000E-01 0. -1.
         -3   -1    0    0    0  501 -0.00000000000E+00 -0.00000000000E+00 -0.31750955110E+02  0.31751091311E+02  0.93000000000E-01 0.  1.
         25    2    1    2    0    0  0.00000000000E+00  0.00000000000E+00  0.91276793389E+02  0.15477887496E+03  0.12500018849E+03 0.  0.
        -11    1    3    3    0    0  0.34265381669E+02 -0.49805931694E+02  0.26001059849E+02  0.65808831674E+02  0.51100000000E-03 0.  1.
         11    1    3    3    0    0 -0.34265381669E+02  0.49805931694E+02  0.65275733540E+02  0.88970043286E+02  0.51100000000E-03 0. -1.
<mgrwt>
<rscale>  0 0.12500019E+03</rscale>
<asrwt>0</asrwt>
<pdfrwt beam="1">  1        3 0.18927359E-01 0.12500019E+03</pdfrwt>
<pdfrwt beam="2">  1       -3 0.48847754E-02 0.12500019E+03</pdfrwt>
<totfact> 0.12979405E+04</totfact>
</mgrwt>
</event>
<event>
 5    1  0.1787806E-056  0.1249996E+03  0.7818608E-02  0.1235070E+00
          3   -1    0    0  501    0  0.00000000000E+00  0.00000000000E+00  0.15458296848E+03  0.15458299645E+03  0.93000000000E-01 0. -1.
         -3   -1    0    0    0  501 -0.00000000000E+00 -0.00000000000E+00 -0.25269323616E+02  0.25269494751E+02  0.93000000000E-01 0.  1.
         25    2    1    2    0    0  0.00000000000E+00  0.00000000000E+00  0.12931364486E+03  0.17985249120E+03  0.12499959938E+03 0.  0.
        -11    1    3    3    0    0  0.52073735330E+02 -0.21000588359E+02  0.10415318083E+03  0.11832406222E+03  0.51100000000E-03 0. -1.
         11    1    3    3    0    0 -0.52073735330E+02  0.21000588359E+02  0.25160464028E+02  0.61528428982E+02  0.51100000000E-03 0.  1.
<mgrwt>
<rscale>  0 0.12499960E+03</rscale>
<asrwt>0</asrwt>
<pdfrwt beam="1">  1        3 0.23782010E-01 0.12499960E+03</pdfrwt>
<pdfrwt beam="2">  1       -3 0.38876036E-02 0.12499960E+03</pdfrwt>
<totfact> 0.12397538E+04</totfact>
</mgrwt>
</event>
<event>
 5    1  0.1787806E-056  0.1249982E+03  0.7818608E-02  0.1235072E+00
          3   -1    0    0  501    0  0.00000000000E+00  0.00000000000E+00  0.13500505789E+03  0.13500508993E+03  0.93000000000E-01 0. -1.
         -3   -1    0    0    0  501 -0.00000000000E+00 -0.00000000000E+00 -0.28933162727E+02  0.28933312192E+02  0.93000000000E-01 0.  1.
         25    2    1    2    0    0  0.00000000000E+00  0.00000000000E+00  0.10607189517E+03  0.16393840212E+03  0.12499821097E+03 0.  0.
        -11    1    3    3    0    0  0.16895145260E+02 -0.33164283365E+02 -0.12812878820E+02  0.39363504524E+02  0.51100000000E-03 0.  1.
         11    1    3    3    0    0 -0.16895145260E+02  0.33164283365E+02  0.11888477399E+03  0.12457489759E+03  0.51100000000E-03 0. -1.
<mgrwt>
<rscale>  0 0.12499821E+03</rscale>
<asrwt>0</asrwt>
<pdfrwt beam="1">  1        3 0.20770023E-01 0.12499821E+03</pdfrwt>
<pdfrwt beam="2">  1       -3 0.44512698E-02 0.12499821E+03</pdfrwt>
<totfact> 0.12761854E+04</totfact>
</mgrwt>
</event>
<event>
 5    1  0.1787806E-056  0.1250033E+03  0.7818608E-02  0.1235064E+00
         -3   -1    0    0    0  501 -0.00000000000E+00  0.00000000000E+00  0.13370926513E+03  0.13370929747E+03  0.93000000000E-01 0.  1.
          3   -1    0    0  501    0  0.00000000000E+00 -0.00000000000E+00 -0.29215959350E+02  0.29216107368E+02  0.93000000000E-01 0. -1.
         25    2    1    2    0    0  0.00000000000E+00  0.00000000000E+00  0.10449330578E+03  0.16292540484E+03  0.12500334631E+03 0.  0.
        -11    1    3    3    0    0 -0.42709814761E+02  0.24610417974E+02  0.21617126426E+01  0.49340388645E+02  0.51100000000E-03 0. -1.
         11    1    3    3    0    0  0.42709814761E+02 -0.24610417974E+02  0.10233159313E+03  0.11358501619E+03  0.51100000000E-03 0.  1.
<mgrwt>
<rscale>  0 0.12500335E+03</rscale>
<asrwt>0</asrwt>
<pdfrwt beam="2">  1        3 0.44947770E-02 0.12500335E+03</pdfrwt>
<pdfrwt beam="1">  1       -3 0.20570670E-01 0.12500335E+03</pdfrwt>
<totfact> 0.12784143E+04</totfact>
</mgrwt>
</event>
<event>
 5    1  0.1787806E-056  0.1249962E+03  0.7818608E-02  0.1235075E+00
         -3   -1    0    0    0  501 -0.00000000000E+00  0.00000000000E+00  0.10826816363E+02  0.10827215780E+02  0.93000000000E-01 0.  1.
          3   -1    0    0  501    0  0.00000000000E+00 -0.00000000000E+00 -0.36076525207E+03  0.36076526405E+03  0.93000000000E-01 0. -1.
         25    2    1    2    0    0  0.00000000000E+00  0.00000000000E+00 -0.34993843570E+03  0.37159247983E+03  0.12499624909E+03 0.  0.
        -11    1    3    3    0    0 -0.59131540431E+02 -0.15529369562E+02 -0.13640082195E+03  0.14947536460E+03  0.51100000000E-03 0. -1.
         11    1    3    3    0    0  0.59131540431E+02  0.15529369562E+02 -0.21353761375E+03  0.22211711523E+03  0.51100000000E-03 0.  1.
<mgrwt>
<rscale>  0 0.12499625E+03</rscale>
<asrwt>0</asrwt>
<pdfrwt beam="2">  1        3 0.55502369E-01 0.12499625E+03</pdfrwt>
<pdfrwt beam="1">  1       -3 0.16656960E-02 0.12499625E+03</pdfrwt>
<totfact> 0.90928739E+03</totfact>
</mgrwt>
</event>
<event>
 5    1  0.1787806E-056  0.1249975E+03  0.7818608E-02  0.1235073E+00
         -3   -1    0    0    0  501 -0.00000000000E+00  0.00000000000E+00  0.30922741406E+02  0.30922881254E+02  0.93000000000E-01 0.  1.
          3   -1    0    0  501    0  0.00000000000E+00 -0.00000000000E+00 -0.12631732287E+03  0.12631735710E+03  0.93000000000E-01 0. -1.
         25    2    1    2    0    0  0.00000000000E+00  0.00000000000E+00 -0.95394581462E+02  0.15724023836E+03  0.12499746552E+03 0.  0.
        -11    1    3    3    0    0 -0.91765447149E+01 -0.56631946566E+02 -0.16508685886E+02  0.59698601782E+02  0.51100000000E-03 0.  1.
         11    1    3    3    0    0  0.91765447149E+01  0.56631946566E+02 -0.78885895576E+02  0.97541636575E+02  0.51100000000E-03 0. -1.
<mgrwt>
<rscale>  0 0.12499747E+03</rscale>
<asrwt>0</asrwt>
<pdfrwt beam="2">  1        3 0.19433447E-01 0.12499747E+03</pdfrwt>
<pdfrwt beam="1">  1       -3 0.47573583E-02 0.12499747E+03</pdfrwt>
<totfact> 0.12920915E+04</totfact>
</mgrwt>
</event>
<event>
 5    1  0.1787806E-056  0.1249612E+03  0.7818608E-02  0.1235130E+00
          3   -1    0    0  501    0  0.00000000000E+00  0.00000000000E+00  0.59777098347E+03  0.59777099071E+03  0.93000000000E-01 0. -1.
         -3   -1    0    0    0  501 -0.00000000000E+00 -0.00000000000E+00 -0.65303030165E+01  0.65309652033E+01  0.93000000000E-01 0.  1.
         25    2    1    2    0    0  0.00000000000E+00  0.00000000000E+00  0.59124068046E+03  0.60430195591E+03  0.12496124075E+03 0.  0.
        -11    1    3    3    0    0 -0.27754558810E+02 -0.55690905693E+02  0.32299153910E+03  0.32893058058E+03  0.51100000000E-03 0.  1.
         11    1    3    3    0    0  0.27754558810E+02  0.55690905693E+02  0.26824914135E+03  0.27537137533E+03  0.51100000000E-03 0. -1.
<mgrwt>
<rscale>  0 0.12496124E+03</rscale>
<asrwt>0</asrwt>
<pdfrwt beam="1">  1        3 0.91964812E-01 0.12496124E+03</pdfrwt>
<pdfrwt beam="2">  1       -3 0.10047136E-02 0.12496124E+03</pdfrwt>
<totfact> 0.66534272E+03</totfact>
</mgrwt>
</event>
<event>
 5    1  0.1787806E-056  0.1250011E+03  0.7818608E-02  0.1235068E+00
         -3   -1    0    0    0  501 -0.00000000000E+00  0.00000000000E+00  0.74554877872E+02  0.74554935876E+02  0.93000000000E-01 0. -1.
          3   -1    0    0  501    0  0.00000000000E+00 -0.00000000000E+00 -0.52395062031E+02  0.52395144567E+02  0.93000000000E-01 0.  1.
         25    2    1    2    0    0  0.00000000000E+00  0.00000000000E+00  0.22159815841E+02  0.12695008044E+03  0.12500106194E+03 0.  0.
        -11    1    3    3    0    0 -0.59364355273E+02 -0.80001165870E+01 -0.70360398360E+01  0.60312804604E+02  0.51100000000E-03 0. -1.
         11    1    3    3    0    0  0.59364355273E+02  0.80001165870E+01  0.29195855677E+02  0.66637275839E+02  0.51100000000E-03 0.  1.
<mgrwt>
<rscale>  0 0.12500106E+03</rscale>
<asrwt>0</asrwt>
<pdfrwt beam="2">  1        3 0.80607896E-02 0.12500106E+03</pdfrwt>
<pdfrwt beam="1">  1       -3 0.11469992E-01 0.12500106E+03</pdfrwt>
<totfact> 0.13683983E+04</totfact>
</mgrwt>
</event>
<event>
 4    1  0.1787806E-056  0.1250456E+03  0.7818608E-02  0.1234998E+00
          3   -1    0    0  501    0  0.00000000000E+00  0.00000000000E+00  0.10051396139E+02  0.10051826369E+02  0.93000000000E-01 0. -1.
         -3   -1    0    0    0  501 -0.00000000000E+00 -0.00000000000E+00 -0.38890256748E+03  0.38890257860E+03  0.93000000000E-01 0.  1.
        -11    1    1    2    0    0 -0.13112823788E+01  0.54772013631E+02 -0.93318305365E+02  0.10821274904E+03  0.51100000000E-03 0.  1.
         11    1    1    2    0    0  0.13112823788E+01 -0.54772013631E+02 -0.28553286598E+03  0.29074165593E+03  0.51100000000E-03 0. -1.
<mgrwt>
<rscale>  0 0.12504562E+03</rscale>
<asrwt>0</asrwt>
<pdfrwt beam="1">  1        3 0.15464029E-02 0.12504562E+03</pdfrwt>
<pdfrwt beam="2">  1       -3 0.59831187E-01 0.12504562E+03</pdfrwt>
<totfact> 0.87224699E+03</totfact>
</mgrwt>
</event>
<event>
 5    1  0.1787806E-056  0.1250012E+03  0.7818608E-02  0.1235067E+00
          3   -1    0    0  501    0  0.00000000000E+00  0.00000000000E+00  0.42496853753E+02  0.42496955514E+02  0.93000000000E-01 0. -1.
         -3   -1    0    0    0  501 -0.00000000000E+00 -0.00000000000E+00 -0.91920097720E+02  0.91920144767E+02  0.93000000000E-01 0.  1.
         25    2    1    2    0    0  0.00000000000E+00  0.00000000000E+00 -0.49423243967E+02  0.13441710028E+03  0.12500119921E+03 0.  0.
        -11    1    3    3    0    0  0.46769392356E+01 -0.39222073099E+02  0.27373269945E+02  0.48057680828E+02  0.51100000000E-03 0. -1.
         11    1    3    3    0    0 -0.46769392356E+01  0.39222073099E+02 -0.76796513912E+02  0.86359419452E+02  0.51100000000E-03 0.  1.
<mgrwt>
<rscale>  0 0.12500120E+03</rscale>
<asrwt>0</asrwt>
<pdfrwt beam="1">  1        3 0.65379890E-02 0.12500120E+03</pdfrwt>
<pdfrwt beam="2">  1       -3 0.14141565E-01 0.12500120E+03</pdfrwt>
<totfact> 0.13488286E+04</totfact>
</mgrwt>
</event>
<event>
 5    1  0.1787806E-056  0.1250011E+03  0.7818608E-02  0.1235068E+00
          3   -1    0    0  501    0  0.00000000000E+00  0.00000000000E+00  0.16512082126E+02  0.16512344023E+02  0.93000000000E-01 0. -1.
         -3   -1    0    0    0  501 -0.00000000000E+00 -0.00000000000E+00 -0.23657127528E+03  0.23657129356E+03  0.93000000000E-01 0.  1.
         25    2    1    2    0    0  0.00000000000E+00  0.00000000000E+00 -0.22005919315E+03  0.25308363758E+03  0.12500111648E+03 0.  0.
        -11    1    3    3    0    0 -0.55693483881E+02  0.27870443662E+02 -0.99355632716E+02  0.11726068194E+03  0.51100000000E-03 0.  1.
         11    1    3    3    0    0  0.55693483881E+02 -0.27870443662E+02 -0.12070356043E+03  0.13582295564E+03  0.51100000000E-03 0. -1.
<mgrwt>
<rscale>  0 0.12500112E+03</rscale>
<asrwt>0</asrwt>
<pdfrwt beam="1">  1        3 0.25403420E-02 0.12500112E+03</pdfrwt>
<pdfrwt beam="2">  1       -3 0.36395600E-01 0.12500112E+03</pdfrwt>
<totfact> 0.10928496E+04</totfact>
</mgrwt>
</event>
<event>
 5    1  0.1787806E-056  0.1249987E+03  0.7818608E-02  0.1235071E+00
          3   -1    0    0  501    0  0.00000000000E+00  0.00000000000E+00  0.42397237985E+03  0.42397239005E+03  0.93000000000E-01 0. -1.
         -3   -1    0    0    0  501 -0.00000000000E+00 -0.00000000000E+00 -0.92130190663E+01  0.92134884445E+01  0.93000000000E-01 0.  1.
         25    2    1    2    0    0  0.00000000000E+00  0.00000000000E+00  0.41475936079E+03  0.43318587850E+03  0.12499871187E+03 0.  0.
        -11    1    3    3    0    0  0.53306346826E+02  0.19224452968E+02  0.11601708436E+03  0.12911665295E+03  0.51100000000E-03 0.  1.
         11    1    3    3    0    0 -0.53306346826E+02 -0.19224452968E+02  0.29874227642E+03  0.30406922555E+03  0.51100000000E-03 0. -1.
<mgrwt>
<rscale>  0 0.12499871E+03</rscale>
<asrwt>0</asrwt>
<pdfrwt beam="1">  1        3 0.65226554E-01 0.12499871E+03</pdfrwt>
<pdfrwt beam="2">  1       -3 0.14174245E-02 0.12499871E+03</pdfrwt>
<totfact> 0.83238318E+03</totfact>
</mgrwt>
</event>
<event>
 5    1  0.1787806E-056  0.1250054E+03  0.7818608E-02  0.1235061E+00
          3   -1    0    0  501    0  0.00000000000E+00  0.00000000000E+00  0.29166690373E+02  0.29166838641E+02  0.93000000000E-01 0. -1.
         -3   -1    0    0    0  501 -0.00000000000E+00 -0.00000000000E+00 -0.13393946329E+03  0.13393949557E+03  0.93000000000E-01 0.  1.
         25    2    1    2    0    0  0.00000000000E+00  0.00000000000E+00 -0.10477277291E+03  0.16310633421E+03  0.12500536915E+03 0.  0.
        -11    1    3    3    0    0  0.30384313452E+02 -0.35595560915E+02 -0.10644229916E+03  0.11627645295E+03  0.51100000000E-03 0.  1.
         11    1    3    3    0    0 -0.30384313452E+02  0.35595560915E+02  0.16695262451E+01  0.46829881261E+02  0.51100000000E-03 0. -1.
<mgrwt>
<rscale>  0 0.12500537E+03</rscale>
<asrwt>0</asrwt>
<pdfrwt beam="1">  1        3 0.44871971E-02 0.12500537E+03</pdfrwt>
<pdfrwt beam="2">  1       -3 0.20606085E-01 0.12500537E+03</pdfrwt>
<totfact> 0.12779303E+04</totfact>
</mgrwt>
</event>
<event>
 5    1  0.1787806E-056  0.1249945E+03  0.7818608E-02  0.1235078E+00
         -3   -1    0    0    0  501 -0.00000000000E+00  0.00000000000E+00  0.43701527707E+02  0.43701626662E+02  0.93000000000E-01 0. -1.
          3   -1    0    0  501    0  0.00000000000E+00 -0.00000000000E+00 -0.89376709665E+02  0.89376758050E+02  0.93000000000E-01 0.  1.
         25    2    1    2    0    0  0.00000000000E+00  0.00000000000E+00 -0.45675181958E+02  0.13307838471E+03  0.12499453680E+03 0.  0.
        -11    1    3    3    0    0  0.30749510366E+02  0.32398190654E+02  0.23701354484E+02  0.50566088934E+02  0.51100000000E-03 0. -1.
         11    1    3    3    0    0 -0.30749510366E+02 -0.32398190654E+02 -0.69376536442E+02  0.82512295777E+02  0.51100000000E-03 0.  1.
<mgrwt>
<rscale>  0 0.12499454E+03</rscale>
<asrwt>0</asrwt>
<pdfrwt beam="2">  1        3 0.13750274E-01 0.12499454E+03</pdfrwt>
<pdfrwt beam="1">  1       -3 0.67233233E-02 0.12499454E+03</pdfrwt>
<totfact> 0.13524876E+04</totfact>
</mgrwt>
</event>
<event>
 5    1  0.1787806E-056  0.1250003E+03  0.7818608E-02  0.1235069E+00
          3   -1    0    0  501    0  0.00000000000E+00  0.00000000000E+00  0.26961961736E+02  0.26962122128E+02  0.93000000000E-01 0. -1.
         -3   -1    0    0    0  501 -0.00000000000E+00 -0.00000000000E+00 -0.14488023537E+03  0.14488026522E+03  0.93000000000E-01 0.  1.
         25    2    1    2    0    0  0.00000000000E+00  0.00000000000E+00 -0.11791827364E+03  0.17184238735E+03  0.12500034733E+03 0.  0.
        -11    1    3    3    0    0 -0.20474553051E+02  0.57214595627E+02 -0.79048833183E+02  0.99706746528E+02  0.51100000000E-03 0.  1.
         11    1    3    3    0    0  0.20474553051E+02 -0.57214595627E+02 -0.38869440453E+02  0.72135640821E+02  0.51100000000E-03 0. -1.
<mgrwt>
<rscale>  0 0.12500035E+03</rscale>
<asrwt>0</asrwt>
<pdfrwt beam="1">  1        3 0.41480088E-02 0.12500035E+03</pdfrwt>
<pdfrwt beam="2">  1       -3 0.22289281E-01 0.12500035E+03</pdfrwt>
<totfact> 0.12578062E+04</totfact>
</mgrwt>
</event>
<event>
 5    1  0.1787806E-056  0.1250015E+03  0.7818608E-02  0.1235067E+00
         -3   -1    0    0    0  501 -0.00000000000E+00  0.00000000000E+00  0.29389217080E+02  0.29389364225E+02  0.93000000000E-01 0.  1.
          3   -1    0    0  501    0  0.00000000000E+00 -0.00000000000E+00 -0.13291713155E+03  0.13291716409E+03  0.93000000000E-01 0. -1.
         25    2    1    2    0    0  0.00000000000E+00  0.00000000000E+00 -0.10352791447E+03  0.16230652831E+03  0.12500152022E+03 0.  0.
        -11    1    3    3    0    0  0.54900175122E+02  0.29509443553E+02 -0.45742161392E+02  0.77312235878E+02  0.51100000000E-03 0.  1.
         11    1    3    3    0    0 -0.54900175122E+02 -0.29509443553E+02 -0.57785753078E+02  0.84994292434E+02  0.51100000000E-03 0. -1.
<mgrwt>
<rscale>  0 0.12500152E+03</rscale>
<asrwt>0</asrwt>
<pdfrwt beam="2">  1        3 0.20448803E-01 0.12500152E+03</pdfrwt>
<pdfrwt beam="1">  1       -3 0.45214319E-02 0.12500152E+03</pdfrwt>
<totfact> 0.12799271E+04</totfact>
</mgrwt>
</event>
<event>
 5    1  0.1787806E-056  0.1249986E+03  0.7818608E-02  0.1235071E+00
         -3   -1    0    0    0  501 -0.00000000000E+00  0.00000000000E+00  0.13916419011E+03  0.13916422119E+03  0.93000000000E-01 0.  1.
          3   -1    0    0  501    0  0.00000000000E+00 -0.00000000000E+00 -0.28068643731E+02  0.28068797800E+02  0.93000000000E-01 0. -1.
         25    2    1    2    0    0  0.00000000000E+00  0.00000000000E+00  0.11109554638E+03  0.16723301899E+03  0.12499864885E+03 0.  0.
        -11    1    3    3    0    0  0.46338837384E+02  0.15400157093E+02  0.10773726494E+03  0.11828681645E+03  0.51100000000E-03 0.  1.
         11    1    3    3    0    0 -0.46338837384E+02 -0.15400157093E+02  0.33582814434E+01  0.48946202540E+02  0.51100000000E-03 0. -1.
<mgrwt>
<rscale>  0 0.12499865E+03</rscale>
<asrwt>0</asrwt>
<pdfrwt beam="2">  1        3 0.43182670E-02 0.12499865E+03</pdfrwt>
<pdfrwt beam="1">  1       -3 0.21409890E-01 0.12499865E+03</pdfrwt>
<totfact> 0.12684803E+04</totfact>
</mgrwt>
</event>
<event>
 5    1  0.1787806E-056  0.1250012E+03  0.7818608E-02  0.1235067E+00
          3   -1    0    0  501    0  0.00000000000E+00  0.00000000000E+00  0.51608016835E+03  0.51608017672E+03  0.93000000000E-01 0. -1.
         -3   -1    0    0    0  501 -0.00000000000E+00 -0.00000000000E+00 -0.75689262009E+01  0.75694975286E+01  0.93000000000E-01 0.  1.
         25    2    1    2    0    0  0.00000000000E+00  0.00000000000E+00  0.50851124214E+03  0.52364967425E+03  0.12500119183E+03 0.  0.
        -11    1    3    3    0    0  0.23767501595E+02  0.56638691668E+02  0.30265606715E+03  0.30882605219E+03  0.51100000000E-03 0.  1.
         11    1    3    3    0    0 -0.23767501595E+02 -0.56638691668E+02  0.20585517499E+03  0.21482362207E+03  0.51100000000E-03 0. -1.
<mgrwt>
<rscale>  0 0.12500119E+03</rscale>
<asrwt>0</asrwt>
<pdfrwt beam="1">  1        3 0.79397017E-01 0.12500119E+03</pdfrwt>
<pdfrwt beam="2">  1       -3 0.11644944E-02 0.12500119E+03</pdfrwt>
<totfact> 0.73650099E+03</totfact>
</mgrwt>
</event>
<event>
 5    1  0.1787806E-056  0.1250033E+03  0.7818608E-02  0.1235064E+00
         -3   -1    0    0    0  501 -0.00000000000E+00  0.00000000000E+00  0.92935589550E+01  0.92940242657E+01  0.93000000000E-01 0. -1.
          3   -1    0    0  501    0  0.00000000000E+00 -0.00000000000E+00 -0.42032941540E+03  0.42032942568E+03  0.93000000000E-01 0.  1.
         25    2    1    2    0    0  0.00000000000E+00  0.00000000000E+00 -0.41103585644E+03  0.42962344995E+03  0.12500333382E+03 0.  0.
        -11    1    3    3    0    0  0.51804346149E+02 -0.16576036341E+02 -0.99697074102E+02  0.11356919409E+03  0.51100000000E-03 0. -1.
         11    1    3    3    0    0 -0.51804346149E+02  0.16576036341E+02 -0.31133878234E+03  0.31605425586E+03  0.51100000000E-03 0.  1.
<mgrwt>
<rscale>  0 0.12500333E+03</rscale>
<asrwt>0</asrwt>
<pdfrwt beam="2">  1        3 0.64666086E-01 0.12500333E+03</pdfrwt>
<pdfrwt beam="1">  1       -3 0.14298152E-02 0.12500333E+03</pdfrwt>
<totfact> 0.83646077E+03</totfact>
</mgrwt>
</event>
<event>
 5    1  0.1787806E-056  0.1250006E+03  0.7818608E-02  0.1235068E+00
         -3   -1    0    0    0  501 -0.00000000000E+00  0.00000000000E+00  0.84860301880E+01  0.84865397749E+01  0.93000000000E-01 0.  1.
          3   -1    0    0  501    0  0.00000000000E+00 -0.00000000000E+00 -0.46030542130E+03  0.46030543069E+03  0.93000000000E-01 0. -1.
         25    2    1    2    0    0  0.00000000000E+00  0.00000000000E+00 -0.45181939111E+03  0.46879197047E+03  0.12500059757E+03 0.  0.
        -11    1    3    3    0    0 -0.36181383002E+02 -0.48280600116E+02 -0.16472334062E+03  0.17542487785E+03  0.51100000000E-03 0.  1.
         11    1    3    3    0    0  0.36181383002E+02  0.48280600116E+02 -0.28709605049E+03  0.29336709261E+03  0.51100000000E-03 0. -1.
<mgrwt>
<rscale>  0 0.12500060E+03</rscale>
<asrwt>0</asrwt>
<pdfrwt beam="2">  1        3 0.70816239E-01 0.12500060E+03</pdfrwt>
<pdfrwt beam="1">  1       -3 0.13055834E-02 0.12500060E+03</pdfrwt>
<totfact> 0.79244164E+03</totfact>
</mgrwt>
</event>
<event>
 5    1  0.1787806E-056  0.1250029E+03  0.7818608E-02  0.1235065E+00
          3   -1    0    0  501    0  0.00000000000E+00  0.00000000000E+00  0.10691063348E+03  0.10691067393E+03  0.93000000000E-01 0. -1.
         -3   -1    0    0    0  501 -0.00000000000E+00 -0.00000000000E+00 -0.36539110891E+02  0.36539229243E+02  0.93000000000E-01 0.  1.
         25    2    1    2    0    0  0.00000000000E+00  0.00000000000E+00  0.70371522592E+02  0.14344990318E+03  0.12500289408E+03 0.  0.
        -11    1    3    3    0    0  0.42914755621E+02 -0.45328662109E+02  0.38826845568E+02  0.73511140622E+02  0.51100000000E-03 0.  1.
         11    1    3    3    0    0 -0.42914755621E+02  0.45328662109E+02  0.31544677024E+02  0.69938762553E+02  0.51100000000E-03 0. -1.
<mgrwt>
<rscale>  0 0.12500289E+03</rscale>
<asrwt>0</asrwt>
<pdfrwt beam="1">  1        3 0.16447802E-01 0.12500289E+03</pdfrwt>
<pdfrwt beam="2">  1       -3 0.56214140E-02 0.12500289E+03</pdfrwt>
<totfact> 0.13257241E+04</totfact>
</mgrwt>
</event>
<event>
 5    1  0.1787806E-056  0.1249982E+03  0.7818608E-02  0.1235072E+00
          3   -1    0    0  501    0  0.00000000000E+00  0.00000000000E+00  0.18468419105E+02  0.18468653260E+02  0.93000000000E-01 0. -1.
         -3   -1    0    0    0  501 -0.00000000000E+00 -0.00000000000E+00 -0.21150193963E+03  0.21150196007E+03  0.93000000000E-01 0.  1.
         25    2    1    2    0    0  0.00000000000E+00  0.00000000000E+00 -0.19303352052E+03  0.22997061334E+03  0.12499817180E+03 0.  0.
        -11    1    3    3    0    0 -0.23098101270E+02  0.41120922099E+02 -0.17196355220E+03  0.17831409311E+03  0.51100000000E-03 0.  1.
         11    1    3    3    0    0  0.23098101270E+02 -0.41120922099E+02 -0.21069968327E+02  0.51656520228E+02  0.51100000000E-03 0. -1.
<mgrwt>
<rscale>  0 0.12499817E+03</rscale>
<asrwt>0</asrwt>
<pdfrwt beam="1">  1        3 0.28413150E-02 0.12499817E+03</pdfrwt>
<pdfrwt beam="2">  1       -3 0.32538778E-01 0.12499817E+03</pdfrwt>
<totfact> 0.11359779E+04</totfact>
</mgrwt>
</event>
<event>
 5    1  0.1787806E-056  0.1249977E+03  0.7818608E-02  0.1235073E+00
          3   -1    0    0  501    0  0.00000000000E+00  0.00000000000E+00  0.22481239097E+02  0.22481431457E+02  0.93000000000E-01 0. -1.
         -3   -1    0    0    0  501 -0.00000000000E+00 -0.00000000000E+00 -0.17374859187E+03  0.17374861676E+03  0.93000000000E-01 0.  1.
         25    2    1    2    0    0  0.00000000000E+00  0.00000000000E+00 -0.15126735277E+03  0.19623004821E+03  0.12499767921E+03 0.  0.
        -11    1    3    3    0    0  0.59530275089E+02 -0.43710439525E+01 -0.10471422343E+03  0.12053227064E+03  0.51100000000E-03 0.  1.
         11    1    3    3    0    0 -0.59530275089E+02  0.43710439525E+01 -0.46553129337E+02  0.75697777568E+02  0.51100000000E-03 0. -1.
<mgrwt>
<rscale>  0 0.12499768E+03</rscale>
<asrwt>0</asrwt>
<pdfrwt beam="1">  1        3 0.34586690E-02 0.12499768E+03</pdfrwt>
<pdfrwt beam="2">  1       -3 0.26730568E-01 0.12499768E+03</pdfrwt>
<totfact> 0.12041656E+04</totfact>
</mgrwt>
</event>
<event>
 5    1  0.1787806E-056  0.1249998E+03  0.7818608E-02  0.1235070E+00
          3   -1    0    0  501    0  0.00000000000E+00  0.00000000000E+00  0.14764528518E+02  0.14764821413E+02  0.93000000000E-01 0. -1.
         -3   -1    0    0    0  501 -0.00000000000E+00 -0.00000000000E+00 -0.26456617630E+03  0.26456619265E+03  0.93000000000E-01 0.  1.
         25    2    1    2    0    0  0.00000000000E+00  0.00000000000E+00 -0.24980164778E+03  0.27933101406E+03  0.12499980872E+03 0.  0.
        -11    1    3    3    0    0 -0.94066393989E+01  0.61725977778E+02 -0.13108433023E+03  0.14519532648E+03  0.51100000000E-03 0.  1.
         11    1    3    3    0    0  0.94066393989E+01 -0.61725977778E+02 -0.11871731755E+03  0.13413568759E+03  0.51100000000E-03 0. -1.
<mgrwt>
<rscale>  0 0.12499981E+03</rscale>
<asrwt>0</asrwt>
<pdfrwt beam="1">  1        3 0.22714899E-02 0.12499981E+03</pdfrwt>
<pdfrwt beam="2">  1       -3 0.40702509E-01 0.12499981E+03</pdfrwt>
<totfact> 0.10471806E+04</totfact>
</mgrwt>
</event>
<event>
 5    1  0.1787806E-056  0.1250051E+03  0.7818608E-02  0.1235061E+00
          3   -1    0    0  501    0  0.00000000000E+00  0.00000000000E+00  0.12371782687E+02  0.12372132228E+02  0.93000000000E-01 0. -1.
         -3   -1    0    0    0  501 -0.00000000000E+00 -0.00000000000E+00 -0.31575961944E+03  0.31575963313E+03  0.93000000000E-01 0.  1.
         25    2    1    2    0    0  0.00000000000E+00  0.00000000000E+00 -0.30338783675E+03  0.32813176536E+03  0.12500510370E+03 0.  0.
        -11    1    3    3    0    0 -0.52884226555E+02 -0.11829491529E+01 -0.23908644864E+03  0.24486827216E+03  0.51100000000E-03 0. -1.
         11    1    3    3    0    0  0.52884226555E+02  0.11829491529E+01 -0.64301388115E+02  0.83263493206E+02  0.51100000000E-03 0.  1.
<mgrwt>
<rscale>  0 0.12500510E+03</rscale>
<asrwt>0</asrwt>
<pdfrwt beam="1">  1        3 0.19033794E-02 0.12500510E+03</pdfrwt>
<pdfrwt beam="2">  1       -3 0.48578425E-01 0.12500510E+03</pdfrwt>
<totfact> 0.96990154E+03</totfact>
</mgrwt>
</event>
<event>
 5    1  0.1787806E-056  0.1249982E+03  0.7818608E-02  0.1235072E+00
          3   -1    0    0  501    0  0.00000000000E+00  0.00000000000E+00  0.28777547147E+02  0.28777697420E+02  0.93000000000E-01 0. -1.
         -3   -1    0    0    0  501 -0.00000000000E+00 -0.00000000000E+00 -0.13573506669E+03  0.13573509855E+03  0.93000000000E-01 0.  1.
         25    2    1    2    0    0  0.00000000000E+00  0.00000000000E+00 -0.10695751954E+03  0.16451279597E+03  0.12499819619E+03 0.  0.
        -11    1    3    3    0    0 -0.23913979519E+02  0.50932606041E+02 -0.89284239591E+02  0.10553522736E+03  0.51100000000E-03 0.  1.
         11    1    3    3    0    0  0.23913979519E+02 -0.50932606041E+02 -0.17673279952E+02  0.58977568609E+02  0.51100000000E-03 0. -1.
<mgrwt>
<rscale>  0 0.12499820E+03</rscale>
<asrwt>0</asrwt>
<pdfrwt beam="1">  1        3 0.44273290E-02 0.12499820E+03</pdfrwt>
<pdfrwt beam="2">  1       -3 0.20882332E-01 0.12499820E+03</pdfrwt>
<totfact> 0.12748351E+04</totfact>
</mgrwt>
</event>
<event>
 5    1  0.1787806E-056  0.1249991E+03  0.7818608E-02  0.1235071E+00
          3   -1    0    0  501    0  0.00000000000E+00  0.00000000000E+00  0.15550182483E+03  0.15550185264E+03  0.93000000000E-01 0. -1.
         -3   -1    0    0    0  501 -0.00000000000E+00 -0.00000000000E+00 -0.25119812576E+02  0.25119984731E+02  0.93000000000E-01 0.  1.
         25    2    1    2    0    0  0.00000000000E+00  0.00000000000E+00  0.13038201225E+03  0.18062183737E+03  0.12499911606E+03 0.  0.
        -11    1    3    3    0    0  0.54674439835E+02  0.30084270425E+02  0.60219532335E+02  0.86722256504E+02  0.51100000000E-03 0.  1.
         11    1    3    3    0    0 -0.54674439835E+02 -0.30084270425E+02  0.70162479919E+02  0.93899580866E+02  0.51100000000E-03 0. -1.
<mgrwt>
<rscale>  0 0.12499912E+03</rscale>
<asrwt>0</asrwt>
<pdfrwt beam="1">  1        3 0.23923373E-01 0.12499912E+03</pdfrwt>
<pdfrwt beam="2">  1       -3 0.38646019E-02 0.12499912E+03</pdfrwt>
<totfact> 0.12380543E+04</totfact>
</mgrwt>
</event>
<event>
 5    1  0.1787806E-056  0.1249998E+03  0.7818608E-02  0.1235070E+00
         -3   -1    0    0    0  501 -0.00000000000E+00  0.00000000000E+00  0.42952165097E+02  0.42952265778E+02  0.93000000000E-01 0.  1.
          3   -1    0    0  501    0  0.00000000000E+00 -0.00000000000E+00 -0.90943616445E+02  0.90943663996E+02  0.93000000000E-01 0. -1.
         25    2    1    2    0    0  0.00000000000E+00  0.00000000000E+00 -0.47991451348E+02  0.13389592977E+03  0.12499976243E+03 0.  0.
        -11    1    3    3    0    0 -0.25930463765E+02 -0.55848142079E+02 -0.12517145016E+02  0.62833771527E+02  0.51100000000E-03 0.  1.
         11    1    3    3    0    0  0.25930463765E+02  0.55848142079E+02 -0.35474306332E+02  0.71062158247E+02  0.51100000000E-03 0. -1.
<mgrwt>
<rscale>  0 0.12499976E+03</rscale>
<asrwt>0</asrwt>
<pdfrwt beam="2">  1        3 0.13991337E-01 0.12499976E+03</pdfrwt>
<pdfrwt beam="1">  1       -3 0.66080368E-02 0.12499976E+03</pdfrwt>
<totfact> 0.13502037E+04</totfact>
</mgrwt>
</event>
<event>
 5    1  0.1787806E-056  0.1249979E+03  0.7818608E-02  0.1235073E+00
          3   -1    0    0  501    0  0.00000000000E+00  0.00000000000E+00  0.28166156870E+02  0.28166310405E+02  0.93000000000E-01 0. -1.
         -3   -1    0    0    0  501 -0.00000000000E+00 -0.00000000000E+00 -0.13868077456E+03  0.13868080574E+03  0.93000000000E-01 0.  1.
         25    2    1    2    0    0  0.00000000000E+00  0.00000000000E+00 -0.11051461769E+03  0.16684711615E+03  0.12499791776E+03 0.  0.
        -11    1    3    3    0    0 -0.51221471111E+02  0.34663769811E+02 -0.43251250743E+02  0.75471098650E+02  0.51100000000E-03 0. -1.
         11    1    3    3    0    0  0.51221471111E+02 -0.34663769811E+02 -0.67263366945E+02  0.91376017496E+02  0.51100000000E-03 0.  1.
<mgrwt>
<rscale>  0 0.12499792E+03</rscale>
<asrwt>0</asrwt>
<pdfrwt beam="1">  1        3 0.43332692E-02 0.12499792E+03</pdfrwt>
<pdfrwt beam="2">  1       -3 0.21335518E-01 0.12499792E+03</pdfrwt>
<totfact> 0.12693974E+04</totfact>
</mgrwt>
</event>
<event>
 5    1  0.1787806E-056  0.1250102E+03  0.7818608E-02  0.1235053E+00
          3   -1    0    0  501    0  0.00000000000E+00  0.00000000000E+00  0.64391060524E+02  0.64391127684E+02  0.93000000000E-01 0. -1.
         -3   -1    0    0    0  501 -0.00000000000E+00 -0.00000000000E+00 -0.60674266701E+02  0.60674337975E+02  0.93000000000E-01 0.  1.
         25    2    1    2    0    0  0.00000000000E+00  0.00000000000E+00  0.37167938232E+01  0.12506546566E+03  0.12501022416E+03 0.  0.
        -11    1    3    3    0    0  0.45972531352E+02 -0.21065317344E+02  0.38612456427E+02  0.63625018863E+02  0.51100000000E-03 0.  1.
         11    1    3    3    0    0 -0.45972531352E+02  0.21065317344E+02 -0.34895662604E+02  0.61440446796E+02  0.51100000000E-03 0. -1.
<mgrwt>
<rscale>  0 0.12501022E+03</rscale>
<asrwt>0</asrwt>
<pdfrwt beam="1">  1        3 0.99063277E-02 0.12501022E+03</pdfrwt>
<pdfrwt beam="2">  1       -3 0.93345132E-02 0.12501022E+03</pdfrwt>
<totfact> 0.13731503E+04</totfact>
</mgrwt>
</event>
<event>
 5    1  0.1787806E-056  0.1250059E+03  0.7818608E-02  0.1235060E+00
          3   -1    0    0  501    0  0.00000000000E+00  0.00000000000E+00  0.12813736286E+02  0.12814073771E+02  0.93000000000E-01 0. -1.
         -3   -1    0    0    0  501 -0.00000000000E+00 -0.00000000000E+00 -0.30487281100E+03  0.30487282518E+03  0.93000000000E-01 0.  1.
         25    2    1    2    0    0  0.00000000000E+00  0.00000000000E+00 -0.29205907471E+03  0.31768689895E+03  0.12500585044E+03 0.  0.
        -11    1    3    3    0    0 -0.39007618484E+02 -0.35786029565E+02 -0.61573924488E+02  0.81200876774E+02  0.51100000000E-03 0.  1.
         11    1    3    3    0    0  0.39007618484E+02  0.35786029565E+02 -0.23048515023E+03  0.23648602218E+03  0.51100000000E-03 0. -1.
<mgrwt>
<rscale>  0 0.12500585E+03</rscale>
<asrwt>0</asrwt>
<pdfrwt beam="1">  1        3 0.19713713E-02 0.12500585E+03</pdfrwt>
<pdfrwt beam="2">  1       -3 0.46903531E-01 0.12500585E+03</pdfrwt>
<totfact> 0.98561558E+03</totfact>
</mgrwt>
</event>
<event>
 5    1  0.1787806E-056  0.1249961E+03  0.7818608E-02  0.1235075E+00
         -3   -1    0    0    0  501 -0.00000000000E+00  0.00000000000E+00  0.32830178142E+02  0.32830309865E+02  0.93000000000E-01 0.  1.
          3   -1    0    0  501    0  0.00000000000E+00 -0.00000000000E+00 -0.11897570346E+03  0.11897573981E+03  0.93000000000E-01 0. -1.
         25    2    1    2    0    0  0.00000000000E+00  0.00000000000E+00 -0.86145525316E+02  0.15180604967E+03  0.12499610068E+03 0.  0.
        -11    1    3    3    0    0 -0.14793660664E+02  0.59341508158E+02 -0.58708032350E+02  0.84775586397E+02  0.51100000000E-03 0.  1.
         11    1    3    3    0    0  0.14793660664E+02 -0.59341508158E+02 -0.27437492965E+02  0.67030463274E+02  0.51100000000E-03 0. -1.
<mgrwt>
<rscale>  0 0.12499610E+03</rscale>
<asrwt>0</asrwt>
<pdfrwt beam="2">  1        3 0.18303967E-01 0.12499610E+03</pdfrwt>
<pdfrwt beam="1">  1       -3 0.50508096E-02 0.12499610E+03</pdfrwt>
<totfact> 0.13052702E+04</totfact>
</mgrwt>
</event>
<event>
 5    1  0.1869870E-056  0.1250344E+03  0.7818608E-02  0.1235015E+00
         -3   -1    0    0    0  501 -0.00000000000E+00  0.00000000000E+00  0.98381398794E+02  0.98381442751E+02  0.93000000000E-01 0. -1.
          3   -1    0    0  501    0  0.00000000000E+00 -0.00000000000E+00 -0.39726933717E+02  0.39727042572E+02  0.93000000000E-01 0.  1.
         25    2    1    2    0    0  0.00000000000E+00  0.00000000000E+00  0.58654465077E+02  0.13810848532E+03  0.12503442504E+03 0.  0.
        -11    1    3    3    0    0 -0.38392788190E+02 -0.47114861529E+02  0.45507695591E+02  0.75926060876E+02  0.51100000000E-03 0. -1.
         11    1    3    3    0    0  0.38392788190E+02  0.47114861529E+02  0.13146769486E+02  0.62182424447E+02  0.51100000000E-03 0.  1.
<mgrwt>
<rscale>  0 0.12503443E+03</rscale>
<asrwt>0</asrwt>
<pdfrwt beam="2">  1        3 0.61118477E-02 0.12503443E+03</pdfrwt>
<pdfrwt beam="1">  1       -3 0.15135611E-01 0.12503443E+03</pdfrwt>
<totfact> 0.13383354E+04</totfact>
</mgrwt>
</event>
<event>
 5    1  0.1787806E-056  0.1249950E+03  0.7818608E-02  0.1235077E+00
         -3   -1    0    0    0  501 -0.00000000000E+00  0.00000000000E+00  0.18075812757E+02  0.18076051998E+02  0.93000000000E-01 0. -1.
          3   -1    0    0  501    0  0.00000000000E+00 -0.00000000000E+00 -0.21608460640E+03  0.21608462641E+03  0.93000000000E-01 0.  1.
         25    2    1    2    0    0  0.00000000000E+00  0.00000000000E+00 -0.19800879364E+03  0.23416067841E+03  0.12499496372E+03 0.  0.
        -11    1    3    3    0    0  0.54671587501E+02 -0.27825860106E+02 -0.76627787523E+02  0.98158437189E+02  0.51100000000E-03 0. -1.
         11    1    3    3    0    0 -0.54671587501E+02  0.27825860106E+02 -0.12138100612E+03  0.13600224122E+03  0.51100000000E-03 0.  1.
<mgrwt>
<rscale>  0 0.12499496E+03</rscale>
<asrwt>0</asrwt>
<pdfrwt beam="2">  1        3 0.33243804E-01 0.12499496E+03</pdfrwt>
<pdfrwt beam="1">  1       -3 0.27809144E-02 0.12499496E+03</pdfrwt>
<totfact> 0.11281986E+04</totfact>
</mgrwt>
</event>
<event>
 5    1  0.1787806E-056  0.1250010E+03  0.7818608E-02  0.1235068E+00
          3   -1    0    0  501    0  0.00000000000E+00  0.00000000000E+00  0.11601184365E+03  0.11601188093E+03  0.93000000000E-01 0. -1.
         -3   -1    0    0    0  501 -0.00000000000E+00 -0.00000000000E+00 -0.33671555653E+02  0.33671684085E+02  0.93000000000E-01 0.  1.
         25    2    1    2    0    0  0.00000000000E+00  0.00000000000E+00  0.82340287996E+02  0.14968356501E+03  0.12500098642E+03 0.  0.
        -11    1    3    3    0    0 -0.23420897401E+02  0.35692009858E+02  0.95833247528E+02  0.10491172163E+03  0.51100000000E-03 0. -1.
         11    1    3    3    0    0  0.23420897401E+02 -0.35692009858E+02 -0.13492959531E+02  0.44771843383E+02  0.51100000000E-03 0.  1.
<mgrwt>
<rscale>  0 0.12500099E+03</rscale>
<asrwt>0</asrwt>
<pdfrwt beam="1">  1        3 0.17847988E-01 0.12500099E+03</pdfrwt>
<pdfrwt beam="2">  1       -3 0.51802521E-02 0.12500099E+03</pdfrwt>
<totfact> 0.13103143E+04</totfact>
</mgrwt>
</event>
<event>
 5    1  0.1787806E-056  0.1249993E+03  0.7818608E-02  0.1235070E+00
          3   -1    0    0  501    0  0.00000000000E+00  0.00000000000E+00  0.24843860655E+03  0.24843862396E+03  0.93000000000E-01 0. -1.
         -3   -1    0    0    0  501 -0.00000000000E+00 -0.00000000000E+00 -0.15722857061E+02  0.15723132104E+02  0.93000000000E-01 0.  1.
         25    2    1    2    0    0  0.00000000000E+00  0.00000000000E+00  0.23271574949E+03  0.26416175606E+03  0.12499925322E+03 0.  0.
        -11    1    3    3    0    0  0.35458547298E+02  0.51126029817E+02  0.10385112933E+03  0.12106294464E+03  0.51100000000E-03 0.  1.
         11    1    3    3    0    0 -0.35458547298E+02 -0.51126029817E+02  0.12886462016E+03  0.14309881142E+03  0.51100000000E-03 0. -1.
<mgrwt>
<rscale>  0 0.12499925E+03</rscale>
<asrwt>0</asrwt>
<pdfrwt beam="1">  1        3 0.38221342E-01 0.12499925E+03</pdfrwt>
<pdfrwt beam="2">  1       -3 0.24189239E-02 0.12499925E+03</pdfrwt>
<totfact> 0.10734526E+04</totfact>
</mgrwt>
</event>
<event>
 5    1  0.1787806E-056  0.1250006E+03  0.7818608E-02  0.1235068E+00
          3   -1    0    0  501    0  0.00000000000E+00  0.00000000000E+00  0.37393596326E+02  0.37393711974E+02  0.93000000000E-01 0. -1.
         -3   -1    0    0    0  501 -0.00000000000E+00 -0.00000000000E+00 -0.10446373915E+03  0.10446378055E+03  0.93000000000E-01 0.  1.
         25    2    1    2    0    0  0.00000000000E+00  0.00000000000E+00 -0.67070142827E+02  0.14185749252E+03  0.12500057650E+03 0.  0.
        -11    1    3    3    0    0 -0.45399654370E+02 -0.50551255394E+01 -0.81944348748E+02  0.93816625409E+02  0.51100000000E-03 0.  1.
         11    1    3    3    0    0  0.45399654370E+02  0.50551255394E+01  0.14874205921E+02  0.48040867115E+02  0.51100000000E-03 0. -1.
<mgrwt>
<rscale>  0 0.12500058E+03</rscale>
<asrwt>0</asrwt>
<pdfrwt beam="1">  1        3 0.57528731E-02 0.12500058E+03</pdfrwt>
<pdfrwt beam="2">  1       -3 0.16071356E-01 0.12500058E+03</pdfrwt>
<totfact> 0.13298203E+04</totfact>
</mgrwt>
</event>
<event>
 5    1  0.1787806E-056  0.1249992E+03  0.7818608E-02  0.1235071E+00
          3   -1    0    0  501    0  0.00000000000E+00  0.00000000000E+00  0.17460372984E+03  0.17460375460E+03  0.93000000000E-01 0. -1.
         -3   -1    0    0    0  501 -0.00000000000E+00 -0.00000000000E+00 -0.22371675990E+02  0.22371869292E+02  0.93000000000E-01 0.  1.
         25    2    1    2    0    0  0.00000000000E+00  0.00000000000E+00  0.15223205385E+03  0.19697562390E+03  0.12499919276E+03 0.  0.
        -11    1    3    3    0    0  0.61754633675E+02 -0.44065548460E+01  0.62638703235E+02  0.88071900452E+02  0.51100000000E-03 0.  1.
         11    1    3    3    0    0 -0.61754633675E+02  0.44065548460E+01  0.89593350611E+02  0.10890372344E+03  0.51100000000E-03 0. -1.
<mgrwt>
<rscale>  0 0.12499919E+03</rscale>
<asrwt>0</asrwt>
<pdfrwt beam="1">  1        3 0.26862128E-01 0.12499919E+03</pdfrwt>
<pdfrwt beam="2">  1       -3 0.34418132E-02 0.12499919E+03</pdfrwt>
<totfact> 0.12026119E+04</totfact>
</mgrwt>
</event>
<event>
 5    1  0.1787806E-056  0.1249725E+03  0.7818608E-02  0.1235112E+00
         -3   -1    0    0    0  501 -0.00000000000E+00  0.00000000000E+00  0.47860309139E+03  0.47860310043E+03  0.93000000000E-01 0.  1.
          3   -1    0    0  501    0  0.00000000000E+00 -0.00000000000E+00 -0.81579124658E+01  0.81584425474E+01  0.93000000000E-01 0. -1.
         25    2    1    2    0    0  0.00000000000E+00  0.00000000000E+00  0.47044517893E+03  0.48676154298E+03  0.12497253036E+03 0.  0.
        -11    1    3    3    0    0 -0.10290211130E+02 -0.61512037350E+02  0.22018074905E+03  0.22884313719E+03  0.51100000000E-03 0.  1.
         11    1    3    3    0    0  0.10290211130E+02  0.61512037350E+02  0.25026442988E+03  0.25791840579E+03  0.51100000000E-03 0. -1.
<mgrwt>
<rscale>  0 0.12497253E+03</rscale>
<asrwt>0</asrwt>
<pdfrwt beam="2">  1        3 0.12551048E-02 0.12497253E+03</pdfrwt>
<pdfrwt beam="1">  1       -3 0.73631294E-01 0.12497253E+03</pdfrwt>
<totfact> 0.77303809E+03</totfact>
</mgrwt>
</event>
<event>
 5    1  0.1787806E-056  0.1249998E+03  0.7818608E-02  0.1235070E+00
         -3   -1    0    0    0  501 -0.00000000000E+00  0.00000000000E+00  0.38006149026E+03  0.38006150164E+03  0.93000000000E-01 0.  1.
          3   -1    0    0  501    0  0.00000000000E+00 -0.00000000000E+00 -0.10277690662E+02  0.10278111419E+02  0.93000000000E-01 0. -1.
         25    2    1    2    0    0  0.00000000000E+00  0.00000000000E+00  0.36978379960E+03  0.39033961306E+03  0.12499982031E+03 0.  0.
        -11    1    3    3    0    0 -0.53766825986E+02 -0.15465137684E+02  0.27189187666E+03  0.27758824660E+03  0.51100000000E-03 0.  1.
         11    1    3    3    0    0  0.53766825986E+02  0.15465137684E+02  0.97891922947E+02  0.11275136646E+03  0.51100000000E-03 0. -1.
<mgrwt>
<rscale>  0 0.12499982E+03</rscale>
<asrwt>0</asrwt>
<pdfrwt beam="2">  1        3 0.15812162E-02 0.12499982E+03</pdfrwt>
<pdfrwt beam="1">  1       -3 0.58471040E-01 0.12499982E+03</pdfrwt>
<totfact> 0.88408499E+03</totfact>
</mgrwt>
</event>
<event>
 5    1  0.1787806E-056  0.1249996E+03  0.7818608E-02  0.1235070E+00
         -3   -1    0    0    0  501 -0.00000000000E+00  0.00000000000E+00  0.23166282201E+02  0.23166468872E+02  0.93000000000E-01 0.  1.
          3   -1    0    0  501    0  0.00000000000E+00 -0.00000000000E+00 -0.16861593152E+03  0.16861595717E+03  0.93000000000E-01 0. -1.
         25    2    1    2    0    0  0.00000000000E+00  0.00000000000E+00 -0.14544964932E+03  0.19178242604E+03  0.12499959380E+03 0.  0.
        -11    1    3    3    0    0  0.45242859058E+02 -0.15995021679E+01 -0.66133397069E+01  0.45751622542E+02  0.51100000000E-03 0.  1.
         11    1    3    3    0    0 -0.45242859058E+02  0.15995021679E+01 -0.13883630961E+03  0.14603080350E+03  0.51100000000E-03 0. -1.
<mgrwt>
<rscale>  0 0.12499959E+03</rscale>
<asrwt>0</asrwt>
<pdfrwt beam="2">  1        3 0.25940928E-01 0.12499959E+03</pdfrwt>
<pdfrwt beam="1">  1       -3 0.35640599E-02 0.12499959E+03</pdfrwt>
<totfact> 0.12136592E+04</totfact>
</mgrwt>
</event>
<event>
 5    1  0.1787806E-056  0.1250036E+03  0.7818608E-02  0.1235064E+00
          3   -1    0    0  501    0  0.00000000000E+00  0.00000000000E+00  0.11207386771E+03  0.11207390630E+03  0.93000000000E-01 0. -1.
         -3   -1    0    0    0  501 -0.00000000000E+00 -0.00000000000E+00 -0.34856146524E+02  0.34856270590E+02  0.93000000000E-01 0.  1.
         25    2    1    2    0    0  0.00000000000E+00  0.00000000000E+00  0.77217721190E+02  0.14693017689E+03  0.12500360161E+03 0.  0.
        -11    1    3    3    0    0 -0.37186169956E+02 -0.26980360161E+02  0.88417912236E+02  0.99641749658E+02  0.51100000000E-03 0.  1.
         11    1    3    3    0    0  0.37186169956E+02  0.26980360161E+02 -0.11200191046E+02  0.47288427232E+02  0.51100000000E-03 0. -1.
<mgrwt>
<rscale>  0 0.12500360E+03</rscale>
<asrwt>0</asrwt>
<pdfrwt beam="1">  1        3 0.17242146E-01 0.12500360E+03</pdfrwt>
<pdfrwt beam="2">  1       -3 0.53624966E-02 0.12500360E+03</pdfrwt>
<totfact> 0.13170250E+04</totfact>
</mgrwt>
</event>
<event>
 5    1  0.1787806E-056  0.1250004E+03  0.7818608E-02  0.1235069E+00
          3   -1    0    0  501    0  0.00000000000E+00  0.00000000000E+00  0.22630618132E+02  0.22630809222E+02  0.93000000000E-01 0. -1.
         -3   -1    0    0    0  501 -0.00000000000E+00 -0.00000000000E+00 -0.17260923556E+03  0.17260926061E+03  0.93000000000E-01 0.  1.
         25    2    1    2    0    0  0.00000000000E+00  0.00000000000E+00 -0.14997861742E+03  0.19524006983E+03  0.12500039673E+03 0.  0.
        -11    1    3    3    0    0  0.26937336420E+02 -0.49834533220E+02 -0.11623021062E+03  0.12930028096E+03  0.51100000000E-03 0.  1.
         11    1    3    3    0    0 -0.26937336420E+02  0.49834533220E+02 -0.33748406805E+02  0.65939788874E+02  0.51100000000E-03 0. -1.
<mgrwt>
<rscale>  0 0.12500040E+03</rscale>
<asrwt>0</asrwt>
<pdfrwt beam="1">  1        3 0.34816503E-02 0.12500040E+03</pdfrwt>
<pdfrwt beam="2">  1       -3 0.26555283E-01 0.12500040E+03</pdfrwt>
<totfact> 0.12061935E+04</totfact>
</mgrwt>
</event>
<event>
 5    1  0.1787806E-056  0.1249994E+03  0.7818608E-02  0.1235070E+00
          3   -1    0    0  501    0  0.00000000000E+00  0.00000000000E+00  0.44379993846E+02  0.44380091289E+02  0.93000000000E-01 0. -1.
         -3   -1    0    0    0  501 -0.00000000000E+00 -0.00000000000E+00 -0.88017224965E+02  0.88017274097E+02  0.93000000000E-01 0.  1.
         25    2    1    2    0    0  0.00000000000E+00  0.00000000000E+00 -0.43637231118E+02  0.13239736539E+03  0.12499941768E+03 0.  0.
        -11    1    3    3    0    0 -0.56954376956E+02 -0.23032818322E+02 -0.33983185645E+02  0.70208038580E+02  0.51100000000E-03 0.  1.
         11    1    3    3    0    0  0.56954376956E+02  0.23032818322E+02 -0.96540454729E+01  0.62189326806E+02  0.51100000000E-03 0. -1.
<mgrwt>
<rscale>  0 0.12499942E+03</rscale>
<asrwt>0</asrwt>
<pdfrwt beam="1">  1        3 0.68277026E-02 0.12499942E+03</pdfrwt>
<pdfrwt beam="2">  1       -3 0.13541123E-01 0.12499942E+03</pdfrwt>
<totfact> 0.13541323E+04</totfact>
</mgrwt>
</event>
<event>
 5    1  0.1787806E-056  0.1250043E+03  0.7818608E-02  0.1235063E+00
          3   -1    0    0  501    0  0.00000000000E+00  0.00000000000E+00  0.37666307192E+02  0.37666422002E+02  0.93000000000E-01 0. -1.
         -3   -1    0    0    0  501 -0.00000000000E+00 -0.00000000000E+00 -0.10371358241E+03  0.10371362410E+03  0.93000000000E-01 0.  1.
         25    2    1    2    0    0  0.00000000000E+00  0.00000000000E+00 -0.66047275215E+02  0.14138004611E+03  0.12500429942E+03 0.  0.
        -11    1    3    3    0    0  0.55073015473E+02  0.22212106637E+01  0.30826143736E+00  0.55118652337E+02  0.51100000000E-03 0.  1.
         11    1    3    3    0    0 -0.55073015473E+02 -0.22212106637E+01 -0.66355536652E+02  0.86261393768E+02  0.51100000000E-03 0. -1.
<mgrwt>
<rscale>  0 0.12500430E+03</rscale>
<asrwt>0</asrwt>
<pdfrwt beam="1">  1        3 0.57948286E-02 0.12500430E+03</pdfrwt>
<pdfrwt beam="2">  1       -3 0.15955948E-01 0.12500430E+03</pdfrwt>
<totfact> 0.13309155E+04</totfact>
</mgrwt>
</event>
<event>
 5    1  0.1924481E-056  0.1249995E+03  0.7818608E-02  0.1235070E+00
         -3   -1    0    0    0  501 -0.00000000000E+00  0.00000000000E+00  0.42292582647E+02  0.42292684898E+02  0.93000000000E-01 0.  1.
          3   -1    0    0  501    0  0.00000000000E+00 -0.00000000000E+00 -0.92361601873E+02  0.92361648695E+02  0.93000000000E-01 0. -1.
         25    2    1    2    0    0  0.00000000000E+00  0.00000000000E+00 -0.50069019227E+02  0.13465433359E+03  0.12499953148E+03 0.  0.
        -11    1    3    3    0    0  0.62420177711E+02  0.19562904946E+01 -0.22370644219E+02  0.66336651868E+02  0.51100000000E-03 0.  1.
         11    1    3    3    0    0 -0.62420177711E+02 -0.19562904946E+01 -0.27698375008E+02  0.68317681726E+02  0.51100000000E-03 0. -1.
<mgrwt>
<rscale>  0 0.12499953E+03</rscale>
<asrwt>0</asrwt>
<pdfrwt beam="2">  1        3 0.14209489E-01 0.12499953E+03</pdfrwt>
<pdfrwt beam="1">  1       -3 0.65065627E-02 0.12499953E+03</pdfrwt>
<totfact> 0.13482462E+04</totfact>
</mgrwt>
</event>
<event>
 5    1  0.1787806E-056  0.1249980E+03  0.7818608E-02  0.1235072E+00
          3   -1    0    0  501    0  0.00000000000E+00  0.00000000000E+00  0.81256509471E+01  0.81261831332E+01  0.93000000000E-01 0. -1.
         -3   -1    0    0    0  501 -0.00000000000E+00 -0.00000000000E+00 -0.48069880298E+03  0.48069881198E+03  0.93000000000E-01 0.  1.
         25    2    1    2    0    0  0.00000000000E+00  0.00000000000E+00 -0.47257315203E+03  0.48882499511E+03  0.12499796727E+03 0.  0.
        -11    1    3    3    0    0 -0.34463122049E+02  0.52105706788E+02 -0.24350966141E+03  0.25139543882E+03  0.51100000000E-03 0.  1.
         11    1    3    3    0    0  0.34463122049E+02 -0.52105706788E+02 -0.22906349062E+03  0.23742955629E+03  0.51100000000E-03 0. -1.
<mgrwt>
<rscale>  0 0.12499797E+03</rscale>
<asrwt>0</asrwt>
<pdfrwt beam="1">  1        3 0.12501422E-02 0.12499797E+03</pdfrwt>
<pdfrwt beam="2">  1       -3 0.73953681E-01 0.12499797E+03</pdfrwt>
<totfact> 0.77045850E+03</totfact>
</mgrwt>
</event>
<event>
 5    1  0.1787806E-056  0.1249994E+03  0.7818608E-02  0.1235070E+00
         -3   -1    0    0    0  501 -0.00000000000E+00  0.00000000000E+00  0.31666973001E+02  0.31667109562E+02  0.93000000000E-01 0.  1.
          3   -1    0    0  501    0  0.00000000000E+00 -0.00000000000E+00 -0.12335241619E+03  0.12335245125E+03  0.93000000000E-01 0. -1.
         25    2    1    2    0    0  0.00000000000E+00  0.00000000000E+00 -0.91685443187E+02  0.15501956081E+03  0.12499937496E+03 0.  0.
        -11    1    3    3    0    0 -0.15139251595E+02  0.54318035016E+02 -0.79271146800E+02  0.97280833580E+02  0.51100000000E-03 0. -1.
         11    1    3    3    0    0  0.15139251595E+02 -0.54318035016E+02 -0.12414296387E+02  0.57738727227E+02  0.51100000000E-03 0.  1.
<mgrwt>
<rscale>  0 0.12499937E+03</rscale>
<asrwt>0</asrwt>
<pdfrwt beam="2">  1        3 0.18977308E-01 0.12499937E+03</pdfrwt>
<pdfrwt beam="1">  1       -3 0.48718553E-02 0.12499937E+03</pdfrwt>
<totfact> 0.12973823E+04</totfact>
</mgrwt>
</event>
<event>
 5    1  0.1787806E-056  0.1249850E+03  0.7818608E-02  0.1235093E+00
         -3   -1    0    0    0  501 -0.00000000000E+00  0.00000000000E+00  0.13765254627E+02  0.13765568784E+02  0.93000000000E-01 0.  1.
          3   -1    0    0  501    0  0.00000000000E+00 -0.00000000000E+00 -0.28370447959E+03  0.28370449483E+03  0.93000000000E-01 0. -1.
         25    2    1    2    0    0  0.00000000000E+00  0.00000000000E+00 -0.26993922496E+03  0.29747006361E+03  0.12498501340E+03 0.  0.
        -11    1    3    3    0    0 -0.68545233939E+01  0.62108915823E+02 -0.13711360665E+03  0.15068059943E+03  0.51100000000E-03 0.  1.
         11    1    3    3    0    0  0.68545233939E+01 -0.62108915823E+02 -0.13282561831E+03  0.14678946418E+03  0.51100000000E-03 0. -1.
<mgrwt>
<rscale>  0 0.12498501E+03</rscale>
<asrwt>0</asrwt>
<pdfrwt beam="2">  1        3 0.43646864E-01 0.12498501E+03</pdfrwt>
<pdfrwt beam="1">  1       -3 0.21177570E-02 0.12498501E+03</pdfrwt>
<totfact> 0.10180445E+04</totfact>
</mgrwt>
</event>
<event>
 5    1  0.1787806E-056  0.1250052E+03  0.7818608E-02  0.1235061E+00
         -3   -1    0    0    0  501 -0.00000000000E+00  0.00000000000E+00  0.21922794786E+02  0.21922992046E+02  0.93000000000E-01 0.  1.
          3   -1    0    0  501    0  0.00000000000E+00 -0.00000000000E+00 -0.17819606364E+03  0.17819608791E+03  0.93000000000E-01 0. -1.
         25    2    1    2    0    0  0.00000000000E+00  0.00000000000E+00 -0.15627326886E+03  0.20011907996E+03  0.12500524631E+03 0.  0.
        -11    1    3    3    0    0 -0.36429605370E+02  0.46427882789E+02 -0.45175749958E+02  0.74320339290E+02  0.51100000000E-03 0.  1.
         11    1    3    3    0    0  0.36429605370E+02 -0.46427882789E+02 -0.11109751890E+03  0.12579874067E+03  0.51100000000E-03 0. -1.
<mgrwt>
<rscale>  0 0.12500525E+03</rscale>
<asrwt>0</asrwt>
<pdfrwt beam="2">  1        3 0.27414795E-01 0.12500525E+03</pdfrwt>
<pdfrwt beam="1">  1       -3 0.33727548E-02 0.12500525E+03</pdfrwt>
<totfact> 0.11958351E+04</totfact>
</mgrwt>
</event>
<event>
 5    1  0.1787806E-056  0.1249996E+03  0.7818608E-02  0.1235070E+00
         -3   -1    0    0    0  501 -0.00000000000E+00  0.00000000000E+00  0.21994385143E+03  0.21994387109E+03  0.93000000000E-01 0.  1.
          3   -1    0    0  501    0  0.00000000000E+00 -0.00000000000E+00 -0.17759960513E+02  0.17760204008E+02  0.93000000000E-01 0. -1.
         25    2    1    2    0    0  0.00000000000E+00  0.00000000000E+00  0.20218389092E+03  0.23770407510E+03  0.12499960629E+03 0.  0.
        -11    1    3    3    0    0 -0.26048506654E+02 -0.30740920873E+02  0.19194762195E+03  0.19613112575E+03  0.51100000000E-03 0.  1.
         11    1    3    3    0    0  0.26048506654E+02  0.30740920873E+02  0.10236268965E+02  0.41572949349E+02  0.51100000000E-03 0. -1.
<mgrwt>
<rscale>  0 0.12499961E+03</rscale>
<asrwt>0</asrwt>
<pdfrwt beam="2">  1        3 0.27323217E-02 0.12499961E+03</pdfrwt>
<pdfrwt beam="1">  1       -3 0.33837537E-01 0.12499961E+03</pdfrwt>
<totfact> 0.11212222E+04</totfact>
</mgrwt>
</event>
<event>
 5    1  0.1787806E-056  0.1249907E+03  0.7818608E-02  0.1235084E+00
         -3   -1    0    0    0  501 -0.00000000000E+00  0.00000000000E+00  0.38941452117E+02  0.38941563168E+02  0.93000000000E-01 0.  1.
          3   -1    0    0  501    0  0.00000000000E+00 -0.00000000000E+00 -0.10029572257E+03  0.10029576568E+03  0.93000000000E-01 0. -1.
         25    2    1    2    0    0  0.00000000000E+00  0.00000000000E+00 -0.61354270449E+02  0.13923732885E+03  0.12499074863E+03 0.  0.
        -11    1    3    3    0    0  0.40661537653E+02 -0.29433574284E+02  0.10794928640E+02  0.51344195622E+02  0.51100000000E-03 0.  1.
         11    1    3    3    0    0 -0.40661537653E+02  0.29433574284E+02 -0.72149199088E+02  0.87893133229E+02  0.51100000000E-03 0. -1.
<mgrwt>
<rscale>  0 0.12499075E+03</rscale>
<asrwt>0</asrwt>
<pdfrwt beam="2">  1        3 0.15430123E-01 0.12499075E+03</pdfrwt>
<pdfrwt beam="1">  1       -3 0.59910045E-02 0.12499075E+03</pdfrwt>
<totfact> 0.13367473E+04</totfact>
</mgrwt>
</event>
<event>
 5    1  0.1787806E-056  0.1250005E+03  0.7818608E-02  0.1235069E+00
         -3   -1    0    0    0  501 -0.00000000000E+00  0.00000000000E+00  0.16134937433E+03  0.16134940114E+03  0.93000000000E-01 0.  1.
          3   -1    0    0  501    0  0.00000000000E+00 -0.00000000000E+00 -0.24209956650E+02  0.24210135274E+02  0.93000000000E-01 0. -1.
         25    2    1    2    0    0  0.00000000000E+00  0.00000000000E+00  0.13713941769E+03  0.18555953641E+03  0.12500048668E+03 0.  0.
        -11    1    3    3    0    0 -0.37956480771E+02 -0.49475416463E+02  0.74827267191E+02  0.97404472085E+02  0.51100000000E-03 0.  1.
         11    1    3    3    0    0  0.37956480771E+02  0.49475416463E+02  0.62312150494E+02  0.88155064325E+02  0.51100000000E-03 0. -1.
<mgrwt>
<rscale>  0 0.12500049E+03</rscale>
<asrwt>0</asrwt>
<pdfrwt beam="2">  1        3 0.37246246E-02 0.12500049E+03</pdfrwt>
<pdfrwt beam="1">  1       -3 0.24822996E-01 0.12500049E+03</pdfrwt>
<totfact> 0.12270811E+04</totfact>
</mgrwt>
</event>
<event>
 5    1  0.1787806E-056  0.1250049E+03  0.7818608E-02  0.1235062E+00
          3   -1    0    0  501    0  0.00000000000E+00  0.00000000000E+00  0.15889127239E+03  0.15889129961E+03  0.93000000000E-01 0. -1.
         -3   -1    0    0    0  501 -0.00000000000E+00 -0.00000000000E+00 -0.24586250659E+02  0.24586426549E+02  0.93000000000E-01 0.  1.
         25    2    1    2    0    0  0.00000000000E+00  0.00000000000E+00  0.13430502173E+03  0.18347772616E+03  0.12500494844E+03 0.  0.
        -11    1    3    3    0    0  0.46356739738E+02  0.29722832278E+02  0.11054883077E+03  0.12350480988E+03  0.51100000000E-03 0.  1.
         11    1    3    3    0    0 -0.46356739738E+02 -0.29722832278E+02  0.23756190962E+02  0.59972916280E+02  0.51100000000E-03 0. -1.
<mgrwt>
<rscale>  0 0.12500495E+03</rscale>
<asrwt>0</asrwt>
<pdfrwt beam="1">  1        3 0.24444827E-01 0.12500495E+03</pdfrwt>
<pdfrwt beam="2">  1       -3 0.37825157E-02 0.12500495E+03</pdfrwt>
<totfact> 0.12315715E+04</totfact>
</mgrwt>
</event>
<event>
 5    1  0.2092261E-056  0.1249978E+03  0.7818608E-02  0.1235073E+00
          3   -1    0    0  501    0  0.00000000000E+00  0.00000000000E+00  0.10410232815E+02  0.10410648216E+02  0.93000000000E-01 0. -1.
         -3   -1    0    0    0  501 -0.00000000000E+00 -0.00000000000E+00 -0.37521047796E+03  0.37521048949E+03  0.93000000000E-01 0.  1.
         25    2    1    2    0    0  0.00000000000E+00  0.00000000000E+00 -0.36480024515E+03  0.38562113770E+03  0.12499777192E+03 0.  0.
        -11    1    3    3    0    0  0.43841981015E+02 -0.44474055272E+02 -0.18998818707E+03  0.19998892999E+03  0.51100000000E-03 0.  1.
         11    1    3    3    0    0 -0.43841981015E+02  0.44474055272E+02 -0.17481205808E+03  0.18563220772E+03  0.51100000000E-03 0. -1.
<mgrwt>
<rscale>  0 0.12499777E+03</rscale>
<asrwt>0</asrwt>
<pdfrwt beam="1">  1        3 0.16016074E-02 0.12499777E+03</pdfrwt>
<pdfrwt beam="2">  1       -3 0.57724711E-01 0.12499777E+03</pdfrwt>
<totfact> 0.89021544E+03</totfact>
</mgrwt>
</event>
<event>
 5    1  0.1787806E-056  0.1250027E+03  0.7818608E-02  0.1235065E+00
          3   -1    0    0  501    0  0.00000000000E+00  0.00000000000E+00  0.32329488455E+02  0.32329622218E+02  0.93000000000E-01 0.  1.
         -3   -1    0    0    0  501 -0.00000000000E+00 -0.00000000000E+00 -0.12083106645E+03  0.12083110224E+03  0.93000000000E-01 0. -1.
         25    2    1    2    0    0  0.00000000000E+00  0.00000000000E+00 -0.88501577994E+02  0.15316072446E+03  0.12500271281E+03 0.  0.
        -11    1    3    3    0    0  0.87378683557E+01  0.55139109786E+02 -0.78683576372E+02  0.96476820855E+02  0.51100000000E-03 0. -1.
         11    1    3    3    0    0 -0.87378683557E+01 -0.55139109786E+02 -0.98180016220E+01  0.56683903602E+02  0.51100000000E-03 0.  1.
<mgrwt>
<rscale>  0 0.12500271E+03</rscale>
<asrwt>0</asrwt>
<pdfrwt beam="1">  1        3 0.49737806E-02 0.12500271E+03</pdfrwt>
<pdfrwt beam="2">  1       -3 0.18589408E-01 0.12500271E+03</pdfrwt>
<totfact> 0.13017947E+04</totfact>
</mgrwt>
</event>
<event>
 4    1  0.1787806E-056  0.1242168E+03  0.7818608E-02  0.1236298E+00
          3   -1    0    0  501    0  0.00000000000E+00  0.00000000000E+00  0.53494241243E+02  0.53494322084E+02  0.93000000000E-01 0. -1.
         -3   -1    0    0    0  501 -0.00000000000E+00 -0.00000000000E+00 -0.72109542384E+02  0.72109602355E+02  0.93000000000E-01 0.  1.
        -11    1    1    2    0    0 -0.42678854867E+02  0.31018499320E+02 -0.42442805690E+02  0.67712803132E+02  0.51100000000E-03 0.  1.
         11    1    1    2    0    0  0.42678854867E+02 -0.31018499320E+02  0.23827504550E+02  0.57891121307E+02  0.51100000000E-03 0. -1.
<mgrwt>
<rscale>  0 0.12421681E+03</rscale>
<asrwt>0</asrwt>
<pdfrwt beam="1">  1        3 0.82298940E-02 0.12421681E+03</pdfrwt>
<pdfrwt beam="2">  1       -3 0.11093787E-01 0.12421681E+03</pdfrwt>
<totfact> 0.13965542E+04</totfact>
</mgrwt>
</event>
<event>
 5    1  0.1787806E-056  0.1250049E+03  0.7818608E-02  0.1235062E+00
          3   -1    0    0  501    0  0.00000000000E+00  0.00000000000E+00  0.18177690327E+03  0.18177692706E+03  0.93000000000E-01 0. -1.
         -3   -1    0    0    0  501 -0.00000000000E+00 -0.00000000000E+00 -0.21490809757E+02  0.21491010982E+02  0.93000000000E-01 0.  1.
         25    2    1    2    0    0  0.00000000000E+00  0.00000000000E+00  0.16028609351E+03  0.20326793804E+03  0.12500489135E+03 0.  0.
        -11    1    3    3    0    0  0.10164184942E+02 -0.55540627035E+02  0.36556710258E+02  0.67264143286E+02  0.51100000000E-03 0. -1.
         11    1    3    3    0    0 -0.10164184942E+02  0.55540627035E+02  0.12372938326E+03  0.13600379476E+03  0.51100000000E-03 0.  1.
<mgrwt>
<rscale>  0 0.12500489E+03</rscale>
<asrwt>0</asrwt>
<pdfrwt beam="1">  1        3 0.27965695E-01 0.12500489E+03</pdfrwt>
<pdfrwt beam="2">  1       -3 0.33062957E-02 0.12500489E+03</pdfrwt>
<totfact> 0.11892743E+04</totfact>
</mgrwt>
</event>
<event>
 5    1  0.1787806E-056  0.1249979E+03  0.7818608E-02  0.1235073E+00
         -3   -1    0    0    0  501 -0.00000000000E+00  0.00000000000E+00  0.41119775868E+02  0.41119881036E+02  0.93000000000E-01 0.  1.
          3   -1    0    0  501    0  0.00000000000E+00 -0.00000000000E+00 -0.94993438343E+02  0.94993483868E+02  0.93000000000E-01 0. -1.
         25    2    1    2    0    0  0.00000000000E+00  0.00000000000E+00 -0.53873662475E+02  0.13611336490E+03  0.12499790637E+03 0.  0.
        -11    1    3    3    0    0 -0.39984683908E+02  0.48030770274E+02 -0.26257400747E+02  0.67787763900E+02  0.51100000000E-03 0.  1.
         11    1    3    3    0    0  0.39984683908E+02 -0.48030770274E+02 -0.27616261728E+02  0.68325601003E+02  0.51100000000E-03 0. -1.
<mgrwt>
<rscale>  0 0.12499791E+03</rscale>
<asrwt>0</asrwt>
<pdfrwt beam="2">  1        3 0.14614387E-01 0.12499791E+03</pdfrwt>
<pdfrwt beam="1">  1       -3 0.63261310E-02 0.12499791E+03</pdfrwt>
<totfact> 0.13445324E+04</totfact>
</mgrwt>
</event>
<event>
 5    1  0.1787806E-056  0.1250005E+03  0.7818608E-02  0.1235069E+00
         -3   -1    0    0    0  501 -0.00000000000E+00  0.00000000000E+00  0.12174783139E+02  0.12175138335E+02  0.93000000000E-01 0.  1.
          3   -1    0    0  501    0  0.00000000000E+00 -0.00000000000E+00 -0.32084498664E+03  0.32084500012E+03  0.93000000000E-01 0. -1.
         25    2    1    2    0    0  0.00000000000E+00  0.00000000000E+00 -0.30867020350E+03  0.33302013845E+03  0.12500047234E+03 0.  0.
        -11    1    3    3    0    0  0.59336464510E+02 -0.16468365740E+02 -0.12585777824E+03  0.14011496506E+03  0.51100000000E-03 0.  1.
         11    1    3    3    0    0 -0.59336464510E+02  0.16468365740E+02 -0.18281242526E+03  0.19290517339E+03  0.51100000000E-03 0. -1.
<mgrwt>
<rscale>  0 0.12500047E+03</rscale>
<asrwt>0</asrwt>
<pdfrwt beam="2">  1        3 0.49360789E-01 0.12500047E+03</pdfrwt>
<pdfrwt beam="1">  1       -3 0.18730722E-02 0.12500047E+03</pdfrwt>
<totfact> 0.96320925E+03</totfact>
</mgrwt>
</event>
<event>
 5    1  0.1787806E-056  0.1250010E+03  0.7818608E-02  0.1235068E+00
         -3   -1    0    0    0  501 -0.00000000000E+00  0.00000000000E+00  0.68509680281E+02  0.68509743404E+02  0.93000000000E-01 0.  1.
          3   -1    0    0  501    0  0.00000000000E+00 -0.00000000000E+00 -0.57018279337E+02  0.57018355181E+02  0.93000000000E-01 0. -1.
         25    2    1    2    0    0  0.00000000000E+00  0.00000000000E+00  0.11491400944E+02  0.12552809858E+03  0.12500100495E+03 0.  0.
        -11    1    3    3    0    0  0.15293845392E+02  0.47820479233E+02  0.43126483974E+02  0.66186052618E+02  0.51100000000E-03 0.  1.
         11    1    3    3    0    0 -0.15293845392E+02 -0.47820479233E+02 -0.31635083030E+02  0.59342045966E+02  0.51100000000E-03 0. -1.
<mgrwt>
<rscale>  0 0.12500100E+03</rscale>
<asrwt>0</asrwt>
<pdfrwt beam="2">  1        3 0.87720537E-02 0.12500100E+03</pdfrwt>
<pdfrwt beam="1">  1       -3 0.10539961E-01 0.12500100E+03</pdfrwt>
<totfact> 0.13722047E+04</totfact>
</mgrwt>
</event>
<event>
 5    1  0.1787806E-056  0.1249979E+03  0.7818608E-02  0.1235073E+00
          3   -1    0    0  501    0  0.00000000000E+00  0.00000000000E+00  0.22199438938E+03  0.22199440886E+03  0.93000000000E-01 0. -1.
         -3   -1    0    0    0  501 -0.00000000000E+00 -0.00000000000E+00 -0.17595426571E+02  0.17595672343E+02  0.93000000000E-01 0.  1.
         25    2    1    2    0    0  0.00000000000E+00  0.00000000000E+00  0.20439896281E+03  0.23959008121E+03  0.12499788404E+03 0.  0.
        -11    1    3    3    0    0  0.59477825694E+02 -0.16650472623E+02  0.12051102191E+03  0.13541697231E+03  0.51100000000E-03 0.  1.
         11    1    3    3    0    0 -0.59477825694E+02  0.16650472623E+02  0.83887940900E+02  0.10417310889E+03  0.51100000000E-03 0. -1.
<mgrwt>
<rscale>  0 0.12499788E+03</rscale>
<asrwt>0</asrwt>
<pdfrwt beam="1">  1        3 0.34153005E-01 0.12499788E+03</pdfrwt>
<pdfrwt beam="2">  1       -3 0.27070090E-02 0.12499788E+03</pdfrwt>
<totfact> 0.11178937E+04</totfact>
</mgrwt>
</event>
<event>
 5    1  0.1787806E-056  0.1250046E+03  0.7818608E-02  0.1235062E+00
          3   -1    0    0  501    0  0.00000000000E+00  0.00000000000E+00  0.68883160473E+02  0.68883223254E+02  0.93000000000E-01 0. -1.
         -3   -1    0    0    0  501 -0.00000000000E+00 -0.00000000000E+00 -0.56712421423E+02  0.56712497676E+02  0.93000000000E-01 0.  1.
         25    2    1    2    0    0  0.00000000000E+00  0.00000000000E+00  0.12170739050E+02  0.12559572093E+03  0.12500463282E+03 0.  0.
        -11    1    3    3    0    0  0.51677065860E+02 -0.34574805154E+02  0.12487569500E+02  0.63418259828E+02  0.51100000000E-03 0. -1.
         11    1    3    3    0    0 -0.51677065860E+02  0.34574805154E+02 -0.31683045023E+00  0.62177461102E+02  0.51100000000E-03 0.  1.
<mgrwt>
<rscale>  0 0.12500463E+03</rscale>
<asrwt>0</asrwt>
<pdfrwt beam="1">  1        3 0.10597420E-01 0.12500463E+03</pdfrwt>
<pdfrwt beam="2">  1       -3 0.87249987E-02 0.12500463E+03</pdfrwt>
<totfact> 0.13719033E+04</totfact>
</mgrwt>
</event>
<event>
 5    1  0.1787806E-056  0.1250008E+03  0.7818608E-02  0.1235068E+00
         -3   -1    0    0    0  501 -0.00000000000E+00  0.00000000000E+00  0.69119434347E+02  0.69119496913E+02  0.93000000000E-01 0. -1.
          3   -1    0    0  501    0  0.00000000000E+00 -0.00000000000E+00 -0.56515065314E+02  0.56515141834E+02  0.93000000000E-01 0.  1.
         25    2    1    2    0    0  0.00000000000E+00  0.00000000000E+00  0.12604369033E+02  0.12563463875E+03  0.12500076933E+03 0.  0.
        -11    1    3    3    0    0  0.20566851189E+02  0.58974189719E+02  0.86264123888E+01  0.63050498902E+02  0.51100000000E-03 0. -1.
         11    1    3    3    0    0 -0.20566851189E+02 -0.58974189719E+02  0.39779566441E+01  0.62584139845E+02  0.51100000000E-03 0.  1.
<mgrwt>
<rscale>  0 0.12500077E+03</rscale>
<asrwt>0</asrwt>
<pdfrwt beam="2">  1        3 0.86946361E-02 0.12500077E+03</pdfrwt>
<pdfrwt beam="1">  1       -3 0.10633770E-01 0.12500077E+03</pdfrwt>
<totfact> 0.13719244E+04</totfact>
</mgrwt>
</event>
<event>
 5    1  0.1787806E-056  0.1249978E+03  0.7818608E-02  0.1235073E+00
         -3   -1    0    0    0  501 -0.00000000000E+00  0.00000000000E+00  0.82372208900E+01  0.82377458683E+01  0.93000000000E-01 0.  1.
          3   -1    0    0  501    0  0.00000000000E+00 -0.00000000000E+00 -0.47418740383E+03  0.47418741295E+03  0.93000000000E-01 0. -1.
         25    2    1    2    0    0  0.00000000000E+00  0.00000000000E+00 -0.46595018294E+03  0.48242515882E+03  0.12499784350E+03 0.  0.
        -11    1    3    3    0    0 -0.45363085687E+00  0.58718965665E+02 -0.15037954789E+03  0.16143770047E+03  0.51100000000E-03 0. -1.
         11    1    3    3    0    0  0.45363085687E+00 -0.58718965665E+02 -0.31557063505E+03  0.32098745835E+03  0.51100000000E-03 0.  1.
<mgrwt>
<rscale>  0 0.12499784E+03</rscale>
<asrwt>0</asrwt>
<pdfrwt beam="2">  1        3 0.72951928E-01 0.12499784E+03</pdfrwt>
<pdfrwt beam="1">  1       -3 0.12673062E-02 0.12499784E+03</pdfrwt>
<totfact> 0.77798999E+03</totfact>
</mgrwt>
</event>
<event>
 5    1  0.1787806E-056  0.1249964E+03  0.7818608E-02  0.1235075E+00
         -3   -1    0    0    0  501 -0.00000000000E+00  0.00000000000E+00  0.50138118503E+03  0.50138119365E+03  0.93000000000E-01 0.  1.
          3   -1    0    0  501    0  0.00000000000E+00 -0.00000000000E+00 -0.77902446672E+01  0.77907997647E+01  0.93000000000E-01 0. -1.
         25    2    1    2    0    0  0.00000000000E+00  0.00000000000E+00  0.49359094036E+03  0.50917199342E+03  0.12499640985E+03 0.  0.
        -11    1    3    3    0    0 -0.41100007954E+02 -0.44815240440E+02  0.30560197936E+03  0.31159298166E+03  0.51100000000E-03 0.  1.
         11    1    3    3    0    0  0.41100007954E+02  0.44815240440E+02  0.18798896100E+03  0.19757901176E+03  0.51100000000E-03 0. -1.
<mgrwt>
<rscale>  0 0.12499641E+03</rscale>
<asrwt>0</asrwt>
<pdfrwt beam="2">  1        3 0.11985424E-02 0.12499641E+03</pdfrwt>
<pdfrwt beam="1">  1       -3 0.77135621E-01 0.12499641E+03</pdfrwt>
<totfact> 0.74981839E+03</totfact>
</mgrwt>
</event>
<event>
 5    1  0.1787806E-056  0.1250000E+03  0.7818608E-02  0.1235069E+00
         -3   -1    0    0    0  501 -0.00000000000E+00  0.00000000000E+00  0.21225912666E+02  0.21226116402E+02  0.93000000000E-01 0.  1.
          3   -1    0    0  501    0  0.00000000000E+00 -0.00000000000E+00 -0.18403103359E+03  0.18403105709E+03  0.93000000000E-01 0. -1.
         25    2    1    2    0    0  0.00000000000E+00  0.00000000000E+00 -0.16280512092E+03  0.20525717349E+03  0.12499999948E+03 0.  0.
        -11    1    3    3    0    0  0.53205075408E+02 -0.29073822426E+02 -0.56489634535E+02  0.82868244882E+02  0.51100000000E-03 0.  1.
         11    1    3    3    0    0 -0.53205075408E+02  0.29073822426E+02 -0.10631548639E+03  0.12238892861E+03  0.51100000000E-03 0. -1.
<mgrwt>
<rscale>  0 0.12500000E+03</rscale>
<asrwt>0</asrwt>
<pdfrwt beam="2">  1        3 0.28312483E-01 0.12500000E+03</pdfrwt>
<pdfrwt beam="1">  1       -3 0.32655426E-02 0.12500000E+03</pdfrwt>
<totfact> 0.11852857E+04</totfact>
</mgrwt>
</event>
<event>
 5    1  0.1787806E-056  0.1249996E+03  0.7818608E-02  0.1235070E+00
          3   -1    0    0  501    0  0.00000000000E+00  0.00000000000E+00  0.81010703672E+02  0.81010757054E+02  0.93000000000E-01 0. -1.
         -3   -1    0    0    0  501 -0.00000000000E+00 -0.00000000000E+00 -0.48218508349E+02  0.48218598035E+02  0.93000000000E-01 0.  1.
         25    2    1    2    0    0  0.00000000000E+00  0.00000000000E+00  0.32792195323E+02  0.12922935509E+03  0.12499959257E+03 0.  0.
        -11    1    3    3    0    0  0.40563746107E+02  0.61860098554E+01 -0.32342990927E+02  0.52247040859E+02  0.51100000000E-03 0.  1.
         11    1    3    3    0    0 -0.40563746107E+02 -0.61860098554E+01  0.65135186249E+02  0.76982314230E+02  0.51100000000E-03 0. -1.
<mgrwt>
<rscale>  0 0.12499959E+03</rscale>
<asrwt>0</asrwt>
<pdfrwt beam="1">  1        3 0.12463196E-01 0.12499959E+03</pdfrwt>
<pdfrwt beam="2">  1       -3 0.74182430E-02 0.12499959E+03</pdfrwt>
<totfact> 0.13624100E+04</totfact>
</mgrwt>
</event>
<event>
 5    1  0.1787806E-056  0.1249908E+03  0.7818608E-02  0.1235084E+00
          3   -1    0    0  501    0  0.00000000000E+00  0.00000000000E+00  0.10310934798E+03  0.10310938992E+03  0.93000000000E-01 0. -1.
         -3   -1    0    0    0  501 -0.00000000000E+00 -0.00000000000E+00 -0.37878860248E+02  0.37878974414E+02  0.93000000000E-01 0.  1.
         25    2    1    2    0    0  0.00000000000E+00  0.00000000000E+00  0.65230487734E+02  0.14098836434E+03  0.12499080906E+03 0.  0.
        -11    1    3    3    0    0  0.56964755449E+02 -0.15141727939E+02  0.91861506447E+01  0.59654343113E+02  0.51100000000E-03 0.  1.
         11    1    3    3    0    0 -0.56964755449E+02  0.15141727939E+02  0.56044337089E+02  0.81334021223E+02  0.51100000000E-03 0. -1.
<mgrwt>
<rscale>  0 0.12499081E+03</rscale>
<asrwt>0</asrwt>
<pdfrwt beam="1">  1        3 0.15862989E-01 0.12499081E+03</pdfrwt>
<pdfrwt beam="2">  1       -3 0.58275290E-02 0.12499081E+03</pdfrwt>
<totfact> 0.13322933E+04</totfact>
</mgrwt>
</event>
<event>
 5    1  0.1787806E-056  0.1250064E+03  0.7818608E-02  0.1235059E+00
         -3   -1    0    0    0  501 -0.00000000000E+00  0.00000000000E+00  0.48611105284E+02  0.48611194245E+02  0.93000000000E-01 0.  1.
          3   -1    0    0  501    0  0.00000000000E+00 -0.00000000000E+00 -0.80365138700E+02  0.80365192511E+02  0.93000000000E-01 0. -1.
         25    2    1    2    0    0  0.00000000000E+00  0.00000000000E+00 -0.31754033417E+02  0.12897638676E+03  0.12500635865E+03 0.  0.
        -11    1    3    3    0    0  0.10054422144E+02  0.58979284016E+02  0.27804222462E+01  0.59894725109E+02  0.51100000000E-03 0.  1.
         11    1    3    3    0    0 -0.10054422144E+02 -0.58979284016E+02 -0.34534455663E+02  0.69081661647E+02  0.51100000000E-03 0. -1.
<mgrwt>
<rscale>  0 0.12500636E+03</rscale>
<asrwt>0</asrwt>
<pdfrwt beam="2">  1        3 0.12363878E-01 0.12500636E+03</pdfrwt>
<pdfrwt beam="1">  1       -3 0.74786426E-02 0.12500636E+03</pdfrwt>
<totfact> 0.13628667E+04</totfact>
</mgrwt>
</event>
<event>
 5    1  0.1787806E-056  0.1250033E+03  0.7818608E-02  0.1235064E+00
         -3   -1    0    0    0  501 -0.00000000000E+00  0.00000000000E+00  0.15204862499E+03  0.15204865343E+03  0.93000000000E-01 0.  1.
          3   -1    0    0  501    0  0.00000000000E+00 -0.00000000000E+00 -0.25692019140E+02  0.25692187460E+02  0.93000000000E-01 0. -1.
         25    2    1    2    0    0  0.00000000000E+00  0.00000000000E+00  0.12635660585E+03  0.17774084089E+03  0.12500325867E+03 0.  0.
        -11    1    3    3    0    0 -0.48143314582E+02 -0.21953361368E+01  0.11976621431E+03  0.12909897106E+03  0.51100000000E-03 0.  1.
         11    1    3    3    0    0  0.48143314582E+02  0.21953361368E+01  0.65903915442E+01  0.48641869831E+02  0.51100000000E-03 0. -1.
<mgrwt>
<rscale>  0 0.12500326E+03</rscale>
<asrwt>0</asrwt>
<pdfrwt beam="2">  1        3 0.39526335E-02 0.12500326E+03</pdfrwt>
<pdfrwt beam="1">  1       -3 0.23392111E-01 0.12500326E+03</pdfrwt>
<totfact> 0.12443478E+04</totfact>
</mgrwt>
</event>
<event>
 5    1  0.1787806E-056  0.1250046E+03  0.7818608E-02  0.1235062E+00
          3   -1    0    0  501    0  0.00000000000E+00  0.00000000000E+00  0.10138730587E+02  0.10139157110E+02  0.93000000000E-01 0. -1.
         -3   -1    0    0    0  501 -0.00000000000E+00 -0.00000000000E+00 -0.38529952413E+03  0.38529953535E+03  0.93000000000E-01 0.  1.
         25    2    1    2    0    0  0.00000000000E+00  0.00000000000E+00 -0.37516079354E+03  0.39543869246E+03  0.12500455386E+03 0.  0.
        -11    1    3    3    0    0  0.48673735042E+02 -0.20539128700E+02 -0.29323711887E+03  0.29795804431E+03  0.51100000000E-03 0.  1.
         11    1    3    3    0    0 -0.48673735042E+02  0.20539128700E+02 -0.81923674675E+02  0.97480648148E+02  0.51100000000E-03 0. -1.
<mgrwt>
<rscale>  0 0.12500455E+03</rscale>
<asrwt>0</asrwt>
<pdfrwt beam="1">  1        3 0.15598387E-02 0.12500455E+03</pdfrwt>
<pdfrwt beam="2">  1       -3 0.59276872E-01 0.12500455E+03</pdfrwt>
<totfact> 0.87748513E+03</totfact>
</mgrwt>
</event>
<event>
 5    1  0.1787806E-056  0.1249987E+03  0.7818608E-02  0.1235071E+00
         -3   -1    0    0    0  501 -0.00000000000E+00  0.00000000000E+00  0.21842733593E+02  0.21842931575E+02  0.93000000000E-01 0.  1.
          3   -1    0    0  501    0  0.00000000000E+00 -0.00000000000E+00 -0.17883041718E+03  0.17883044136E+03  0.93000000000E-01 0. -1.
         25    2    1    2    0    0  0.00000000000E+00  0.00000000000E+00 -0.15698768358E+03  0.20067337293E+03  0.12499867922E+03 0.  0.
        -11    1    3    3    0    0  0.55511529673E+02  0.28532346252E+02 -0.73281161108E+02  0.96258782887E+02  0.51100000000E-03 0.  1.
         11    1    3    3    0    0 -0.55511529673E+02 -0.28532346252E+02 -0.83706522476E+02  0.10441459005E+03  0.51100000000E-03 0. -1.
<mgrwt>
<rscale>  0 0.12499868E+03</rscale>
<asrwt>0</asrwt>
<pdfrwt beam="2">  1        3 0.27512388E-01 0.12499868E+03</pdfrwt>
<pdfrwt beam="1">  1       -3 0.33604378E-02 0.12499868E+03</pdfrwt>
<totfact> 0.11948499E+04</totfact>
</mgrwt>
</event>
<event>
 5    1  0.1787806E-056  0.1250033E+03  0.7818608E-02  0.1235064E+00
          3   -1    0    0  501    0  0.00000000000E+00  0.00000000000E+00  0.46884702091E+02  0.46884794327E+02  0.93000000000E-01 0. -1.
         -3   -1    0    0    0  501 -0.00000000000E+00 -0.00000000000E+00 -0.83320239088E+02  0.83320290990E+02  0.93000000000E-01 0.  1.
         25    2    1    2    0    0  0.00000000000E+00  0.00000000000E+00 -0.36435536998E+02  0.13020508532E+03  0.12500326350E+03 0.  0.
        -11    1    3    3    0    0 -0.29837472800E+01  0.39546410224E+02 -0.68535707272E+02  0.79183107295E+02  0.51100000000E-03 0.  1.
         11    1    3    3    0    0  0.29837472800E+01 -0.39546410224E+02  0.32100170274E+02  0.51021978022E+02  0.51100000000E-03 0. -1.
<mgrwt>
<rscale>  0 0.12500326E+03</rscale>
<asrwt>0</asrwt>
<pdfrwt beam="1">  1        3 0.72130422E-02 0.12500326E+03</pdfrwt>
<pdfrwt beam="2">  1       -3 0.12818509E-01 0.12500326E+03</pdfrwt>
<totfact> 0.13597567E+04</totfact>
</mgrwt>
</event>
<event>
 5    1  0.1787806E-056  0.1250002E+03  0.7818608E-02  0.1235069E+00
          3   -1    0    0  501    0  0.00000000000E+00  0.00000000000E+00  0.56886457680E+03  0.56886458440E+03  0.93000000000E-01 0. -1.
         -3   -1    0    0    0  501 -0.00000000000E+00 -0.00000000000E+00 -0.68664459834E+01  0.68670757563E+01  0.93000000000E-01 0.  1.
         25    2    1    2    0    0  0.00000000000E+00  0.00000000000E+00  0.56199813082E+03  0.57573166016E+03  0.12500018187E+03 0.  0.
        -11    1    3    3    0    0 -0.92184608891E+01 -0.61623761231E+02  0.30346568307E+03  0.30979652801E+03  0.51100000000E-03 0.  1.
         11    1    3    3    0    0  0.92184608891E+01  0.61623761231E+02  0.25853244775E+03  0.26593513214E+03  0.51100000000E-03 0. -1.
<mgrwt>
<rscale>  0 0.12500018E+03</rscale>
<asrwt>0</asrwt>
<pdfrwt beam="1">  1        3 0.87517717E-01 0.12500018E+03</pdfrwt>
<pdfrwt beam="2">  1       -3 0.10564248E-02 0.12500018E+03</pdfrwt>
<totfact> 0.68890562E+03</totfact>
</mgrwt>
</event>
<event>
 5    1  0.1787806E-056  0.1249982E+03  0.7818608E-02  0.1235072E+00
         -3   -1    0    0    0  501 -0.00000000000E+00  0.00000000000E+00  0.31841244291E+02  0.31841380105E+02  0.93000000000E-01 0.  1.
          3   -1    0    0  501    0  0.00000000000E+00 -0.00000000000E+00 -0.12267495883E+03  0.12267499408E+03  0.93000000000E-01 0. -1.
         25    2    1    2    0    0  0.00000000000E+00  0.00000000000E+00 -0.90833714535E+02  0.15451637418E+03  0.12499818476E+03 0.  0.
        -11    1    3    3    0    0 -0.31968284359E+02  0.44763524513E+02 -0.87385824984E+01  0.55696563234E+02  0.51100000000E-03 0.  1.
         11    1    3    3    0    0  0.31968284359E+02 -0.44763524513E+02 -0.82095132037E+02  0.98819810949E+02  0.51100000000E-03 0. -1.
<mgrwt>
<rscale>  0 0.12499818E+03</rscale>
<asrwt>0</asrwt>
<pdfrwt beam="2">  1        3 0.18873084E-01 0.12499818E+03</pdfrwt>
<pdfrwt beam="1">  1       -3 0.48986662E-02 0.12499818E+03</pdfrwt>
<totfact> 0.12986342E+04</totfact>
</mgrwt>
</event>
<event>
 5    1  0.1787806E-056  0.1250002E+03  0.7818608E-02  0.1235069E+00
          3   -1    0    0  501    0  0.00000000000E+00  0.00000000000E+00  0.29744372036E+03  0.29744373490E+03  0.93000000000E-01 0. -1.
         -3   -1    0    0    0  501 -0.00000000000E+00 -0.00000000000E+00 -0.13132606788E+02  0.13132936079E+02  0.93000000000E-01 0.  1.
         25    2    1    2    0    0  0.00000000000E+00  0.00000000000E+00  0.28431111357E+03  0.31057667098E+03  0.12500023702E+03 0.  0.
        -11    1    3    3    0    0  0.46307666680E+02 -0.41969539365E+02  0.14054039765E+03  0.15380977082E+03  0.51100000000E-03 0. -1.
         11    1    3    3    0    0 -0.46307666680E+02  0.41969539365E+02  0.14377071593E+03  0.15676690016E+03  0.51100000000E-03 0.  1.
<mgrwt>
<rscale>  0 0.12500024E+03</rscale>
<asrwt>0</asrwt>
<pdfrwt beam="1">  1        3 0.45760596E-01 0.12500024E+03</pdfrwt>
<pdfrwt beam="2">  1       -3 0.20204276E-02 0.12500024E+03</pdfrwt>
<totfact> 0.99705088E+03</totfact>
</mgrwt>
</event>
<event>
 5    1  0.1787806E-056  0.1250001E+03  0.7818608E-02  0.1235069E+00
          3   -1    0    0  501    0  0.00000000000E+00  0.00000000000E+00  0.15674708345E+03  0.15674711103E+03  0.93000000000E-01 0. -1.
         -3   -1    0    0    0  501 -0.00000000000E+00 -0.00000000000E+00 -0.24920628915E+02  0.24920802445E+02  0.93000000000E-01 0.  1.
         25    2    1    2    0    0  0.00000000000E+00  0.00000000000E+00  0.13182645453E+03  0.18166791348E+03  0.12500006670E+03 0.  0.
        -11    1    3    3    0    0  0.37749458057E+02  0.40549533468E+02  0.23867449583E+02  0.60323638799E+02  0.51100000000E-03 0.  1.
         11    1    3    3    0    0 -0.37749458057E+02 -0.40549533468E+02  0.10795900495E+03  0.12134427468E+03  0.51100000000E-03 0. -1.
<mgrwt>
<rscale>  0 0.12500007E+03</rscale>
<asrwt>0</asrwt>
<pdfrwt beam="1">  1        3 0.24114951E-01 0.12500007E+03</pdfrwt>
<pdfrwt beam="2">  1       -3 0.38339584E-02 0.12500007E+03</pdfrwt>
<totfact> 0.12357057E+04</totfact>
</mgrwt>
</event>
<event>
 5    1  0.1787806E-056  0.1250043E+03  0.7818608E-02  0.1235062E+00
         -3   -1    0    0    0  501 -0.00000000000E+00  0.00000000000E+00  0.30172008943E+02  0.30172152271E+02  0.93000000000E-01 0.  1.
          3   -1    0    0  501    0  0.00000000000E+00 -0.00000000000E+00 -0.12947455052E+03  0.12947458392E+03  0.93000000000E-01 0. -1.
         25    2    1    2    0    0  0.00000000000E+00  0.00000000000E+00 -0.99302541580E+02  0.15964673619E+03  0.12500434238E+03 0.  0.
        -11    1    3    3    0    0  0.21555311963E+02  0.55703799249E+02 -0.26137631345E+02  0.65197549779E+02  0.51100000000E-03 0. -1.
         11    1    3    3    0    0 -0.21555311963E+02 -0.55703799249E+02 -0.73164910234E+02  0.94449186415E+02  0.51100000000E-03 0.  1.
<mgrwt>
<rscale>  0 0.12500434E+03</rscale>
<asrwt>0</asrwt>
<pdfrwt beam="2">  1        3 0.19919175E-01 0.12500434E+03</pdfrwt>
<pdfrwt beam="1">  1       -3 0.46418612E-02 0.12500434E+03</pdfrwt>
<totfact> 0.12861441E+04</totfact>
</mgrwt>
</event>
<event>
 5    1  0.1787806E-056  0.1249990E+03  0.7818608E-02  0.1235071E+00
          3   -1    0    0  501    0  0.00000000000E+00  0.00000000000E+00  0.47783131926E+02  0.47783222429E+02  0.93000000000E-01 0. -1.
         -3   -1    0    0    0  501 -0.00000000000E+00 -0.00000000000E+00 -0.81748006884E+02  0.81748059785E+02  0.93000000000E-01 0.  1.
         25    2    1    2    0    0  0.00000000000E+00  0.00000000000E+00 -0.33964874958E+02  0.12953128221E+03  0.12499896136E+03 0.  0.
        -11    1    3    3    0    0  0.53657001219E+02  0.19147699937E+02 -0.43614026129E+02  0.71748808130E+02  0.51100000000E-03 0.  1.
         11    1    3    3    0    0 -0.53657001219E+02 -0.19147699937E+02  0.96491511708E+01  0.57782474084E+02  0.51100000000E-03 0. -1.
<mgrwt>
<rscale>  0 0.12499896E+03</rscale>
<asrwt>0</asrwt>
<pdfrwt beam="1">  1        3 0.73512621E-02 0.12499896E+03</pdfrwt>
<pdfrwt beam="2">  1       -3 0.12576627E-01 0.12499896E+03</pdfrwt>
<totfact> 0.13616529E+04</totfact>
</mgrwt>
</event>
<event>
 5    1  0.1787806E-056  0.1250000E+03  0.7818608E-02  0.1235069E+00
         -3   -1    0    0    0  501 -0.00000000000E+00  0.00000000000E+00  0.19729479295E+02  0.19729698483E+02  0.93000000000E-01 0.  1.
          3   -1    0    0  501    0  0.00000000000E+00 -0.00000000000E+00 -0.19798913163E+03  0.19798915348E+03  0.93000000000E-01 0. -1.
         25    2    1    2    0    0  0.00000000000E+00  0.00000000000E+00 -0.17825965234E+03  0.21771885196E+03  0.12499997939E+03 0.  0.
        -11    1    3    3    0    0  0.38276749915E+02 -0.31180200538E+02 -0.15588535929E+03  0.16351623690E+03  0.51100000000E-03 0. -1.
         11    1    3    3    0    0 -0.38276749915E+02  0.31180200538E+02 -0.22374293055E+02  0.54202615062E+02  0.51100000000E-03 0.  1.
<mgrwt>
<rscale>  0 0.12499998E+03</rscale>
<asrwt>0</asrwt>
<pdfrwt beam="2">  1        3 0.30459884E-01 0.12499998E+03</pdfrwt>
<pdfrwt beam="1">  1       -3 0.30353232E-02 0.12499998E+03</pdfrwt>
<totfact> 0.11600311E+04</totfact>
</mgrwt>
</event>
<event>
 5    1  0.1787806E-056  0.1249953E+03  0.7818608E-02  0.1235077E+00
         -3   -1    0    0    0  501 -0.00000000000E+00  0.00000000000E+00  0.96530466549E+02  0.96530511348E+02  0.93000000000E-01 0.  1.
          3   -1    0    0  501    0  0.00000000000E+00 -0.00000000000E+00 -0.40463331680E+02  0.40463438555E+02  0.93000000000E-01 0. -1.
         25    2    1    2    0    0  0.00000000000E+00  0.00000000000E+00  0.56067134869E+02  0.13699394990E+03  0.12499527470E+03 0.  0.
        -11    1    3    3    0    0  0.43850228108E+02 -0.42264769092E+02  0.43408809191E+02  0.74789557608E+02  0.51100000000E-03 0.  1.
         11    1    3    3    0    0 -0.43850228108E+02  0.42264769092E+02  0.12658325677E+02  0.62204392295E+02  0.51100000000E-03 0. -1.
<mgrwt>
<rscale>  0 0.12499527E+03</rscale>
<asrwt>0</asrwt>
<pdfrwt beam="2">  1        3 0.62251396E-02 0.12499527E+03</pdfrwt>
<pdfrwt beam="1">  1       -3 0.14850853E-01 0.12499527E+03</pdfrwt>
<totfact> 0.13423706E+04</totfact>
</mgrwt>
</event>
<event>
 5    1  0.1787806E-056  0.1250013E+03  0.7818608E-02  0.1235067E+00
         -3   -1    0    0    0  501 -0.00000000000E+00  0.00000000000E+00  0.27123866794E+03  0.27123868389E+03  0.93000000000E-01 0.  1.
          3   -1    0    0  501    0  0.00000000000E+00 -0.00000000000E+00 -0.14401664731E+02  0.14401965006E+02  0.93000000000E-01 0. -1.
         25    2    1    2    0    0  0.00000000000E+00  0.00000000000E+00  0.25683700321E+03  0.28564064889E+03  0.12500133632E+03 0.  0.
        -11    1    3    3    0    0 -0.52758882717E+02 -0.32847167181E+02  0.14355846644E+03  0.15643359416E+03  0.51100000000E-03 0.  1.
         11    1    3    3    0    0  0.52758882717E+02  0.32847167181E+02  0.11327853678E+03  0.12920705473E+03  0.51100000000E-03 0. -1.
<mgrwt>
<rscale>  0 0.12500134E+03</rscale>
<asrwt>0</asrwt>
<pdfrwt beam="2">  1        3 0.22156652E-02 0.12500134E+03</pdfrwt>
<pdfrwt beam="1">  1       -3 0.41729047E-01 0.12500134E+03</pdfrwt>
<totfact> 0.10366191E+04</totfact>
</mgrwt>
</event>
<event>
 5    1  0.1787806E-056  0.1249991E+03  0.7818608E-02  0.1235071E+00
          3   -1    0    0  501    0  0.00000000000E+00  0.00000000000E+00  0.76198464042E+02  0.76198520795E+02  0.93000000000E-01 0. -1.
         -3   -1    0    0    0  501 -0.00000000000E+00 -0.00000000000E+00 -0.51263305330E+02  0.51263389689E+02  0.93000000000E-01 0.  1.
         25    2    1    2    0    0  0.00000000000E+00  0.00000000000E+00  0.24935158711E+02  0.12746191048E+03  0.12499910593E+03 0.  0.
        -11    1    3    3    0    0  0.60729360390E+02  0.13945613799E+02  0.17427440698E+02  0.64701244557E+02  0.51100000000E-03 0. -1.
         11    1    3    3    0    0 -0.60729360390E+02 -0.13945613799E+02  0.75077180133E+01  0.62760665927E+02  0.51100000000E-03 0.  1.
<mgrwt>
<rscale>  0 0.12499911E+03</rscale>
<asrwt>0</asrwt>
<pdfrwt beam="1">  1        3 0.11722852E-01 0.12499911E+03</pdfrwt>
<pdfrwt beam="2">  1       -3 0.78866732E-02 0.12499911E+03</pdfrwt>
<totfact> 0.13670880E+04</totfact>
</mgrwt>
</event>
<event>
 5    1  0.1787806E-056  0.1249985E+03  0.7818608E-02  0.1235072E+00
          3   -1    0    0  501    0  0.00000000000E+00  0.00000000000E+00  0.19025705681E+02  0.19025932977E+02  0.93000000000E-01 0. -1.
         -3   -1    0    0    0  501 -0.00000000000E+00 -0.00000000000E+00 -0.20530799042E+03  0.20530801148E+03  0.93000000000E-01 0.  1.
         25    2    1    2    0    0  0.00000000000E+00  0.00000000000E+00 -0.18628228473E+03  0.22433394446E+03  0.12499851611E+03 0.  0.
        -11    1    3    3    0    0 -0.53948386989E+02 -0.21231415074E+02 -0.13503697053E+03  0.14695640461E+03  0.51100000000E-03 0.  1.
         11    1    3    3    0    0  0.53948386989E+02  0.21231415074E+02 -0.51245314202E+02  0.77377539846E+02  0.51100000000E-03 0. -1.
<mgrwt>
<rscale>  0 0.12499852E+03</rscale>
<asrwt>0</asrwt>
<pdfrwt beam="1">  1        3 0.29270509E-02 0.12499852E+03</pdfrwt>
<pdfrwt beam="2">  1       -3 0.31585862E-01 0.12499852E+03</pdfrwt>
<totfact> 0.11469039E+04</totfact>
</mgrwt>
</event>
<event>
 5    1  0.1787806E-056  0.1249910E+03  0.7818608E-02  0.1235083E+00
         -3   -1    0    0    0  501 -0.00000000000E+00  0.00000000000E+00  0.35298291215E+02  0.35298413727E+02  0.93000000000E-01 0.  1.
          3   -1    0    0  501    0  0.00000000000E+00 -0.00000000000E+00 -0.11064779082E+03  0.11064782990E+03  0.93000000000E-01 0. -1.
         25    2    1    2    0    0  0.00000000000E+00  0.00000000000E+00 -0.75349499605E+02  0.14594624363E+03  0.12499103544E+03 0.  0.
        -11    1    3    3    0    0 -0.40347308437E+01 -0.61583449832E+02 -0.49168246171E+02  0.78907013491E+02  0.51100000000E-03 0.  1.
         11    1    3    3    0    0  0.40347308437E+01  0.61583449832E+02 -0.26181253434E+02  0.67039230140E+02  0.51100000000E-03 0. -1.
<mgrwt>
<rscale>  0 0.12499104E+03</rscale>
<asrwt>0</asrwt>
<pdfrwt beam="2">  1        3 0.17022749E-01 0.12499104E+03</pdfrwt>
<pdfrwt beam="1">  1       -3 0.54305188E-02 0.12499104E+03</pdfrwt>
<totfact> 0.13198406E+04</totfact>
</mgrwt>
</event>
<event>
 5    1  0.1787806E-056  0.1250036E+03  0.7818608E-02  0.1235064E+00
          3   -1    0    0  501    0  0.00000000000E+00  0.00000000000E+00  0.14577686910E+03  0.14577689876E+03  0.93000000000E-01 0. -1.
         -3   -1    0    0    0  501 -0.00000000000E+00 -0.00000000000E+00 -0.26797536049E+02  0.26797697425E+02  0.93000000000E-01 0.  1.
         25    2    1    2    0    0  0.00000000000E+00  0.00000000000E+00  0.11897933305E+03  0.17257459619E+03  0.12500363817E+03 0.  0.
        -11    1    3    3    0    0  0.59657416059E+02 -0.41012101692E+01  0.34385917178E+02  0.68979841375E+02  0.51100000000E-03 0.  1.
         11    1    3    3    0    0 -0.59657416059E+02  0.41012101692E+01  0.84593415870E+02  0.10359475481E+03  0.51100000000E-03 0. -1.
<mgrwt>
<rscale>  0 0.12500364E+03</rscale>
<asrwt>0</asrwt>
<pdfrwt beam="1">  1        3 0.22427225E-01 0.12500364E+03</pdfrwt>
<pdfrwt beam="2">  1       -3 0.41227125E-02 0.12500364E+03</pdfrwt>
<totfact> 0.12560567E+04</totfact>
</mgrwt>
</event>
<event>
 5    1  0.1787806E-056  0.1249995E+03  0.7818608E-02  0.1235070E+00
         -3   -1    0    0    0  501 -0.00000000000E+00  0.00000000000E+00  0.47355118222E+03  0.47355119135E+03  0.93000000000E-01 0.  1.
          3   -1    0    0  501    0  0.00000000000E+00 -0.00000000000E+00 -0.82485029170E+01  0.82490271773E+01  0.93000000000E-01 0. -1.
         25    2    1    2    0    0  0.00000000000E+00  0.00000000000E+00  0.46530267930E+03  0.48180021853E+03  0.12499946883E+03 0.  0.
        -11    1    3    3    0    0 -0.30694580775E+02 -0.52823500436E+02  0.28345621349E+03  0.28996535044E+03  0.51100000000E-03 0.  1.
         11    1    3    3    0    0  0.30694580775E+02  0.52823500436E+02  0.18184646581E+03  0.19183486809E+03  0.51100000000E-03 0. -1.
<mgrwt>
<rscale>  0 0.12499947E+03</rscale>
<asrwt>0</asrwt>
<pdfrwt beam="2">  1        3 0.12690412E-02 0.12499947E+03</pdfrwt>
<pdfrwt beam="1">  1       -3 0.72854083E-01 0.12499947E+03</pdfrwt>
<totfact> 0.77777148E+03</totfact>
</mgrwt>
</event>
<event>
 5    1  0.1787806E-056  0.1250045E+03  0.7818608E-02  0.1235062E+00
          3   -1    0    0  501    0  0.00000000000E+00  0.00000000000E+00  0.50042300880E+03  0.50042301744E+03  0.93000000000E-01 0. -1.
         -3   -1    0    0    0  501 -0.00000000000E+00 -0.00000000000E+00 -0.78061686836E+01  0.78067226489E+01  0.93000000000E-01 0.  1.
         25    2    1    2    0    0  0.00000000000E+00  0.00000000000E+00  0.49261684012E+03  0.50822974009E+03  0.12500447011E+03 0.  0.
        -11    1    3    3    0    0  0.31186633835E+02  0.51865461228E+02  0.18281365389E+03  0.19257067338E+03  0.51100000000E-03 0.  1.
         11    1    3    3    0    0 -0.31186633835E+02 -0.51865461228E+02  0.30980318623E+03  0.31565906671E+03  0.51100000000E-03 0. -1.
<mgrwt>
<rscale>  0 0.12500447E+03</rscale>
<asrwt>0</asrwt>
<pdfrwt beam="1">  1        3 0.76988207E-01 0.12500447E+03</pdfrwt>
<pdfrwt beam="2">  1       -3 0.12009922E-02 0.12500447E+03</pdfrwt>
<totfact> 0.75153547E+03</totfact>
</mgrwt>
</event>
<event>
 5    1  0.1787806E-056  0.1249993E+03  0.7818608E-02  0.1235070E+00
          3   -1    0    0  501    0  0.00000000000E+00  0.00000000000E+00  0.17278398827E+03  0.17278401330E+03  0.93000000000E-01 0. -1.
         -3   -1    0    0    0  501 -0.00000000000E+00 -0.00000000000E+00 -0.22607344339E+02  0.22607535626E+02  0.93000000000E-01 0.  1.
         25    2    1    2    0    0  0.00000000000E+00  0.00000000000E+00  0.15017664394E+03  0.19539154893E+03  0.12499933203E+03 0.  0.
        -11    1    3    3    0    0 -0.53071845926E+02 -0.29542202460E+02  0.52070009217E+02  0.80004052500E+02  0.51100000000E-03 0.  1.
         11    1    3    3    0    0  0.53071845926E+02  0.29542202460E+02  0.98106634719E+02  0.11538749643E+03  0.51100000000E-03 0. -1.
<mgrwt>
<rscale>  0 0.12499933E+03</rscale>
<asrwt>0</asrwt>
<pdfrwt beam="1">  1        3 0.26582168E-01 0.12499933E+03</pdfrwt>
<pdfrwt beam="2">  1       -3 0.34780697E-02 0.12499933E+03</pdfrwt>
<totfact> 0.12059624E+04</totfact>
</mgrwt>
</event>
<event>
 5    1  0.1787806E-056  0.1250057E+03  0.7818608E-02  0.1235060E+00
          3   -1    0    0  501    0  0.00000000000E+00  0.00000000000E+00  0.44660182895E+03  0.44660183864E+03  0.93000000000E-01 0. -1.
         -3   -1    0    0    0  501 -0.00000000000E+00 -0.00000000000E+00 -0.87471419460E+01  0.87476363221E+01  0.93000000000E-01 0.  1.
         25    2    1    2    0    0  0.00000000000E+00  0.00000000000E+00  0.43785468701E+03  0.45534947496E+03  0.12500566951E+03 0.  0.
        -11    1    3    3    0    0 -0.51266626272E+02 -0.35677301099E+02  0.22744484622E+03  0.23586499286E+03  0.51100000000E-03 0. -1.
         11    1    3    3    0    0  0.51266626272E+02  0.35677301099E+02  0.21040984078E+03  0.21948448210E+03  0.51100000000E-03 0.  1.
<mgrwt>
<rscale>  0 0.12500567E+03</rscale>
<asrwt>0</asrwt>
<pdfrwt beam="1">  1        3 0.68708032E-01 0.12500567E+03</pdfrwt>
<pdfrwt beam="2">  1       -3 0.13457525E-02 0.12500567E+03</pdfrwt>
<totfact> 0.80706176E+03</totfact>
</mgrwt>
</event>
<event>
 5    1  0.1787806E-056  0.1250062E+03  0.7818608E-02  0.1235060E+00
          3   -1    0    0  501    0  0.00000000000E+00  0.00000000000E+00  0.17035986946E+03  0.17035989484E+03  0.93000000000E-01 0. -1.
         -3   -1    0    0    0  501 -0.00000000000E+00 -0.00000000000E+00 -0.22931573254E+02  0.22931761836E+02  0.93000000000E-01 0.  1.
         25    2    1    2    0    0  0.00000000000E+00  0.00000000000E+00  0.14742829620E+03  0.19329165668E+03  0.12500624792E+03 0.  0.
        -11    1    3    3    0    0 -0.30589385828E+02 -0.53439448811E+02  0.90307087811E+02  0.10930167118E+03  0.51100000000E-03 0.  1.
         11    1    3    3    0    0  0.30589385828E+02  0.53439448811E+02  0.57121208394E+02  0.83989985494E+02  0.51100000000E-03 0. -1.
<mgrwt>
<rscale>  0 0.12500625E+03</rscale>
<asrwt>0</asrwt>
<pdfrwt beam="1">  1        3 0.26209227E-01 0.12500625E+03</pdfrwt>
<pdfrwt beam="2">  1       -3 0.35279508E-02 0.12500625E+03</pdfrwt>
<totfact> 0.12102465E+04</totfact>
</mgrwt>
</event>
<event>
 5    1  0.1787806E-056  0.1249967E+03  0.7818608E-02  0.1235074E+00
         -3   -1    0    0    0  501 -0.00000000000E+00  0.00000000000E+00  0.17576713601E+03  0.17576716062E+03  0.93000000000E-01 0.  1.
          3   -1    0    0  501    0  0.00000000000E+00 -0.00000000000E+00 -0.22222712569E+02  0.22222907166E+02  0.93000000000E-01 0. -1.
         25    2    1    2    0    0  0.00000000000E+00  0.00000000000E+00  0.15354442345E+03  0.19799006778E+03  0.12499670784E+03 0.  0.
        -11    1    3    3    0    0 -0.53923728771E+02  0.15768150135E+02  0.33403997322E+02  0.65362298924E+02  0.51100000000E-03 0. -1.
         11    1    3    3    0    0  0.53923728771E+02 -0.15768150135E+02  0.12014042612E+03  0.13262776886E+03  0.51100000000E-03 0.  1.
<mgrwt>
<rscale>  0 0.12499671E+03</rscale>
<asrwt>0</asrwt>
<pdfrwt beam="2">  1        3 0.34188958E-02 0.12499671E+03</pdfrwt>
<pdfrwt beam="1">  1       -3 0.27041114E-01 0.12499671E+03</pdfrwt>
<totfact> 0.12004715E+04</totfact>
</mgrwt>
</event>
<event>
 5    1  0.1787806E-056  0.1250003E+03  0.7818608E-02  0.1235069E+00
         -3   -1    0    0    0  501 -0.00000000000E+00  0.00000000000E+00  0.90392031392E+02  0.90392079234E+02  0.93000000000E-01 0.  1.
          3   -1    0    0  501    0  0.00000000000E+00 -0.00000000000E+00 -0.43214637951E+02  0.43214738021E+02  0.93000000000E-01 0. -1.
         25    2    1    2    0    0  0.00000000000E+00  0.00000000000E+00  0.47177393442E+02  0.13360681725E+03  0.12500030066E+03 0.  0.
        -11    1    3    3    0    0 -0.24102240293E+02 -0.16190911296E+02  0.82745623725E+02  0.87692085399E+02  0.51100000000E-03 0.  1.
         11    1    3    3    0    0  0.24102240293E+02  0.16190911296E+02 -0.35568230283E+02  0.45914731856E+02  0.51100000000E-03 0. -1.
<mgrwt>
<rscale>  0 0.12500030E+03</rscale>
<asrwt>0</asrwt>
<pdfrwt beam="2">  1        3 0.66484173E-02 0.12500030E+03</pdfrwt>
<pdfrwt beam="1">  1       -3 0.13906478E-01 0.12500030E+03</pdfrwt>
<totfact> 0.13509568E+04</totfact>
</mgrwt>
</event>
<event>
 5    1  0.1787806E-056  0.1249979E+03  0.7818608E-02  0.1235073E+00
          3   -1    0    0  501    0  0.00000000000E+00  0.00000000000E+00  0.10127038144E+02  0.10127465160E+02  0.93000000000E-01 0. -1.
         -3   -1    0    0    0  501 -0.00000000000E+00 -0.00000000000E+00 -0.38570317957E+03  0.38570319078E+03  0.93000000000E-01 0.  1.
         25    2    1    2    0    0  0.00000000000E+00  0.00000000000E+00 -0.37557614142E+03  0.39583065594E+03  0.12499788068E+03 0.  0.
        -11    1    3    3    0    0  0.31116120272E+02 -0.52957418122E+02 -0.22436535829E+03  0.23262096869E+03  0.51100000000E-03 0.  1.
         11    1    3    3    0    0 -0.31116120272E+02  0.52957418122E+02 -0.15121078314E+03  0.16320968725E+03  0.51100000000E-03 0. -1.
<mgrwt>
<rscale>  0 0.12499788E+03</rscale>
<asrwt>0</asrwt>
<pdfrwt beam="1">  1        3 0.15580399E-02 0.12499788E+03</pdfrwt>
<pdfrwt beam="2">  1       -3 0.59338973E-01 0.12499788E+03</pdfrwt>
<totfact> 0.87711796E+03</totfact>
</mgrwt>
</event>
<event>
 5    1  0.1787806E-056  0.1250026E+03  0.7818608E-02  0.1235065E+00
         -3   -1    0    0    0  501 -0.00000000000E+00  0.00000000000E+00  0.48100281615E+03  0.48100282514E+03  0.93000000000E-01 0.  1.
          3   -1    0    0  501    0  0.00000000000E+00 -0.00000000000E+00 -0.81211223367E+01  0.81216548195E+01  0.93000000000E-01 0. -1.
         25    2    1    2    0    0  0.00000000000E+00  0.00000000000E+00  0.47288169382E+03  0.48912447996E+03  0.12500264218E+03 0.  0.
        -11    1    3    3    0    0  0.16793922309E+02 -0.56558135894E+02  0.31716042052E+03  0.32260128783E+03  0.51100000000E-03 0.  1.
         11    1    3    3    0    0 -0.16793922309E+02  0.56558135894E+02  0.15572127330E+03  0.16652319214E+03  0.51100000000E-03 0. -1.
<mgrwt>
<rscale>  0 0.12500264E+03</rscale>
<asrwt>0</asrwt>
<pdfrwt beam="2">  1        3 0.12494450E-02 0.12500264E+03</pdfrwt>
<pdfrwt beam="1">  1       -3 0.74000480E-01 0.12500264E+03</pdfrwt>
<totfact> 0.77006813E+03</totfact>
</mgrwt>
</event>
<event>
 5    1  0.1787806E-056  0.1250008E+03  0.7818608E-02  0.1235068E+00
          3   -1    0    0  501    0  0.00000000000E+00  0.00000000000E+00  0.10484217090E+02  0.10484629559E+02  0.93000000000E-01 0. -1.
         -3   -1    0    0    0  501 -0.00000000000E+00 -0.00000000000E+00 -0.37258071104E+03  0.37258072265E+03  0.93000000000E-01 0.  1.
         25    2    1    2    0    0  0.00000000000E+00  0.00000000000E+00 -0.36209649395E+03  0.38306535221E+03  0.12500077252E+03 0.  0.
        -11    1    3    3    0    0 -0.43848028102E+02  0.36916769012E+02 -0.25740304578E+03  0.26370784095E+03  0.51100000000E-03 0.  1.
         11    1    3    3    0    0  0.43848028102E+02 -0.36916769012E+02 -0.10469344817E+03  0.11935751126E+03  0.51100000000E-03 0. -1.
<mgrwt>
<rscale>  0 0.12500077E+03</rscale>
<asrwt>0</asrwt>
<pdfrwt beam="1">  1        3 0.16129894E-02 0.12500077E+03</pdfrwt>
<pdfrwt beam="2">  1       -3 0.57320132E-01 0.12500077E+03</pdfrwt>
<totfact> 0.89348220E+03</totfact>
</mgrwt>
</event>
<event>
 5    1  0.1787806E-056  0.1249941E+03  0.7818608E-02  0.1235078E+00
         -3   -1    0    0    0  501 -0.00000000000E+00  0.00000000000E+00  0.51414481504E+02  0.51414565615E+02  0.93000000000E-01 0.  1.
          3   -1    0    0  501    0  0.00000000000E+00 -0.00000000000E+00 -0.75968340336E+02  0.75968397261E+02  0.93000000000E-01 0. -1.
         25    2    1    2    0    0  0.00000000000E+00  0.00000000000E+00 -0.24553858832E+02  0.12738296288E+03  0.12499410885E+03 0.  0.
        -11    1    3    3    0    0  0.50970239260E+02 -0.36163180053E+02 -0.11894348514E+02  0.63617736588E+02  0.51100000000E-03 0.  1.
         11    1    3    3    0    0 -0.50970239260E+02  0.36163180053E+02 -0.12659510318E+02  0.63765226288E+02  0.51100000000E-03 0. -1.
<mgrwt>
<rscale>  0 0.12499411E+03</rscale>
<asrwt>0</asrwt>
<pdfrwt beam="2">  1        3 0.11687448E-01 0.12499411E+03</pdfrwt>
<pdfrwt beam="1">  1       -3 0.79099311E-02 0.12499411E+03</pdfrwt>
<totfact> 0.13674516E+04</totfact>
</mgrwt>
</event>
<event>
 5    1  0.1787806E-056  0.1249970E+03  0.7818608E-02  0.1235074E+00
         -3   -1    0    0    0  501 -0.00000000000E+00  0.00000000000E+00  0.79417290380E+02  0.79417344833E+02  0.93000000000E-01 0.  1.
          3   -1    0    0  501    0  0.00000000000E+00 -0.00000000000E+00 -0.49183891272E+02  0.49183979197E+02  0.93000000000E-01 0. -1.
         25    2    1    2    0    0  0.00000000000E+00  0.00000000000E+00  0.30233399108E+02  0.12860132403E+03  0.12499696845E+03 0.  0.
        -11    1    3    3    0    0  0.27169508115E+02 -0.35178672355E+02  0.60319234846E+02  0.74927506649E+02  0.51100000000E-03 0.  1.
         11    1    3    3    0    0 -0.27169508115E+02  0.35178672355E+02 -0.30085835738E+02  0.53673817381E+02  0.51100000000E-03 0. -1.
<mgrwt>
<rscale>  0 0.12499697E+03</rscale>
<asrwt>0</asrwt>
<pdfrwt beam="2">  1        3 0.75667634E-02 0.12499697E+03</pdfrwt>
<pdfrwt beam="1">  1       -3 0.12218056E-01 0.12499697E+03</pdfrwt>
<totfact> 0.13641576E+04</totfact>
</mgrwt>
</event>
<event>
 5    1  0.1787806E-056  0.1250059E+03  0.7818608E-02  0.1235060E+00
          3   -1    0    0  501    0  0.00000000000E+00  0.00000000000E+00  0.23585800375E+03  0.23585802209E+03  0.93000000000E-01 0.  1.
         -3   -1    0    0    0  501 -0.00000000000E+00 -0.00000000000E+00 -0.16563290204E+02  0.16563551291E+02  0.93000000000E-01 0. -1.
         25    2    1    2    0    0  0.00000000000E+00  0.00000000000E+00  0.21929471355E+03  0.25242157338E+03  0.12500591713E+03 0.  0.
        -11    1    3    3    0    0 -0.42692581210E+00  0.62457116064E+02  0.11440283605E+03  0.13034217471E+03  0.51100000000E-03 0. -1.
         11    1    3    3    0    0  0.42692581210E+00 -0.62457116064E+02  0.10489187750E+03  0.12207939866E+03  0.51100000000E-03 0.  1.
<mgrwt>
<rscale>  0 0.12500592E+03</rscale>
<asrwt>0</asrwt>
<pdfrwt beam="1">  1        3 0.36285871E-01 0.12500592E+03</pdfrwt>
<pdfrwt beam="2">  1       -3 0.25482198E-02 0.12500592E+03</pdfrwt>
<totfact> 0.10941306E+04</totfact>
</mgrwt>
</event>
<event>
 5    1  0.1787806E-056  0.1250003E+03  0.7818608E-02  0.1235069E+00
          3   -1    0    0  501    0  0.00000000000E+00  0.00000000000E+00  0.30576612034E+02  0.30576753465E+02  0.93000000000E-01 0. -1.
         -3   -1    0    0    0  501 -0.00000000000E+00 -0.00000000000E+00 -0.12775309435E+03  0.12775312820E+03  0.93000000000E-01 0.  1.
         25    2    1    2    0    0  0.00000000000E+00  0.00000000000E+00 -0.97176482312E+02  0.15832988166E+03  0.12500033085E+03 0.  0.
        -11    1    3    3    0    0 -0.24899442983E+02 -0.56926285486E+02 -0.40026829641E+02  0.73910292460E+02  0.51100000000E-03 0.  1.
         11    1    3    3    0    0  0.24899442983E+02  0.56926285486E+02 -0.57149652671E+02  0.84419589201E+02  0.51100000000E-03 0. -1.
<mgrwt>
<rscale>  0 0.12500033E+03</rscale>
<asrwt>0</asrwt>
<pdfrwt beam="1">  1        3 0.47041077E-02 0.12500033E+03</pdfrwt>
<pdfrwt beam="2">  1       -3 0.19654335E-01 0.12500033E+03</pdfrwt>
<totfact> 0.12894032E+04</totfact>
</mgrwt>
</event>
<event>
 5    1  0.1787806E-056  0.1250002E+03  0.7818608E-02  0.1235069E+00
         -3   -1    0    0    0  501 -0.00000000000E+00  0.00000000000E+00  0.23359494591E+02  0.23359679719E+02  0.93000000000E-01 0.  1.
          3   -1    0    0  501    0  0.00000000000E+00 -0.00000000000E+00 -0.16722286972E+03  0.16722289558E+03  0.93000000000E-01 0. -1.
         25    2    1    2    0    0  0.00000000000E+00  0.00000000000E+00 -0.14386337513E+03  0.19058257530E+03  0.12500018922E+03 0.  0.
        -11    1    3    3    0    0  0.57589805581E+02 -0.23100715686E+02 -0.60518822913E+02  0.86676159924E+02  0.51100000000E-03 0. -1.
         11    1    3    3    0    0 -0.57589805581E+02  0.23100715686E+02 -0.83344552217E+02  0.10390641538E+03  0.51100000000E-03 0.  1.
<mgrwt>
<rscale>  0 0.12500019E+03</rscale>
<asrwt>0</asrwt>
<pdfrwt beam="2">  1        3 0.25726611E-01 0.12500019E+03</pdfrwt>
<pdfrwt beam="1">  1       -3 0.35937847E-02 0.12500019E+03</pdfrwt>
<totfact> 0.12162233E+04</totfact>
</mgrwt>
</event>
<event>
 5    1  0.1787806E-056  0.1249998E+03  0.7818608E-02  0.1235070E+00
         -3   -1    0    0    0  501 -0.00000000000E+00  0.00000000000E+00  0.26125335404E+03  0.26125337060E+03  0.93000000000E-01 0.  1.
          3   -1    0    0  501    0  0.00000000000E+00 -0.00000000000E+00 -0.14951759115E+02  0.14952048343E+02  0.93000000000E-01 0. -1.
         25    2    1    2    0    0  0.00000000000E+00  0.00000000000E+00  0.24630159493E+03  0.27620541894E+03  0.12499983115E+03 0.  0.
        -11    1    3    3    0    0 -0.42107455598E+02  0.45146577300E+02  0.10161516804E+03  0.11889866961E+03  0.51100000000E-03 0.  1.
         11    1    3    3    0    0  0.42107455598E+02 -0.45146577300E+02  0.14468642689E+03  0.15730674933E+03  0.51100000000E-03 0. -1.
<mgrwt>
<rscale>  0 0.12499983E+03</rscale>
<asrwt>0</asrwt>
<pdfrwt beam="2">  1        3 0.23002943E-02 0.12499983E+03</pdfrwt>
<pdfrwt beam="1">  1       -3 0.40192845E-01 0.12499983E+03</pdfrwt>
<totfact> 0.10524594E+04</totfact>
</mgrwt>
</event>
<event>
 5    1  0.1787806E-056  0.1249994E+03  0.7818608E-02  0.1235070E+00
          3   -1    0    0  501    0  0.00000000000E+00  0.00000000000E+00  0.94525898185E+01  0.94530473011E+01  0.93000000000E-01 0. -1.
         -3   -1    0    0    0  501 -0.00000000000E+00 -0.00000000000E+00 -0.41323233007E+03  0.41323234054E+03  0.93000000000E-01 0.  1.
         25    2    1    2    0    0  0.00000000000E+00  0.00000000000E+00 -0.40377974026E+03  0.42268538784E+03  0.12499943381E+03 0.  0.
        -11    1    3    3    0    0  0.32538667651E+02 -0.52681699134E+02 -0.17317931625E+03  0.18391629045E+03  0.51100000000E-03 0.  1.
         11    1    3    3    0    0 -0.32538667651E+02  0.52681699134E+02 -0.23060042401E+03  0.23876909739E+03  0.51100000000E-03 0. -1.
<mgrwt>
<rscale>  0 0.12499943E+03</rscale>
<asrwt>0</asrwt>
<pdfrwt beam="1">  1        3 0.14542809E-02 0.12499943E+03</pdfrwt>
<pdfrwt beam="2">  1       -3 0.63574226E-01 0.12499943E+03</pdfrwt>
<totfact> 0.84404740E+03</totfact>
</mgrwt>
</event>
<event>
 5    1  0.1787806E-056  0.1250024E+03  0.7818608E-02  0.1235066E+00
         -3   -1    0    0    0  501 -0.00000000000E+00  0.00000000000E+00  0.39899231578E+03  0.39899232662E+03  0.93000000000E-01 0.  1.
          3   -1    0    0  501    0  0.00000000000E+00 -0.00000000000E+00 -0.97904280484E+01  0.97908697454E+01  0.93000000000E-01 0. -1.
         25    2    1    2    0    0  0.00000000000E+00  0.00000000000E+00  0.38920188773E+03  0.40878319637E+03  0.12500236884E+03 0.  0.
        -11    1    3    3    0    0  0.22093992434E+02  0.57692145290E+02  0.16359949588E+03  0.17487516456E+03  0.51100000000E-03 0.  1.
         11    1    3    3    0    0 -0.22093992434E+02 -0.57692145290E+02  0.22560239186E+03  0.23390803180E+03  0.51100000000E-03 0. -1.
<mgrwt>
<rscale>  0 0.12500237E+03</rscale>
<asrwt>0</asrwt>
<pdfrwt beam="2">  1        3 0.15062545E-02 0.12500237E+03</pdfrwt>
<pdfrwt beam="1">  1       -3 0.61383470E-01 0.12500237E+03</pdfrwt>
<totfact> 0.86084807E+03</totfact>
</mgrwt>
</event>
<event>
 5    1  0.1787806E-056  0.1250075E+03  0.7818608E-02  0.1235058E+00
         -3   -1    0    0    0  501 -0.00000000000E+00  0.00000000000E+00  0.10728508221E+03  0.10728512252E+03  0.93000000000E-01 0.  1.
          3   -1    0    0  501    0  0.00000000000E+00 -0.00000000000E+00 -0.36414279210E+02  0.36414397968E+02  0.93000000000E-01 0. -1.
         25    2    1    2    0    0  0.00000000000E+00  0.00000000000E+00  0.70870802999E+02  0.14369952049E+03  0.12500752565E+03 0.  0.
        -11    1    3    3    0    0  0.44636291138E+02  0.23484570395E+02 -0.70006255829E+01  0.50920843394E+02  0.51100000000E-03 0. -1.
         11    1    3    3    0    0 -0.44636291138E+02 -0.23484570395E+02  0.77871428582E+02  0.92778677091E+02  0.51100000000E-03 0.  1.
<mgrwt>
<rscale>  0 0.12500753E+03</rscale>
<asrwt>0</asrwt>
<pdfrwt beam="2">  1        3 0.56022091E-02 0.12500753E+03</pdfrwt>
<pdfrwt beam="1">  1       -3 0.16505409E-01 0.12500753E+03</pdfrwt>
<totfact> 0.13249771E+04</totfact>
</mgrwt>
</event>
<event>
 5    1  0.1787806E-056  0.1250003E+03  0.7818608E-02  0.1235069E+00
          3   -1    0    0  501    0  0.00000000000E+00  0.00000000000E+00  0.10542812485E+03  0.10542816586E+03  0.93000000000E-01 0. -1.
         -3   -1    0    0    0  501 -0.00000000000E+00 -0.00000000000E+00 -0.37051379506E+02  0.37051496222E+02  0.93000000000E-01 0.  1.
         25    2    1    2    0    0  0.00000000000E+00  0.00000000000E+00  0.68376745339E+02  0.14247966209E+03  0.12500029922E+03 0.  0.
        -11    1    3    3    0    0 -0.34766779875E+02  0.16309897501E+02 -0.22017457736E+02  0.44266354998E+02  0.51100000000E-03 0.  1.
         11    1    3    3    0    0  0.34766779875E+02 -0.16309897501E+02  0.90394203075E+02  0.98213307088E+02  0.51100000000E-03 0. -1.
<mgrwt>
<rscale>  0 0.12500030E+03</rscale>
<asrwt>0</asrwt>
<pdfrwt beam="1">  1        3 0.16219723E-01 0.12500030E+03</pdfrwt>
<pdfrwt beam="2">  1       -3 0.57002245E-02 0.12500030E+03</pdfrwt>
<totfact> 0.13282412E+04</totfact>
</mgrwt>
</event>
<event>
 5    1  0.1787806E-056  0.1249991E+03  0.7818608E-02  0.1235071E+00
          3   -1    0    0  501    0  0.00000000000E+00  0.00000000000E+00  0.85350748536E+02  0.85350799204E+02  0.93000000000E-01 0.  1.
         -3   -1    0    0    0  501 -0.00000000000E+00 -0.00000000000E+00 -0.45766263080E+02  0.45766357571E+02  0.93000000000E-01 0. -1.
         25    2    1    2    0    0  0.00000000000E+00  0.00000000000E+00  0.39584485456E+02  0.13111715677E+03  0.12499910924E+03 0.  0.
        -11    1    3    3    0    0 -0.26064543260E+02  0.23813485873E+01 -0.39740920932E+02  0.47585418283E+02  0.51100000000E-03 0. -1.
         11    1    3    3    0    0  0.26064543260E+02 -0.23813485873E+01  0.79325406388E+02  0.83531738491E+02  0.51100000000E-03 0.  1.
<mgrwt>
<rscale>  0 0.12499911E+03</rscale>
<asrwt>0</asrwt>
<pdfrwt beam="1">  1        3 0.13130896E-01 0.12499911E+03</pdfrwt>
<pdfrwt beam="2">  1       -3 0.70409747E-02 0.12499911E+03</pdfrwt>
<totfact> 0.13574741E+04</totfact>
</mgrwt>
</event>
<event>
 5    1  0.1787806E-056  0.1249688E+03  0.7818608E-02  0.1235118E+00
          3   -1    0    0  501    0  0.00000000000E+00  0.00000000000E+00  0.45952525701E+02  0.45952619809E+02  0.93000000000E-01 0. -1.
         -3   -1    0    0    0  501 -0.00000000000E+00 -0.00000000000E+00 -0.84963560551E+02  0.84963611450E+02  0.93000000000E-01 0.  1.
         25    2    1    2    0    0  0.00000000000E+00  0.00000000000E+00 -0.39011034850E+02  0.13091623126E+03  0.12496879117E+03 0.  0.
        -11    1    3    3    0    0 -0.23699876851E+02 -0.52509380199E+02 -0.44851612448E+02  0.73010864336E+02  0.51100000000E-03 0.  1.
         11    1    3    3    0    0  0.23699876851E+02  0.52509380199E+02  0.58405775979E+01  0.57905366923E+02  0.51100000000E-03 0. -1.
<mgrwt>
<rscale>  0 0.12496879E+03</rscale>
<asrwt>0</asrwt>
<pdfrwt beam="1">  1        3 0.70696305E-02 0.12496879E+03</pdfrwt>
<pdfrwt beam="2">  1       -3 0.13071328E-01 0.12496879E+03</pdfrwt>
<totfact> 0.13589482E+04</totfact>
</mgrwt>
</event>
<event>
 5    1  0.1787806E-056  0.1249922E+03  0.7818608E-02  0.1235082E+00
         -3   -1    0    0    0  501 -0.00000000000E+00  0.00000000000E+00  0.23263308101E+03  0.23263309960E+03  0.93000000000E-01 0.  1.
          3   -1    0    0  501    0  0.00000000000E+00 -0.00000000000E+00 -0.16789210145E+02  0.16789467719E+02  0.93000000000E-01 0. -1.
         25    2    1    2    0    0  0.00000000000E+00  0.00000000000E+00  0.21584387086E+03  0.24942256732E+03  0.12499216174E+03 0.  0.
        -11    1    3    3    0    0 -0.57102609590E+01  0.61997997311E+02  0.97101698413E+02  0.11534772900E+03  0.51100000000E-03 0. -1.
         11    1    3    3    0    0  0.57102609590E+01 -0.61997997311E+02  0.11874217245E+03  0.13407483831E+03  0.51100000000E-03 0.  1.
<mgrwt>
<rscale>  0 0.12499216E+03</rscale>
<asrwt>0</asrwt>
<pdfrwt beam="2">  1        3 0.25829768E-02 0.12499216E+03</pdfrwt>
<pdfrwt beam="1">  1       -3 0.35789724E-01 0.12499216E+03</pdfrwt>
<totfact> 0.10997050E+04</totfact>
</mgrwt>
</event>
<event>
 5    1  0.1787806E-056  0.1249948E+03  0.7818608E-02  0.1235077E+00
          3   -1    0    0  501    0  0.00000000000E+00  0.00000000000E+00  0.33017519671E+03  0.33017520981E+03  0.93000000000E-01 0. -1.
         -3   -1    0    0    0  501 -0.00000000000E+00 -0.00000000000E+00 -0.11829651978E+02  0.11830017536E+02  0.93000000000E-01 0.  1.
         25    2    1    2    0    0  0.00000000000E+00  0.00000000000E+00  0.31834554474E+03  0.34200522735E+03  0.12499475861E+03 0.  0.
        -11    1    3    3    0    0  0.61585455819E+02 -0.10636938221E+02  0.15890473318E+03  0.17075311725E+03  0.51100000000E-03 0.  1.
         11    1    3    3    0    0 -0.61585455819E+02  0.10636938221E+02  0.15944081155E+03  0.17125211010E+03  0.51100000000E-03 0. -1.
<mgrwt>
<rscale>  0 0.12499476E+03</rscale>
<asrwt>0</asrwt>
<pdfrwt beam="1">  1        3 0.50796217E-01 0.12499476E+03</pdfrwt>
<pdfrwt beam="2">  1       -3 0.18199754E-02 0.12499476E+03</pdfrwt>
<totfact> 0.95029899E+03</totfact>
</mgrwt>
</event>
<event>
 5    1  0.1787806E-056  0.1250002E+03  0.7818608E-02  0.1235069E+00
         -3   -1    0    0    0  501 -0.00000000000E+00  0.00000000000E+00  0.28079377147E+03  0.28079378687E+03  0.93000000000E-01 0. -1.
          3   -1    0    0  501    0  0.00000000000E+00 -0.00000000000E+00 -0.13911327869E+02  0.13911638727E+02  0.93000000000E-01 0.  1.
         25    2    1    2    0    0  0.00000000000E+00  0.00000000000E+00  0.26688244360E+03  0.29470542560E+03  0.12500019670E+03 0.  0.
        -11    1    3    3    0    0 -0.12955302525E+01  0.57372688041E+02  0.75070778346E+02  0.94492991769E+02  0.51100000000E-03 0. -1.
         11    1    3    3    0    0  0.12955302525E+01 -0.57372688041E+02  0.19181166526E+03  0.20021243383E+03  0.51100000000E-03 0.  1.
<mgrwt>
<rscale>  0 0.12500020E+03</rscale>
<asrwt>0</asrwt>
<pdfrwt beam="2">  1        3 0.21402295E-02 0.12500020E+03</pdfrwt>
<pdfrwt beam="1">  1       -3 0.43199064E-01 0.12500020E+03</pdfrwt>
<totfact> 0.10218224E+04</totfact>
</mgrwt>
</event>
<event>
 5    1  0.1833824E-056  0.1249996E+03  0.7818608E-02  0.1235070E+00
          3   -1    0    0  501    0  0.00000000000E+00  0.00000000000E+00  0.15554887831E+02  0.15555165844E+02  0.93000000000E-01 0. -1.
         -3   -1    0    0    0  501 -0.00000000000E+00 -0.00000000000E+00 -0.25112260319E+03  0.25112262041E+03  0.93000000000E-01 0.  1.
         25    2    1    2    0    0  0.00000000000E+00  0.00000000000E+00 -0.23556771536E+03  0.26667778626E+03  0.12499957265E+03 0.  0.
        -11    1    3    3    0    0 -0.35384088333E+02  0.50807567423E+02 -0.13598448489E+03  0.14941627336E+03  0.51100000000E-03 0.  1.
         11    1    3    3    0    0  0.35384088333E+02 -0.50807567423E+02 -0.99583230470E+02  0.11726151289E+03  0.51100000000E-03 0. -1.
<mgrwt>
<rscale>  0 0.12499957E+03</rscale>
<asrwt>0</asrwt>
<pdfrwt beam="1">  1        3 0.23930826E-02 0.12499957E+03</pdfrwt>
<pdfrwt beam="2">  1       -3 0.38634267E-01 0.12499957E+03</pdfrwt>
<totfact> 0.10688222E+04</totfact>
</mgrwt>
</event>
<event>
 5    1  0.1787806E-056  0.1250003E+03  0.7818608E-02  0.1235069E+00
          3   -1    0    0  501    0  0.00000000000E+00  0.00000000000E+00  0.14290921925E+02  0.14291224526E+02  0.93000000000E-01 0. -1.
         -3   -1    0    0    0  501 -0.00000000000E+00 -0.00000000000E+00 -0.27333588189E+03  0.27333589771E+03  0.93000000000E-01 0.  1.
         25    2    1    2    0    0  0.00000000000E+00  0.00000000000E+00 -0.25904495997E+03  0.28762712224E+03  0.12500028065E+03 0.  0.
        -11    1    3    3    0    0  0.57328734322E+02 -0.19854614554E+02 -0.16407430375E+03  0.17493189146E+03  0.51100000000E-03 0.  1.
         11    1    3    3    0    0 -0.57328734322E+02  0.19854614554E+02 -0.94970656214E+02  0.11269523078E+03  0.51100000000E-03 0. -1.
<mgrwt>
<rscale>  0 0.12500028E+03</rscale>
<asrwt>0</asrwt>
<pdfrwt beam="1">  1        3 0.21986281E-02 0.12500028E+03</pdfrwt>
<pdfrwt beam="2">  1       -3 0.42051695E-01 0.12500028E+03</pdfrwt>
<totfact> 0.10333654E+04</totfact>
</mgrwt>
</event>
<event>
 5    1  0.1787806E-056  0.1250079E+03  0.7818608E-02  0.1235057E+00
         -3   -1    0    0    0  501 -0.00000000000E+00  0.00000000000E+00  0.69596877757E+01  0.69603091121E+01  0.93000000000E-01 0.  1.
          3   -1    0    0  501    0  0.00000000000E+00 -0.00000000000E+00 -0.56131297631E+03  0.56131298401E+03  0.93000000000E-01 0. -1.
         25    2    1    2    0    0  0.00000000000E+00  0.00000000000E+00 -0.55435328853E+03  0.56827329312E+03  0.12500786844E+03 0.  0.
        -11    1    3    3    0    0 -0.51639175383E+02 -0.34453885796E+02 -0.24406104465E+03  0.25183222232E+03  0.51100000000E-03 0.  1.
         11    1    3    3    0    0  0.51639175383E+02  0.34453885796E+02 -0.31029224388E+03  0.31644107081E+03  0.51100000000E-03 0. -1.
<mgrwt>
<rscale>  0 0.12500787E+03</rscale>
<asrwt>0</asrwt>
<pdfrwt beam="2">  1        3 0.86355855E-01 0.12500787E+03</pdfrwt>
<pdfrwt beam="1">  1       -3 0.10707700E-02 0.12500787E+03</pdfrwt>
<totfact> 0.69530668E+03</totfact>
</mgrwt>
</event>
<event>
 5    1  0.1787806E-056  0.1250011E+03  0.7818608E-02  0.1235068E+00
          3   -1    0    0  501    0  0.00000000000E+00  0.00000000000E+00  0.50160939896E+02  0.50161026109E+02  0.93000000000E-01 0. -1.
         -3   -1    0    0    0  501 -0.00000000000E+00 -0.00000000000E+00 -0.77875544481E+02  0.77875600012E+02  0.93000000000E-01 0.  1.
         25    2    1    2    0    0  0.00000000000E+00  0.00000000000E+00 -0.27714604585E+02  0.12803662612E+03  0.12500111328E+03 0.  0.
        -11    1    3    3    0    0  0.46126918771E+02  0.41989034459E+02 -0.98184624875E+01  0.63144072215E+02  0.51100000000E-03 0. -1.
         11    1    3    3    0    0 -0.46126918771E+02 -0.41989034459E+02 -0.17896142097E+02  0.64892553905E+02  0.51100000000E-03 0.  1.
<mgrwt>
<rscale>  0 0.12500111E+03</rscale>
<asrwt>0</asrwt>
<pdfrwt beam="1">  1        3 0.77170786E-02 0.12500111E+03</pdfrwt>
<pdfrwt beam="2">  1       -3 0.11980864E-01 0.12500111E+03</pdfrwt>
<totfact> 0.13655188E+04</totfact>
</mgrwt>
</event>
<event>
 5    1  0.1787806E-056  0.1250020E+03  0.7818608E-02  0.1235066E+00
         -3   -1    0    0    0  501 -0.00000000000E+00  0.00000000000E+00  0.34031986225E+02  0.34032113296E+02  0.93000000000E-01 0.  1.
          3   -1    0    0  501    0  0.00000000000E+00 -0.00000000000E+00 -0.11478499233E+03  0.11478503001E+03  0.93000000000E-01 0. -1.
         25    2    1    2    0    0  0.00000000000E+00  0.00000000000E+00 -0.80753006106E+02  0.14881714330E+03  0.12500197657E+03 0.  0.
        -11    1    3    3    0    0  0.23589957211E+02  0.57267173338E+02 -0.50362554322E+02  0.79827326783E+02  0.51100000000E-03 0.  1.
         11    1    3    3    0    0 -0.23589957211E+02 -0.57267173338E+02 -0.30390451785E+02  0.68989816518E+02  0.51100000000E-03 0. -1.
<mgrwt>
<rscale>  0 0.12500198E+03</rscale>
<asrwt>0</asrwt>
<pdfrwt beam="2">  1        3 0.17659242E-01 0.12500198E+03</pdfrwt>
<pdfrwt beam="1">  1       -3 0.52357029E-02 0.12500198E+03</pdfrwt>
<totfact> 0.13124139E+04</totfact>
</mgrwt>
</event>
<event>
 5    1  0.1787806E-056  0.1250016E+03  0.7818608E-02  0.1235067E+00
          3   -1    0    0  501    0  0.00000000000E+00  0.00000000000E+00  0.17267942343E+03  0.17267944848E+03  0.93000000000E-01 0. -1.
         -3   -1    0    0    0  501 -0.00000000000E+00 -0.00000000000E+00 -0.22621860621E+02  0.22622051785E+02  0.93000000000E-01 0.  1.
         25    2    1    2    0    0  0.00000000000E+00  0.00000000000E+00  0.15005756281E+03  0.19530150026E+03  0.12500161538E+03 0.  0.
        -11    1    3    3    0    0  0.48649502293E+02  0.29896651658E+02  0.35325361736E+02  0.67145104332E+02  0.51100000000E-03 0. -1.
         11    1    3    3    0    0 -0.48649502293E+02 -0.29896651658E+02  0.11473220108E+03  0.12815639593E+03  0.51100000000E-03 0.  1.
<mgrwt>
<rscale>  0 0.12500162E+03</rscale>
<asrwt>0</asrwt>
<pdfrwt beam="1">  1        3 0.26566081E-01 0.12500162E+03</pdfrwt>
<pdfrwt beam="2">  1       -3 0.34803029E-02 0.12500162E+03</pdfrwt>
<totfact> 0.12060918E+04</totfact>
</mgrwt>
</event>
<event>
 5    1  0.1787806E-056  0.1250003E+03  0.7818608E-02  0.1235069E+00
         -3   -1    0    0    0  501 -0.00000000000E+00  0.00000000000E+00  0.18861545952E+03  0.18861548244E+03  0.93000000000E-01 0.  1.
          3   -1    0    0  501    0  0.00000000000E+00 -0.00000000000E+00 -0.20710096116E+02  0.20710304926E+02  0.93000000000E-01 0. -1.
         25    2    1    2    0    0  0.00000000000E+00  0.00000000000E+00  0.16790536340E+03  0.20932578737E+03  0.12500029680E+03 0.  0.
        -11    1    3    3    0    0 -0.53079497465E+02 -0.32261027241E+02  0.95562111543E+02  0.11397510295E+03  0.51100000000E-03 0. -1.
         11    1    3    3    0    0  0.53079497465E+02  0.32261027241E+02  0.72343251856E+02  0.95350684419E+02  0.51100000000E-03 0.  1.
<mgrwt>
<rscale>  0 0.12500030E+03</rscale>
<asrwt>0</asrwt>
<pdfrwt beam="2">  1        3 0.31861864E-02 0.12500030E+03</pdfrwt>
<pdfrwt beam="1">  1       -3 0.29017781E-01 0.12500030E+03</pdfrwt>
<totfact> 0.11768356E+04</totfact>
</mgrwt>
</event>
<event>
 5    1  0.1787806E-056  0.1249927E+03  0.7818608E-02  0.1235081E+00
         -3   -1    0    0    0  501 -0.00000000000E+00  0.00000000000E+00  0.25645411310E+03  0.25645412997E+03  0.93000000000E-01 0.  1.
          3   -1    0    0  501    0  0.00000000000E+00 -0.00000000000E+00 -0.15229821923E+02  0.15230105870E+02  0.93000000000E-01 0. -1.
         25    2    1    2    0    0  0.00000000000E+00  0.00000000000E+00  0.24122429118E+03  0.27168423584E+03  0.12499266117E+03 0.  0.
        -11    1    3    3    0    0  0.48611809701E+02 -0.38899610909E+02  0.10880575429E+03  0.12535940307E+03  0.51100000000E-03 0. -1.
         11    1    3    3    0    0 -0.48611809701E+02  0.38899610909E+02  0.13241853690E+03  0.14632483277E+03  0.51100000000E-03 0.  1.
<mgrwt>
<rscale>  0 0.12499266E+03</rscale>
<asrwt>0</asrwt>
<pdfrwt beam="2">  1        3 0.23430728E-02 0.12499266E+03</pdfrwt>
<pdfrwt beam="1">  1       -3 0.39454499E-01 0.12499266E+03</pdfrwt>
<totfact> 0.10603432E+04</totfact>
</mgrwt>
</event>
<event>
 5    1  0.1787806E-056  0.1250012E+03  0.7818608E-02  0.1235067E+00
          3   -1    0    0  501    0  0.00000000000E+00  0.00000000000E+00  0.30801289470E+02  0.30801429869E+02  0.93000000000E-01 0. -1.
         -3   -1    0    0    0  501 -0.00000000000E+00 -0.00000000000E+00 -0.12682303238E+03  0.12682306648E+03  0.93000000000E-01 0.  1.
         25    2    1    2    0    0  0.00000000000E+00  0.00000000000E+00 -0.96021742911E+02  0.15762449635E+03  0.12500122694E+03 0.  0.
        -11    1    3    3    0    0  0.47994104854E+02  0.36437000821E+02 -0.68930948584E+02  0.91556347690E+02  0.51100000000E-03 0.  1.
         11    1    3    3    0    0 -0.47994104854E+02 -0.36437000821E+02 -0.27090794327E+02  0.66068148658E+02  0.51100000000E-03 0. -1.
<mgrwt>
<rscale>  0 0.12500123E+03</rscale>
<asrwt>0</asrwt>
<pdfrwt beam="1">  1        3 0.47386734E-02 0.12500123E+03</pdfrwt>
<pdfrwt beam="2">  1       -3 0.19511249E-01 0.12500123E+03</pdfrwt>
<totfact> 0.12910655E+04</totfact>
</mgrwt>
</event>
<event>
 5    1  0.1787806E-056  0.1250142E+03  0.7818608E-02  0.1235047E+00
          3   -1    0    0  501    0  0.00000000000E+00  0.00000000000E+00  0.88056024976E+01  0.88060935917E+01  0.93000000000E-01 0. -1.
         -3   -1    0    0    0  501 -0.00000000000E+00 -0.00000000000E+00 -0.44369781975E+03  0.44369782950E+03  0.93000000000E-01 0.  1.
         25    2    1    2    0    0  0.00000000000E+00  0.00000000000E+00 -0.43489221725E+03  0.45250392309E+03  0.12501423832E+03 0.  0.
        -11    1    3    3    0    0 -0.64495616377E+01  0.60634216502E+02 -0.16767998049E+03  0.17842275895E+03  0.51100000000E-03 0.  1.
         11    1    3    3    0    0  0.64495616377E+01 -0.60634216502E+02 -0.26721223677E+03  0.27408116414E+03  0.51100000000E-03 0. -1.
<mgrwt>
<rscale>  0 0.12501424E+03</rscale>
<asrwt>0</asrwt>
<pdfrwt beam="1">  1        3 0.13547470E-02 0.12501424E+03</pdfrwt>
<pdfrwt beam="2">  1       -3 0.68261224E-01 0.12501424E+03</pdfrwt>
<totfact> 0.80930778E+03</totfact>
</mgrwt>
</event>
<event>
 5    1  0.1787806E-056  0.1250014E+03  0.7818608E-02  0.1235067E+00
          3   -1    0    0  501    0  0.00000000000E+00  0.00000000000E+00  0.57428107684E+02  0.57428182987E+02  0.93000000000E-01 0. -1.
         -3   -1    0    0    0  501 -0.00000000000E+00 -0.00000000000E+00 -0.68021189295E+02  0.68021252871E+02  0.93000000000E-01 0.  1.
         25    2    1    2    0    0  0.00000000000E+00  0.00000000000E+00 -0.10593081611E+02  0.12544943586E+03  0.12500139031E+03 0.  0.
        -11    1    3    3    0    0 -0.95486969835E+01 -0.60964401094E+02 -0.15256885419E+02  0.63565779849E+02  0.51100000000E-03 0. -1.
         11    1    3    3    0    0  0.95486969835E+01  0.60964401094E+02  0.46638038087E+01  0.61883656009E+02  0.51100000000E-03 0.  1.
<mgrwt>
<rscale>  0 0.12500139E+03</rscale>
<asrwt>0</asrwt>
<pdfrwt beam="1">  1        3 0.88351042E-02 0.12500139E+03</pdfrwt>
<pdfrwt beam="2">  1       -3 0.10464809E-01 0.12500139E+03</pdfrwt>
<totfact> 0.13724056E+04</totfact>
</mgrwt>
</event>
<event>
 5    1  0.1787806E-056  0.1250003E+03  0.7818608E-02  0.1235069E+00
         -3   -1    0    0    0  501 -0.00000000000E+00  0.00000000000E+00  0.42118835159E+02  0.42118937833E+02  0.93000000000E-01 0.  1.
          3   -1    0    0  501    0  0.00000000000E+00 -0.00000000000E+00 -0.92743768187E+02  0.92743814815E+02  0.93000000000E-01 0. -1.
         25    2    1    2    0    0  0.00000000000E+00  0.00000000000E+00 -0.50624933027E+02  0.13486275265E+03  0.12500031283E+03 0.  0.
        -11    1    3    3    0    0 -0.58423685520E+02  0.21278173487E+02 -0.18473414427E+02  0.64864125196E+02  0.51100000000E-03 0.  1.
         11    1    3    3    0    0  0.58423685520E+02 -0.21278173487E+02 -0.32151518600E+02  0.69998627452E+02  0.51100000000E-03 0. -1.
<mgrwt>
<rscale>  0 0.12500031E+03</rscale>
<asrwt>0</asrwt>
<pdfrwt beam="2">  1        3 0.14268283E-01 0.12500031E+03</pdfrwt>
<pdfrwt beam="1">  1       -3 0.64798323E-02 0.12500031E+03</pdfrwt>
<totfact> 0.13476836E+04</totfact>
</mgrwt>
</event>
<event>
 5    1  0.1787806E-056  0.1250008E+03  0.7818608E-02  0.1235068E+00
         -3   -1    0    0    0  501 -0.00000000000E+00  0.00000000000E+00  0.23912364245E+02  0.23912545092E+02  0.93000000000E-01 0.  1.
          3   -1    0    0  501    0  0.00000000000E+00 -0.00000000000E+00 -0.16335829597E+03  0.16335832245E+03  0.93000000000E-01 0. -1.
         25    2    1    2    0    0  0.00000000000E+00  0.00000000000E+00 -0.13944593173E+03  0.18727086754E+03  0.12500083981E+03 0.  0.
        -11    1    3    3    0    0  0.18731589888E+02  0.41188025137E+02 -0.51286571629E+01  0.45537116718E+02  0.51100000000E-03 0.  1.
         11    1    3    3    0    0 -0.18731589888E+02 -0.41188025137E+02 -0.13431727457E+03  0.14173375082E+03  0.51100000000E-03 0. -1.
<mgrwt>
<rscale>  0 0.12500084E+03</rscale>
<asrwt>0</asrwt>
<pdfrwt beam="2">  1        3 0.25132061E-01 0.12500084E+03</pdfrwt>
<pdfrwt beam="1">  1       -3 0.36788413E-02 0.12500084E+03</pdfrwt>
<totfact> 0.12233777E+04</totfact>
</mgrwt>
</event>
<event>
 5    1  0.1787806E-056  0.1249947E+03  0.7818608E-02  0.1235078E+00
          3   -1    0    0  501    0  0.00000000000E+00  0.00000000000E+00  0.29237566357E+03  0.29237567836E+03  0.93000000000E-01 0. -1.
         -3   -1    0    0    0  501 -0.00000000000E+00 -0.00000000000E+00 -0.13359063843E+02  0.13359387552E+02  0.93000000000E-01 0.  1.
         25    2    1    2    0    0  0.00000000000E+00  0.00000000000E+00  0.27901659973E+03  0.30573506591E+03  0.12499467031E+03 0.  0.
        -11    1    3    3    0    0  0.58728729035E+02  0.21299310363E+02  0.13513780673E+03  0.14887898121E+03  0.51100000000E-03 0.  1.
         11    1    3    3    0    0 -0.58728729035E+02 -0.21299310363E+02  0.14387879300E+03  0.15685608471E+03  0.51100000000E-03 0. -1.
<mgrwt>
<rscale>  0 0.12499467E+03</rscale>
<asrwt>0</asrwt>
<pdfrwt beam="1">  1        3 0.44980898E-01 0.12499467E+03</pdfrwt>
<pdfrwt beam="2">  1       -3 0.20552666E-02 0.12499467E+03</pdfrwt>
<totfact> 0.10047230E+04</totfact>
</mgrwt>
</event>
<event>
 5    1  0.1787806E-056  0.1249883E+03  0.7818608E-02  0.1235088E+00
         -3   -1    0    0    0  501 -0.00000000000E+00  0.00000000000E+00  0.15432549354E+02  0.15432829571E+02  0.93000000000E-01 0.  1.
          3   -1    0    0  501    0  0.00000000000E+00 -0.00000000000E+00 -0.25306763633E+03  0.25306765342E+03  0.93000000000E-01 0. -1.
         25    2    1    2    0    0  0.00000000000E+00  0.00000000000E+00 -0.23763508698E+03  0.26850048299E+03  0.12498829867E+03 0.  0.
        -11    1    3    3    0    0  0.61845879454E+02 -0.88696796171E+01 -0.11582954659E+03  0.13160572892E+03  0.51100000000E-03 0.  1.
         11    1    3    3    0    0 -0.61845879454E+02  0.88696796171E+01 -0.12180554039E+03  0.13689475407E+03  0.51100000000E-03 0. -1.
<mgrwt>
<rscale>  0 0.12498830E+03</rscale>
<asrwt>0</asrwt>
<pdfrwt beam="2">  1        3 0.38933502E-01 0.12498830E+03</pdfrwt>
<pdfrwt beam="1">  1       -3 0.23742614E-02 0.12498830E+03</pdfrwt>
<totfact> 0.10661780E+04</totfact>
</mgrwt>
</event>
<event>
 5    1  0.1787806E-056  0.1249967E+03  0.7818608E-02  0.1235074E+00
          3   -1    0    0  501    0  0.00000000000E+00  0.00000000000E+00  0.23938454236E+02  0.23938634887E+02  0.93000000000E-01 0. -1.
         -3   -1    0    0    0  501 -0.00000000000E+00 -0.00000000000E+00 -0.16316953984E+03  0.16316956634E+03  0.93000000000E-01 0.  1.
         25    2    1    2    0    0  0.00000000000E+00  0.00000000000E+00 -0.13923108560E+03  0.18710820123E+03  0.12499673503E+03 0.  0.
        -11    1    3    3    0    0 -0.54340524223E+02 -0.28022482550E+02 -0.89011514277E+02  0.10798704448E+03  0.51100000000E-03 0.  1.
         11    1    3    3    0    0  0.54340524223E+02  0.28022482550E+02 -0.50219571325E+02  0.79121156750E+02  0.51100000000E-03 0. -1.
<mgrwt>
<rscale>  0 0.12499674E+03</rscale>
<asrwt>0</asrwt>
<pdfrwt beam="1">  1        3 0.36828552E-02 0.12499674E+03</pdfrwt>
<pdfrwt beam="2">  1       -3 0.25103021E-01 0.12499674E+03</pdfrwt>
<totfact> 0.12237997E+04</totfact>
</mgrwt>
</event>
<event>
 5    1  0.1787806E-056  0.1249999E+03  0.7818608E-02  0.1235069E+00
         -3   -1    0    0    0  501 -0.00000000000E+00  0.00000000000E+00  0.37613471178E+02  0.37613586150E+02  0.93000000000E-01 0.  1.
          3   -1    0    0  501    0  0.00000000000E+00 -0.00000000000E+00 -0.10385202870E+03  0.10385207034E+03  0.93000000000E-01 0. -1.
         25    2    1    2    0    0  0.00000000000E+00  0.00000000000E+00 -0.66238557523E+02  0.14146565649E+03  0.12499994186E+03 0.  0.
        -11    1    3    3    0    0 -0.22975339895E+02  0.57208013219E+02 -0.21488168601E+02  0.65286785874E+02  0.51100000000E-03 0.  1.
         11    1    3    3    0    0  0.22975339895E+02 -0.57208013219E+02 -0.44750388923E+02  0.76178870619E+02  0.51100000000E-03 0. -1.
<mgrwt>
<rscale>  0 0.12499994E+03</rscale>
<asrwt>0</asrwt>
<pdfrwt beam="2">  1        3 0.15977247E-01 0.12499994E+03</pdfrwt>
<pdfrwt beam="1">  1       -3 0.57867000E-02 0.12499994E+03</pdfrwt>
<totfact> 0.13308111E+04</totfact>
</mgrwt>
</event>
<event>
 5    1  0.1787806E-056  0.1250094E+03  0.7818608E-02  0.1235055E+00
         -3   -1    0    0    0  501 -0.00000000000E+00  0.00000000000E+00  0.53904045497E+02  0.53904125723E+02  0.93000000000E-01 0.  1.
          3   -1    0    0  501    0  0.00000000000E+00 -0.00000000000E+00 -0.72477513436E+02  0.72477573102E+02  0.93000000000E-01 0. -1.
         25    2    1    2    0    0  0.00000000000E+00  0.00000000000E+00 -0.18573467939E+02  0.12638169882E+03  0.12500943999E+03 0.  0.
        -11    1    3    3    0    0  0.47290641101E+02  0.36084402426E+02  0.10116423852E+02  0.60339297858E+02  0.51100000000E-03 0.  1.
         11    1    3    3    0    0 -0.47290641101E+02 -0.36084402426E+02 -0.28689891791E+02  0.66042400967E+02  0.51100000000E-03 0. -1.
<mgrwt>
<rscale>  0 0.12500944E+03</rscale>
<asrwt>0</asrwt>
<pdfrwt beam="2">  1        3 0.11150398E-01 0.12500944E+03</pdfrwt>
<pdfrwt beam="1">  1       -3 0.82929408E-02 0.12500944E+03</pdfrwt>
<totfact> 0.13696435E+04</totfact>
</mgrwt>
</event>
<event>
 5    1  0.1787806E-056  0.1249976E+03  0.7818608E-02  0.1235073E+00
          3   -1    0    0  501    0  0.00000000000E+00  0.00000000000E+00  0.54501065728E+03  0.54501066522E+03  0.93000000000E-01 0. -1.
         -3   -1    0    0    0  501 -0.00000000000E+00 -0.00000000000E+00 -0.71667025593E+01  0.71673059495E+01  0.93000000000E-01 0.  1.
         25    2    1    2    0    0  0.00000000000E+00  0.00000000000E+00  0.53784395472E+03  0.55217797117E+03  0.12499756881E+03 0.  0.
        -11    1    3    3    0    0 -0.33367753205E+02 -0.50294784830E+02  0.19726488876E+03  0.20629204705E+03  0.51100000000E-03 0.  1.
         11    1    3    3    0    0  0.33367753205E+02  0.50294784830E+02  0.34057906596E+03  0.34588592412E+03  0.51100000000E-03 0. -1.
<mgrwt>
<rscale>  0 0.12499757E+03</rscale>
<asrwt>0</asrwt>
<pdfrwt beam="1">  1        3 0.83847868E-01 0.12499757E+03</pdfrwt>
<pdfrwt beam="2">  1       -3 0.11026163E-02 0.12499757E+03</pdfrwt>
<totfact> 0.70985670E+03</totfact>
</mgrwt>
</event>
<event>
 5    1  0.1787806E-056  0.1250034E+03  0.7818608E-02  0.1235064E+00
          3   -1    0    0  501    0  0.00000000000E+00  0.00000000000E+00  0.81539603779E+02  0.81539656814E+02  0.93000000000E-01 0. -1.
         -3   -1    0    0    0  501 -0.00000000000E+00 -0.00000000000E+00 -0.47908660247E+02  0.47908750513E+02  0.93000000000E-01 0.  1.
         25    2    1    2    0    0  0.00000000000E+00  0.00000000000E+00  0.33630943532E+02  0.12944840733E+03  0.12500339914E+03 0.  0.
        -11    1    3    3    0    0 -0.48606343491E+02  0.22103556651E+02 -0.16825356973E+02  0.55984252087E+02  0.51100000000E-03 0.  1.
         11    1    3    3    0    0  0.48606343491E+02 -0.22103556651E+02  0.50456300505E+02  0.73464155240E+02  0.51100000000E-03 0. -1.
<mgrwt>
<rscale>  0 0.12500340E+03</rscale>
<asrwt>0</asrwt>
<pdfrwt beam="1">  1        3 0.12544565E-01 0.12500340E+03</pdfrwt>
<pdfrwt beam="2">  1       -3 0.73705742E-02 0.12500340E+03</pdfrwt>
<totfact> 0.13617179E+04</totfact>
</mgrwt>
</event>
<event>
 5    1  0.1787806E-056  0.1249976E+03  0.7818608E-02  0.1235073E+00
         -3   -1    0    0    0  501 -0.00000000000E+00  0.00000000000E+00  0.20499513986E+03  0.20499516096E+03  0.93000000000E-01 0.  1.
          3   -1    0    0  501    0  0.00000000000E+00 -0.00000000000E+00 -0.19054461601E+02  0.19054688555E+02  0.93000000000E-01 0. -1.
         25    2    1    2    0    0  0.00000000000E+00  0.00000000000E+00  0.18594067826E+03  0.22404984951E+03  0.12499759691E+03 0.  0.
        -11    1    3    3    0    0 -0.53334275280E+02 -0.32439448902E+02  0.87522685479E+02  0.10750387546E+03  0.51100000000E-03 0. -1.
         11    1    3    3    0    0  0.53334275280E+02  0.32439448902E+02  0.98417992781E+02  0.11654597405E+03  0.51100000000E-03 0.  1.
<mgrwt>
<rscale>  0 0.12499760E+03</rscale>
<asrwt>0</asrwt>
<pdfrwt beam="2">  1        3 0.29314746E-02 0.12499760E+03</pdfrwt>
<pdfrwt beam="1">  1       -3 0.31537734E-01 0.12499760E+03</pdfrwt>
<totfact> 0.11474828E+04</totfact>
</mgrwt>
</event>
<event>
 5    1  0.1787806E-056  0.1250006E+03  0.7818608E-02  0.1235068E+00
         -3   -1    0    0    0  501 -0.00000000000E+00  0.00000000000E+00  0.78823609251E+02  0.78823664114E+02  0.93000000000E-01 0.  1.
          3   -1    0    0  501    0  0.00000000000E+00 -0.00000000000E+00 -0.49557230363E+02  0.49557317626E+02  0.93000000000E-01 0. -1.
         25    2    1    2    0    0  0.00000000000E+00  0.00000000000E+00  0.29266378887E+02  0.12838098174E+03  0.12500062216E+03 0.  0.
        -11    1    3    3    0    0 -0.52905088465E+02  0.32828617612E+02  0.90433622666E+01  0.62916205552E+02  0.51100000000E-03 0. -1.
         11    1    3    3    0    0  0.52905088465E+02 -0.32828617612E+02  0.20223016621E+02  0.65464776187E+02  0.51100000000E-03 0.  1.
<mgrwt>
<rscale>  0 0.12500062E+03</rscale>
<asrwt>0</asrwt>
<pdfrwt beam="2">  1        3 0.76242002E-02 0.12500062E+03</pdfrwt>
<pdfrwt beam="1">  1       -3 0.12126720E-01 0.12500062E+03</pdfrwt>
<totfact> 0.13646255E+04</totfact>
</mgrwt>
</event>
<event>
 5    1  0.1787806E-056  0.1250028E+03  0.7818608E-02  0.1235065E+00
          3   -1    0    0  501    0  0.00000000000E+00  0.00000000000E+00  0.10517663751E+03  0.10517667863E+03  0.93000000000E-01 0.  1.
         -3   -1    0    0    0  501 -0.00000000000E+00 -0.00000000000E+00 -0.37141443636E+02  0.37141560069E+02  0.93000000000E-01 0. -1.
         25    2    1    2    0    0  0.00000000000E+00  0.00000000000E+00  0.68035193878E+02  0.14231823870E+03  0.12500277381E+03 0.  0.
        -11    1    3    3    0    0  0.61622394213E+02 -0.92722219574E+01  0.39493135152E+02  0.73776698849E+02  0.51100000000E-03 0. -1.
         11    1    3    3    0    0 -0.61622394213E+02  0.92722219574E+01  0.28542058726E+02  0.68541539851E+02  0.51100000000E-03 0.  1.
<mgrwt>
<rscale>  0 0.12500277E+03</rscale>
<asrwt>0</asrwt>
<pdfrwt beam="1">  1        3 0.16181033E-01 0.12500277E+03</pdfrwt>
<pdfrwt beam="2">  1       -3 0.57140803E-02 0.12500277E+03</pdfrwt>
<totfact> 0.13285739E+04</totfact>
</mgrwt>
</event>
<event>
 5    1  0.1787806E-056  0.1250006E+03  0.7818608E-02  0.1235068E+00
          3   -1    0    0  501    0  0.00000000000E+00  0.00000000000E+00  0.45132261774E+02  0.45132357593E+02  0.93000000000E-01 0. -1.
         -3   -1    0    0    0  501 -0.00000000000E+00 -0.00000000000E+00 -0.86551781231E+02  0.86551831195E+02  0.93000000000E-01 0.  1.
         25    2    1    2    0    0  0.00000000000E+00  0.00000000000E+00 -0.41419519456E+02  0.13168418879E+03  0.12500059594E+03 0.  0.
        -11    1    3    3    0    0 -0.33406921357E+02  0.45535026719E+02  0.74953947254E+01  0.56970536203E+02  0.51100000000E-03 0. -1.
         11    1    3    3    0    0  0.33406921357E+02 -0.45535026719E+02 -0.48914914182E+02  0.74713652585E+02  0.51100000000E-03 0.  1.
<mgrwt>
<rscale>  0 0.12500060E+03</rscale>
<asrwt>0</asrwt>
<pdfrwt beam="1">  1        3 0.69434361E-02 0.12500060E+03</pdfrwt>
<pdfrwt beam="2">  1       -3 0.13315670E-01 0.12500060E+03</pdfrwt>
<totfact> 0.13559603E+04</totfact>
</mgrwt>
</event>
<event>
 5    1  0.1787806E-056  0.1249998E+03  0.7818608E-02  0.1235070E+00
          3   -1    0    0  501    0  0.00000000000E+00  0.00000000000E+00  0.32498249728E+02  0.32498382796E+02  0.93000000000E-01 0. -1.
         -3   -1    0    0    0  501 -0.00000000000E+00 -0.00000000000E+00 -0.12019791574E+03  0.12019795172E+03  0.93000000000E-01 0.  1.
         25    2    1    2    0    0  0.00000000000E+00  0.00000000000E+00 -0.87699666016E+02  0.15269633452E+03  0.12499975662E+03 0.  0.
        -11    1    3    3    0    0  0.48587348930E+02  0.34970425428E+02 -0.65789695138E+02  0.88949115326E+02  0.51100000000E-03 0.  1.
         11    1    3    3    0    0 -0.48587348930E+02 -0.34970425428E+02 -0.21909970878E+02  0.63747219193E+02  0.51100000000E-03 0. -1.
<mgrwt>
<rscale>  0 0.12499976E+03</rscale>
<asrwt>0</asrwt>
<pdfrwt beam="1">  1        3 0.49997438E-02 0.12499976E+03</pdfrwt>
<pdfrwt beam="2">  1       -3 0.18492000E-01 0.12499976E+03</pdfrwt>
<totfact> 0.13030082E+04</totfact>
</mgrwt>
</event>
<event>
 5    1  0.1787806E-056  0.1250007E+03  0.7818608E-02  0.1235068E+00
          3   -1    0    0  501    0  0.00000000000E+00  0.00000000000E+00  0.22109138405E+02  0.22109334002E+02  0.93000000000E-01 0.  1.
         -3   -1    0    0    0  501 -0.00000000000E+00 -0.00000000000E+00 -0.17668130723E+03  0.17668133170E+03  0.93000000000E-01 0. -1.
         25    2    1    2    0    0  0.00000000000E+00  0.00000000000E+00 -0.15457216882E+03  0.19879066570E+03  0.12500069359E+03 0.  0.
        -11    1    3    3    0    0 -0.28146164201E+02  0.38647871554E+02 -0.14130355990E+03  0.14917292172E+03  0.51100000000E-03 0. -1.
         11    1    3    3    0    0  0.28146164201E+02 -0.38647871554E+02 -0.13268608922E+02  0.49617743982E+02  0.51100000000E-03 0.  1.
<mgrwt>
<rscale>  0 0.12500069E+03</rscale>
<asrwt>0</asrwt>
<pdfrwt beam="1">  1        3 0.34014230E-02 0.12500069E+03</pdfrwt>
<pdfrwt beam="2">  1       -3 0.27181756E-01 0.12500069E+03</pdfrwt>
<totfact> 0.11986786E+04</totfact>
</mgrwt>
</event>
<event>
 5    1  0.1787806E-056  0.1249997E+03  0.7818608E-02  0.1235070E+00
          3   -1    0    0  501    0  0.00000000000E+00  0.00000000000E+00  0.56983121315E+03  0.56983122074E+03  0.93000000000E-01 0. -1.
         -3   -1    0    0    0  501 -0.00000000000E+00 -0.00000000000E+00 -0.68547387026E+01  0.68553695510E+01  0.93000000000E-01 0.  1.
         25    2    1    2    0    0  0.00000000000E+00  0.00000000000E+00  0.56297647445E+03  0.57668659029E+03  0.12499965056E+03 0.  0.
        -11    1    3    3    0    0  0.26786947720E+02  0.56177286521E+02  0.25506606965E+03  0.26254928676E+03  0.51100000000E-03 0. -1.
         11    1    3    3    0    0 -0.26786947720E+02 -0.56177286521E+02  0.30791040480E+03  0.31413730353E+03  0.51100000000E-03 0.  1.
<mgrwt>
<rscale>  0 0.12499965E+03</rscale>
<asrwt>0</asrwt>
<pdfrwt beam="1">  1        3 0.87666433E-01 0.12499965E+03</pdfrwt>
<pdfrwt beam="2">  1       -3 0.10546238E-02 0.12499965E+03</pdfrwt>
<totfact> 0.68808575E+03</totfact>
</mgrwt>
</event>
<event>
 5    1  0.1787806E-056  0.1249996E+03  0.7818608E-02  0.1235070E+00
          3   -1    0    0  501    0  0.00000000000E+00  0.00000000000E+00  0.24752275660E+02  0.24752450371E+02  0.93000000000E-01 0. -1.
         -3   -1    0    0    0  501 -0.00000000000E+00 -0.00000000000E+00 -0.15781208802E+03  0.15781211543E+03  0.93000000000E-01 0.  1.
         25    2    1    2    0    0  0.00000000000E+00  0.00000000000E+00 -0.13305981236E+03  0.18256456580E+03  0.12499962807E+03 0.  0.
        -11    1    3    3    0    0  0.44210149735E+02  0.15959833679E+02 -0.63647220976E+01  0.47431669993E+02  0.51100000000E-03 0. -1.
         11    1    3    3    0    0 -0.44210149735E+02 -0.15959833679E+02 -0.12669509027E+03  0.13513289581E+03  0.51100000000E-03 0.  1.
<mgrwt>
<rscale>  0 0.12499963E+03</rscale>
<asrwt>0</asrwt>
<pdfrwt beam="1">  1        3 0.38080581E-02 0.12499963E+03</pdfrwt>
<pdfrwt beam="2">  1       -3 0.24278798E-01 0.12499963E+03</pdfrwt>
<totfact> 0.12336975E+04</totfact>
</mgrwt>
</event>
<event>
 5    1  0.1787806E-056  0.1250006E+03  0.7818608E-02  0.1235068E+00
          3   -1    0    0  501    0  0.00000000000E+00  0.00000000000E+00  0.14058208168E+02  0.14058515779E+02  0.93000000000E-01 0. -1.
         -3   -1    0    0    0  501 -0.00000000000E+00 -0.00000000000E+00 -0.27786199015E+03  0.27786200571E+03  0.93000000000E-01 0.  1.
         25    2    1    2    0    0  0.00000000000E+00  0.00000000000E+00 -0.26380378198E+03  0.29192052149E+03  0.12500062192E+03 0.  0.
        -11    1    3    3    0    0  0.10063397113E+02  0.48030179423E+02 -0.22229297101E+03  0.22764519555E+03  0.51100000000E-03 0.  1.
         11    1    3    3    0    0 -0.10063397113E+02 -0.48030179423E+02 -0.41510810967E+02  0.64275325937E+02  0.51100000000E-03 0. -1.
<mgrwt>
<rscale>  0 0.12500062E+03</rscale>
<asrwt>0</asrwt>
<pdfrwt beam="1">  1        3 0.21628263E-02 0.12500062E+03</pdfrwt>
<pdfrwt beam="2">  1       -3 0.42748019E-01 0.12500062E+03</pdfrwt>
<totfact> 0.10263298E+04</totfact>
</mgrwt>
</event>
<event>
 5    1  0.1787806E-056  0.1249988E+03  0.7818608E-02  0.1235071E+00
          3   -1    0    0  501    0  0.00000000000E+00  0.00000000000E+00  0.32666229557E+03  0.32666230881E+03  0.93000000000E-01 0. -1.
         -3   -1    0    0    0  501 -0.00000000000E+00 -0.00000000000E+00 -0.11957634759E+02  0.11957996405E+02  0.93000000000E-01 0.  1.
         25    2    1    2    0    0  0.00000000000E+00  0.00000000000E+00  0.31470466081E+03  0.33862030522E+03  0.12499875026E+03 0.  0.
        -11    1    3    3    0    0 -0.54052514625E+02  0.30063199811E+02  0.13301637946E+03  0.14669297027E+03  0.51100000000E-03 0.  1.
         11    1    3    3    0    0  0.54052514625E+02 -0.30063199811E+02  0.18168828135E+03  0.19192733495E+03  0.51100000000E-03 0. -1.
<mgrwt>
<rscale>  0 0.12499875E+03</rscale>
<asrwt>0</asrwt>
<pdfrwt beam="1">  1        3 0.50255757E-01 0.12499875E+03</pdfrwt>
<pdfrwt beam="2">  1       -3 0.18396653E-02 0.12499875E+03</pdfrwt>
<totfact> 0.95509061E+03</totfact>
</mgrwt>
</event>
<event>
 5    1  0.1787806E-056  0.1249982E+03  0.7818608E-02  0.1235072E+00
          3   -1    0    0  501    0  0.00000000000E+00  0.00000000000E+00  0.46749372593E+03  0.46749373518E+03  0.93000000000E-01 0. -1.
         -3   -1    0    0    0  501 -0.00000000000E+00 -0.00000000000E+00 -0.83552182965E+01  0.83557358612E+01  0.93000000000E-01 0.  1.
         25    2    1    2    0    0  0.00000000000E+00  0.00000000000E+00  0.45913850763E+03  0.47584947104E+03  0.12499819958E+03 0.  0.
        -11    1    3    3    0    0 -0.55662504828E+02  0.15270282506E+02  0.13831264460E+03  0.14987289157E+03  0.51100000000E-03 0.  1.
         11    1    3    3    0    0  0.55662504828E+02 -0.15270282506E+02  0.32082586303E+03  0.32597657946E+03  0.51100000000E-03 0. -1.
<mgrwt>
<rscale>  0 0.12499820E+03</rscale>
<asrwt>0</asrwt>
<pdfrwt beam="1">  1        3 0.71922146E-01 0.12499820E+03</pdfrwt>
<pdfrwt beam="2">  1       -3 0.12854588E-02 0.12499820E+03</pdfrwt>
<totfact> 0.78492566E+03</totfact>
</mgrwt>
</event>
<event>
 5    1  0.1787806E-056  0.1250059E+03  0.7818608E-02  0.1235060E+00
         -3   -1    0    0    0  501 -0.00000000000E+00  0.00000000000E+00  0.67512181084E+02  0.67512245139E+02  0.93000000000E-01 0.  1.
          3   -1    0    0  501    0  0.00000000000E+00 -0.00000000000E+00 -0.57865246783E+02  0.57865321517E+02  0.93000000000E-01 0. -1.
         25    2    1    2    0    0  0.00000000000E+00  0.00000000000E+00  0.96469343011E+01  0.12537756666E+03  0.12500588338E+03 0.  0.
        -11    1    3    3    0    0 -0.25281889895E+02  0.55020391719E+02 -0.10721009974E+02  0.61492743610E+02  0.51100000000E-03 0. -1.
         11    1    3    3    0    0  0.25281889895E+02 -0.55020391719E+02  0.20367944275E+02  0.63884823047E+02  0.51100000000E-03 0.  1.
<mgrwt>
<rscale>  0 0.12500588E+03</rscale>
<asrwt>0</asrwt>
<pdfrwt beam="2">  1        3 0.89023563E-02 0.12500588E+03</pdfrwt>
<pdfrwt beam="1">  1       -3 0.10386500E-01 0.12500588E+03</pdfrwt>
<totfact> 0.13724615E+04</totfact>
</mgrwt>
</event>
<event>
 5    1  0.1787806E-056  0.1250010E+03  0.7818608E-02  0.1235068E+00
         -3   -1    0    0    0  501 -0.00000000000E+00  0.00000000000E+00  0.37821869633E+03  0.37821870776E+03  0.93000000000E-01 0.  1.
          3   -1    0    0  501    0  0.00000000000E+00 -0.00000000000E+00 -0.10327958192E+02  0.10328376901E+02  0.93000000000E-01 0. -1.
         25    2    1    2    0    0  0.00000000000E+00  0.00000000000E+00  0.36789073814E+03  0.38854708467E+03  0.12500096717E+03 0.  0.
        -11    1    3    3    0    0  0.30155643516E+02  0.52959896500E+02  0.22703805414E+03  0.23507528901E+03  0.51100000000E-03 0.  1.
         11    1    3    3    0    0 -0.30155643516E+02 -0.52959896500E+02  0.14085268400E+03  0.15347179566E+03  0.51100000000E-03 0. -1.
<mgrwt>
<rscale>  0 0.12500097E+03</rscale>
<asrwt>0</asrwt>
<pdfrwt beam="2">  1        3 0.15889499E-02 0.12500097E+03</pdfrwt>
<pdfrwt beam="1">  1       -3 0.58187518E-01 0.12500097E+03</pdfrwt>
<totfact> 0.88636831E+03</totfact>
</mgrwt>
</event>
<event>
 5    1  0.1787806E-056  0.1250026E+03  0.7818608E-02  0.1235065E+00
          3   -1    0    0  501    0  0.00000000000E+00  0.00000000000E+00  0.44540633813E+03  0.44540634784E+03  0.93000000000E-01 0. -1.
         -3   -1    0    0    0  501 -0.00000000000E+00 -0.00000000000E+00 -0.87701841735E+01  0.87706772508E+01  0.93000000000E-01 0.  1.
         25    2    1    2    0    0  0.00000000000E+00  0.00000000000E+00  0.43663615395E+03  0.45417702509E+03  0.12500255668E+03 0.  0.
        -11    1    3    3    0    0 -0.51634100078E+02  0.33616844587E+02  0.25646596305E+03  0.26376308069E+03  0.51100000000E-03 0.  1.
         11    1    3    3    0    0  0.51634100078E+02 -0.33616844587E+02  0.18017019090E+03  0.19041394440E+03  0.51100000000E-03 0. -1.
<mgrwt>
<rscale>  0 0.12500256E+03</rscale>
<asrwt>0</asrwt>
<pdfrwt beam="1">  1        3 0.68524066E-01 0.12500256E+03</pdfrwt>
<pdfrwt beam="2">  1       -3 0.13492983E-02 0.12500256E+03</pdfrwt>
<totfact> 0.80842084E+03</totfact>
</mgrwt>
</event>
<event>
 5    1  0.1787806E-056  0.1250005E+03  0.7818608E-02  0.1235069E+00
          3   -1    0    0  501    0  0.00000000000E+00  0.00000000000E+00  0.28432082153E+02  0.28432234252E+02  0.93000000000E-01 0. -1.
         -3   -1    0    0    0  501 -0.00000000000E+00 -0.00000000000E+00 -0.13738927723E+03  0.13738930871E+03  0.93000000000E-01 0.  1.
         25    2    1    2    0    0  0.00000000000E+00  0.00000000000E+00 -0.10895719508E+03  0.16582154296E+03  0.12500045500E+03 0.  0.
        -11    1    3    3    0    0 -0.28818674702E+02  0.52415874053E+02 -0.30441041420E+02  0.67116293606E+02  0.51100000000E-03 0.  1.
         11    1    3    3    0    0  0.28818674702E+02 -0.52415874053E+02 -0.78516153659E+02  0.98705249354E+02  0.51100000000E-03 0. -1.
<mgrwt>
<rscale>  0 0.12500045E+03</rscale>
<asrwt>0</asrwt>
<pdfrwt beam="1">  1        3 0.43741807E-02 0.12500045E+03</pdfrwt>
<pdfrwt beam="2">  1       -3 0.21136825E-01 0.12500045E+03</pdfrwt>
<totfact> 0.12717122E+04</totfact>
</mgrwt>
</event>
<event>
 5    1  0.1787806E-056  0.1250014E+03  0.7818608E-02  0.1235067E+00
          3   -1    0    0  501    0  0.00000000000E+00  0.00000000000E+00  0.29955343762E+03  0.29955345206E+03  0.93000000000E-01 0. -1.
         -3   -1    0    0    0  501 -0.00000000000E+00 -0.00000000000E+00 -0.13040354142E+02  0.13040685762E+02  0.93000000000E-01 0.  1.
         25    2    1    2    0    0  0.00000000000E+00  0.00000000000E+00  0.28651308348E+03  0.31259413782E+03  0.12500139197E+03 0.  0.
        -11    1    3    3    0    0  0.51095122979E+02 -0.29835015444E+02  0.19361355247E+03  0.20245258072E+03  0.51100000000E-03 0.  1.
         11    1    3    3    0    0 -0.51095122979E+02  0.29835015444E+02  0.92899531005E+02  0.11014155710E+03  0.51100000000E-03 0. -1.
<mgrwt>
<rscale>  0 0.12500139E+03</rscale>
<asrwt>0</asrwt>
<pdfrwt beam="1">  1        3 0.46085168E-01 0.12500139E+03</pdfrwt>
<pdfrwt beam="2">  1       -3 0.20062351E-02 0.12500139E+03</pdfrwt>
<totfact> 0.99390698E+03</totfact>
</mgrwt>
</event>
<event>
 5    1  0.1787806E-056  0.1249984E+03  0.7818608E-02  0.1235072E+00
         -3   -1    0    0    0  501 -0.00000000000E+00  0.00000000000E+00  0.45508338287E+02  0.45508433314E+02  0.93000000000E-01 0.  1.
          3   -1    0    0  501    0  0.00000000000E+00 -0.00000000000E+00 -0.85833549032E+02  0.85833599415E+02  0.93000000000E-01 0. -1.
         25    2    1    2    0    0  0.00000000000E+00  0.00000000000E+00 -0.40325210745E+02  0.13134203273E+03  0.12499842775E+03 0.  0.
        -11    1    3    3    0    0  0.43623345322E+02 -0.44114673893E+02 -0.12226070876E+02  0.63234306505E+02  0.51100000000E-03 0.  1.
         11    1    3    3    0    0 -0.43623345322E+02  0.44114673893E+02 -0.28099139868E+02  0.68107726224E+02  0.51100000000E-03 0. -1.
<mgrwt>
<rscale>  0 0.12499843E+03</rscale>
<asrwt>0</asrwt>
<pdfrwt beam="2">  1        3 0.13205173E-01 0.12499843E+03</pdfrwt>
<pdfrwt beam="1">  1       -3 0.70012940E-02 0.12499843E+03</pdfrwt>
<totfact> 0.13569050E+04</totfact>
</mgrwt>
</event>
<event>
 5    1  0.1787806E-056  0.1250014E+03  0.7818608E-02  0.1235067E+00
         -3   -1    0    0    0  501 -0.00000000000E+00  0.00000000000E+00  0.13180080890E+03  0.13180084172E+03  0.93000000000E-01 0.  1.
          3   -1    0    0  501    0  0.00000000000E+00 -0.00000000000E+00 -0.29638095201E+02  0.29638241111E+02  0.93000000000E-01 0. -1.
         25    2    1    2    0    0  0.00000000000E+00  0.00000000000E+00  0.10216271370E+03  0.16143908283E+03  0.12500142956E+03 0.  0.
        -11    1    3    3    0    0  0.42827578908E+02  0.24390229790E+02  0.10072016737E+03  0.11213222971E+03  0.51100000000E-03 0.  1.
         11    1    3    3    0    0 -0.42827578908E+02 -0.24390229790E+02  0.14425463366E+01  0.49306853119E+02  0.51100000000E-03 0. -1.
<mgrwt>
<rscale>  0 0.12500143E+03</rscale>
<asrwt>0</asrwt>
<pdfrwt beam="2">  1        3 0.45597207E-02 0.12500143E+03</pdfrwt>
<pdfrwt beam="1">  1       -3 0.20277061E-01 0.12500143E+03</pdfrwt>
<totfact> 0.12819770E+04</totfact>
</mgrwt>
</event>
<event>
 4    1  0.1787806E-056  0.1249504E+03  0.7818608E-02  0.1235147E+00
          3   -1    0    0  501    0  0.00000000000E+00  0.00000000000E+00  0.57016220326E+02  0.57016296173E+02  0.93000000000E-01 0. -1.
         -3   -1    0    0    0  501 -0.00000000000E+00 -0.00000000000E+00 -0.68456729481E+02  0.68456792652E+02  0.93000000000E-01 0.  1.
        -11    1    1    2    0    0  0.88490485640E+01  0.45625129675E+02 -0.47646479096E+02  0.66559335100E+02  0.51100000000E-03 0.  1.
         11    1    1    2    0    0 -0.88490485640E+01 -0.45625129675E+02  0.36205969942E+02  0.58913753726E+02  0.51100000000E-03 0. -1.
<mgrwt>
<rscale>  0 0.12495043E+03</rscale>
<asrwt>0</asrwt>
<pdfrwt beam="1">  1        3 0.87717369E-02 0.12495043E+03</pdfrwt>
<pdfrwt beam="2">  1       -3 0.10531815E-01 0.12495043E+03</pdfrwt>
<totfact> 0.13739192E+04</totfact>
</mgrwt>
</event>
<event>
 5    1  0.1787806E-056  0.1249985E+03  0.7818608E-02  0.1235072E+00
          3   -1    0    0  501    0  0.00000000000E+00  0.00000000000E+00  0.41054432971E+03  0.41054434024E+03  0.93000000000E-01 0. -1.
         -3   -1    0    0    0  501 -0.00000000000E+00 -0.00000000000E+00 -0.95143352701E+01  0.95147897839E+01  0.93000000000E-01 0.  1.
         25    2    1    2    0    0  0.00000000000E+00  0.00000000000E+00  0.40102999444E+03  0.42005913003E+03  0.12499846511E+03 0.  0.
        -11    1    3    3    0    0 -0.61992667155E+02  0.79181365646E+01  0.19848083962E+03  0.20808755697E+03  0.51100000000E-03 0.  1.
         11    1    3    3    0    0  0.61992667155E+02 -0.79181365646E+01  0.20254915482E+03  0.21197157306E+03  0.51100000000E-03 0. -1.
<mgrwt>
<rscale>  0 0.12499847E+03</rscale>
<asrwt>0</asrwt>
<pdfrwt beam="1">  1        3 0.63160706E-01 0.12499847E+03</pdfrwt>
<pdfrwt beam="2">  1       -3 0.14637796E-02 0.12499847E+03</pdfrwt>
<totfact> 0.84789063E+03</totfact>
</mgrwt>
</event>
<event>
 5    1  0.1787806E-056  0.1250030E+03  0.7818608E-02  0.1235065E+00
         -3   -1    0    0    0  501 -0.00000000000E+00  0.00000000000E+00  0.44635585995E+03  0.44635586964E+03  0.93000000000E-01 0.  1.
          3   -1    0    0  501    0  0.00000000000E+00 -0.00000000000E+00 -0.87515818096E+01  0.87520759349E+01  0.93000000000E-01 0. -1.
         25    2    1    2    0    0  0.00000000000E+00  0.00000000000E+00  0.43760427814E+03  0.45510794558E+03  0.12500295147E+03 0.  0.
        -11    1    3    3    0    0  0.28876166147E+02 -0.55358521311E+02  0.20848156779E+03  0.21763033557E+03  0.51100000000E-03 0.  1.
         11    1    3    3    0    0 -0.28876166147E+02  0.55358521311E+02  0.22912271035E+03  0.23747761000E+03  0.51100000000E-03 0. -1.
<mgrwt>
<rscale>  0 0.12500295E+03</rscale>
<asrwt>0</asrwt>
<pdfrwt beam="2">  1        3 0.13464359E-02 0.12500295E+03</pdfrwt>
<pdfrwt beam="1">  1       -3 0.68670174E-01 0.12500295E+03</pdfrwt>
<totfact> 0.80660288E+03</totfact>
</mgrwt>
</event>
<event>
 5    1  0.1787806E-056  0.1250024E+03  0.7818608E-02  0.1235066E+00
         -3   -1    0    0    0  501 -0.00000000000E+00  0.00000000000E+00  0.44875660117E+03  0.44875661081E+03  0.93000000000E-01 0.  1.
          3   -1    0    0  501    0  0.00000000000E+00 -0.00000000000E+00 -0.87046840630E+01  0.87051808503E+01  0.93000000000E-01 0. -1.
         25    2    1    2    0    0  0.00000000000E+00  0.00000000000E+00  0.44005191711E+03  0.45746179166E+03  0.12500240428E+03 0.  0.
        -11    1    3    3    0    0 -0.46288059434E+02  0.36918734068E+02  0.14675823098E+03  0.15825155839E+03  0.51100000000E-03 0.  1.
         11    1    3    3    0    0  0.46288059434E+02 -0.36918734068E+02  0.29329368612E+03  0.29921023327E+03  0.51100000000E-03 0. -1.
<mgrwt>
<rscale>  0 0.12500240E+03</rscale>
<asrwt>0</asrwt>
<pdfrwt beam="2">  1        3 0.13392212E-02 0.12500240E+03</pdfrwt>
<pdfrwt beam="1">  1       -3 0.69039513E-01 0.12500240E+03</pdfrwt>
<totfact> 0.80399872E+03</totfact>
</mgrwt>
</event>
<event>
 5    1  0.1787806E-056  0.1250026E+03  0.7818608E-02  0.1235065E+00
         -3   -1    0    0    0  501 -0.00000000000E+00  0.00000000000E+00  0.14213556946E+02  0.14213861194E+02  0.93000000000E-01 0.  1.
          3   -1    0    0  501    0  0.00000000000E+00 -0.00000000000E+00 -0.27483368864E+03  0.27483370438E+03  0.93000000000E-01 0. -1.
         25    2    1    2    0    0  0.00000000000E+00  0.00000000000E+00 -0.26062013170E+03  0.28904756557E+03  0.12500256844E+03 0.  0.
        -11    1    3    3    0    0  0.38900773916E+02  0.47201344720E+02 -0.10059200962E+03  0.11772845686E+03  0.51100000000E-03 0.  1.
         11    1    3    3    0    0 -0.38900773916E+02 -0.47201344720E+02 -0.16002812208E+03  0.17131910871E+03  0.51100000000E-03 0. -1.
<mgrwt>
<rscale>  0 0.12500257E+03</rscale>
<asrwt>0</asrwt>
<pdfrwt beam="2">  1        3 0.42282127E-01 0.12500257E+03</pdfrwt>
<pdfrwt beam="1">  1       -3 0.21867259E-02 0.12500257E+03</pdfrwt>
<totfact> 0.10312846E+04</totfact>
</mgrwt>
</event>
<event>
 5    1  0.1787806E-056  0.1250013E+03  0.7818608E-02  0.1235067E+00
         -3   -1    0    0    0  501 -0.00000000000E+00  0.00000000000E+00  0.93366629171E+02  0.93366675488E+02  0.93000000000E-01 0.  1.
          3   -1    0    0  501    0  0.00000000000E+00 -0.00000000000E+00 -0.41838541813E+02  0.41838645175E+02  0.93000000000E-01 0. -1.
         25    2    1    2    0    0  0.00000000000E+00  0.00000000000E+00  0.51528087357E+02  0.13520532066E+03  0.12500133979E+03 0.  0.
        -11    1    3    3    0    0 -0.13914476008E+01 -0.53366769381E+02  0.60919305588E+02  0.81000678973E+02  0.51100000000E-03 0.  1.
         11    1    3    3    0    0  0.13914476008E+01  0.53366769381E+02 -0.93912182304E+01  0.54204641690E+02  0.51100000000E-03 0. -1.
<mgrwt>
<rscale>  0 0.12500134E+03</rscale>
<asrwt>0</asrwt>
<pdfrwt beam="2">  1        3 0.64367103E-02 0.12500134E+03</pdfrwt>
<pdfrwt beam="1">  1       -3 0.14364108E-01 0.12500134E+03</pdfrwt>
<totfact> 0.13467871E+04</totfact>
</mgrwt>
</event>
<event>
 5    1  0.1787806E-056  0.1249971E+03  0.7818608E-02  0.1235074E+00
          3   -1    0    0  501    0  0.00000000000E+00  0.00000000000E+00  0.22226061220E+02  0.22226255788E+02  0.93000000000E-01 0. -1.
         -3   -1    0    0    0  501 -0.00000000000E+00 -0.00000000000E+00 -0.17574163875E+03  0.17574166336E+03  0.93000000000E-01 0.  1.
         25    2    1    2    0    0  0.00000000000E+00  0.00000000000E+00 -0.15351557753E+03  0.19796791915E+03  0.12499705783E+03 0.  0.
        -11    1    3    3    0    0  0.55302366581E+02  0.29075392572E+02 -0.74337186536E+02  0.97106887011E+02  0.51100000000E-03 0.  1.
         11    1    3    3    0    0 -0.55302366581E+02 -0.29075392572E+02 -0.79178390999E+02  0.10086103214E+03  0.51100000000E-03 0. -1.
<mgrwt>
<rscale>  0 0.12499706E+03</rscale>
<asrwt>0</asrwt>
<pdfrwt beam="1">  1        3 0.34194110E-02 0.12499706E+03</pdfrwt>
<pdfrwt beam="2">  1       -3 0.27037191E-01 0.12499706E+03</pdfrwt>
<totfact> 0.12005088E+04</totfact>
</mgrwt>
</event>
<event>
 5    1  0.1787806E-056  0.1250021E+03  0.7818608E-02  0.1235066E+00
         -3   -1    0    0    0  501 -0.00000000000E+00  0.00000000000E+00  0.10345651419E+02  0.10346069412E+02  0.93000000000E-01 0.  1.
          3   -1    0    0  501    0  0.00000000000E+00 -0.00000000000E+00 -0.37757872368E+03  0.37757873513E+03  0.93000000000E-01 0. -1.
         25    2    1    2    0    0  0.00000000000E+00  0.00000000000E+00 -0.36723307226E+03  0.38792480455E+03  0.12500209846E+03 0.  0.
        -11    1    3    3    0    0 -0.61962243947E+02 -0.81753918668E+01 -0.18508677426E+03  0.19535421857E+03  0.51100000000E-03 0.  1.
         11    1    3    3    0    0  0.61962243947E+02  0.81753918668E+01 -0.18214629800E+03  0.19257058598E+03  0.51100000000E-03 0. -1.
<mgrwt>
<rscale>  0 0.12500210E+03</rscale>
<asrwt>0</asrwt>
<pdfrwt beam="2">  1        3 0.58089057E-01 0.12500210E+03</pdfrwt>
<pdfrwt beam="1">  1       -3 0.15916720E-02 0.12500210E+03</pdfrwt>
<totfact> 0.88773860E+03</totfact>
</mgrwt>
</event>
<event>
 5    1  0.1787806E-056  0.1249984E+03  0.7818608E-02  0.1235072E+00
          3   -1    0    0  501    0  0.00000000000E+00  0.00000000000E+00  0.14537772450E+03  0.14537775425E+03  0.93000000000E-01 0. -1.
         -3   -1    0    0    0  501 -0.00000000000E+00 -0.00000000000E+00 -0.26868875911E+02  0.26869036859E+02  0.93000000000E-01 0.  1.
         25    2    1    2    0    0  0.00000000000E+00  0.00000000000E+00  0.11850884859E+03  0.17224679110E+03  0.12499843940E+03 0.  0.
        -11    1    3    3    0    0 -0.45896075572E+02  0.42422890573E+02  0.59209448849E+02  0.86092451648E+02  0.51100000000E-03 0.  1.
         11    1    3    3    0    0  0.45896075572E+02 -0.42422890573E+02  0.59299399740E+02  0.86154339457E+02  0.51100000000E-03 0. -1.
<mgrwt>
<rscale>  0 0.12499844E+03</rscale>
<asrwt>0</asrwt>
<pdfrwt beam="1">  1        3 0.22365819E-01 0.12499844E+03</pdfrwt>
<pdfrwt beam="2">  1       -3 0.41336879E-02 0.12499844E+03</pdfrwt>
<totfact> 0.12569521E+04</totfact>
</mgrwt>
</event>
<event>
 5    1  0.1787806E-056  0.1250021E+03  0.7818608E-02  0.1235066E+00
         -3   -1    0    0    0  501 -0.00000000000E+00  0.00000000000E+00  0.77545133109E+02  0.77545188877E+02  0.93000000000E-01 0.  1.
          3   -1    0    0  501    0  0.00000000000E+00 -0.00000000000E+00 -0.50375492394E+02  0.50375578239E+02  0.93000000000E-01 0. -1.
         25    2    1    2    0    0  0.00000000000E+00  0.00000000000E+00  0.27169640716E+02  0.12792076712E+03  0.12500213311E+03 0.  0.
        -11    1    3    3    0    0  0.58613799440E+02 -0.87589987989E+01  0.33899922524E+02  0.68275195292E+02  0.51100000000E-03 0. -1.
         11    1    3    3    0    0 -0.58613799440E+02  0.87589987989E+01 -0.67302818083E+01  0.59645571824E+02  0.51100000000E-03 0.  1.
<mgrwt>
<rscale>  0 0.12500213E+03</rscale>
<asrwt>0</asrwt>
<pdfrwt beam="2">  1        3 0.77500866E-02 0.12500213E+03</pdfrwt>
<pdfrwt beam="1">  1       -3 0.11930031E-01 0.12500213E+03</pdfrwt>
<totfact> 0.13657934E+04</totfact>
</mgrwt>
</event>
<event>
 5    1  0.1787806E-056  0.1250010E+03  0.7818608E-02  0.1235068E+00
          3   -1    0    0  501    0  0.00000000000E+00  0.00000000000E+00  0.34306159675E+02  0.34306285731E+02  0.93000000000E-01 0.  1.
         -3   -1    0    0    0  501 -0.00000000000E+00 -0.00000000000E+00 -0.11386586827E+03  0.11386590625E+03  0.93000000000E-01 0. -1.
         25    2    1    2    0    0  0.00000000000E+00  0.00000000000E+00 -0.79559708591E+02  0.14817219198E+03  0.12500100497E+03 0.  0.
        -11    1    3    3    0    0 -0.44065373606E+02  0.42798363129E+02 -0.53442770870E+02  0.81422274570E+02  0.51100000000E-03 0. -1.
         11    1    3    3    0    0  0.44065373606E+02 -0.42798363129E+02 -0.26116937721E+02  0.66749917406E+02  0.51100000000E-03 0.  1.
<mgrwt>
<rscale>  0 0.12500100E+03</rscale>
<asrwt>0</asrwt>
<pdfrwt beam="1">  1        3 0.52778834E-02 0.12500100E+03</pdfrwt>
<pdfrwt beam="2">  1       -3 0.17517838E-01 0.12500100E+03</pdfrwt>
<totfact> 0.13140459E+04</totfact>
</mgrwt>
</event>
<event>
 5    1  0.1787806E-056  0.1250008E+03  0.7818608E-02  0.1235068E+00
         -3   -1    0    0    0  501 -0.00000000000E+00  0.00000000000E+00  0.17245928040E+02  0.17246178793E+02  0.93000000000E-01 0.  1.
          3   -1    0    0  501    0  0.00000000000E+00 -0.00000000000E+00 -0.22650391352E+03  0.22650393261E+03  0.93000000000E-01 0. -1.
         25    2    1    2    0    0  0.00000000000E+00  0.00000000000E+00 -0.20925798548E+03  0.24375011141E+03  0.12500084929E+03 0.  0.
        -11    1    3    3    0    0  0.19044651850E+01 -0.61003389750E+02 -0.78375573131E+02  0.99336654929E+02  0.51100000000E-03 0.  1.
         11    1    3    3    0    0 -0.19044651850E+01  0.61003389750E+02 -0.13088241235E+03  0.14441345648E+03  0.51100000000E-03 0. -1.
<mgrwt>
<rscale>  0 0.12500085E+03</rscale>
<asrwt>0</asrwt>
<pdfrwt beam="2">  1        3 0.34846775E-01 0.12500085E+03</pdfrwt>
<pdfrwt beam="1">  1       -3 0.26532406E-02 0.12500085E+03</pdfrwt>
<totfact> 0.11100868E+04</totfact>
</mgrwt>
</event>
<event>
 5    1  0.1787806E-056  0.1249998E+03  0.7818608E-02  0.1235070E+00
         -3   -1    0    0    0  501 -0.00000000000E+00  0.00000000000E+00  0.15140965533E+03  0.15140968389E+03  0.93000000000E-01 0.  1.
          3   -1    0    0  501    0  0.00000000000E+00 -0.00000000000E+00 -0.25799034325E+02  0.25799201947E+02  0.93000000000E-01 0. -1.
         25    2    1    2    0    0  0.00000000000E+00  0.00000000000E+00  0.12561062101E+03  0.17720888584E+03  0.12499984444E+03 0.  0.
        -11    1    3    3    0    0  0.39974390617E+02  0.46956981200E+02  0.77216168674E+02  0.98819262766E+02  0.51100000000E-03 0.  1.
         11    1    3    3    0    0 -0.39974390617E+02 -0.46956981200E+02  0.48394452331E+02  0.78389623072E+02  0.51100000000E-03 0. -1.
<mgrwt>
<rscale>  0 0.12499984E+03</rscale>
<asrwt>0</asrwt>
<pdfrwt beam="2">  1        3 0.39690973E-02 0.12499984E+03</pdfrwt>
<pdfrwt beam="1">  1       -3 0.23293808E-01 0.12499984E+03</pdfrwt>
<totfact> 0.12456391E+04</totfact>
</mgrwt>
</event>
<event>
 5    1  0.1787806E-056  0.1250009E+03  0.7818608E-02  0.1235068E+00
          3   -1    0    0  501    0  0.00000000000E+00  0.00000000000E+00  0.76200769265E+02  0.76200826016E+02  0.93000000000E-01 0.  1.
         -3   -1    0    0    0  501 -0.00000000000E+00 -0.00000000000E+00 -0.51263235142E+02  0.51263319501E+02  0.93000000000E-01 0. -1.
         25    2    1    2    0    0  0.00000000000E+00  0.00000000000E+00  0.24937534123E+02  0.12746414552E+03  0.12500091113E+03 0.  0.
        -11    1    3    3    0    0  0.66810919914E+01 -0.49289524442E+02 -0.26121574811E+02  0.56182122430E+02  0.51100000000E-03 0. -1.
         11    1    3    3    0    0 -0.66810919914E+01  0.49289524442E+02  0.51059108934E+02  0.71282023087E+02  0.51100000000E-03 0.  1.
<mgrwt>
<rscale>  0 0.12500091E+03</rscale>
<asrwt>0</asrwt>
<pdfrwt beam="1">  1        3 0.11723206E-01 0.12500091E+03</pdfrwt>
<pdfrwt beam="2">  1       -3 0.78866624E-02 0.12500091E+03</pdfrwt>
<totfact> 0.13670264E+04</totfact>
</mgrwt>
</event>
<event>
 5    1  0.1787806E-056  0.1249905E+03  0.7818608E-02  0.1235084E+00
          3   -1    0    0  501    0  0.00000000000E+00  0.00000000000E+00  0.13864483908E+03  0.13864487027E+03  0.93000000000E-01 0. -1.
         -3   -1    0    0    0  501 -0.00000000000E+00 -0.00000000000E+00 -0.28170112905E+02  0.28170266419E+02  0.93000000000E-01 0.  1.
         25    2    1    2    0    0  0.00000000000E+00  0.00000000000E+00  0.11047472618E+03  0.16681513669E+03  0.12499049846E+03 0.  0.
        -11    1    3    3    0    0 -0.58547461331E+02  0.17359598220E+02  0.37506698065E+02  0.71665286427E+02  0.51100000000E-03 0.  1.
         11    1    3    3    0    0  0.58547461331E+02 -0.17359598220E+02  0.72968028114E+02  0.95149850266E+02  0.51100000000E-03 0. -1.
<mgrwt>
<rscale>  0 0.12499050E+03</rscale>
<asrwt>0</asrwt>
<pdfrwt beam="1">  1        3 0.21329989E-01 0.12499050E+03</pdfrwt>
<pdfrwt beam="2">  1       -3 0.43338779E-02 0.12499050E+03</pdfrwt>
<totfact> 0.12696921E+04</totfact>
</mgrwt>
</event>
<event>
 5    1  0.1787806E-056  0.1250001E+03  0.7818608E-02  0.1235069E+00
          3   -1    0    0  501    0  0.00000000000E+00  0.00000000000E+00  0.14256889529E+02  0.14257192853E+02  0.93000000000E-01 0. -1.
         -3   -1    0    0    0  501 -0.00000000000E+00 -0.00000000000E+00 -0.27398767583E+03  0.27398769162E+03  0.93000000000E-01 0.  1.
         25    2    1    2    0    0  0.00000000000E+00  0.00000000000E+00 -0.25973078630E+03  0.28824488447E+03  0.12500012828E+03 0.  0.
        -11    1    3    3    0    0 -0.26179224664E+02 -0.46258020965E+02 -0.20568550607E+03  0.21244218911E+03  0.51100000000E-03 0.  1.
         11    1    3    3    0    0  0.26179224664E+02  0.46258020965E+02 -0.54045280236E+02  0.75802695359E+02  0.51100000000E-03 0. -1.
<mgrwt>
<rscale>  0 0.12500013E+03</rscale>
<asrwt>0</asrwt>
<pdfrwt beam="1">  1        3 0.21933924E-02 0.12500013E+03</pdfrwt>
<pdfrwt beam="2">  1       -3 0.42151971E-01 0.12500013E+03</pdfrwt>
<totfact> 0.10323528E+04</totfact>
</mgrwt>
</event>
<event>
 5    1  0.1787806E-056  0.1250026E+03  0.7818608E-02  0.1235065E+00
          3   -1    0    0  501    0  0.00000000000E+00  0.00000000000E+00  0.22235648476E+02  0.22235842960E+02  0.93000000000E-01 0. -1.
         -3   -1    0    0    0  501 -0.00000000000E+00 -0.00000000000E+00 -0.17568151940E+03  0.17568154401E+03  0.93000000000E-01 0.  1.
         25    2    1    2    0    0  0.00000000000E+00  0.00000000000E+00 -0.15344587092E+03  0.19791738698E+03  0.12500262703E+03 0.  0.
        -11    1    3    3    0    0  0.52010438767E+02  0.32894532994E+02 -0.59430934380E+02  0.85552159547E+02  0.51100000000E-03 0. -1.
         11    1    3    3    0    0 -0.52010438767E+02 -0.32894532994E+02 -0.94014936543E+02  0.11236522743E+03  0.51100000000E-03 0.  1.
<mgrwt>
<rscale>  0 0.12500263E+03</rscale>
<asrwt>0</asrwt>
<pdfrwt beam="1">  1        3 0.34208860E-02 0.12500263E+03</pdfrwt>
<pdfrwt beam="2">  1       -3 0.27027942E-01 0.12500263E+03</pdfrwt>
<totfact> 0.12004654E+04</totfact>
</mgrwt>
</event>
<event>
 5    1  0.1787806E-056  0.1250033E+03  0.7818608E-02  0.1235064E+00
         -3   -1    0    0    0  501 -0.00000000000E+00  0.00000000000E+00  0.40438942031E+02  0.40439048970E+02  0.93000000000E-01 0.  1.
          3   -1    0    0  501    0  0.00000000000E+00 -0.00000000000E+00 -0.96601062437E+02  0.96601107203E+02  0.93000000000E-01 0. -1.
         25    2    1    2    0    0  0.00000000000E+00  0.00000000000E+00 -0.56162120406E+02  0.13704015617E+03  0.12500328250E+03 0.  0.
        -11    1    3    3    0    0 -0.43010433031E+02 -0.36316398999E+02  0.16944725587E+01  0.56317398939E+02  0.51100000000E-03 0.  1.
         11    1    3    3    0    0  0.43010433031E+02  0.36316398999E+02 -0.57856592964E+02  0.80722757234E+02  0.51100000000E-03 0. -1.
<mgrwt>
<rscale>  0 0.12500328E+03</rscale>
<asrwt>0</asrwt>
<pdfrwt beam="2">  1        3 0.14861714E-01 0.12500328E+03</pdfrwt>
<pdfrwt beam="1">  1       -3 0.62213874E-02 0.12500328E+03</pdfrwt>
<totfact> 0.13419903E+04</totfact>
</mgrwt>
</event>
<event>
 5    1  0.1787806E-056  0.1250010E+03  0.7818608E-02  0.1235068E+00
          3   -1    0    0  501    0  0.00000000000E+00  0.00000000000E+00  0.25914429051E+02  0.25914595927E+02  0.93000000000E-01 0. -1.
         -3   -1    0    0    0  501 -0.00000000000E+00 -0.00000000000E+00 -0.15073819018E+03  0.15073821887E+03  0.93000000000E-01 0.  1.
         25    2    1    2    0    0  0.00000000000E+00  0.00000000000E+00 -0.12482376113E+03  0.17665281480E+03  0.12500098253E+03 0.  0.
        -11    1    3    3    0    0 -0.58488592989E+02  0.17695003093E+02 -0.43862558141E+02  0.75219363539E+02  0.51100000000E-03 0.  1.
         11    1    3    3    0    0  0.58488592989E+02 -0.17695003093E+02 -0.80961202989E+02  0.10143345126E+03  0.51100000000E-03 0. -1.
<mgrwt>
<rscale>  0 0.12500098E+03</rscale>
<asrwt>0</asrwt>
<pdfrwt beam="1">  1        3 0.39868504E-02 0.12500098E+03</pdfrwt>
<pdfrwt beam="2">  1       -3 0.23190505E-01 0.12500098E+03</pdfrwt>
<totfact> 0.12468596E+04</totfact>
</mgrwt>
</event>
<event>
 5    1  0.1787806E-056  0.1249934E+03  0.7818608E-02  0.1235080E+00
          3   -1    0    0  501    0  0.00000000000E+00  0.00000000000E+00  0.76527866282E+02  0.76527922791E+02  0.93000000000E-01 0. -1.
         -3   -1    0    0    0  501 -0.00000000000E+00 -0.00000000000E+00 -0.51037982235E+02  0.51038066966E+02  0.93000000000E-01 0.  1.
         25    2    1    2    0    0  0.00000000000E+00  0.00000000000E+00  0.25489884047E+02  0.12756598976E+03  0.12499339004E+03 0.  0.
        -11    1    3    3    0    0 -0.51457157014E+02  0.33668865201E+02  0.13616607957E+01  0.61508419036E+02  0.51100000000E-03 0.  1.
         11    1    3    3    0    0  0.51457157014E+02 -0.33668865201E+02  0.24128223251E+02  0.66057570720E+02  0.51100000000E-03 0. -1.
<mgrwt>
<rscale>  0 0.12499339E+03</rscale>
<asrwt>0</asrwt>
<pdfrwt beam="1">  1        3 0.11773529E-01 0.12499339E+03</pdfrwt>
<pdfrwt beam="2">  1       -3 0.78520082E-02 0.12499339E+03</pdfrwt>
<totfact> 0.13669885E+04</totfact>
</mgrwt>
</event>
<event>
 5    1  0.1787806E-056  0.1250046E+03  0.7818608E-02  0.1235062E+00
         -3   -1    0    0    0  501 -0.00000000000E+00  0.00000000000E+00  0.22305521348E+02  0.22305715223E+02  0.93000000000E-01 0.  1.
          3   -1    0    0  501    0  0.00000000000E+00 -0.00000000000E+00 -0.17513664835E+03  0.17513667304E+03  0.93000000000E-01 0. -1.
         25    2    1    2    0    0  0.00000000000E+00  0.00000000000E+00 -0.15283112700E+03  0.19744238826E+03  0.12500457313E+03 0.  0.
        -11    1    3    3    0    0  0.57999643607E+02 -0.21882908075E+02 -0.89023297751E+02  0.10848026487E+03  0.51100000000E-03 0.  1.
         11    1    3    3    0    0 -0.57999643607E+02  0.21882908075E+02 -0.63807829249E+02  0.88962123390E+02  0.51100000000E-03 0. -1.
<mgrwt>
<rscale>  0 0.12500457E+03</rscale>
<asrwt>0</asrwt>
<pdfrwt beam="2">  1        3 0.26944116E-01 0.12500457E+03</pdfrwt>
<pdfrwt beam="1">  1       -3 0.34316356E-02 0.12500457E+03</pdfrwt>
<totfact> 0.12014816E+04</totfact>
</mgrwt>
</event>
<event>
 5    1  0.1787806E-056  0.1250030E+03  0.7818608E-02  0.1235065E+00
         -3   -1    0    0    0  501 -0.00000000000E+00  0.00000000000E+00  0.31437190814E+02  0.31437328373E+02  0.93000000000E-01 0.  1.
          3   -1    0    0  501    0  0.00000000000E+00 -0.00000000000E+00 -0.12426130849E+03  0.12426134329E+03  0.93000000000E-01 0. -1.
         25    2    1    2    0    0  0.00000000000E+00  0.00000000000E+00 -0.92824117674E+02  0.15569867166E+03  0.12500303811E+03 0.  0.
        -11    1    3    3    0    0  0.16437037694E+01 -0.60163848619E+02 -0.67404420914E+02  0.90364519595E+02  0.51100000000E-03 0.  1.
         11    1    3    3    0    0 -0.16437037694E+01  0.60163848619E+02 -0.25419696760E+02  0.65334152067E+02  0.51100000000E-03 0. -1.
<mgrwt>
<rscale>  0 0.12500304E+03</rscale>
<asrwt>0</asrwt>
<pdfrwt beam="2">  1        3 0.19117137E-01 0.12500304E+03</pdfrwt>
<pdfrwt beam="1">  1       -3 0.48365042E-02 0.12500304E+03</pdfrwt>
<totfact> 0.12956362E+04</totfact>
</mgrwt>
</event>
<event>
 5    1  0.1787806E-056  0.1249960E+03  0.7818608E-02  0.1235076E+00
          3   -1    0    0  501    0  0.00000000000E+00  0.00000000000E+00  0.50430596327E+02  0.50430682078E+02  0.93000000000E-01 0. -1.
         -3   -1    0    0    0  501 -0.00000000000E+00 -0.00000000000E+00 -0.77452765948E+02  0.77452821782E+02  0.93000000000E-01 0.  1.
         25    2    1    2    0    0  0.00000000000E+00  0.00000000000E+00 -0.27022169621E+02  0.12788350386E+03  0.12499597157E+03 0.  0.
        -11    1    3    3    0    0  0.61819043986E+02 -0.91789001755E+01 -0.13112444053E+02  0.63857517937E+02  0.51100000000E-03 0.  1.
         11    1    3    3    0    0 -0.61819043986E+02  0.91789001755E+01 -0.13909725569E+02  0.64025985923E+02  0.51100000000E-03 0. -1.
<mgrwt>
<rscale>  0 0.12499597E+03</rscale>
<asrwt>0</asrwt>
<pdfrwt beam="1">  1        3 0.77585642E-02 0.12499597E+03</pdfrwt>
<pdfrwt beam="2">  1       -3 0.11915821E-01 0.12499597E+03</pdfrwt>
<totfact> 0.13660818E+04</totfact>
</mgrwt>
</event>
<event>
 5    1  0.1787806E-056  0.1249983E+03  0.7818608E-02  0.1235072E+00
          3   -1    0    0  501    0  0.00000000000E+00  0.00000000000E+00  0.28233739043E+02  0.28233892210E+02  0.93000000000E-01 0. -1.
         -3   -1    0    0    0  501 -0.00000000000E+00 -0.00000000000E+00 -0.13834969631E+03  0.13834972757E+03  0.93000000000E-01 0.  1.
         25    2    1    2    0    0  0.00000000000E+00  0.00000000000E+00 -0.11011595727E+03  0.16658361978E+03  0.12499831332E+03 0.  0.
        -11    1    3    3    0    0  0.28622047217E+02  0.55154846362E+02 -0.63984585865E+02  0.89192521506E+02  0.51100000000E-03 0.  1.
         11    1    3    3    0    0 -0.28622047217E+02 -0.55154846362E+02 -0.46131371403E+02  0.77391098273E+02  0.51100000000E-03 0. -1.
<mgrwt>
<rscale>  0 0.12499831E+03</rscale>
<asrwt>0</asrwt>
<pdfrwt beam="1">  1        3 0.43436664E-02 0.12499831E+03</pdfrwt>
<pdfrwt beam="2">  1       -3 0.21284583E-01 0.12499831E+03</pdfrwt>
<totfact> 0.12699987E+04</totfact>
</mgrwt>
</event>
<event>
 5    1  0.1787806E-056  0.1250091E+03  0.7818608E-02  0.1235055E+00
          3   -1    0    0  501    0  0.00000000000E+00  0.00000000000E+00  0.49732813959E+02  0.49732900914E+02  0.93000000000E-01 0. -1.
         -3   -1    0    0    0  501 -0.00000000000E+00 -0.00000000000E+00 -0.78556005640E+02  0.78556060689E+02  0.93000000000E-01 0.  1.
         25    2    1    2    0    0  0.00000000000E+00  0.00000000000E+00 -0.28823191680E+02  0.12828896160E+03  0.12500912483E+03 0.  0.
        -11    1    3    3    0    0 -0.18771632522E+02  0.57680170541E+02  0.10653362118E+01  0.60667216869E+02  0.51100000000E-03 0.  1.
         11    1    3    3    0    0  0.18771632522E+02 -0.57680170541E+02 -0.29888527892E+02  0.67621744734E+02  0.51100000000E-03 0. -1.
<mgrwt>
<rscale>  0 0.12500912E+03</rscale>
<asrwt>0</asrwt>
<pdfrwt beam="1">  1        3 0.76512130E-02 0.12500912E+03</pdfrwt>
<pdfrwt beam="2">  1       -3 0.12085550E-01 0.12500912E+03</pdfrwt>
<totfact> 0.13646063E+04</totfact>
</mgrwt>
</event>
<event>
 5    1  0.1787806E-056  0.1249986E+03  0.7818608E-02  0.1235072E+00
         -3   -1    0    0    0  501 -0.00000000000E+00  0.00000000000E+00  0.15171078765E+03  0.15171081616E+03  0.93000000000E-01 0.  1.
          3   -1    0    0  501    0  0.00000000000E+00 -0.00000000000E+00 -0.25747301610E+02  0.25747469569E+02  0.93000000000E-01 0. -1.
         25    2    1    2    0    0  0.00000000000E+00  0.00000000000E+00  0.12596348604E+03  0.17745828573E+03  0.12499857342E+03 0.  0.
        -11    1    3    3    0    0  0.43040057845E+02  0.43597908861E+02  0.80538607004E+02  0.10119136057E+03  0.51100000000E-03 0.  1.
         11    1    3    3    0    0 -0.43040057845E+02 -0.43597908861E+02  0.45424879039E+02  0.76266925153E+02  0.51100000000E-03 0. -1.
<mgrwt>
<rscale>  0 0.12499857E+03</rscale>
<asrwt>0</asrwt>
<pdfrwt beam="2">  1        3 0.39611384E-02 0.12499857E+03</pdfrwt>
<pdfrwt beam="1">  1       -3 0.23340136E-01 0.12499857E+03</pdfrwt>
<totfact> 0.12451137E+04</totfact>
</mgrwt>
</event>
<event>
 5    1  0.1787806E-056  0.1250005E+03  0.7818608E-02  0.1235069E+00
         -3   -1    0    0    0  501 -0.00000000000E+00  0.00000000000E+00  0.11188795595E+02  0.11189182091E+02  0.93000000000E-01 0.  1.
          3   -1    0    0  501    0  0.00000000000E+00 -0.00000000000E+00 -0.34911782565E+03  0.34911783804E+03  0.93000000000E-01 0. -1.
         25    2    1    2    0    0  0.00000000000E+00  0.00000000000E+00 -0.33792903006E+03  0.36030702013E+03  0.12500047760E+03 0.  0.
        -11    1    3    3    0    0  0.45896091030E+02  0.40374378516E+02 -0.13141097387E+03  0.14493234859E+03  0.51100000000E-03 0.  1.
         11    1    3    3    0    0 -0.45896091030E+02 -0.40374378516E+02 -0.20651805618E+03  0.21537467154E+03  0.51100000000E-03 0. -1.
<mgrwt>
<rscale>  0 0.12500048E+03</rscale>
<asrwt>0</asrwt>
<pdfrwt beam="2">  1        3 0.53710457E-01 0.12500048E+03</pdfrwt>
<pdfrwt beam="1">  1       -3 0.17213841E-02 0.12500048E+03</pdfrwt>
<totfact> 0.92449306E+03</totfact>
</mgrwt>
</event>
<event>
 5    1  0.1787806E-056  0.1250003E+03  0.7818608E-02  0.1235069E+00
         -3   -1    0    0    0  501 -0.00000000000E+00  0.00000000000E+00  0.12614911817E+03  0.12614915246E+03  0.93000000000E-01 0.  1.
          3   -1    0    0  501    0  0.00000000000E+00 -0.00000000000E+00 -0.30965400755E+02  0.30965540410E+02  0.93000000000E-01 0. -1.
         25    2    1    2    0    0  0.00000000000E+00  0.00000000000E+00  0.95183717420E+02  0.15711469287E+03  0.12500034661E+03 0.  0.
        -11    1    3    3    0    0  0.51360132371E+02  0.14744610756E+02  0.68437029192E+01  0.53871170522E+02  0.51100000000E-03 0. -1.
         11    1    3    3    0    0 -0.51360132371E+02 -0.14744610756E+02  0.88340014501E+02  0.10324352234E+03  0.51100000000E-03 0.  1.
<mgrwt>
<rscale>  0 0.12500035E+03</rscale>
<asrwt>0</asrwt>
<pdfrwt beam="2">  1        3 0.47639211E-02 0.12500035E+03</pdfrwt>
<pdfrwt beam="1">  1       -3 0.19407570E-01 0.12500035E+03</pdfrwt>
<totfact> 0.12923139E+04</totfact>
</mgrwt>
</event>
<event>
 5    1  0.1787806E-056  0.1250042E+03  0.7818608E-02  0.1235063E+00
          3   -1    0    0  501    0  0.00000000000E+00  0.00000000000E+00  0.69215244804E+02  0.69215307283E+02  0.93000000000E-01 0. -1.
         -3   -1    0    0    0  501 -0.00000000000E+00 -0.00000000000E+00 -0.56439931869E+02  0.56440008490E+02  0.93000000000E-01 0.  1.
         25    2    1    2    0    0  0.00000000000E+00  0.00000000000E+00  0.12775312935E+02  0.12565531577E+03  0.12500419898E+03 0.  0.
        -11    1    3    3    0    0  0.34646353983E+02 -0.31780676628E+02 -0.35010974977E+02  0.58618679790E+02  0.51100000000E-03 0.  1.
         11    1    3    3    0    0 -0.34646353983E+02  0.31780676628E+02  0.47786287912E+02  0.67036635983E+02  0.51100000000E-03 0. -1.
<mgrwt>
<rscale>  0 0.12500420E+03</rscale>
<asrwt>0</asrwt>
<pdfrwt beam="1">  1        3 0.10648510E-01 0.12500420E+03</pdfrwt>
<pdfrwt beam="2">  1       -3 0.86830771E-02 0.12500420E+03</pdfrwt>
<totfact> 0.13717557E+04</totfact>
</mgrwt>
</event>
<event>
 5    1  0.1787806E-056  0.1250010E+03  0.7818608E-02  0.1235068E+00
          3   -1    0    0  501    0  0.00000000000E+00  0.00000000000E+00  0.12119721712E+03  0.12119725280E+03  0.93000000000E-01 0. -1.
         -3   -1    0    0    0  501 -0.00000000000E+00 -0.00000000000E+00 -0.32230921933E+02  0.32231056105E+02  0.93000000000E-01 0.  1.
         25    2    1    2    0    0  0.00000000000E+00  0.00000000000E+00  0.88966295186E+02  0.15342830891E+03  0.12500097718E+03 0.  0.
        -11    1    3    3    0    0  0.40823779091E+02 -0.44957724815E+02  0.26338408951E+02  0.66192822467E+02  0.51100000000E-03 0. -1.
         11    1    3    3    0    0 -0.40823779091E+02  0.44957724815E+02  0.62627886235E+02  0.87235486440E+02  0.51100000000E-03 0.  1.
<mgrwt>
<rscale>  0 0.12500098E+03</rscale>
<asrwt>0</asrwt>
<pdfrwt beam="1">  1        3 0.18645739E-01 0.12500098E+03</pdfrwt>
<pdfrwt beam="2">  1       -3 0.49586164E-02 0.12500098E+03</pdfrwt>
<totfact> 0.13011878E+04</totfact>
</mgrwt>
</event>
<event>
 5    1  0.1787806E-056  0.1250000E+03  0.7818608E-02  0.1235069E+00
         -3   -1    0    0    0  501 -0.00000000000E+00  0.00000000000E+00  0.46278145849E+02  0.46278239295E+02  0.93000000000E-01 0.  1.
          3   -1    0    0  501    0  0.00000000000E+00 -0.00000000000E+00 -0.84407824127E+02  0.84407875360E+02  0.93000000000E-01 0. -1.
         25    2    1    2    0    0  0.00000000000E+00  0.00000000000E+00 -0.38129678278E+02  0.13068611466E+03  0.12499995279E+03 0.  0.
        -11    1    3    3    0    0 -0.40244610266E+02  0.46342416715E+02 -0.67387548389E+01  0.61746733188E+02  0.51100000000E-03 0.  1.
         11    1    3    3    0    0  0.40244610266E+02 -0.46342416715E+02 -0.31390923439E+02  0.68939381467E+02  0.51100000000E-03 0. -1.
<mgrwt>
<rscale>  0 0.12499995E+03</rscale>
<asrwt>0</asrwt>
<pdfrwt beam="2">  1        3 0.12985830E-01 0.12499995E+03</pdfrwt>
<pdfrwt beam="1">  1       -3 0.71197259E-02 0.12499995E+03</pdfrwt>
<totfact> 0.13585806E+04</totfact>
</mgrwt>
</event>
<event>
 5    1  0.1787806E-056  0.1250239E+03  0.7818608E-02  0.1235032E+00
          3   -1    0    0  501    0  0.00000000000E+00  0.00000000000E+00  0.21813681486E+03  0.21813683468E+03  0.93000000000E-01 0. -1.
         -3   -1    0    0    0  501 -0.00000000000E+00 -0.00000000000E+00 -0.17914058501E+02  0.17914299902E+02  0.93000000000E-01 0.  1.
         25    2    1    2    0    0  0.00000000000E+00  0.00000000000E+00  0.20022275636E+03  0.23605113459E+03  0.12502394161E+03 0.  0.
        -11    1    3    3    0    0  0.33203651133E+02 -0.28227943203E+02  0.18472555278E+03  0.18979680998E+03  0.51100000000E-03 0. -1.
         11    1    3    3    0    0 -0.33203651133E+02  0.28227943203E+02  0.15497203573E+02  0.46254324608E+02  0.51100000000E-03 0.  1.
<mgrwt>
<rscale>  0 0.12502394E+03</rscale>
<asrwt>0</asrwt>
<pdfrwt beam="1">  1        3 0.33559528E-01 0.12502394E+03</pdfrwt>
<pdfrwt beam="2">  1       -3 0.27560293E-02 0.12502394E+03</pdfrwt>
<totfact> 0.11238895E+04</totfact>
</mgrwt>
</event>
<event>
 5    1  0.1787806E-056  0.1250034E+03  0.7818608E-02  0.1235064E+00
         -3   -1    0    0    0  501 -0.00000000000E+00  0.00000000000E+00  0.44611782431E+03  0.44611783400E+03  0.93000000000E-01 0.  1.
          3   -1    0    0  501    0  0.00000000000E+00 -0.00000000000E+00 -0.87563097314E+01  0.87568035899E+01  0.93000000000E-01 0. -1.
         25    2    1    2    0    0  0.00000000000E+00  0.00000000000E+00  0.43736151458E+03  0.45487463759E+03  0.12500336592E+03 0.  0.
        -11    1    3    3    0    0  0.19415399924E+02  0.58995874121E+02  0.19321120450E+03  0.20294836896E+03  0.51100000000E-03 0. -1.
         11    1    3    3    0    0 -0.19415399924E+02 -0.58995874121E+02  0.24415031007E+03  0.25192626863E+03  0.51100000000E-03 0.  1.
<mgrwt>
<rscale>  0 0.12500337E+03</rscale>
<asrwt>0</asrwt>
<pdfrwt beam="2">  1        3 0.13471631E-02 0.12500337E+03</pdfrwt>
<pdfrwt beam="1">  1       -3 0.68633562E-01 0.12500337E+03</pdfrwt>
<totfact> 0.80685521E+03</totfact>
</mgrwt>
</event>
<event>
 4    1  0.1787806E-056  0.1258264E+03  0.7818608E-02  0.1233783E+00
         -3   -1    0    0    0  501 -0.00000000000E+00  0.00000000000E+00  0.44547942208E+03  0.44547943179E+03  0.93000000000E-01 0.  1.
          3   -1    0    0  501    0  0.00000000000E+00 -0.00000000000E+00 -0.88847176556E+01  0.88852043770E+01  0.93000000000E-01 0. -1.
        -11    1    1    2    0    0  0.39753905617E+02  0.41776235292E+02  0.30910951511E+03  0.31444287109E+03  0.51100000000E-03 0.  1.
         11    1    1    2    0    0 -0.39753905617E+02 -0.41776235292E+02  0.12748518931E+03  0.13992176508E+03  0.51100000000E-03 0. -1.
<mgrwt>
<rscale>  0 0.12582641E+03</rscale>
<asrwt>0</asrwt>
<pdfrwt beam="2">  1        3 0.13669182E-02 0.12582641E+03</pdfrwt>
<pdfrwt beam="1">  1       -3 0.68535316E-01 0.12582641E+03</pdfrwt>
<totfact> 0.79287900E+03</totfact>
</mgrwt>
</event>
<event>
 5    1  0.1787806E-056  0.1249875E+03  0.7818608E-02  0.1235089E+00
          3   -1    0    0  501    0  0.00000000000E+00  0.00000000000E+00  0.13509252357E+03  0.13509255558E+03  0.93000000000E-01 0. -1.
         -3   -1    0    0    0  501 -0.00000000000E+00 -0.00000000000E+00 -0.28909484230E+02  0.28909633818E+02  0.93000000000E-01 0.  1.
         25    2    1    2    0    0  0.00000000000E+00  0.00000000000E+00  0.10618303934E+03  0.16400218939E+03  0.12498752051E+03 0.  0.
        -11    1    3    3    0    0 -0.11202661123E+02  0.36282611563E+02 -0.12035773342E+02  0.39834499599E+02  0.51100000000E-03 0.  1.
         11    1    3    3    0    0  0.11202661123E+02 -0.36282611563E+02  0.11821881268E+03  0.12416768980E+03  0.51100000000E-03 0. -1.
<mgrwt>
<rscale>  0 0.12498752E+03</rscale>
<asrwt>0</asrwt>
<pdfrwt beam="1">  1        3 0.20783479E-01 0.12498752E+03</pdfrwt>
<pdfrwt beam="2">  1       -3 0.44476269E-02 0.12498752E+03</pdfrwt>
<totfact> 0.12763426E+04</totfact>
</mgrwt>
</event>
<event>
 5    1  0.1787806E-056  0.1249939E+03  0.7818608E-02  0.1235079E+00
          3   -1    0    0  501    0  0.00000000000E+00  0.00000000000E+00  0.33594848228E+02  0.33594976953E+02  0.93000000000E-01 0. -1.
         -3   -1    0    0    0  501 -0.00000000000E+00 -0.00000000000E+00 -0.11626349062E+03  0.11626352781E+03  0.93000000000E-01 0.  1.
         25    2    1    2    0    0  0.00000000000E+00  0.00000000000E+00 -0.82668642389E+02  0.14985850477E+03  0.12499386791E+03 0.  0.
        -11    1    3    3    0    0  0.58990165941E+02 -0.13343156483E+02 -0.22454087530E+02  0.64514072494E+02  0.51100000000E-03 0. -1.
         11    1    3    3    0    0 -0.58990165941E+02  0.13343156483E+02 -0.60214554859E+02  0.85344432272E+02  0.51100000000E-03 0.  1.
<mgrwt>
<rscale>  0 0.12499387E+03</rscale>
<asrwt>0</asrwt>
<pdfrwt beam="1">  1        3 0.51684510E-02 0.12499387E+03</pdfrwt>
<pdfrwt beam="2">  1       -3 0.17886703E-01 0.12499387E+03</pdfrwt>
<totfact> 0.13101080E+04</totfact>
</mgrwt>
</event>
<event>
 5    1  0.1787806E-056  0.1250003E+03  0.7818608E-02  0.1235069E+00
         -3   -1    0    0    0  501 -0.00000000000E+00  0.00000000000E+00  0.29559464627E+02  0.29559610925E+02  0.93000000000E-01 0.  1.
          3   -1    0    0  501    0  0.00000000000E+00 -0.00000000000E+00 -0.13214901970E+03  0.13214905242E+03  0.93000000000E-01 0. -1.
         25    2    1    2    0    0  0.00000000000E+00  0.00000000000E+00 -0.10258955507E+03  0.16170866335E+03  0.12500029997E+03 0.  0.
        -11    1    3    3    0    0 -0.46336105378E+02  0.28164626362E+01  0.28432847466E+01  0.46508616318E+02  0.51100000000E-03 0.  1.
         11    1    3    3    0    0  0.46336105378E+02 -0.28164626362E+01 -0.10543283981E+03  0.11520004703E+03  0.51100000000E-03 0. -1.
<mgrwt>
<rscale>  0 0.12500030E+03</rscale>
<asrwt>0</asrwt>
<pdfrwt beam="2">  1        3 0.20330632E-01 0.12500030E+03</pdfrwt>
<pdfrwt beam="1">  1       -3 0.45476238E-02 0.12500030E+03</pdfrwt>
<totfact> 0.12813731E+04</totfact>
</mgrwt>
</event>
<event>
 5    1  0.1787806E-056  0.1250000E+03  0.7818608E-02  0.1235069E+00
         -3   -1    0    0    0  501 -0.00000000000E+00  0.00000000000E+00  0.69168895635E+02  0.69168958156E+02  0.93000000000E-01 0.  1.
          3   -1    0    0  501    0  0.00000000000E+00 -0.00000000000E+00 -0.56473936916E+02  0.56474013491E+02  0.93000000000E-01 0. -1.
         25    2    1    2    0    0  0.00000000000E+00  0.00000000000E+00  0.12694958719E+02  0.12564297165E+03  0.12499997739E+03 0.  0.
        -11    1    3    3    0    0  0.99597251352E+01  0.58170085517E+02  0.27027412140E+02  0.64910985057E+02  0.51100000000E-03 0.  1.
         11    1    3    3    0    0 -0.99597251352E+01 -0.58170085517E+02 -0.14332453421E+02  0.60731986590E+02  0.51100000000E-03 0. -1.
<mgrwt>
<rscale>  0 0.12499998E+03</rscale>
<asrwt>0</asrwt>
<pdfrwt beam="2">  1        3 0.86883087E-02 0.12499998E+03</pdfrwt>
<pdfrwt beam="1">  1       -3 0.10641379E-01 0.12499998E+03</pdfrwt>
<totfact> 0.13719264E+04</totfact>
</mgrwt>
</event>
<event>
 5    1  0.1787806E-056  0.1249946E+03  0.7818608E-02  0.1235078E+00
         -3   -1    0    0    0  501 -0.00000000000E+00  0.00000000000E+00  0.60819517912E+02  0.60819589016E+02  0.93000000000E-01 0. -1.
          3   -1    0    0  501    0  0.00000000000E+00 -0.00000000000E+00 -0.64221226555E+02  0.64221293893E+02  0.93000000000E-01 0.  1.
         25    2    1    2    0    0  0.00000000000E+00  0.00000000000E+00 -0.34017086428E+01  0.12504088291E+03  0.12499460299E+03 0.  0.
        -11    1    3    3    0    0 -0.78603783773E+01 -0.56718604689E+02  0.23350922224E+02  0.61838913599E+02  0.51100000000E-03 0. -1.
         11    1    3    3    0    0  0.78603783773E+01  0.56718604689E+02 -0.26752630867E+02  0.63201969310E+02  0.51100000000E-03 0.  1.
<mgrwt>
<rscale>  0 0.12499460E+03</rscale>
<asrwt>0</asrwt>
<pdfrwt beam="2">  1        3 0.98801993E-02 0.12499460E+03</pdfrwt>
<pdfrwt beam="1">  1       -3 0.93568596E-02 0.12499460E+03</pdfrwt>
<totfact> 0.13737002E+04</totfact>
</mgrwt>
</event>
<event>
 5    1  0.1787806E-056  0.1249919E+03  0.7818608E-02  0.1235082E+00
          3   -1    0    0  501    0  0.00000000000E+00  0.00000000000E+00  0.30606204609E+02  0.30606345903E+02  0.93000000000E-01 0. -1.
         -3   -1    0    0    0  501 -0.00000000000E+00 -0.00000000000E+00 -0.12761232834E+03  0.12761236223E+03  0.93000000000E-01 0.  1.
         25    2    1    2    0    0  0.00000000000E+00  0.00000000000E+00 -0.97006123731E+02  0.15821870813E+03  0.12499188598E+03 0.  0.
        -11    1    3    3    0    0  0.59316856270E+02  0.19675195449E+02 -0.48976923330E+02  0.79399885219E+02  0.51100000000E-03 0.  1.
         11    1    3    3    0    0 -0.59316856270E+02 -0.19675195449E+02 -0.48029200401E+02  0.78818822912E+02  0.51100000000E-03 0. -1.
<mgrwt>
<rscale>  0 0.12499189E+03</rscale>
<asrwt>0</asrwt>
<pdfrwt beam="1">  1        3 0.47086604E-02 0.12499189E+03</pdfrwt>
<pdfrwt beam="2">  1       -3 0.19632679E-01 0.12499189E+03</pdfrwt>
<totfact> 0.12899141E+04</totfact>
</mgrwt>
</event>
<event>
 5    1  0.1787806E-056  0.1249982E+03  0.7818608E-02  0.1235072E+00
         -3   -1    0    0    0  501 -0.00000000000E+00  0.00000000000E+00  0.80499901942E+02  0.80499955663E+02  0.93000000000E-01 0.  1.
          3   -1    0    0  501    0  0.00000000000E+00 -0.00000000000E+00 -0.48523415675E+02  0.48523504797E+02  0.93000000000E-01 0. -1.
         25    2    1    2    0    0  0.00000000000E+00  0.00000000000E+00  0.31976486267E+02  0.12902346046E+03  0.12499823069E+03 0.  0.
        -11    1    3    3    0    0 -0.59376944411E+02  0.26425524444E+01  0.35937667030E+02  0.69455889044E+02  0.51100000000E-03 0.  1.
         11    1    3    3    0    0  0.59376944411E+02 -0.26425524444E+01 -0.39611807626E+01  0.59567571416E+02  0.51100000000E-03 0. -1.
<mgrwt>
<rscale>  0 0.12499823E+03</rscale>
<asrwt>0</asrwt>
<pdfrwt beam="2">  1        3 0.74651520E-02 0.12499823E+03</pdfrwt>
<pdfrwt beam="1">  1       -3 0.12384611E-01 0.12499823E+03</pdfrwt>
<totfact> 0.13630083E+04</totfact>
</mgrwt>
</event>
<event>
 5    1  0.1787806E-056  0.1249980E+03  0.7818608E-02  0.1235072E+00
         -3   -1    0    0    0  501 -0.00000000000E+00  0.00000000000E+00  0.34620211951E+03  0.34620213200E+03  0.93000000000E-01 0.  1.
          3   -1    0    0  501    0  0.00000000000E+00 -0.00000000000E+00 -0.11282589073E+02  0.11282972357E+02  0.93000000000E-01 0. -1.
         25    2    1    2    0    0  0.00000000000E+00  0.00000000000E+00  0.33491953043E+03  0.35748510435E+03  0.12499803186E+03 0.  0.
        -11    1    3    3    0    0  0.18513340025E+01  0.60766514191E+02  0.12600264569E+03  0.13990233524E+03  0.51100000000E-03 0.  1.
         11    1    3    3    0    0 -0.18513340025E+01 -0.60766514191E+02  0.20891688474E+03  0.21758276911E+03  0.51100000000E-03 0. -1.
<mgrwt>
<rscale>  0 0.12499803E+03</rscale>
<asrwt>0</asrwt>
<pdfrwt beam="2">  1        3 0.17358134E-02 0.12499803E+03</pdfrwt>
<pdfrwt beam="1">  1       -3 0.53261894E-01 0.12499803E+03</pdfrwt>
<totfact> 0.92792789E+03</totfact>
</mgrwt>
</event>
<event>
 5    1  0.1835802E-056  0.1249994E+03  0.7818608E-02  0.1235070E+00
         -3   -1    0    0    0  501 -0.00000000000E+00  0.00000000000E+00  0.21330222125E+03  0.21330224153E+03  0.93000000000E-01 0.  1.
          3   -1    0    0  501    0  0.00000000000E+00 -0.00000000000E+00 -0.18312903510E+02  0.18313139654E+02  0.93000000000E-01 0. -1.
         25    2    1    2    0    0  0.00000000000E+00  0.00000000000E+00  0.19498931774E+03  0.23161538118E+03  0.12499940306E+03 0.  0.
        -11    1    3    3    0    0 -0.58442092697E+02 -0.18177382727E+02  0.12095582444E+03  0.13555886879E+03  0.51100000000E-03 0.  1.
         11    1    3    3    0    0  0.58442092697E+02  0.18177382727E+02  0.74033493300E+02  0.96056512387E+02  0.51100000000E-03 0. -1.
<mgrwt>
<rscale>  0 0.12499940E+03</rscale>
<asrwt>0</asrwt>
<pdfrwt beam="2">  1        3 0.28173893E-02 0.12499940E+03</pdfrwt>
<pdfrwt beam="1">  1       -3 0.32815748E-01 0.12499940E+03</pdfrwt>
<totfact> 0.11327888E+04</totfact>
</mgrwt>
</event>
<event>
 5    1  0.1787806E-056  0.1249992E+03  0.7818608E-02  0.1235070E+00
          3   -1    0    0  501    0  0.00000000000E+00  0.00000000000E+00  0.30372263725E+03  0.30372265149E+03  0.93000000000E-01 0. -1.
         -3   -1    0    0    0  501 -0.00000000000E+00 -0.00000000000E+00 -0.12860902851E+02  0.12861239098E+02  0.93000000000E-01 0.  1.
         25    2    1    2    0    0  0.00000000000E+00  0.00000000000E+00  0.29086173440E+03  0.31658389059E+03  0.12499924496E+03 0.  0.
        -11    1    3    3    0    0  0.10041234392E+02  0.61366896592E+02  0.16134460984E+03  0.17291271067E+03  0.51100000000E-03 0.  1.
         11    1    3    3    0    0 -0.10041234392E+02 -0.61366896592E+02  0.12951712456E+03  0.14367117992E+03  0.51100000000E-03 0. -1.
<mgrwt>
<rscale>  0 0.12499924E+03</rscale>
<asrwt>0</asrwt>
<pdfrwt beam="1">  1        3 0.46726589E-01 0.12499924E+03</pdfrwt>
<pdfrwt beam="2">  1       -3 0.19786273E-02 0.12499924E+03</pdfrwt>
<totfact> 0.98783085E+03</totfact>
</mgrwt>
</event>
<event>
 5    1  0.1881809E-056  0.1249993E+03  0.7818608E-02  0.1235070E+00
          3   -1    0    0  501    0  0.00000000000E+00  0.00000000000E+00  0.15032934451E+03  0.15032937327E+03  0.93000000000E-01 0. -1.
         -3   -1    0    0    0  501 -0.00000000000E+00 -0.00000000000E+00 -0.25984197630E+02  0.25984364058E+02  0.93000000000E-01 0.  1.
         25    2    1    2    0    0  0.00000000000E+00  0.00000000000E+00  0.12434514688E+03  0.17631373733E+03  0.12499927368E+03 0.  0.
        -11    1    3    3    0    0  0.36262935234E+02 -0.46659196045E+02  0.33468493566E+02  0.67913335282E+02  0.51100000000E-03 0.  1.
         11    1    3    3    0    0 -0.36262935234E+02  0.46659196045E+02  0.90876653311E+02  0.10840040205E+03  0.51100000000E-03 0. -1.
<mgrwt>
<rscale>  0 0.12499927E+03</rscale>
<asrwt>0</asrwt>
<pdfrwt beam="1">  1        3 0.23127607E-01 0.12499927E+03</pdfrwt>
<pdfrwt beam="2">  1       -3 0.39975839E-02 0.12499927E+03</pdfrwt>
<totfact> 0.12476967E+04</totfact>
</mgrwt>
</event>
<event>
 5    1  0.1787806E-056  0.1249982E+03  0.7818608E-02  0.1235072E+00
         -3   -1    0    0    0  501 -0.00000000000E+00  0.00000000000E+00  0.10655891031E+03  0.10655895089E+03  0.93000000000E-01 0.  1.
          3   -1    0    0  501    0  0.00000000000E+00 -0.00000000000E+00 -0.36656950529E+02  0.36657068501E+02  0.93000000000E-01 0. -1.
         25    2    1    2    0    0  0.00000000000E+00  0.00000000000E+00  0.69901959779E+02  0.14321601939E+03  0.12499817690E+03 0.  0.
        -11    1    3    3    0    0 -0.29775551519E+02  0.22695802002E+02  0.92289222322E+02  0.99594093469E+02  0.51100000000E-03 0.  1.
         11    1    3    3    0    0  0.29775551519E+02 -0.22695802002E+02 -0.22387262543E+02  0.43621925923E+02  0.51100000000E-03 0. -1.
<mgrwt>
<rscale>  0 0.12499818E+03</rscale>
<asrwt>0</asrwt>
<pdfrwt beam="2">  1        3 0.56395432E-02 0.12499818E+03</pdfrwt>
<pdfrwt beam="1">  1       -3 0.16393690E-01 0.12499818E+03</pdfrwt>
<totfact> 0.13264699E+04</totfact>
</mgrwt>
</event>
<event>
 5    1  0.1787806E-056  0.1250052E+03  0.7818608E-02  0.1235061E+00
         -3   -1    0    0    0  501 -0.00000000000E+00  0.00000000000E+00  0.11851875625E+03  0.11851879274E+03  0.93000000000E-01 0.  1.
          3   -1    0    0  501    0  0.00000000000E+00 -0.00000000000E+00 -0.32961579557E+02  0.32961710755E+02  0.93000000000E-01 0. -1.
         25    2    1    2    0    0  0.00000000000E+00  0.00000000000E+00  0.85557176691E+02  0.15148050349E+03  0.12500524971E+03 0.  0.
        -11    1    3    3    0    0  0.25042865095E+02 -0.18112269978E+02  0.10861118071E+03  0.11292292943E+03  0.51100000000E-03 0.  1.
         11    1    3    3    0    0 -0.25042865095E+02  0.18112269978E+02 -0.23054004018E+02  0.38557574060E+02  0.51100000000E-03 0. -1.
<mgrwt>
<rscale>  0 0.12500525E+03</rscale>
<asrwt>0</asrwt>
<pdfrwt beam="2">  1        3 0.50710252E-02 0.12500525E+03</pdfrwt>
<pdfrwt beam="1">  1       -3 0.18233668E-01 0.12500525E+03</pdfrwt>
<totfact> 0.13058058E+04</totfact>
</mgrwt>
</event>
<event>
 5    1  0.1787806E-056  0.1249971E+03  0.7818608E-02  0.1235074E+00
          3   -1    0    0  501    0  0.00000000000E+00  0.00000000000E+00  0.11429179630E+02  0.11429557998E+02  0.93000000000E-01 0. -1.
         -3   -1    0    0    0  501 -0.00000000000E+00 -0.00000000000E+00 -0.34175699942E+03  0.34175701208E+03  0.93000000000E-01 0.  1.
         25    2    1    2    0    0  0.00000000000E+00  0.00000000000E+00 -0.33032781979E+03  0.35318657007E+03  0.12499713897E+03 0.  0.
        -11    1    3    3    0    0 -0.41227034111E+02  0.45657004295E+02 -0.13397497900E+03  0.14742294726E+03  0.51100000000E-03 0. -1.
         11    1    3    3    0    0  0.41227034111E+02 -0.45657004295E+02 -0.19635284080E+03  0.20576362281E+03  0.51100000000E-03 0.  1.
<mgrwt>
<rscale>  0 0.12499714E+03</rscale>
<asrwt>0</asrwt>
<pdfrwt beam="1">  1        3 0.17583657E-02 0.12499714E+03</pdfrwt>
<pdfrwt beam="2">  1       -3 0.52578022E-01 0.12499714E+03</pdfrwt>
<totfact> 0.93393126E+03</totfact>
</mgrwt>
</event>
<event>
 5    1  0.1826884E-056  0.1250039E+03  0.7818608E-02  0.1235063E+00
         -3   -1    0    0    0  501 -0.00000000000E+00  0.00000000000E+00  0.88991773976E+01  0.88996633281E+01  0.93000000000E-01 0.  1.
          3   -1    0    0  501    0  0.00000000000E+00 -0.00000000000E+00 -0.43896003649E+03  0.43896004634E+03  0.93000000000E-01 0. -1.
         25    2    1    2    0    0  0.00000000000E+00  0.00000000000E+00 -0.43006085909E+03  0.44785970967E+03  0.12500390803E+03 0.  0.
        -11    1    3    3    0    0 -0.33217248475E+02 -0.43987238879E+02 -0.10946148821E+03  0.12255643672E+03  0.51100000000E-03 0.  1.
         11    1    3    3    0    0  0.33217248475E+02  0.43987238879E+02 -0.32059937088E+03  0.32530327295E+03  0.51100000000E-03 0. -1.
<mgrwt>
<rscale>  0 0.12500391E+03</rscale>
<asrwt>0</asrwt>
<pdfrwt beam="2">  1        3 0.67532335E-01 0.12500391E+03</pdfrwt>
<pdfrwt beam="1">  1       -3 0.13691427E-02 0.12500391E+03</pdfrwt>
<totfact> 0.81547443E+03</totfact>
</mgrwt>
</event>
<event>
 5    1  0.1787806E-056  0.1250003E+03  0.7818608E-02  0.1235069E+00
         -3   -1    0    0    0  501 -0.00000000000E+00  0.00000000000E+00  0.53344543607E+02  0.53344624674E+02  0.93000000000E-01 0.  1.
          3   -1    0    0  501    0  0.00000000000E+00 -0.00000000000E+00 -0.73226955972E+02  0.73227015029E+02  0.93000000000E-01 0. -1.
         25    2    1    2    0    0  0.00000000000E+00  0.00000000000E+00 -0.19882412366E+02  0.12657163970E+03  0.12500027862E+03 0.  0.
        -11    1    3    3    0    0  0.33664135794E+02  0.50508673347E+02 -0.25023662155E+02  0.65655036287E+02  0.51100000000E-03 0. -1.
         11    1    3    3    0    0 -0.33664135794E+02 -0.50508673347E+02  0.51412497897E+01  0.60916603415E+02  0.51100000000E-03 0.  1.
<mgrwt>
<rscale>  0 0.12500028E+03</rscale>
<asrwt>0</asrwt>
<pdfrwt beam="2">  1        3 0.11265696E-01 0.12500028E+03</pdfrwt>
<pdfrwt beam="1">  1       -3 0.82068637E-02 0.12500028E+03</pdfrwt>
<totfact> 0.13694193E+04</totfact>
</mgrwt>
</event>
<event>
 5    1  0.1787806E-056  0.1250025E+03  0.7818608E-02  0.1235065E+00
         -3   -1    0    0    0  501 -0.00000000000E+00  0.00000000000E+00  0.83460185936E+02  0.83460237752E+02  0.93000000000E-01 0.  1.
          3   -1    0    0  501    0  0.00000000000E+00 -0.00000000000E+00 -0.46805516695E+02  0.46805609088E+02  0.93000000000E-01 0. -1.
         25    2    1    2    0    0  0.00000000000E+00  0.00000000000E+00  0.36654669241E+02  0.13026584684E+03  0.12500250428E+03 0.  0.
        -11    1    3    3    0    0 -0.14584335334E+02  0.27920451878E+02  0.74583219107E+02  0.80962405120E+02  0.51100000000E-03 0.  1.
         11    1    3    3    0    0  0.14584335334E+02 -0.27920451878E+02 -0.37928549866E+02  0.49303441720E+02  0.51100000000E-03 0. -1.
<mgrwt>
<rscale>  0 0.12500250E+03</rscale>
<asrwt>0</asrwt>
<pdfrwt beam="2">  1        3 0.72008598E-02 0.12500250E+03</pdfrwt>
<pdfrwt beam="1">  1       -3 0.12840040E-01 0.12500250E+03</pdfrwt>
<totfact> 0.13596212E+04</totfact>
</mgrwt>
</event>
<event>
 5    1  0.1787806E-056  0.1249966E+03  0.7818608E-02  0.1235075E+00
          3   -1    0    0  501    0  0.00000000000E+00  0.00000000000E+00  0.71626532570E+02  0.71626592945E+02  0.93000000000E-01 0. -1.
         -3   -1    0    0    0  501 -0.00000000000E+00 -0.00000000000E+00 -0.54533292257E+02  0.54533371557E+02  0.93000000000E-01 0.  1.
         25    2    1    2    0    0  0.00000000000E+00  0.00000000000E+00  0.17093240312E+02  0.12615996450E+03  0.12499663107E+03 0.  0.
        -11    1    3    3    0    0  0.53353645185E+02  0.10430625294E+02  0.39665862766E+02  0.67296285691E+02  0.51100000000E-03 0. -1.
         11    1    3    3    0    0 -0.53353645185E+02 -0.10430625294E+02 -0.22572622454E+02  0.58863678812E+02  0.51100000000E-03 0.  1.
<mgrwt>
<rscale>  0 0.12499663E+03</rscale>
<asrwt>0</asrwt>
<pdfrwt beam="1">  1        3 0.11019477E-01 0.12499663E+03</pdfrwt>
<pdfrwt beam="2">  1       -3 0.83897481E-02 0.12499663E+03</pdfrwt>
<totfact> 0.13706328E+04</totfact>
</mgrwt>
</event>
<event>
 5    1  0.1787806E-056  0.1249995E+03  0.7818608E-02  0.1235070E+00
         -3   -1    0    0    0  501 -0.00000000000E+00  0.00000000000E+00  0.97295937927E+01  0.97300382513E+01  0.93000000000E-01 0.  1.
          3   -1    0    0  501    0  0.00000000000E+00 -0.00000000000E+00 -0.40146858942E+03  0.40146860019E+03  0.93000000000E-01 0. -1.
         25    2    1    2    0    0  0.00000000000E+00  0.00000000000E+00 -0.39173899563E+03  0.41119863845E+03  0.12499951825E+03 0.  0.
        -11    1    3    3    0    0 -0.61057279619E+02 -0.11178378634E+01 -0.23963219863E+03  0.24729098563E+03  0.51100000000E-03 0.  1.
         11    1    3    3    0    0  0.61057279619E+02  0.11178378634E+01 -0.15210679700E+03  0.16390765281E+03  0.51100000000E-03 0. -1.
<mgrwt>
<rscale>  0 0.12499952E+03</rscale>
<asrwt>0</asrwt>
<pdfrwt beam="2">  1        3 0.61764420E-01 0.12499952E+03</pdfrwt>
<pdfrwt beam="1">  1       -3 0.14968959E-02 0.12499952E+03</pdfrwt>
<totfact> 0.85859203E+03</totfact>
</mgrwt>
</event>
<event>
 5    1  0.2649046E-056  0.1250007E+03  0.7818608E-02  0.1235068E+00
         -3   -1    0    0    0  501 -0.00000000000E+00  0.00000000000E+00  0.24571321437E+03  0.24571323197E+03  0.93000000000E-01 0.  1.
          3   -1    0    0  501    0  0.00000000000E+00 -0.00000000000E+00 -0.15897616915E+02  0.15897888935E+02  0.93000000000E-01 0. -1.
         25    2    1    2    0    0  0.00000000000E+00  0.00000000000E+00  0.22981559746E+03  0.26161112091E+03  0.12500067899E+03 0.  0.
        -11    1    3    3    0    0 -0.57641637501E+02 -0.11828153205E+02  0.15899896598E+03  0.16953800390E+03  0.51100000000E-03 0.  1.
         11    1    3    3    0    0  0.57641637501E+02  0.11828153205E+02  0.70816631476E+02  0.92073117009E+02  0.51100000000E-03 0. -1.
<mgrwt>
<rscale>  0 0.12500068E+03</rscale>
<asrwt>0</asrwt>
<pdfrwt beam="2">  1        3 0.24458096E-02 0.12500068E+03</pdfrwt>
<pdfrwt beam="1">  1       -3 0.37802054E-01 0.12500068E+03</pdfrwt>
<totfact> 0.10776611E+04</totfact>
</mgrwt>
</event>
<event>
 5    1  0.1787806E-056  0.1249981E+03  0.7818608E-02  0.1235072E+00
         -3   -1    0    0    0  501 -0.00000000000E+00  0.00000000000E+00  0.91271720860E+01  0.91276458787E+01  0.93000000000E-01 0.  1.
          3   -1    0    0  501    0  0.00000000000E+00 -0.00000000000E+00 -0.42795555616E+03  0.42795556626E+03  0.93000000000E-01 0. -1.
         25    2    1    2    0    0  0.00000000000E+00  0.00000000000E+00 -0.41882838407E+03  0.43708321214E+03  0.12499807611E+03 0.  0.
        -11    1    3    3    0    0 -0.56094426481E+02  0.67626031412E+01 -0.11599140847E+03  0.12902063526E+03  0.51100000000E-03 0.  1.
         11    1    3    3    0    0  0.56094426481E+02 -0.67626031412E+01 -0.30283697560E+03  0.30806257688E+03  0.51100000000E-03 0. -1.
<mgrwt>
<rscale>  0 0.12499808E+03</rscale>
<asrwt>0</asrwt>
<pdfrwt beam="2">  1        3 0.65839338E-01 0.12499808E+03</pdfrwt>
<pdfrwt beam="1">  1       -3 0.14042179E-02 0.12499808E+03</pdfrwt>
<totfact> 0.82787723E+03</totfact>
</mgrwt>
</event>
<event>
 5    1  0.1787806E-056  0.1250062E+03  0.7818608E-02  0.1235060E+00
         -3   -1    0    0    0  501 -0.00000000000E+00  0.00000000000E+00  0.30390050212E+02  0.30390192512E+02  0.93000000000E-01 0.  1.
          3   -1    0    0  501    0  0.00000000000E+00 -0.00000000000E+00 -0.12854944167E+03  0.12854947531E+03  0.93000000000E-01 0. -1.
         25    2    1    2    0    0  0.00000000000E+00  0.00000000000E+00 -0.98159391459E+02  0.15893966782E+03  0.12500620735E+03 0.  0.
        -11    1    3    3    0    0 -0.59680250781E+02  0.15168779008E+02 -0.62703479053E+02  0.87883732712E+02  0.51100000000E-03 0.  1.
         11    1    3    3    0    0  0.59680250781E+02 -0.15168779008E+02 -0.35455912407E+02  0.71055935112E+02  0.51100000000E-03 0. -1.
<mgrwt>
<rscale>  0 0.12500621E+03</rscale>
<asrwt>0</asrwt>
<pdfrwt beam="2">  1        3 0.19776850E-01 0.12500621E+03</pdfrwt>
<pdfrwt beam="1">  1       -3 0.46754059E-02 0.12500621E+03</pdfrwt>
<totfact> 0.12877739E+04</totfact>
</mgrwt>
</event>
<event>
 5    1  0.1787806E-056  0.1249987E+03  0.7818608E-02  0.1235071E+00
          3   -1    0    0  501    0  0.00000000000E+00  0.00000000000E+00  0.25890770024E+02  0.25890937052E+02  0.93000000000E-01 0. -1.
         -3   -1    0    0    0  501 -0.00000000000E+00 -0.00000000000E+00 -0.15087045656E+03  0.15087048522E+03  0.93000000000E-01 0.  1.
         25    2    1    2    0    0  0.00000000000E+00  0.00000000000E+00 -0.12497968653E+03  0.17676142227E+03  0.12499871342E+03 0.  0.
        -11    1    3    3    0    0 -0.13412758608E+02  0.56189398937E+02 -0.96222092975E+02  0.11223119808E+03  0.51100000000E-03 0.  1.
         11    1    3    3    0    0  0.13412758608E+02 -0.56189398937E+02 -0.28757593557E+02  0.64530224189E+02  0.51100000000E-03 0. -1.
<mgrwt>
<rscale>  0 0.12499871E+03</rscale>
<asrwt>0</asrwt>
<pdfrwt beam="1">  1        3 0.39832105E-02 0.12499871E+03</pdfrwt>
<pdfrwt beam="2">  1       -3 0.23210854E-01 0.12499871E+03</pdfrwt>
<totfact> 0.12466784E+04</totfact>
</mgrwt>
</event>
<event>
 5    1  0.1787806E-056  0.1250044E+03  0.7818608E-02  0.1235062E+00
         -3   -1    0    0    0  501 -0.00000000000E+00  0.00000000000E+00  0.20227818111E+03  0.20227820249E+03  0.93000000000E-01 0.  1.
          3   -1    0    0  501    0  0.00000000000E+00 -0.00000000000E+00 -0.19312498895E+02  0.19312722816E+02  0.93000000000E-01 0. -1.
         25    2    1    2    0    0  0.00000000000E+00  0.00000000000E+00  0.18296568222E+03  0.22159092531E+03  0.12500438916E+03 0.  0.
        -11    1    3    3    0    0 -0.26499794880E+02  0.56428126154E+02  0.83525217679E+02  0.10422492283E+03  0.51100000000E-03 0.  1.
         11    1    3    3    0    0  0.26499794880E+02 -0.56428126154E+02  0.99440464538E+02  0.11736600248E+03  0.51100000000E-03 0. -1.
<mgrwt>
<rscale>  0 0.12500439E+03</rscale>
<asrwt>0</asrwt>
<pdfrwt beam="2">  1        3 0.29711725E-02 0.12500439E+03</pdfrwt>
<pdfrwt beam="1">  1       -3 0.31119739E-01 0.12500439E+03</pdfrwt>
<totfact> 0.11521339E+04</totfact>
</mgrwt>
</event>
<event>
 5    1  0.1787806E-056  0.1249993E+03  0.7818608E-02  0.1235070E+00
         -3   -1    0    0    0  501 -0.00000000000E+00  0.00000000000E+00  0.97204069470E+02  0.97204113959E+02  0.93000000000E-01 0.  1.
          3   -1    0    0  501    0  0.00000000000E+00 -0.00000000000E+00 -0.40185523969E+02  0.40185631583E+02  0.93000000000E-01 0. -1.
         25    2    1    2    0    0  0.00000000000E+00  0.00000000000E+00  0.57018545501E+02  0.13738974554E+03  0.12499931059E+03 0.  0.
        -11    1    3    3    0    0  0.33496930317E+02  0.27749446236E+02 -0.20818389904E+02  0.48223246112E+02  0.51100000000E-03 0. -1.
         11    1    3    3    0    0 -0.33496930317E+02 -0.27749446236E+02  0.77836935405E+02  0.89166499430E+02  0.51100000000E-03 0.  1.
<mgrwt>
<rscale>  0 0.12499931E+03</rscale>
<asrwt>0</asrwt>
<pdfrwt beam="2">  1        3 0.61824001E-02 0.12499931E+03</pdfrwt>
<pdfrwt beam="1">  1       -3 0.14954484E-01 0.12499931E+03</pdfrwt>
<totfact> 0.13412346E+04</totfact>
</mgrwt>
</event>
<event>
 5    1  0.1787806E-056  0.1250029E+03  0.7818608E-02  0.1235065E+00
          3   -1    0    0  501    0  0.00000000000E+00  0.00000000000E+00  0.15153819341E+02  0.15154104712E+02  0.93000000000E-01 0. -1.
         -3   -1    0    0    0  501 -0.00000000000E+00 -0.00000000000E+00 -0.25778263386E+03  0.25778265063E+03  0.93000000000E-01 0.  1.
         25    2    1    2    0    0  0.00000000000E+00  0.00000000000E+00 -0.24262881452E+03  0.27293675535E+03  0.12500292310E+03 0.  0.
        -11    1    3    3    0    0 -0.17293101794E+02 -0.57527447000E+02 -0.15900484343E+03  0.16997352371E+03  0.51100000000E-03 0.  1.
         11    1    3    3    0    0  0.17293101794E+02  0.57527447000E+02 -0.83623971085E+02  0.10296323163E+03  0.51100000000E-03 0. -1.
<mgrwt>
<rscale>  0 0.12500292E+03</rscale>
<asrwt>0</asrwt>
<pdfrwt beam="1">  1        3 0.23313803E-02 0.12500292E+03</pdfrwt>
<pdfrwt beam="2">  1       -3 0.39658887E-01 0.12500292E+03</pdfrwt>
<totfact> 0.10579542E+04</totfact>
</mgrwt>
</event>
<event>
 5    1  0.1787806E-056  0.1250011E+03  0.7818608E-02  0.1235068E+00
          3   -1    0    0  501    0  0.00000000000E+00  0.00000000000E+00  0.34734386697E+03  0.34734387942E+03  0.93000000000E-01 0.  1.
         -3   -1    0    0    0  501 -0.00000000000E+00 -0.00000000000E+00 -0.11246047708E+02  0.11246432236E+02  0.93000000000E-01 0. -1.
         25    2    1    2    0    0  0.00000000000E+00  0.00000000000E+00  0.33609781927E+03  0.35859031166E+03  0.12500107000E+03 0.  0.
        -11    1    3    3    0    0 -0.48509852436E+02  0.37819892919E+02  0.13626368583E+03  0.14950365266E+03  0.51100000000E-03 0. -1.
         11    1    3    3    0    0  0.48509852436E+02 -0.37819892919E+02  0.19983413344E+03  0.20908665900E+03  0.51100000000E-03 0.  1.
<mgrwt>
<rscale>  0 0.12500107E+03</rscale>
<asrwt>0</asrwt>
<pdfrwt beam="1">  1        3 0.53437556E-01 0.12500107E+03</pdfrwt>
<pdfrwt beam="2">  1       -3 0.17301915E-02 0.12500107E+03</pdfrwt>
<totfact> 0.92684260E+03</totfact>
</mgrwt>
</event>
<event>
 5    1  0.1787806E-056  0.1250001E+03  0.7818608E-02  0.1235069E+00
          3   -1    0    0  501    0  0.00000000000E+00  0.00000000000E+00  0.95304612042E+02  0.95304657417E+02  0.93000000000E-01 0. -1.
         -3   -1    0    0    0  501 -0.00000000000E+00 -0.00000000000E+00 -0.40986984046E+02  0.40987089554E+02  0.93000000000E-01 0.  1.
         25    2    1    2    0    0  0.00000000000E+00  0.00000000000E+00  0.54317627996E+02  0.13629174697E+03  0.12500014233E+03 0.  0.
        -11    1    3    3    0    0  0.53286700788E+02 -0.31528087135E+02  0.36459686847E+02  0.71852637562E+02  0.51100000000E-03 0.  1.
         11    1    3    3    0    0 -0.53286700788E+02  0.31528087135E+02  0.17857941149E+02  0.64439109410E+02  0.51100000000E-03 0. -1.
<mgrwt>
<rscale>  0 0.12500014E+03</rscale>
<asrwt>0</asrwt>
<pdfrwt beam="1">  1        3 0.14662260E-01 0.12500014E+03</pdfrwt>
<pdfrwt beam="2">  1       -3 0.63057015E-02 0.12500014E+03</pdfrwt>
<totfact> 0.13440060E+04</totfact>
</mgrwt>
</event>
<event>
 5    1  0.1787806E-056  0.1249997E+03  0.7818608E-02  0.1235070E+00
          3   -1    0    0  501    0  0.00000000000E+00  0.00000000000E+00  0.70610555838E+03  0.70610556451E+03  0.93000000000E-01 0. -1.
         -3   -1    0    0    0  501 -0.00000000000E+00 -0.00000000000E+00 -0.55316798665E+01  0.55324615810E+01  0.93000000000E-01 0.  1.
         25    2    1    2    0    0  0.00000000000E+00  0.00000000000E+00  0.70057387852E+03  0.71163802609E+03  0.12499968366E+03 0.  0.
        -11    1    3    3    0    0 -0.62347857048E+02 -0.35026890033E+01  0.36502994000E+03  0.37033279791E+03  0.51100000000E-03 0.  1.
         11    1    3    3    0    0  0.62347857048E+02  0.35026890033E+01  0.33554393852E+03  0.34130522818E+03  0.51100000000E-03 0. -1.
<mgrwt>
<rscale>  0 0.12499968E+03</rscale>
<asrwt>0</asrwt>
<pdfrwt beam="1">  1        3 0.10863170E+00 0.12499968E+03</pdfrwt>
<pdfrwt beam="2">  1       -3 0.85108817E-03 0.12499968E+03</pdfrwt>
<totfact> 0.58422277E+03</totfact>
</mgrwt>
</event>
<event>
 5    1  0.1787806E-056  0.1249976E+03  0.7818608E-02  0.1235073E+00
          3   -1    0    0  501    0  0.00000000000E+00  0.00000000000E+00  0.29048585257E+03  0.29048586746E+03  0.93000000000E-01 0. -1.
         -3   -1    0    0    0  501 -0.00000000000E+00 -0.00000000000E+00 -0.13446606580E+02  0.13446928181E+02  0.93000000000E-01 0.  1.
         25    2    1    2    0    0  0.00000000000E+00  0.00000000000E+00  0.27703924599E+03  0.30393279564E+03  0.12499760176E+03 0.  0.
        -11    1    3    3    0    0  0.31902410351E+02 -0.52219137584E+02  0.16941969218E+03  0.18013226866E+03  0.51100000000E-03 0.  1.
         11    1    3    3    0    0 -0.31902410351E+02  0.52219137584E+02  0.10761955381E+03  0.12380052697E+03  0.51100000000E-03 0. -1.
<mgrwt>
<rscale>  0 0.12499760E+03</rscale>
<asrwt>0</asrwt>
<pdfrwt beam="1">  1        3 0.44690156E-01 0.12499760E+03</pdfrwt>
<pdfrwt beam="2">  1       -3 0.20687346E-02 0.12499760E+03</pdfrwt>
<totfact> 0.10074908E+04</totfact>
</mgrwt>
</event>
<event>
 5    1  0.1787806E-056  0.1250011E+03  0.7818608E-02  0.1235068E+00
         -3   -1    0    0    0  501 -0.00000000000E+00  0.00000000000E+00  0.12844134924E+03  0.12844138291E+03  0.93000000000E-01 0.  1.
          3   -1    0    0  501    0  0.00000000000E+00 -0.00000000000E+00 -0.30413141384E+02  0.30413283576E+02  0.93000000000E-01 0. -1.
         25    2    1    2    0    0  0.00000000000E+00  0.00000000000E+00  0.98028207859E+02  0.15885466649E+03  0.12500110211E+03 0.  0.
        -11    1    3    3    0    0  0.58925930010E+01 -0.51751365309E+02  0.92915443506E+02  0.10651857165E+03  0.51100000000E-03 0.  1.
         11    1    3    3    0    0 -0.58925930010E+01  0.51751365309E+02  0.51127643531E+01  0.52336094841E+02  0.51100000000E-03 0. -1.
<mgrwt>
<rscale>  0 0.12500110E+03</rscale>
<asrwt>0</asrwt>
<pdfrwt beam="2">  1        3 0.46789584E-02 0.12500110E+03</pdfrwt>
<pdfrwt beam="1">  1       -3 0.19760221E-01 0.12500110E+03</pdfrwt>
<totfact> 0.12881273E+04</totfact>
</mgrwt>
</event>
<event>
 5    1  0.1787806E-056  0.1250005E+03  0.7818608E-02  0.1235069E+00
          3   -1    0    0  501    0  0.00000000000E+00  0.00000000000E+00  0.16937953647E+02  0.16938208959E+02  0.93000000000E-01 0. -1.
         -3   -1    0    0    0  501 -0.00000000000E+00 -0.00000000000E+00 -0.23062089326E+03  0.23062091201E+03  0.93000000000E-01 0.  1.
         25    2    1    2    0    0  0.00000000000E+00  0.00000000000E+00 -0.21368293961E+03  0.24755912097E+03  0.12500047878E+03 0.  0.
        -11    1    3    3    0    0  0.34701688017E+02  0.50381347042E+02 -0.13218776275E+03  0.14565744712E+03  0.51100000000E-03 0.  1.
         11    1    3    3    0    0 -0.34701688017E+02 -0.50381347042E+02 -0.81495176862E+02  0.10190167385E+03  0.51100000000E-03 0. -1.
<mgrwt>
<rscale>  0 0.12500048E+03</rscale>
<asrwt>0</asrwt>
<pdfrwt beam="1">  1        3 0.26058603E-02 0.12500048E+03</pdfrwt>
<pdfrwt beam="2">  1       -3 0.35480156E-01 0.12500048E+03</pdfrwt>
<totfact> 0.11029039E+04</totfact>
</mgrwt>
</event>
<event>
 5    1  0.1787806E-056  0.1249966E+03  0.7818608E-02  0.1235075E+00
         -3   -1    0    0    0  501 -0.00000000000E+00  0.00000000000E+00  0.38293112491E+03  0.38293113620E+03  0.93000000000E-01 0.  1.
          3   -1    0    0  501    0  0.00000000000E+00 -0.00000000000E+00 -0.10200144355E+02  0.10200568311E+02  0.93000000000E-01 0. -1.
         25    2    1    2    0    0  0.00000000000E+00  0.00000000000E+00  0.37273098055E+03  0.39313170451E+03  0.12499661287E+03 0.  0.
        -11    1    3    3    0    0 -0.46851574968E+02  0.37241546034E+02  0.24298108930E+03  0.25024350658E+03  0.51100000000E-03 0.  1.
         11    1    3    3    0    0  0.46851574968E+02 -0.37241546034E+02  0.12974989126E+03  0.14288819794E+03  0.51100000000E-03 0. -1.
<mgrwt>
<rscale>  0 0.12499661E+03</rscale>
<asrwt>0</asrwt>
<pdfrwt beam="2">  1        3 0.15692863E-02 0.12499661E+03</pdfrwt>
<pdfrwt beam="1">  1       -3 0.58912519E-01 0.12499661E+03</pdfrwt>
<totfact> 0.88057491E+03</totfact>
</mgrwt>
</event>
<event>
 5    1  0.1787806E-056  0.1250258E+03  0.7818608E-02  0.1235029E+00
          3   -1    0    0  501    0  0.00000000000E+00  0.00000000000E+00  0.25746234787E+02  0.25746402752E+02  0.93000000000E-01 0. -1.
         -3   -1    0    0    0  501 -0.00000000000E+00 -0.00000000000E+00 -0.15178321506E+03  0.15178324355E+03  0.93000000000E-01 0.  1.
         25    2    1    2    0    0  0.00000000000E+00  0.00000000000E+00 -0.12603698027E+03  0.17752964630E+03  0.12502581701E+03 0.  0.
        -11    1    3    3    0    0 -0.42545125694E+02  0.44925180633E+02 -0.50357545837E+02  0.79776199447E+02  0.51100000000E-03 0. -1.
         11    1    3    3    0    0  0.42545125694E+02 -0.44925180633E+02 -0.75679434433E+02  0.97753446853E+02  0.51100000000E-03 0.  1.
<mgrwt>
<rscale>  0 0.12502582E+03</rscale>
<asrwt>0</asrwt>
<pdfrwt beam="1">  1        3 0.39609744E-02 0.12502582E+03</pdfrwt>
<pdfrwt beam="2">  1       -3 0.23351279E-01 0.12502582E+03</pdfrwt>
<totfact> 0.12441919E+04</totfact>
</mgrwt>
</event>
<event>
 5    1  0.1787806E-056  0.1249999E+03  0.7818608E-02  0.1235070E+00
         -3   -1    0    0    0  501 -0.00000000000E+00  0.00000000000E+00  0.81389142545E+02  0.81389195678E+02  0.93000000000E-01 0. -1.
          3   -1    0    0  501    0  0.00000000000E+00 -0.00000000000E+00 -0.47994507927E+02  0.47994598031E+02  0.93000000000E-01 0.  1.
         25    2    1    2    0    0  0.00000000000E+00  0.00000000000E+00  0.33394634618E+02  0.12938379371E+03  0.12499985781E+03 0.  0.
        -11    1    3    3    0    0 -0.37652983561E+02  0.49723210767E+02  0.20850038345E+02  0.65763735898E+02  0.51100000000E-03 0. -1.
         11    1    3    3    0    0  0.37652983561E+02 -0.49723210767E+02  0.12544596273E+02  0.63620057811E+02  0.51100000000E-03 0.  1.
<mgrwt>
<rscale>  0 0.12499986E+03</rscale>
<asrwt>0</asrwt>
<pdfrwt beam="2">  1        3 0.73837815E-02 0.12499986E+03</pdfrwt>
<pdfrwt beam="1">  1       -3 0.12521417E-01 0.12499986E+03</pdfrwt>
<totfact> 0.13620121E+04</totfact>
</mgrwt>
</event>
<event>
 5    1  0.1787806E-056  0.1249988E+03  0.7818608E-02  0.1235071E+00
          3   -1    0    0  501    0  0.00000000000E+00  0.00000000000E+00  0.35422705810E+03  0.35422707030E+03  0.93000000000E-01 0. -1.
         -3   -1    0    0    0  501 -0.00000000000E+00 -0.00000000000E+00 -0.11027114527E+02  0.11027506690E+02  0.93000000000E-01 0.  1.
         25    2    1    2    0    0  0.00000000000E+00  0.00000000000E+00  0.34319994357E+03  0.36525457699E+03  0.12499881899E+03 0.  0.
        -11    1    3    3    0    0 -0.41751116905E+02 -0.34973806520E+02  0.26118177251E+03  0.26680000224E+03  0.51100000000E-03 0. -1.
         11    1    3    3    0    0  0.41751116905E+02  0.34973806520E+02  0.82018171059E+02  0.98454574752E+02  0.51100000000E-03 0.  1.
<mgrwt>
<rscale>  0 0.12499882E+03</rscale>
<asrwt>0</asrwt>
<pdfrwt beam="1">  1        3 0.54496504E-01 0.12499882E+03</pdfrwt>
<pdfrwt beam="2">  1       -3 0.16965102E-02 0.12499882E+03</pdfrwt>
<totfact> 0.91777321E+03</totfact>
</mgrwt>
</event>
<event>
 5    1  0.1787806E-056  0.1250000E+03  0.7818608E-02  0.1235069E+00
          3   -1    0    0  501    0  0.00000000000E+00  0.00000000000E+00  0.25802008097E+02  0.25802175700E+02  0.93000000000E-01 0. -1.
         -3   -1    0    0    0  501 -0.00000000000E+00 -0.00000000000E+00 -0.15139267846E+03  0.15139270702E+03  0.93000000000E-01 0.  1.
         25    2    1    2    0    0  0.00000000000E+00  0.00000000000E+00 -0.12559067036E+03  0.17719488272E+03  0.12500003993E+03 0.  0.
        -11    1    3    3    0    0 -0.25571093426E+02 -0.29881117721E+02 -0.13165265883E+03  0.13740154509E+03  0.51100000000E-03 0.  1.
         11    1    3    3    0    0  0.25571093426E+02  0.29881117721E+02  0.60619884733E+01  0.39793337631E+02  0.51100000000E-03 0. -1.
<mgrwt>
<rscale>  0 0.12500004E+03</rscale>
<asrwt>0</asrwt>
<pdfrwt beam="1">  1        3 0.39695549E-02 0.12500004E+03</pdfrwt>
<pdfrwt beam="2">  1       -3 0.23291196E-01 0.12500004E+03</pdfrwt>
<totfact> 0.12456652E+04</totfact>
</mgrwt>
</event>
<event>
 5    1  0.1787806E-056  0.1250006E+03  0.7818608E-02  0.1235068E+00
         -3   -1    0    0    0  501 -0.00000000000E+00  0.00000000000E+00  0.11114116545E+02  0.11114505638E+02  0.93000000000E-01 0.  1.
          3   -1    0    0  501    0  0.00000000000E+00 -0.00000000000E+00 -0.35146404726E+03  0.35146405956E+03  0.93000000000E-01 0. -1.
         25    2    1    2    0    0  0.00000000000E+00  0.00000000000E+00 -0.34034993071E+03  0.36257856520E+03  0.12500056242E+03 0.  0.
        -11    1    3    3    0    0 -0.47490846206E+02  0.11125551202E+02 -0.56823351788E+02  0.74886925905E+02  0.51100000000E-03 0.  1.
         11    1    3    3    0    0  0.47490846206E+02 -0.11125551202E+02 -0.28352657893E+03  0.28769163930E+03  0.51100000000E-03 0. -1.
<mgrwt>
<rscale>  0 0.12500056E+03</rscale>
<asrwt>0</asrwt>
<pdfrwt beam="2">  1        3 0.54071414E-01 0.12500056E+03</pdfrwt>
<pdfrwt beam="1">  1       -3 0.17098952E-02 0.12500056E+03</pdfrwt>
<totfact> 0.92138080E+03</totfact>
</mgrwt>
</event>
<event>
 5    1  0.1787806E-056  0.1250103E+03  0.7818608E-02  0.1235053E+00
         -3   -1    0    0    0  501 -0.00000000000E+00  0.00000000000E+00  0.33892905485E+03  0.33892906761E+03  0.93000000000E-01 0. -1.
          3   -1    0    0  501    0  0.00000000000E+00 -0.00000000000E+00 -0.11526981157E+02  0.11527356314E+02  0.93000000000E-01 0.  1.
         25    2    1    2    0    0  0.00000000000E+00  0.00000000000E+00  0.32740207369E+03  0.35045642392E+03  0.12501034842E+03 0.  0.
        -11    1    3    3    0    0 -0.42474806152E+02 -0.45137533982E+02  0.14103132730E+03  0.15404980172E+03  0.51100000000E-03 0. -1.
         11    1    3    3    0    0  0.42474806152E+02  0.45137533982E+02  0.18637074640E+03  0.19640662220E+03  0.51100000000E-03 0.  1.
<mgrwt>
<rscale>  0 0.12501035E+03</rscale>
<asrwt>0</asrwt>
<pdfrwt beam="2">  1        3 0.17734117E-02 0.12501035E+03</pdfrwt>
<pdfrwt beam="1">  1       -3 0.52142958E-01 0.12501035E+03</pdfrwt>
<totfact> 0.93748899E+03</totfact>
</mgrwt>
</event>
<event>
 5    1  0.1787806E-056  0.1249997E+03  0.7818608E-02  0.1235070E+00
         -3   -1    0    0    0  501 -0.00000000000E+00  0.00000000000E+00  0.21766531494E+03  0.21766533481E+03  0.93000000000E-01 0.  1.
          3   -1    0    0  501    0  0.00000000000E+00 -0.00000000000E+00 -0.17945916763E+02  0.17946157735E+02  0.93000000000E-01 0. -1.
         25    2    1    2    0    0  0.00000000000E+00  0.00000000000E+00  0.19971939818E+03  0.23561149254E+03  0.12499974964E+03 0.  0.
        -11    1    3    3    0    0  0.26927308785E+02  0.41530772031E+02  0.17179136411E+03  0.17877963466E+03  0.51100000000E-03 0.  1.
         11    1    3    3    0    0 -0.26927308785E+02 -0.41530772031E+02  0.27928034065E+02  0.56831857887E+02  0.51100000000E-03 0. -1.
<mgrwt>
<rscale>  0 0.12499975E+03</rscale>
<asrwt>0</asrwt>
<pdfrwt beam="2">  1        3 0.27609302E-02 0.12499975E+03</pdfrwt>
<pdfrwt beam="1">  1       -3 0.33486994E-01 0.12499975E+03</pdfrwt>
<totfact> 0.11251695E+04</totfact>
</mgrwt>
</event>
<event>
 5    1  0.1787806E-056  0.1250001E+03  0.7818608E-02  0.1235069E+00
          3   -1    0    0  501    0  0.00000000000E+00  0.00000000000E+00  0.72529860452E+02  0.72529920076E+02  0.93000000000E-01 0. -1.
         -3   -1    0    0    0  501 -0.00000000000E+00 -0.00000000000E+00 -0.53857100882E+02  0.53857181177E+02  0.93000000000E-01 0.  1.
         25    2    1    2    0    0  0.00000000000E+00  0.00000000000E+00  0.18672759570E+02  0.12638710125E+03  0.12500010965E+03 0.  0.
        -11    1    3    3    0    0  0.18297756789E+02  0.54488723813E+02  0.34153129879E+02  0.66860041932E+02  0.51100000000E-03 0. -1.
         11    1    3    3    0    0 -0.18297756789E+02 -0.54488723813E+02 -0.15480370309E+02  0.59527059321E+02  0.51100000000E-03 0.  1.
<mgrwt>
<rscale>  0 0.12500011E+03</rscale>
<asrwt>0</asrwt>
<pdfrwt beam="1">  1        3 0.11158451E-01 0.12500011E+03</pdfrwt>
<pdfrwt beam="2">  1       -3 0.82857186E-02 0.12500011E+03</pdfrwt>
<totfact> 0.13699174E+04</totfact>
</mgrwt>
</event>
<event>
 5    1  0.1787806E-056  0.1250103E+03  0.7818608E-02  0.1235053E+00
         -3   -1    0    0    0  501 -0.00000000000E+00  0.00000000000E+00  0.11236439574E+03  0.11236443423E+03  0.93000000000E-01 0.  1.
          3   -1    0    0  501    0  0.00000000000E+00 -0.00000000000E+00 -0.34769750371E+02  0.34769874747E+02  0.93000000000E-01 0. -1.
         25    2    1    2    0    0  0.00000000000E+00  0.00000000000E+00  0.77594645374E+02  0.14713430898E+03  0.12501030313E+03 0.  0.
        -11    1    3    3    0    0 -0.39562891469E+02  0.37637635724E+02  0.74595241921E+02  0.92446006521E+02  0.51100000000E-03 0.  1.
         11    1    3    3    0    0  0.39562891469E+02 -0.37637635724E+02  0.29994034527E+01  0.54688302457E+02  0.51100000000E-03 0. -1.
<mgrwt>
<rscale>  0 0.12501030E+03</rscale>
<asrwt>0</asrwt>
<pdfrwt beam="2">  1        3 0.53492049E-02 0.12501030E+03</pdfrwt>
<pdfrwt beam="1">  1       -3 0.17286843E-01 0.12501030E+03</pdfrwt>
<totfact> 0.13163359E+04</totfact>
</mgrwt>
</event>
<event>
 5    1  0.1787806E-056  0.1249988E+03  0.7818608E-02  0.1235071E+00
         -3   -1    0    0    0  501 -0.00000000000E+00  0.00000000000E+00  0.14621843859E+03  0.14621846816E+03  0.93000000000E-01 0.  1.
          3   -1    0    0  501    0  0.00000000000E+00 -0.00000000000E+00 -0.26714533990E+02  0.26714695868E+02  0.93000000000E-01 0. -1.
         25    2    1    2    0    0  0.00000000000E+00  0.00000000000E+00  0.11950390460E+03  0.17293316403E+03  0.12499878402E+03 0.  0.
        -11    1    3    3    0    0 -0.35305859983E+02  0.67749345999E+01  0.13048237058E+03  0.13534420018E+03  0.51100000000E-03 0.  1.
         11    1    3    3    0    0  0.35305859983E+02 -0.67749345999E+01 -0.10978465987E+02  0.37588963854E+02  0.51100000000E-03 0. -1.
<mgrwt>
<rscale>  0 0.12499878E+03</rscale>
<asrwt>0</asrwt>
<pdfrwt beam="2">  1        3 0.41099431E-02 0.12499878E+03</pdfrwt>
<pdfrwt beam="1">  1       -3 0.22495159E-01 0.12499878E+03</pdfrwt>
<totfact> 0.12553570E+04</totfact>
</mgrwt>
</event>
<event>
 5    1  0.1881514E-056  0.1250007E+03  0.7818608E-02  0.1235068E+00
          3   -1    0    0  501    0  0.00000000000E+00  0.00000000000E+00  0.38215234231E+02  0.38215347392E+02  0.93000000000E-01 0. -1.
         -3   -1    0    0    0  501 -0.00000000000E+00 -0.00000000000E+00 -0.10221797541E+03  0.10221801772E+03  0.93000000000E-01 0.  1.
         25    2    1    2    0    0  0.00000000000E+00  0.00000000000E+00 -0.64002741183E+02  0.14043336511E+03  0.12500071663E+03 0.  0.
        -11    1    3    3    0    0  0.60648323247E+02  0.13822097958E+01 -0.15105885553E+02  0.62516536973E+02  0.51100000000E-03 0. -1.
         11    1    3    3    0    0 -0.60648323247E+02 -0.13822097958E+01 -0.48896855630E+02  0.77916828139E+02  0.51100000000E-03 0.  1.
<mgrwt>
<rscale>  0 0.12500072E+03</rscale>
<asrwt>0</asrwt>
<pdfrwt beam="1">  1        3 0.58792788E-02 0.12500072E+03</pdfrwt>
<pdfrwt beam="2">  1       -3 0.15725854E-01 0.12500072E+03</pdfrwt>
<totfact> 0.13334224E+04</totfact>
</mgrwt>
</event>
<event>
 5    1  0.1787806E-056  0.1250013E+03  0.7818608E-02  0.1235067E+00
         -3   -1    0    0    0  501 -0.00000000000E+00  0.00000000000E+00  0.29049377921E+03  0.29049379410E+03  0.93000000000E-01 0.  1.
          3   -1    0    0  501    0  0.00000000000E+00 -0.00000000000E+00 -0.13447032356E+02  0.13447353948E+02  0.93000000000E-01 0. -1.
         25    2    1    2    0    0  0.00000000000E+00  0.00000000000E+00  0.27704674686E+03  0.30394114805E+03  0.12500128612E+03 0.  0.
        -11    1    3    3    0    0  0.59634868377E+02  0.18384284250E+02  0.13008954110E+03  0.14428301403E+03  0.51100000000E-03 0.  1.
         11    1    3    3    0    0 -0.59634868377E+02 -0.18384284250E+02  0.14695720575E+03  0.15965813401E+03  0.51100000000E-03 0. -1.
<mgrwt>
<rscale>  0 0.12500129E+03</rscale>
<asrwt>0</asrwt>
<pdfrwt beam="2">  1        3 0.20688001E-02 0.12500129E+03</pdfrwt>
<pdfrwt beam="1">  1       -3 0.44691377E-01 0.12500129E+03</pdfrwt>
<totfact> 0.10070465E+04</totfact>
</mgrwt>
</event>
<event>
 5    1  0.1787806E-056  0.1249914E+03  0.7818608E-02  0.1235083E+00
         -3   -1    0    0    0  501 -0.00000000000E+00  0.00000000000E+00  0.10538340500E+03  0.10538344604E+03  0.93000000000E-01 0.  1.
          3   -1    0    0  501    0  0.00000000000E+00 -0.00000000000E+00 -0.37061826273E+02  0.37061942956E+02  0.93000000000E-01 0. -1.
         25    2    1    2    0    0  0.00000000000E+00  0.00000000000E+00  0.68321578729E+02  0.14244538899E+03  0.12499140261E+03 0.  0.
        -11    1    3    3    0    0  0.60985455188E+02 -0.25794386186E+01  0.18877970299E+02  0.63892542687E+02  0.51100000000E-03 0. -1.
         11    1    3    3    0    0 -0.60985455188E+02  0.25794386186E+01  0.49443608430E+02  0.78552846307E+02  0.51100000000E-03 0.  1.
<mgrwt>
<rscale>  0 0.12499140E+03</rscale>
<asrwt>0</asrwt>
<pdfrwt beam="2">  1        3 0.57018315E-02 0.12499140E+03</pdfrwt>
<pdfrwt beam="1">  1       -3 0.16212844E-01 0.12499140E+03</pdfrwt>
<totfact> 0.13286118E+04</totfact>
</mgrwt>
</event>
<event>
 5    1  0.1787806E-056  0.1250001E+03  0.7818608E-02  0.1235069E+00
         -3   -1    0    0    0  501 -0.00000000000E+00  0.00000000000E+00  0.56105256622E+02  0.56105333700E+02  0.93000000000E-01 0.  1.
          3   -1    0    0  501    0  0.00000000000E+00 -0.00000000000E+00 -0.69623516946E+02  0.69623579059E+02  0.93000000000E-01 0. -1.
         25    2    1    2    0    0  0.00000000000E+00  0.00000000000E+00 -0.13518260324E+02  0.12572891276E+03  0.12500006457E+03 0.  0.
        -11    1    3    3    0    0 -0.13065574203E+02 -0.21895755800E+02  0.50636016398E+02  0.56693381521E+02  0.51100000000E-03 0.  1.
         11    1    3    3    0    0  0.13065574203E+02  0.21895755800E+02 -0.64154276722E+02  0.69035531238E+02  0.51100000000E-03 0. -1.
<mgrwt>
<rscale>  0 0.12500006E+03</rscale>
<asrwt>0</asrwt>
<pdfrwt beam="2">  1        3 0.10711321E-01 0.12500006E+03</pdfrwt>
<pdfrwt beam="1">  1       -3 0.86315886E-02 0.12500006E+03</pdfrwt>
<totfact> 0.13716850E+04</totfact>
</mgrwt>
</event>
<event>
 5    1  0.1787806E-056  0.1249999E+03  0.7818608E-02  0.1235069E+00
         -3   -1    0    0    0  501 -0.00000000000E+00  0.00000000000E+00  0.11157256994E+03  0.11157260870E+03  0.93000000000E-01 0.  1.
          3   -1    0    0  501    0  0.00000000000E+00 -0.00000000000E+00 -0.35010677241E+02  0.35010800760E+02  0.93000000000E-01 0. -1.
         25    2    1    2    0    0  0.00000000000E+00  0.00000000000E+00  0.76561892702E+02  0.14658340946E+03  0.12499989006E+03 0.  0.
        -11    1    3    3    0    0 -0.39421269154E+02  0.47225075045E+02  0.25328457077E+02  0.66526497825E+02  0.51100000000E-03 0. -1.
         11    1    3    3    0    0  0.39421269154E+02 -0.47225075045E+02  0.51233435625E+02  0.80056911638E+02  0.51100000000E-03 0.  1.
<mgrwt>
<rscale>  0 0.12499989E+03</rscale>
<asrwt>0</asrwt>
<pdfrwt beam="2">  1        3 0.53862706E-02 0.12499989E+03</pdfrwt>
<pdfrwt beam="1">  1       -3 0.17165023E-01 0.12499989E+03</pdfrwt>
<totfact> 0.13180104E+04</totfact>
</mgrwt>
</event>
<event>
 5    1  0.1790611E-056  0.1250298E+03  0.7818608E-02  0.1235023E+00
         -3   -1    0    0    0  501 -0.00000000000E+00  0.00000000000E+00  0.79533693960E+02  0.79533748333E+02  0.93000000000E-01 0.  1.
          3   -1    0    0  501    0  0.00000000000E+00 -0.00000000000E+00 -0.49137740504E+02  0.49137828512E+02  0.93000000000E-01 0. -1.
         25    2    1    2    0    0  0.00000000000E+00  0.00000000000E+00  0.30395953455E+02  0.12867157684E+03  0.12502983924E+03 0.  0.
        -11    1    3    3    0    0 -0.62196881260E+02 -0.34345898264E+01  0.20630629524E+02  0.65619138371E+02  0.51100000000E-03 0.  1.
         11    1    3    3    0    0  0.62196881260E+02  0.34345898264E+01  0.97653239312E+01  0.63052438474E+02  0.51100000000E-03 0. -1.
<mgrwt>
<rscale>  0 0.12502984E+03</rscale>
<asrwt>0</asrwt>
<pdfrwt beam="2">  1        3 0.75596634E-02 0.12502984E+03</pdfrwt>
<pdfrwt beam="1">  1       -3 0.12235964E-01 0.12502984E+03</pdfrwt>
<totfact> 0.13629613E+04</totfact>
</mgrwt>
</event>
<event>
 5    1  0.1787806E-056  0.1250060E+03  0.7818608E-02  0.1235060E+00
         -3   -1    0    0    0  501 -0.00000000000E+00  0.00000000000E+00  0.34169661596E+02  0.34169788155E+02  0.93000000000E-01 0.  1.
          3   -1    0    0  501    0  0.00000000000E+00 -0.00000000000E+00 -0.11432992099E+03  0.11432995882E+03  0.93000000000E-01 0. -1.
         25    2    1    2    0    0  0.00000000000E+00  0.00000000000E+00 -0.80160259394E+02  0.14849974697E+03  0.12500603051E+03 0.  0.
        -11    1    3    3    0    0  0.54919159966E+02 -0.10198406982E+02 -0.67646884165E+01  0.56266176749E+02  0.51100000000E-03 0.  1.
         11    1    3    3    0    0 -0.54919159966E+02  0.10198406982E+02 -0.73395570978E+02  0.92233570221E+02  0.51100000000E-03 0. -1.
<mgrwt>
<rscale>  0 0.12500603E+03</rscale>
<asrwt>0</asrwt>
<pdfrwt beam="2">  1        3 0.17589231E-01 0.12500603E+03</pdfrwt>
<pdfrwt beam="1">  1       -3 0.52568837E-02 0.12500603E+03</pdfrwt>
<totfact> 0.13130755E+04</totfact>
</mgrwt>
</event>
<event>
 5    1  0.1787806E-056  0.1250002E+03  0.7818608E-02  0.1235069E+00
         -3   -1    0    0    0  501 -0.00000000000E+00  0.00000000000E+00  0.19810355628E+03  0.19810357811E+03  0.93000000000E-01 0.  1.
          3   -1    0    0  501    0  0.00000000000E+00 -0.00000000000E+00 -0.19718157961E+02  0.19718377275E+02  0.93000000000E-01 0. -1.
         25    2    1    2    0    0  0.00000000000E+00  0.00000000000E+00  0.17838539832E+03  0.21782195539E+03  0.12500021566E+03 0.  0.
        -11    1    3    3    0    0  0.39072744978E+02  0.48351849839E+02  0.10044312048E+03  0.11812451581E+03  0.51100000000E-03 0.  1.
         11    1    3    3    0    0 -0.39072744978E+02 -0.48351849839E+02  0.77942277840E+02  0.99697439576E+02  0.51100000000E-03 0. -1.
<mgrwt>
<rscale>  0 0.12500022E+03</rscale>
<asrwt>0</asrwt>
<pdfrwt beam="2">  1        3 0.30335814E-02 0.12500022E+03</pdfrwt>
<pdfrwt beam="1">  1       -3 0.30477488E-01 0.12500022E+03</pdfrwt>
<totfact> 0.11597058E+04</totfact>
</mgrwt>
</event>
<event>
 5    1  0.1787806E-056  0.1250031E+03  0.7818608E-02  0.1235064E+00
         -3   -1    0    0    0  501 -0.00000000000E+00  0.00000000000E+00  0.12298735472E+03  0.12298738989E+03  0.93000000000E-01 0.  1.
          3   -1    0    0  501    0  0.00000000000E+00 -0.00000000000E+00 -0.31762844436E+02  0.31762980586E+02  0.93000000000E-01 0. -1.
         25    2    1    2    0    0  0.00000000000E+00  0.00000000000E+00  0.91224510287E+02  0.15475037047E+03  0.12500306350E+03 0.  0.
        -11    1    3    3    0    0 -0.25921663115E+02  0.43590686455E+02  0.90834039603E+02  0.10403318372E+03  0.51100000000E-03 0.  1.
         11    1    3    3    0    0  0.25921663115E+02 -0.43590686455E+02  0.39047068350E+00  0.50717186750E+02  0.51100000000E-03 0. -1.
<mgrwt>
<rscale>  0 0.12500306E+03</rscale>
<asrwt>0</asrwt>
<pdfrwt beam="2">  1        3 0.48866047E-02 0.12500306E+03</pdfrwt>
<pdfrwt beam="1">  1       -3 0.18921144E-01 0.12500306E+03</pdfrwt>
<totfact> 0.12979332E+04</totfact>
</mgrwt>
</event>
<event>
 5    1  0.1787806E-056  0.1249982E+03  0.7818608E-02  0.1235072E+00
          3   -1    0    0  501    0  0.00000000000E+00  0.00000000000E+00  0.14322952716E+02  0.14323254641E+02  0.93000000000E-01 0. -1.
         -3   -1    0    0    0  501 -0.00000000000E+00 -0.00000000000E+00 -0.27271538873E+03  0.27271540458E+03  0.93000000000E-01 0.  1.
         25    2    1    2    0    0  0.00000000000E+00  0.00000000000E+00 -0.25839243601E+03  0.28703865923E+03  0.12499816360E+03 0.  0.
        -11    1    3    3    0    0 -0.27246454080E+02 -0.55703873173E+02 -0.14710835278E+03  0.15964384800E+03  0.51100000000E-03 0.  1.
         11    1    3    3    0    0  0.27246454080E+02  0.55703873173E+02 -0.11128408324E+03  0.12739481123E+03  0.51100000000E-03 0. -1.
<mgrwt>
<rscale>  0 0.12499816E+03</rscale>
<asrwt>0</asrwt>
<pdfrwt beam="1">  1        3 0.22035558E-02 0.12499816E+03</pdfrwt>
<pdfrwt beam="2">  1       -3 0.41956234E-01 0.12499816E+03</pdfrwt>
<totfact> 0.10343835E+04</totfact>
</mgrwt>
</event>
<event>
 5    1  0.1787806E-056  0.1250010E+03  0.7818608E-02  0.1235068E+00
          3   -1    0    0  501    0  0.00000000000E+00  0.00000000000E+00  0.15190225285E+03  0.15190228132E+03  0.93000000000E-01 0. -1.
         -3   -1    0    0    0  501 -0.00000000000E+00 -0.00000000000E+00 -0.25715837841E+02  0.25716006005E+02  0.93000000000E-01 0.  1.
         25    2    1    2    0    0  0.00000000000E+00  0.00000000000E+00  0.12618641501E+03  0.17761828733E+03  0.12500097863E+03 0.  0.
        -11    1    3    3    0    0  0.50040206158E+02  0.37017066837E+02  0.71134457176E+02  0.94521936436E+02  0.51100000000E-03 0. -1.
         11    1    3    3    0    0 -0.50040206158E+02 -0.37017066837E+02  0.55051957835E+02  0.83096350891E+02  0.51100000000E-03 0.  1.
<mgrwt>
<rscale>  0 0.12500098E+03</rscale>
<asrwt>0</asrwt>
<pdfrwt beam="1">  1        3 0.23369592E-01 0.12500098E+03</pdfrwt>
<pdfrwt beam="2">  1       -3 0.39562980E-02 0.12500098E+03</pdfrwt>
<totfact> 0.12447137E+04</totfact>
</mgrwt>
</event>
<event>
 5    1  0.1787806E-056  0.1249999E+03  0.7818608E-02  0.1235069E+00
         -3   -1    0    0    0  501 -0.00000000000E+00  0.00000000000E+00  0.29194713728E+03  0.29194715209E+03  0.93000000000E-01 0.  1.
          3   -1    0    0  501    0  0.00000000000E+00 -0.00000000000E+00 -0.13379794880E+02  0.13380118087E+02  0.93000000000E-01 0. -1.
         25    2    1    2    0    0  0.00000000000E+00  0.00000000000E+00  0.27856734240E+03  0.30532727018E+03  0.12499991065E+03 0.  0.
        -11    1    3    3    0    0  0.24226818894E+02 -0.56209125805E+02  0.10840216973E+03  0.12448869418E+03  0.51100000000E-03 0. -1.
         11    1    3    3    0    0 -0.24226818894E+02  0.56209125805E+02  0.17016517267E+03  0.18083857600E+03  0.51100000000E-03 0.  1.
<mgrwt>
<rscale>  0 0.12499991E+03</rscale>
<asrwt>0</asrwt>
<pdfrwt beam="2">  1        3 0.20584559E-02 0.12499991E+03</pdfrwt>
<pdfrwt beam="1">  1       -3 0.44914972E-01 0.12499991E+03</pdfrwt>
<totfact> 0.10048932E+04</totfact>
</mgrwt>
</event>
<event>
 5    1  0.1787806E-056  0.1249988E+03  0.7818608E-02  0.1235071E+00
         -3   -1    0    0    0  501 -0.00000000000E+00  0.00000000000E+00  0.47061694779E+02  0.47061786669E+02  0.93000000000E-01 0.  1.
          3   -1    0    0  501    0  0.00000000000E+00 -0.00000000000E+00 -0.83000910179E+02  0.83000962281E+02  0.93000000000E-01 0. -1.
         25    2    1    2    0    0  0.00000000000E+00  0.00000000000E+00 -0.35939215400E+02  0.13006274895E+03  0.12499876584E+03 0.  0.
        -11    1    3    3    0    0  0.46194776007E+02 -0.42093362303E+02 -0.18597705392E+02  0.65204931765E+02  0.51100000000E-03 0.  1.
         11    1    3    3    0    0 -0.46194776007E+02  0.42093362303E+02 -0.17341510008E+02  0.64857817185E+02  0.51100000000E-03 0. -1.
<mgrwt>
<rscale>  0 0.12499877E+03</rscale>
<asrwt>0</asrwt>
<pdfrwt beam="2">  1        3 0.12769382E-01 0.12499877E+03</pdfrwt>
<pdfrwt beam="1">  1       -3 0.72402718E-02 0.12499877E+03</pdfrwt>
<totfact> 0.13602503E+04</totfact>
</mgrwt>
</event>
<event>
 5    1  0.1787806E-056  0.1249998E+03  0.7818608E-02  0.1235070E+00
         -3   -1    0    0    0  501 -0.00000000000E+00  0.00000000000E+00  0.11924180483E+02  0.11924543144E+02  0.93000000000E-01 0.  1.
          3   -1    0    0  501    0  0.00000000000E+00 -0.00000000000E+00 -0.32758447870E+03  0.32758449190E+03  0.93000000000E-01 0. -1.
         25    2    1    2    0    0  0.00000000000E+00  0.00000000000E+00 -0.31566029821E+03  0.33950903504E+03  0.12499984403E+03 0.  0.
        -11    1    3    3    0    0  0.54552818629E+02  0.13259774744E+02 -0.83229057598E+02  0.10039376313E+03  0.51100000000E-03 0.  1.
         11    1    3    3    0    0 -0.54552818629E+02 -0.13259774744E+02 -0.23243124062E+03  0.23911527191E+03  0.51100000000E-03 0. -1.
<mgrwt>
<rscale>  0 0.12499984E+03</rscale>
<asrwt>0</asrwt>
<pdfrwt beam="2">  1        3 0.50397634E-01 0.12499984E+03</pdfrwt>
<pdfrwt beam="1">  1       -3 0.18345185E-02 0.12499984E+03</pdfrwt>
<totfact> 0.95378331E+03</totfact>
</mgrwt>
</event>
<event>
 5    1  0.1787806E-056  0.1250109E+03  0.7818608E-02  0.1235052E+00
          3   -1    0    0  501    0  0.00000000000E+00  0.00000000000E+00  0.92716267512E+02  0.92716314154E+02  0.93000000000E-01 0. -1.
         -3   -1    0    0    0  501 -0.00000000000E+00 -0.00000000000E+00 -0.42138497768E+02  0.42138600394E+02  0.93000000000E-01 0.  1.
         25    2    1    2    0    0  0.00000000000E+00  0.00000000000E+00  0.50577769744E+02  0.13485491455E+03  0.12501094826E+03 0.  0.
        -11    1    3    3    0    0  0.52497152087E+02 -0.30575181297E+02  0.94294423527E+01  0.61479322312E+02  0.51100000000E-03 0.  1.
         11    1    3    3    0    0 -0.52497152087E+02  0.30575181297E+02  0.41148327391E+02  0.73375592236E+02  0.51100000000E-03 0. -1.
<mgrwt>
<rscale>  0 0.12501095E+03</rscale>
<asrwt>0</asrwt>
<pdfrwt beam="1">  1        3 0.14264053E-01 0.12501095E+03</pdfrwt>
<pdfrwt beam="2">  1       -3 0.64828573E-02 0.12501095E+03</pdfrwt>
<totfact> 0.13473806E+04</totfact>
</mgrwt>
</event>
<event>
 5    1  0.1787806E-056  0.1249961E+03  0.7818608E-02  0.1235075E+00
          3   -1    0    0  501    0  0.00000000000E+00  0.00000000000E+00  0.21821986146E+03  0.21821988128E+03  0.93000000000E-01 0.  1.
         -3   -1    0    0    0  501 -0.00000000000E+00 -0.00000000000E+00 -0.17899264384E+02  0.17899505984E+02  0.93000000000E-01 0. -1.
         25    2    1    2    0    0  0.00000000000E+00  0.00000000000E+00  0.20032059708E+03  0.23611938726E+03  0.12499609365E+03 0.  0.
        -11    1    3    3    0    0 -0.99496762704E+01  0.58951877727E+02  0.13456348895E+03  0.14724691000E+03  0.51100000000E-03 0. -1.
         11    1    3    3    0    0  0.99496762704E+01 -0.58951877727E+02  0.65757108125E+02  0.88872477262E+02  0.51100000000E-03 0.  1.
<mgrwt>
<rscale>  0 0.12499609E+03</rscale>
<asrwt>0</asrwt>
<pdfrwt beam="1">  1        3 0.33572306E-01 0.12499609E+03</pdfrwt>
<pdfrwt beam="2">  1       -3 0.27537531E-02 0.12499609E+03</pdfrwt>
<totfact> 0.11244607E+04</totfact>
</mgrwt>
</event>
<event>
 5    1  0.1787806E-056  0.1250001E+03  0.7818608E-02  0.1235069E+00
          3   -1    0    0  501    0  0.00000000000E+00  0.00000000000E+00  0.25551255529E+02  0.25551424777E+02  0.93000000000E-01 0. -1.
         -3   -1    0    0    0  501 -0.00000000000E+00 -0.00000000000E+00 -0.15287862845E+03  0.15287865673E+03  0.93000000000E-01 0.  1.
         25    2    1    2    0    0  0.00000000000E+00  0.00000000000E+00 -0.12732737292E+03  0.17843008151E+03  0.12500013637E+03 0.  0.
        -11    1    3    3    0    0  0.31731665455E+02  0.52721587738E+02 -0.79287078564E+02  0.10036386418E+03  0.51100000000E-03 0.  1.
         11    1    3    3    0    0 -0.31731665455E+02 -0.52721587738E+02 -0.48040294353E+02  0.78066217328E+02  0.51100000000E-03 0. -1.
<mgrwt>
<rscale>  0 0.12500014E+03</rscale>
<asrwt>0</asrwt>
<pdfrwt beam="1">  1        3 0.39309777E-02 0.12500014E+03</pdfrwt>
<pdfrwt beam="2">  1       -3 0.23519804E-01 0.12500014E+03</pdfrwt>
<totfact> 0.12428885E+04</totfact>
</mgrwt>
</event>
<event>
 5    1  0.1836470E-056  0.1250005E+03  0.7818608E-02  0.1235068E+00
          3   -1    0    0  501    0  0.00000000000E+00  0.00000000000E+00  0.86409038309E+02  0.86409088355E+02  0.93000000000E-01 0. -1.
         -3   -1    0    0    0  501 -0.00000000000E+00 -0.00000000000E+00 -0.45206750041E+02  0.45206845701E+02  0.93000000000E-01 0.  1.
         25    2    1    2    0    0  0.00000000000E+00  0.00000000000E+00  0.41202288268E+02  0.13161593406E+03  0.12500050216E+03 0.  0.
        -11    1    3    3    0    0  0.34350139947E+02 -0.46412731277E+02  0.45787975864E+02  0.73692689413E+02  0.51100000000E-03 0. -1.
         11    1    3    3    0    0 -0.34350139947E+02  0.46412731277E+02 -0.45856875958E+01  0.57923244643E+02  0.51100000000E-03 0.  1.
<mgrwt>
<rscale>  0 0.12500050E+03</rscale>
<asrwt>0</asrwt>
<pdfrwt beam="1">  1        3 0.13293709E-01 0.12500050E+03</pdfrwt>
<pdfrwt beam="2">  1       -3 0.69548959E-02 0.12500050E+03</pdfrwt>
<totfact> 0.13561238E+04</totfact>
</mgrwt>
</event>
